<LesHouchesEvents version="3.0">
<header>
<!--
#*********************************************************************
#                                                                    *
#                        MadGraph5_aMC@NLO                           *
#                                                                    *
#                           Going Beyond                             *
#                                                                    *
#                   http://madgraph.hep.uiuc.edu                     *
#                   http://madgraph.phys.ucl.ac.be                   *
#                   http://amcatnlo.cern.ch                          *
#                                                                    *
#                     The MadGraph5_aMC@NLO team                     *
#                                                                    *
#....................................................................*
#                                                                    *
# This file contains all the information necessary to reproduce      *
# the events generated:                                              *
#                                                                    *
# 1. software version                                                *
# 2. proc_card          : code generation info including model       *
# 3. param_card         : model primary parameters in the LH format  *
# 4. run_card           : running parameters (collider and cuts)     *
# 5. pythia_card        : present only if pythia has been run        *
# 6. pgs_card           : present only if pgs has been run           *
# 7. delphes_cards      : present only if delphes has been run       *
#                                                                    *
#                                                                    *
#*********************************************************************
-->
<MGVersion>
#5.2.2.3
</MGVersion>
<MG5ProcCard>
#************************************************************
#*                     MadGraph5_aMC@NLO                    *
#*                                                          *
#*                *                       *                 *
#*                  *        * *        *                   *
#*                    * * * * 5 * * * *                     *
#*                  *        * *        *                   *
#*                *                       *                 *
#*                                                          *
#*                                                          *
#*         VERSION 2.2.3                 2015-02-10         *
#*                                                          *
#*    The MadGraph5_aMC@NLO Development Team - Find us at   *
#*    https://server06.fynu.ucl.ac.be/projects/madgraph     *
#*                                                          *
#************************************************************
#*                                                          *
#*               Command File for MadGraph5_aMC@NLO         *
#*                                                          *
#*     run as ./bin/mg5_aMC  filename                       *
#*                                                          *
#************************************************************
set group_subprocesses Auto
set ignore_six_quark_processes False
set loop_optimized_output True
set gauge unitary
set complex_mass_scheme False
import model sm
define p = g u c d s u~ c~ d~ s~
define j = g u c d s u~ c~ d~ s~
define l+ = e+ mu+
define l- = e- mu-
define vl = ve vm vt
define vl~ = ve~ vm~ vt~
import model Zprime_UFO
generate p p > zph, zph > j j
add process p p > zph, zph > b b~
output Dijet_signal
</MG5ProcCard>
<MGProcCard>
#*********************************************************************
#                        MadGraph/MadEvent                           *
#                   http://madgraph.hep.uiuc.edu                     *
#                                                                    *
#                          proc_card.dat                             *
#*********************************************************************
#                                                                    *
#            This Files is generated by MADGRAPH 5                   *
#                                                                    *
# WARNING: This Files is generated for MADEVENT (compatibility issue)*
#          This files is NOT a valid MG4 proc_card.dat               *
#          Running this in MG4 will NEVER reproduce the result of MG5*
#                                                                    *
#*********************************************************************
#*********************************************************************
# Process(es) requested : mg2 input                                  *
#*********************************************************************
# Begin PROCESS # This is TAG. Do not modify this line
p p > zph , zph > j j           #Process
# Be carefull the coupling are here in MG5 convention
          
end_coup           # End the couplings input

done               # this tells MG there are no more procs
# End PROCESS  # This is TAG. Do not modify this line
#*********************************************************************
# Model information                                                  *
#*********************************************************************
# Begin MODEL  # This is TAG. Do not modify this line
Zprime_UFO
# End   MODEL  # This is TAG. Do not modify this line
#*********************************************************************
# Start multiparticle definitions                                    *
#*********************************************************************
# Begin MULTIPARTICLES # This is TAG. Do not modify this line

# End  MULTIPARTICLES # This is TAG. Do not modify this line
</MGProcCard>
<MGRunCard>
#*********************************************************************
#                       MadGraph5_aMC@NLO                            *
#                                                                    *
#                     run_card.dat MadEvent                          *
#                                                                    *
#  This file is used to set the parameters of the run.               *
#                                                                    *
#  Some notation/conventions:                                        *
#                                                                    *
#   Lines starting with a '# ' are info or comments                  *
#                                                                    *
#   mind the format:   value    = variable     ! comment             *
#*********************************************************************
#
#*******************                                                 
# Running parameters
#*******************                                                 
#                                                                    
#*********************************************************************
# Tag name for the run (one word)                                    *
#*********************************************************************
  tag_1     = run_tag ! name of the run 
#*********************************************************************
# Run to generate the grid pack                                      *
#*********************************************************************
  .false.     = gridpack  !True = setting up the grid pack
#*********************************************************************
# Number of events and rnd seed                                      *
# Warning: Do not generate more than 1M events in a single run       *
# If you want to run Pythia, avoid more than 50k events in a run.    *
#*********************************************************************
  2000 = nevents ! Number of unweighted events requested 
 930 = iseed   ! rnd seed (0=assigned automatically=default))
#*********************************************************************
# Collider type and energy                                           *
# lpp: 0=No PDF, 1=proton, -1=antiproton, 2=photon from proton,      *
#                                         3=photon from electron     *
#*********************************************************************
        1     = lpp1    ! beam 1 type 
        1     = lpp2    ! beam 2 type
     4000     = ebeam1  ! beam 1 total energy in GeV
     4000     = ebeam2  ! beam 2 total energy in GeV
#*********************************************************************
# Beam polarization from -100 (left-handed) to 100 (right-handed)    *
#*********************************************************************
        0     = polbeam1 ! beam polarization for beam 1
        0     = polbeam2 ! beam polarization for beam 2
#*********************************************************************
# PDF CHOICE: this automatically fixes also alpha_s and its evol.    *
#*********************************************************************
 'nn23lo1'    = pdlabel     ! PDF set                                     
 230000    = lhaid     ! if pdlabel=lhapdf, this is the lhapdf number
#*********************************************************************
# Renormalization and factorization scales                           *
#*********************************************************************
 F        = fixed_ren_scale  ! if .true. use fixed ren scale
 F        = fixed_fac_scale  ! if .true. use fixed fac scale
 91.1880  = scale            ! fixed ren scale
 91.1880  = dsqrt_q2fact1    ! fixed fact scale for pdf1
 91.1880  = dsqrt_q2fact2    ! fixed fact scale for pdf2
 1        = scalefact        ! scale factor for event-by-event scales
#*********************************************************************
# Matching - Warning! ickkw > 1 is still beta
#*********************************************************************
 0        = ickkw            ! 0 no matching, 1 MLM, 2 CKKW matching
 1        = highestmult      ! for ickkw=2, highest mult group
 1        = ktscheme         ! for ickkw=1, 1 Durham kT, 2 Pythia pTE
 1        = alpsfact         ! scale factor for QCD emission vx
 F        = chcluster        ! cluster only according to channel diag
 T        = pdfwgt           ! for ickkw=1, perform pdf reweighting
 5        = asrwgtflavor     ! highest quark flavor for a_s reweight
 T        = clusinfo         ! include clustering tag in output
 3.0      = lhe_version       ! Change the way clustering information pass to shower.        
#*********************************************************************
#**********************************************************
#
#**********************************************************
# Automatic ptj and mjj cuts if xqcut > 0
# (turn off for VBF and single top processes)
#**********************************************************
   T  = auto_ptj_mjj  ! Automatic setting of ptj and mjj
#**********************************************************
#                                                                    
#**********************************
# BW cutoff (M+/-bwcutoff*Gamma)
#**********************************
  15  = bwcutoff      ! (M+/-bwcutoff*Gamma)
#**********************************************************
# Apply pt/E/eta/dr/mij cuts on decay products or not
# (note that etmiss/ptll/ptheavy/ht/sorted cuts always apply)
#**********************************************************
   T  = cut_decays    ! Cut decay products 
#*************************************************************
# Number of helicities to sum per event (0 = all helicities)
# 0 gives more stable result, but longer run time (needed for
# long decay chains e.g.).
# Use >=2 if most helicities contribute, e.g. pure QCD.
#*************************************************************
   0  = nhel          ! Number of helicities used per event
#*******************                                                 
# Standard Cuts
#*******************                                                 
#                                                                    
#*********************************************************************
# Minimum and maximum pt's (for max, -1 means no cut)                *
#*********************************************************************
 20  = ptj       ! minimum pt for the jets 
  0  = ptb       ! minimum pt for the b 
 10  = pta       ! minimum pt for the photons 
 10  = ptl       ! minimum pt for the charged leptons 
  0  = misset    ! minimum missing Et (sum of neutrino's momenta)
  0  = ptheavy   ! minimum pt for one heavy final state
 1.0 = ptonium   ! minimum pt for the quarkonium states
 -1  = ptjmax    ! maximum pt for the jets
 -1  = ptbmax    ! maximum pt for the b
 -1  = ptamax    ! maximum pt for the photons
 -1  = ptlmax    ! maximum pt for the charged leptons
 -1  = missetmax ! maximum missing Et (sum of neutrino's momenta)
#*********************************************************************
# Minimum and maximum E's (in the center of mass frame)              *
#*********************************************************************
  0  = ej     ! minimum E for the jets 
  0  = eb     ! minimum E for the b 
  0  = ea     ! minimum E for the photons 
  0  = el     ! minimum E for the charged leptons 
 -1   = ejmax ! maximum E for the jets
 -1   = ebmax ! maximum E for the b
 -1   = eamax ! maximum E for the photons
 -1   = elmax ! maximum E for the charged leptons
#*********************************************************************
# Maximum and minimum absolute rapidity (for max, -1 means no cut)   *
#*********************************************************************
   5  = etaj    ! max rap for the jets 
  -1  = etab    ! max rap for the b
 2.5  = etaa    ! max rap for the photons 
 2.5  = etal    ! max rap for the charged leptons 
 0.6  = etaonium ! max rap for the quarkonium states
   0  = etajmin ! min rap for the jets
   0  = etabmin ! min rap for the b
   0  = etaamin ! min rap for the photons
   0  = etalmin ! main rap for the charged leptons
#*********************************************************************
# Minimum and maximum DeltaR distance                                *
#*********************************************************************
 0.4 = drjj    ! min distance between jets 
 0   = drbb    ! min distance between b's 
 0.4 = drll    ! min distance between leptons 
 0.4 = draa    ! min distance between gammas 
 0   = drbj    ! min distance between b and jet 
 0.4 = draj    ! min distance between gamma and jet 
 0.4 = drjl    ! min distance between jet and lepton 
 0   = drab    ! min distance between gamma and b 
 0   = drbl    ! min distance between b and lepton 
 0.4 = dral    ! min distance between gamma and lepton 
 -1  = drjjmax ! max distance between jets
 -1  = drbbmax ! max distance between b's
 -1  = drllmax ! max distance between leptons
 -1  = draamax ! max distance between gammas
 -1  = drbjmax ! max distance between b and jet
 -1  = drajmax ! max distance between gamma and jet
 -1  = drjlmax ! max distance between jet and lepton
 -1  = drabmax ! max distance between gamma and b
 -1  = drblmax ! max distance between b and lepton
 -1  = dralmax ! maxdistance between gamma and lepton
#*********************************************************************
# Minimum and maximum invariant mass for pairs                       *
# WARNING: for four lepton final state mmll cut require to have      *
#          different lepton masses for each flavor!                  *           
#*********************************************************************
 0   = mmjj    ! min invariant mass of a jet pair 
 0   = mmbb    ! min invariant mass of a b pair 
 0   = mmaa    ! min invariant mass of gamma gamma pair
 0   = mmll    ! min invariant mass of l+l- (same flavour) lepton pair
 -1  = mmjjmax ! max invariant mass of a jet pair
 -1  = mmbbmax ! max invariant mass of a b pair
 -1  = mmaamax ! max invariant mass of gamma gamma pair
 -1  = mmllmax ! max invariant mass of l+l- (same flavour) lepton pair
#*********************************************************************
# Minimum and maximum invariant mass for all letpons                 *
#*********************************************************************
 0   = mmnl    ! min invariant mass for all letpons (l+- and vl) 
 -1  = mmnlmax ! max invariant mass for all letpons (l+- and vl) 
#*********************************************************************
# Minimum and maximum pt for 4-momenta sum of leptons                *
#*********************************************************************
 0   = ptllmin  ! Minimum pt for 4-momenta sum of leptons(l and vl)
 -1  = ptllmax  ! Maximum pt for 4-momenta sum of leptons(l and vl)
#*********************************************************************
# Inclusive cuts                                                     *
#*********************************************************************
 0  = xptj ! minimum pt for at least one jet  
 0  = xptb ! minimum pt for at least one b 
 0  = xpta ! minimum pt for at least one photon 
 0  = xptl ! minimum pt for at least one charged lepton 
#*********************************************************************
# Control the pt's of the jets sorted by pt                          *
#*********************************************************************
 0   = ptj1min ! minimum pt for the leading jet in pt
 0   = ptj2min ! minimum pt for the second jet in pt
 0   = ptj3min ! minimum pt for the third jet in pt
 0   = ptj4min ! minimum pt for the fourth jet in pt
 -1  = ptj1max ! maximum pt for the leading jet in pt 
 -1  = ptj2max ! maximum pt for the second jet in pt
 -1  = ptj3max ! maximum pt for the third jet in pt
 -1  = ptj4max ! maximum pt for the fourth jet in pt
 0   = cutuse  ! reject event if fails any (0) / all (1) jet pt cuts
#*********************************************************************
# Control the pt's of leptons sorted by pt                           *
#*********************************************************************
 0   = ptl1min ! minimum pt for the leading lepton in pt
 0   = ptl2min ! minimum pt for the second lepton in pt
 0   = ptl3min ! minimum pt for the third lepton in pt
 0   = ptl4min ! minimum pt for the fourth lepton in pt
 -1  = ptl1max ! maximum pt for the leading lepton in pt 
 -1  = ptl2max ! maximum pt for the second lepton in pt
 -1  = ptl3max ! maximum pt for the third lepton in pt
 -1  = ptl4max ! maximum pt for the fourth lepton in pt
#*********************************************************************
# Control the Ht(k)=Sum of k leading jets                            *
#*********************************************************************
 0   = htjmin ! minimum jet HT=Sum(jet pt)
 -1  = htjmax ! maximum jet HT=Sum(jet pt)
 0   = ihtmin  !inclusive Ht for all partons (including b)
 -1  = ihtmax  !inclusive Ht for all partons (including b)
 0   = ht2min ! minimum Ht for the two leading jets
 0   = ht3min ! minimum Ht for the three leading jets
 0   = ht4min ! minimum Ht for the four leading jets
 -1  = ht2max ! maximum Ht for the two leading jets
 -1  = ht3max ! maximum Ht for the three leading jets
 -1  = ht4max ! maximum Ht for the four leading jets
#***********************************************************************
# Photon-isolation cuts, according to hep-ph/9801442                   *
# When ptgmin=0, all the other parameters are ignored                  *
# When ptgmin>0, pta and draj are not going to be used                 *
#***********************************************************************
   0 = ptgmin ! Min photon transverse momentum
 0.4 = R0gamma ! Radius of isolation code
 1.0 = xn ! n parameter of eq.(3.4) in hep-ph/9801442
 1.0 = epsgamma ! epsilon_gamma parameter of eq.(3.4) in hep-ph/9801442
 .true. = isoEM ! isolate photons from EM energy (photons and leptons)
#*********************************************************************
# WBF cuts                                                           *
#*********************************************************************
 0   = xetamin ! minimum rapidity for two jets in the WBF case  
 0   = deltaeta ! minimum rapidity for two jets in the WBF case 
#*********************************************************************
# KT DURHAM CUT                                                      *
#*********************************************************************
 -1    =  ktdurham        
 0.4  =  dparameter 
#*********************************************************************
# maximal pdg code for quark to be considered as a light jet         *
# (otherwise b cuts are applied)                                     *
#*********************************************************************
 4 = maxjetflavor    ! Maximum jet pdg code
#*********************************************************************
# Jet measure cuts                                                   *
#*********************************************************************
 0   = xqcut   ! minimum kt jet measure between partons
#*********************************************************************
#
#*********************************************************************
# Store info for systematics studies                                 *
# WARNING: If use_syst is T, matched Pythia output is                *
#          meaningful ONLY if plotted taking matchscale              *
#          reweighting into account!                                 *
#*********************************************************************
   F  = use_syst      ! Enable systematics studies
#
#**************************************
# Parameter of the systematics study
#  will be used by SysCalc (if installed)
#**************************************                                  
#
0.5 1 2 = sys_scalefact  # factorization/renormalization scale factor
0.5 1 2 = sys_alpsfact  # \alpha_s emission scale factors
30 50 = sys_matchscale # variation of merging scale
# PDF sets and number of members (0 or none for all members).
CT10nlo.LHgrid = sys_pdf # matching scales
# MSTW2008nlo68cl.LHgrid 1  = sys_pdf
</MGRunCard>
<slha>
######################################################################
## PARAM_CARD AUTOMATICALY GENERATED BY MG5 FOLLOWING UFO MODEL   ####
######################################################################
##                                                                  ##
##  Width set on Auto will be computed following the information    ##
##        present in the decay.py files of the model.               ##
##        See  arXiv:1402.1178 for more details.                    ##
##                                                                  ##
######################################################################

###################################
## INFORMATION FOR CKMBLOCK
###################################
Block ckmblock 
    1 2.277360e-01 # cabi 

###################################
## INFORMATION FOR FRBLOCK
###################################
Block frblock 
    1 4.000000e-01 # gz 

###################################
## INFORMATION FOR MASS
###################################
Block mass 
    1 5.040000e-03 # MD 
    2 2.550000e-03 # MU 
    3 1.010000e-01 # MS 
    4 1.270000e+00 # MC 
    5 4.700000e+00 # MB 
    6 1.720000e+02 # MT 
   11 5.110000e-04 # Me 
   13 1.056600e-01 # MM 
   15 1.777000e+00 # MTA 
   23 9.118760e+01 # MZ 
   25 1.200000e+02 # MH 
  10030 1.700000e+03 # MZph 
  10031 3.000000e+02 # MZpl 
## Dependent parameters, given by model restrictions.
## Those values should be edited following the 
## analytical expression. MG5 ignores those values 
## but they are important for interfacing the output of MG5
## to external program such as Pythia.
  12 0.000000 # ve : 0.0 
  14 0.000000 # vm : 0.0 
  16 0.000000 # vt : 0.0 
  21 0.000000 # g : 0.0 
  22 0.000000 # a : 0.0 
  24 79.824360 # w+ : cmath.sqrt(MZ__exp__2/2. + cmath.sqrt(MZ__exp__4/4. - (aEW*cmath.pi*MZ__exp__2)/(Gf*sqrt__2))) 

###################################
## INFORMATION FOR SMINPUTS
###################################
Block sminputs 
    1 1.279000e+02 # aEWM1 
    2 1.166370e-05 # Gf 
    3 1.184000e-01 # aS 

###################################
## INFORMATION FOR YUKAWA
###################################
Block yukawa 
    1 5.040000e-03 # ymdo 
    2 2.550000e-03 # ymup 
    3 1.010000e-01 # yms 
    4 1.270000e+00 # ymc 
    5 4.700000e+00 # ymb 
    6 1.720000e+02 # ymt 
   11 5.110000e-04 # yme 
   13 1.056600e-01 # ymm 
   15 1.777000e+00 # ymtau 

###################################
## INFORMATION FOR DECAY
###################################
DECAY   6 1.508336e+00 # WT 
DECAY  23 2.495200e+00 # WZ 
DECAY  24 2.085000e+00 # WW 
DECAY  25 5.753088e-03 # WH 
## Dependent parameters, given by model restrictions.
## Those values should be edited following the 
## analytical expression. MG5 ignores those values 
## but they are important for interfacing the output of MG5
## to external program such as Pythia.
DECAY  1 0.000000 # d : 0.0 
DECAY  2 0.000000 # u : 0.0 
DECAY  3 0.000000 # s : 0.0 
DECAY  4 0.000000 # c : 0.0 
DECAY  5 0.000000 # b : 0.0 
DECAY  11 0.000000 # e- : 0.0 
DECAY  12 0.000000 # ve : 0.0 
DECAY  13 0.000000 # mu- : 0.0 
DECAY  14 0.000000 # vm : 0.0 
DECAY  15 0.000000 # ta- : 0.0 
DECAY  16 0.000000 # vt : 0.0 
DECAY  21 0.000000 # g : 0.0 
DECAY  22 0.000000 # a : 0.0 
DECAY  10030 0.308725 # zph : (gz__exp__2*MZph*(5 + cmath.sqrt(1 - (4*MT__exp__2)/MZph__exp__2)))/(144.*cmath.pi) 
DECAY  10031 0.132629 # zpl : (5*gz__exp__2*MZpl)/(144.*cmath.pi) 
#===========================================================
# QUANTUM NUMBERS OF NEW STATE(S) (NON SM PDG CODE)
#===========================================================

Block QNUMBERS 10030  # zph 
        1 0  # 3 times electric charge
        2 3  # number of spin states (2S+1)
        3 1  # colour rep (1: singlet, 3: triplet, 8: octet)
        4 0  # Particle/Antiparticle distinction (0=own anti)
Block QNUMBERS 10031  # zpl 
        1 0  # 3 times electric charge
        2 3  # number of spin states (2S+1)
        3 1  # colour rep (1: singlet, 3: triplet, 8: octet)
        4 0  # Particle/Antiparticle distinction (0=own anti)
</slha>
## END BANNER##
<MGGenerationInfo>
#  Number of Events        :         3940
#  Integrated weight (pb)  :  0.16786E-01
#  Max wgt                 :  0.58598E-05
#  Average wgt             :  0.42604E-05
</MGGenerationInfo>
</header>
<init>
     2212     2212  0.40000000000E+04  0.40000000000E+04 0 0  247000  247000 2   1
  0.16806374260E-01  0.36792603438E-04  0.58598220000E-05   0
</init>
<event>
 5   0  0.5821584E-05  0.1700019E+04  0.7818609E-02  0.8761354E-01
        2   -1    0    0  501    0  0.00000000000E+00  0.00000000000E+00  0.80893780809E+03  0.80893780809E+03  0.25500000920E-02 0.  1.
       -2   -1    0    0    0  501  0.00000000000E+00  0.00000000000E+00 -0.89316609131E+03  0.89316609131E+03  0.25500000920E-02 0. -1.
    10030    2    1    2    0    0  0.00000000000E+00  0.00000000000E+00 -0.84228283221E+02  0.17021038994E+04  0.17000186119E+04 0.  0.
        1    1    3    3  502    0  0.29188223661E+02  0.75750251910E+03 -0.42710342260E+03  0.87010307003E+03  0.50400001928E-02 0. -1.
       -1    1    3    3    0  502 -0.29188223661E+02 -0.75750251910E+03  0.34287513938E+03  0.83200082937E+03  0.50400001928E-02 0.  1.
</event>
<event>
 5   0  0.5821584E-05  0.1696293E+04  0.7818609E-02  0.8763481E-01
        2   -1    0    0  501    0  0.00000000000E+00  0.00000000000E+00  0.21139826131E+04  0.21139826131E+04  0.25500000920E-02 0.  1.
       -2   -1    0    0    0  501  0.00000000000E+00  0.00000000000E+00 -0.34028307216E+03  0.34028307217E+03  0.25500000920E-02 0. -1.
    10030    2    1    2    0    0  0.00000000000E+00  0.00000000000E+00  0.17736995409E+04  0.24542656853E+04  0.16962930149E+04 0.  0.
        1    1    3    3  502    0 -0.80547854317E+03  0.44902144583E+02  0.50806309768E+03  0.95338344717E+03  0.50400001928E-02 0. -1.
       -1    1    3    3    0  502  0.80547854317E+03 -0.44902144583E+02  0.12656364433E+04  0.15008822381E+04  0.50400001928E-02 0.  1.
</event>
<event>
 5   0  0.5671132E-05  0.1693105E+04  0.7818609E-02  0.8765307E-01
       -2   -1    0    0    0  501  0.00000000000E+00  0.00000000000E+00  0.65707565308E+03  0.65707565308E+03  0.25500000920E-02 0.  1.
        2   -1    0    0  501    0  0.00000000000E+00  0.00000000000E+00 -0.10906674686E+04  0.10906674686E+04  0.25500000920E-02 0. -1.
    10030    2    1    2    0    0  0.00000000000E+00  0.00000000000E+00 -0.43359181555E+03  0.17477431217E+04  0.16931048866E+04 0.  0.
        3    1    3    3  502    0  0.15487781943E+03  0.97876596565E+02  0.63636473861E+03  0.66221375541E+03  0.10100000352E+00 0.  1.
       -3    1    3    3    0  502 -0.15487781943E+03 -0.97876596565E+02 -0.10699565542E+04  0.10855293663E+04  0.10100000352E+00 0. -1.
</event>
<event>
 5   0  0.5821584E-05  0.1705223E+04  0.7818609E-02  0.8758391E-01
       -2   -1    0    0    0  501  0.00000000000E+00  0.00000000000E+00  0.67014419924E+03  0.67014419924E+03  0.25500000920E-02 0. -1.
        2   -1    0    0  501    0  0.00000000000E+00  0.00000000000E+00 -0.10847617045E+04  0.10847617045E+04  0.25500000920E-02 0.  1.
    10030    2    1    2    0    0  0.00000000000E+00  0.00000000000E+00 -0.41461750528E+03  0.17549059038E+04  0.17052234620E+04 0.  0.
        1    1    3    3  502    0  0.34532454419E+03 -0.48825700258E+03  0.41809984741E+03  0.72969269136E+03  0.50400001928E-02 0. -1.
       -1    1    3    3    0  502 -0.34532454419E+03  0.48825700258E+03 -0.83271735269E+03  0.10252132124E+04  0.50400001928E-02 0.  1.
</event>
<event>
 5   0  0.5671132E-05  0.1695475E+04  0.7818609E-02  0.8763950E-01
        2   -1    0    0  501    0  0.00000000000E+00  0.00000000000E+00  0.87556971219E+03  0.87556971219E+03  0.25500000920E-02 0.  1.
       -2   -1    0    0    0  501  0.00000000000E+00  0.00000000000E+00 -0.82078959182E+03  0.82078959183E+03  0.25500000920E-02 0. -1.
    10030    2    1    2    0    0  0.00000000000E+00  0.00000000000E+00  0.54780120362E+02  0.16963593040E+04  0.16954745727E+04 0.  0.
        3    1    3    3  502    0  0.31891769544E+03 -0.75667537717E+03 -0.18341486215E+03  0.84137217968E+03  0.10100000352E+00 0. -1.
       -3    1    3    3    0  502 -0.31891769544E+03  0.75667537717E+03  0.23819498251E+03  0.85498712434E+03  0.10100000352E+00 0.  1.
</event>
<event>
 5   0  0.2911632E-05  0.1698219E+04  0.7818609E-02  0.8762381E-01
       -1   -1    0    0    0  501  0.00000000000E+00  0.00000000000E+00  0.80847559168E+03  0.80847559170E+03  0.50400001928E-02 0. -1.
        1   -1    0    0  501    0  0.00000000000E+00  0.00000000000E+00 -0.89178603903E+03  0.89178603905E+03  0.50400001928E-02 0.  1.
    10030    2    1    2    0    0  0.00000000000E+00  0.00000000000E+00 -0.83310447347E+02  0.17002616307E+04  0.16982193564E+04 0.  0.
        1    1    3    3  502    0 -0.51917738568E+03 -0.32241886393E+03 -0.63184539921E+03  0.87904931042E+03  0.50400001928E-02 0.  1.
       -1    1    3    3    0  502  0.51917738568E+03  0.32241886393E+03  0.54853495187E+03  0.82121232033E+03  0.50400001928E-02 0. -1.
</event>
<event>
 5   0  0.2993769E-05  0.1698537E+04  0.7818609E-02  0.8762199E-01
        1   -1    0    0  501    0  0.00000000000E+00  0.00000000000E+00  0.14325824802E+04  0.14325824802E+04  0.50400001928E-02 0. -1.
       -1   -1    0    0    0  501  0.00000000000E+00  0.00000000000E+00 -0.50346651666E+03  0.50346651669E+03  0.50400001928E-02 0.  1.
    10030    2    1    2    0    0  0.00000000000E+00  0.00000000000E+00  0.92911596351E+03  0.19360489969E+04  0.16985373839E+04 0.  0.
        3    1    3    3  502    0  0.19100538877E+03  0.16672582055E+03 -0.45932343601E+03  0.52465091903E+03  0.10100000352E+00 0.  1.
       -3    1    3    3    0  502 -0.19100538877E+03 -0.16672582055E+03  0.13884393995E+04  0.14113980778E+04  0.10100000352E+00 0. -1.
</event>
<event>
 5   0  0.5821584E-05  0.1700006E+04  0.7818609E-02  0.8761361E-01
        2   -1    0    0  501    0  0.00000000000E+00  0.00000000000E+00  0.55622406792E+03  0.55622406792E+03  0.25500000920E-02 0. -1.
       -2   -1    0    0    0  501  0.00000000000E+00  0.00000000000E+00 -0.12989461254E+04  0.12989461254E+04  0.25500000920E-02 0.  1.
    10030    2    1    2    0    0  0.00000000000E+00  0.00000000000E+00 -0.74272205747E+03  0.18551701933E+04  0.17000059975E+04 0.  0.
        1    1    3    3  502    0 -0.65499651614E+03 -0.21550708444E+03  0.17103704390E+03  0.71043466273E+03  0.50400001928E-02 0. -1.
       -1    1    3    3    0  502  0.65499651614E+03  0.21550708444E+03 -0.91375910137E+03  0.11447355306E+04  0.50400001928E-02 0.  1.
</event>
<event>
 5   0  0.2967704E-05  0.1701630E+04  0.7818609E-02  0.8760435E-01
       -1   -1    0    0    0  501  0.00000000000E+00  0.00000000000E+00  0.57540634360E+03  0.57540634362E+03  0.50400001928E-02 0.  1.
        1   -1    0    0  501    0  0.00000000000E+00  0.00000000000E+00 -0.12580430426E+04  0.12580430426E+04  0.50400001928E-02 0. -1.
    10030    2    1    2    0    0  0.00000000000E+00  0.00000000000E+00 -0.68263669898E+03  0.18334493862E+04  0.17016297450E+04 0.  0.
        2    1    3    3  502    0 -0.29414176344E+03 -0.79248689203E+03 -0.23723765285E+03  0.87797298078E+03  0.25500000920E-02 0.  1.
       -2    1    3    3    0  502  0.29414176344E+03  0.79248689203E+03 -0.44539904613E+03  0.95547640544E+03  0.25500000920E-02 0. -1.
</event>
<event>
 5   0  0.5821584E-05  0.1702122E+04  0.7818609E-02  0.8760155E-01
       -2   -1    0    0    0  501  0.00000000000E+00  0.00000000000E+00  0.99456410148E+03  0.99456410148E+03  0.25500000920E-02 0.  1.
        2   -1    0    0  501    0  0.00000000000E+00  0.00000000000E+00 -0.72826363037E+03  0.72826363038E+03  0.25500000920E-02 0. -1.
    10030    2    1    2    0    0  0.00000000000E+00  0.00000000000E+00  0.26630047111E+03  0.17228277319E+04  0.17021220440E+04 0.  0.
        1    1    3    3  502    0  0.27492788583E+02  0.67138161247E+02 -0.72512805795E+03  0.72874830125E+03  0.50400001928E-02 0. -1.
       -1    1    3    3    0  502 -0.27492788583E+02 -0.67138161247E+02  0.99142852905E+03  0.99407943061E+03  0.50400001928E-02 0.  1.
</event>
<event>
 5   0  0.2098250E-05  0.1700392E+04  0.7818609E-02  0.8761141E-01
       -4   -1    0    0    0  501  0.00000000000E+00  0.00000000000E+00  0.64251143567E+03  0.64251269082E+03  0.12699999809E+01 0.  1.
        4   -1    0    0  501    0  0.00000000000E+00  0.00000000000E+00 -0.11250090221E+04  0.11250097389E+04  0.12699999809E+01 0. -1.
    10030    2    1    2    0    0  0.00000000000E+00  0.00000000000E+00 -0.48249758640E+03  0.17675224297E+04  0.17003916075E+04 0.  0.
        3    1    3    3  502    0 -0.83033493268E+01 -0.53608399732E+03 -0.92713042018E+03  0.10709929150E+04  0.10100000352E+00 0. -1.
       -3    1    3    3    0  502  0.83033493268E+01  0.53608399732E+03  0.44463283378E+03  0.69652951471E+03  0.10100000352E+00 0.  1.
</event>
<event>
 5   0  0.5859822E-05  0.1702940E+04  0.7818609E-02  0.8759690E-01
       -2   -1    0    0    0  501  0.00000000000E+00  0.00000000000E+00  0.10613329673E+04  0.10613329673E+04  0.25500000920E-02 0. -1.
        2   -1    0    0  501    0  0.00000000000E+00  0.00000000000E+00 -0.68310408332E+03  0.68310408332E+03  0.25500000920E-02 0.  1.
    10030    2    1    2    0    0  0.00000000000E+00  0.00000000000E+00  0.37822888398E+03  0.17444370506E+04  0.17029396745E+04 0.  0.
        5    1    3    3  502    0  0.42567070221E+03  0.16968135178E+03  0.92423075976E+03  0.10316064633E+04  0.46999998093E+01 0. -1.
       -5    1    3    3    0  502 -0.42567070221E+03 -0.16968135178E+03 -0.54600187578E+03  0.71283058732E+03  0.46999998093E+01 0.  1.
</event>
<event>
 5   0  0.2987859E-05  0.1699515E+04  0.7818609E-02  0.8761641E-01
        1   -1    0    0  501    0  0.00000000000E+00  0.00000000000E+00  0.13462633640E+04  0.13462633640E+04  0.50400001928E-02 0. -1.
       -1   -1    0    0    0  501  0.00000000000E+00  0.00000000000E+00 -0.53636476212E+03  0.53636476214E+03  0.50400001928E-02 0.  1.
    10030    2    1    2    0    0  0.00000000000E+00  0.00000000000E+00  0.80989860189E+03  0.18826281262E+04  0.16995154945E+04 0.  0.
        5    1    3    3  502    0  0.33795251349E+03 -0.15177631578E+03 -0.44218028470E+03  0.57688252320E+03  0.46999998093E+01 0.  1.
       -5    1    3    3    0  502 -0.33795251349E+03  0.15177631578E+03  0.12520788866E+04  0.13057456030E+04  0.46999998093E+01 0. -1.
</event>
<event>
 5   0  0.2911632E-05  0.1699935E+04  0.7818609E-02  0.8761402E-01
        1   -1    0    0  501    0  0.00000000000E+00  0.00000000000E+00  0.11127425547E+04  0.11127425547E+04  0.50400001928E-02 0.  1.
       -1   -1    0    0    0  501  0.00000000000E+00  0.00000000000E+00 -0.64924672541E+03  0.64924672543E+03  0.50400001928E-02 0. -1.
    10030    2    1    2    0    0  0.00000000000E+00  0.00000000000E+00  0.46349582927E+03  0.17619892801E+04  0.16999346574E+04 0.  0.
        1    1    3    3  502    0  0.78536543251E+02  0.81473988893E+03  0.46918516208E+03  0.94345312103E+03  0.50400001928E-02 0.  1.
       -1    1    3    3    0  502 -0.78536543251E+02 -0.81473988893E+03 -0.56893328049E+01  0.81853615911E+03  0.50400001928E-02 0. -1.
</event>
<event>
 5   0  0.2993769E-05  0.1702440E+04  0.7818609E-02  0.8759974E-01
        1   -1    0    0  501    0  0.00000000000E+00  0.00000000000E+00  0.18639593581E+04  0.18639593581E+04  0.50400001928E-02 0.  1.
       -1   -1    0    0    0  501  0.00000000000E+00  0.00000000000E+00 -0.38872930409E+03  0.38872930412E+03  0.50400001928E-02 0. -1.
    10030    2    1    2    0    0  0.00000000000E+00  0.00000000000E+00  0.14752300540E+04  0.22526886622E+04  0.17024401595E+04 0.  0.
        3    1    3    3  502    0 -0.29608041074E+03  0.65064539351E+03  0.13491229115E+04  0.15268057107E+04  0.10100000352E+00 0.  1.
       -3    1    3    3    0  502  0.29608041074E+03 -0.65064539351E+03  0.12610714252E+03  0.72588295153E+03  0.10100000352E+00 0. -1.
</event>
<event>
 5   0  0.2993769E-05  0.1703083E+04  0.7818609E-02  0.8759608E-01
        1   -1    0    0  501    0  0.00000000000E+00  0.00000000000E+00  0.21808491001E+04  0.21808491001E+04  0.50400001928E-02 0. -1.
       -1   -1    0    0    0  501  0.00000000000E+00  0.00000000000E+00 -0.33249551763E+03  0.33249551766E+03  0.50400001928E-02 0.  1.
    10030    2    1    2    0    0  0.00000000000E+00  0.00000000000E+00  0.18483535825E+04  0.25133446178E+04  0.17030825587E+04 0.  0.
        3    1    3    3  502    0  0.75002248274E+03 -0.10190889888E+03  0.14999195776E+04  0.16800827056E+04  0.10100000352E+00 0. -1.
       -3    1    3    3    0  502 -0.75002248274E+03  0.10190889888E+03  0.34843400489E+03  0.83326191215E+03  0.10100000352E+00 0.  1.
</event>
<event>
 5   0  0.5821584E-05  0.1702560E+04  0.7818609E-02  0.8759906E-01
       -2   -1    0    0    0  501  0.00000000000E+00  0.00000000000E+00  0.93124904030E+03  0.93124904031E+03  0.25500000920E-02 0. -1.
        2   -1    0    0  501    0  0.00000000000E+00  0.00000000000E+00 -0.77817801912E+03  0.77817801912E+03  0.25500000920E-02 0.  1.
    10030    2    1    2    0    0  0.00000000000E+00  0.00000000000E+00  0.15307102119E+03  0.17094270594E+04  0.17025598768E+04 0.  0.
        1    1    3    3  502    0 -0.21543177707E+03  0.75692261811E+03 -0.24932683977E+03  0.82553411404E+03  0.50400001928E-02 0. -1.
       -1    1    3    3    0  502  0.21543177707E+03 -0.75692261811E+03  0.40239786096E+03  0.88389294539E+03  0.50400001928E-02 0.  1.
</event>
<event>
 5   0  0.2966258E-05  0.1699836E+04  0.7818609E-02  0.8761458E-01
        1   -1    0    0  501    0  0.00000000000E+00  0.00000000000E+00  0.98850932206E+03  0.98850932207E+03  0.50400001928E-02 0. -1.
       -1   -1    0    0    0  501  0.00000000000E+00  0.00000000000E+00 -0.73075721715E+03  0.73075721717E+03  0.50400001928E-02 0.  1.
    10030    2    1    2    0    0  0.00000000000E+00  0.00000000000E+00  0.25775210491E+03  0.17192665392E+04  0.16998356642E+04 0.  0.
        4    1    3    3  502    0 -0.67437928455E+03  0.38223342449E+03 -0.22363181976E+03  0.80678535804E+03  0.12699999809E+01 0.  1.
       -4    1    3    3    0  502  0.67437928455E+03 -0.38223342449E+03  0.48138392467E+03  0.91248118121E+03  0.12699999809E+01 0. -1.
</event>
<event>
 5   0  0.2911632E-05  0.1699229E+04  0.7818609E-02  0.8761804E-01
        1   -1    0    0  501    0  0.00000000000E+00  0.00000000000E+00  0.45732993678E+03  0.45732993680E+03  0.50400001928E-02 0. -1.
       -1   -1    0    0    0  501  0.00000000000E+00  0.00000000000E+00 -0.15783897360E+04  0.15783897360E+04  0.50400001928E-02 0.  1.
    10030    2    1    2    0    0  0.00000000000E+00  0.00000000000E+00 -0.11210597992E+04  0.20357196728E+04  0.16992290937E+04 0.  0.
        1    1    3    3  502    0  0.33646808330E+03 -0.64691979240E+03 -0.38145626213E+02  0.73018564606E+03  0.50400001928E-02 0. -1.
       -1    1    3    3    0  502 -0.33646808330E+03  0.64691979240E+03 -0.10829141730E+04  0.13055340268E+04  0.50400001928E-02 0.  1.
</event>
<event>
 5   0  0.5652631E-05  0.1703293E+04  0.7818609E-02  0.8759489E-01
        2   -1    0    0  501    0  0.00000000000E+00  0.00000000000E+00  0.41685585546E+03  0.41685585547E+03  0.25500000920E-02 0. -1.
       -2   -1    0    0    0  501  0.00000000000E+00  0.00000000000E+00 -0.17399336208E+04  0.17399336208E+04  0.25500000920E-02 0.  1.
    10030    2    1    2    0    0  0.00000000000E+00  0.00000000000E+00 -0.13230777654E+04  0.21567894763E+04  0.17032927147E+04 0.  0.
        2    1    3    3  502    0 -0.38946673594E+02 -0.37006275476E+03  0.30847436816E+03  0.48334224071E+03  0.25500000920E-02 0. -1.
       -2    1    3    3    0  502  0.38946673594E+02  0.37006275476E+03 -0.16315521335E+04  0.16734472356E+04  0.25500000920E-02 0.  1.
</event>
<event>
 5   0  0.2993769E-05  0.1696747E+04  0.7818609E-02  0.8763222E-01
       -1   -1    0    0    0  501  0.00000000000E+00  0.00000000000E+00  0.19687172829E+04  0.19687172829E+04  0.50400001928E-02 0.  1.
        1   -1    0    0  501    0  0.00000000000E+00  0.00000000000E+00 -0.36558698542E+03  0.36558698546E+03  0.50400001928E-02 0. -1.
    10030    2    1    2    0    0  0.00000000000E+00  0.00000000000E+00  0.16031302975E+04  0.23343042684E+04  0.16967467892E+04 0.  0.
        3    1    3    3  502    0  0.16326269110E+03  0.78042113065E+03  0.12003568694E+04  0.14410303506E+04  0.10100000352E+00 0.  1.
       -3    1    3    3    0  502 -0.16326269110E+03 -0.78042113065E+03  0.40277342812E+03  0.89327391771E+03  0.10100000352E+00 0. -1.
</event>
<event>
 5   0  0.5671132E-05  0.1699359E+04  0.7818609E-02  0.8761730E-01
       -2   -1    0    0    0  501  0.00000000000E+00  0.00000000000E+00  0.10054080045E+04  0.10054080045E+04  0.25500000920E-02 0.  1.
        2   -1    0    0  501    0  0.00000000000E+00  0.00000000000E+00 -0.71807167730E+03  0.71807167730E+03  0.25500000920E-02 0. -1.
    10030    2    1    2    0    0  0.00000000000E+00  0.00000000000E+00  0.28733632719E+03  0.17234796818E+04  0.16993587169E+04 0.  0.
        3    1    3    3  502    0  0.46503665801E+03 -0.55209827367E+02  0.86270806342E+03  0.98161725292E+03  0.10100000352E+00 0.  1.
       -3    1    3    3    0  502 -0.46503665801E+03  0.55209827367E+02 -0.57537173623E+03  0.74186242888E+03  0.10100000352E+00 0. -1.
</event>
<event>
 5   0  0.2911632E-05  0.1699153E+04  0.7818609E-02  0.8761847E-01
       -1   -1    0    0    0  501  0.00000000000E+00  0.00000000000E+00  0.12161105809E+04  0.12161105809E+04  0.50400001928E-02 0.  1.
        1   -1    0    0  501    0  0.00000000000E+00  0.00000000000E+00 -0.59351557354E+03  0.59351557357E+03  0.50400001928E-02 0. -1.
    10030    2    1    2    0    0  0.00000000000E+00  0.00000000000E+00  0.62259500732E+03  0.18096261544E+04  0.16991533997E+04 0.  0.
        1    1    3    3  502    0 -0.30265218985E+03 -0.78880042162E+03  0.21618184953E+03  0.87208889757E+03  0.50400001928E-02 0. -1.
       -1    1    3    3    0  502  0.30265218985E+03  0.78880042162E+03  0.40641315779E+03  0.93753725687E+03  0.50400001928E-02 0.  1.
</event>
<event>
 5   0  0.5652631E-05  0.1700963E+04  0.7818609E-02  0.8760815E-01
       -2   -1    0    0    0  501  0.00000000000E+00  0.00000000000E+00  0.37927213678E+03  0.37927213679E+03  0.25500000920E-02 0. -1.
        2   -1    0    0  501    0  0.00000000000E+00  0.00000000000E+00 -0.19071228700E+04  0.19071228700E+04  0.25500000920E-02 0.  1.
    10030    2    1    2    0    0  0.00000000000E+00  0.00000000000E+00 -0.15278507333E+04  0.22863950068E+04  0.17009627462E+04 0.  0.
        2    1    3    3  502    0 -0.68313869989E+03  0.43069116845E+03 -0.40539226036E+03  0.90361288760E+03  0.25500000920E-02 0. -1.
       -2    1    3    3    0  502  0.68313869989E+03 -0.43069116845E+03 -0.11224584729E+04  0.13827821192E+04  0.25500000920E-02 0.  1.
</event>
<event>
 5   0  0.2967704E-05  0.1716459E+04  0.7818609E-02  0.8752033E-01
        1   -1    0    0  501    0  0.00000000000E+00  0.00000000000E+00  0.17362988964E+04  0.17362988965E+04  0.50400001928E-02 0.  1.
       -1   -1    0    0    0  501  0.00000000000E+00  0.00000000000E+00 -0.42421120558E+03  0.42421120561E+03  0.50400001928E-02 0. -1.
    10030    2    1    2    0    0  0.00000000000E+00  0.00000000000E+00  0.13120876909E+04  0.21605101021E+04  0.17164585030E+04 0.  0.
        2    1    3    3  502    0  0.27658268171E+03 -0.19216649172E+03  0.16496467412E+04  0.16836746453E+04  0.25500000920E-02 0.  1.
       -2    1    3    3    0  502 -0.27658268171E+03  0.19216649172E+03 -0.33755905034E+03  0.47683545678E+03  0.25500000920E-02 0. -1.
</event>
<event>
 5   0  0.5671132E-05  0.1703602E+04  0.7818609E-02  0.8759313E-01
       -2   -1    0    0    0  501  0.00000000000E+00  0.00000000000E+00  0.65476248294E+03  0.65476248295E+03  0.25500000920E-02 0. -1.
        2   -1    0    0  501    0  0.00000000000E+00  0.00000000000E+00 -0.11081345801E+04  0.11081345801E+04  0.25500000920E-02 0.  1.
    10030    2    1    2    0    0  0.00000000000E+00  0.00000000000E+00 -0.45337209717E+03  0.17628970631E+04  0.17036020065E+04 0.  0.
        3    1    3    3  502    0  0.53127822004E+03  0.63534766202E+03 -0.20653816870E+02  0.82846230395E+03  0.10100000352E+00 0. -1.
       -3    1    3    3    0  502 -0.53127822004E+03 -0.63534766202E+03 -0.43271828030E+03  0.93443475911E+03  0.10100000352E+00 0.  1.
</event>
<event>
 5   0  0.5859822E-05  0.1697731E+04  0.7818609E-02  0.8762659E-01
       -2   -1    0    0    0  501  0.00000000000E+00  0.00000000000E+00  0.11081870620E+04  0.11081870620E+04  0.25500000920E-02 0. -1.
        2   -1    0    0  501    0  0.00000000000E+00  0.00000000000E+00 -0.65022673919E+03  0.65022673919E+03  0.25500000920E-02 0.  1.
    10030    2    1    2    0    0  0.00000000000E+00  0.00000000000E+00  0.45796032283E+03  0.17584138012E+04  0.16977312623E+04 0.  0.
        5    1    3    3  502    0 -0.11001893381E+03  0.62101215870E+03  0.81743415144E+03  0.10324635340E+04  0.46999998093E+01 0. -1.
       -5    1    3    3    0  502  0.11001893381E+03 -0.62101215870E+03 -0.35947382861E+03  0.72595026724E+03  0.46999998093E+01 0.  1.
</event>
<event>
 5   0  0.2967704E-05  0.1715811E+04  0.7818609E-02  0.8752398E-01
       -1   -1    0    0    0  501  0.00000000000E+00  0.00000000000E+00  0.44837640916E+03  0.44837640919E+03  0.50400001928E-02 0. -1.
        1   -1    0    0  501    0  0.00000000000E+00  0.00000000000E+00 -0.16414826722E+04  0.16414826722E+04  0.50400001928E-02 0.  1.
    10030    2    1    2    0    0  0.00000000000E+00  0.00000000000E+00 -0.11931062631E+04  0.20898590814E+04  0.17158113023E+04 0.  0.
        2    1    3    3  502    0  0.47227068401E+03 -0.28914927895E+03 -0.13946504340E+04  0.15005654726E+04  0.25500000920E-02 0.  1.
       -2    1    3    3    0  502 -0.47227068401E+03  0.28914927895E+03  0.20154417097E+03  0.58929360878E+03  0.25500000920E-02 0. -1.
</event>
<event>
 5   0  0.5671132E-05  0.1697852E+04  0.7818609E-02  0.8762590E-01
       -2   -1    0    0    0  501  0.00000000000E+00  0.00000000000E+00  0.98857916359E+03  0.98857916359E+03  0.25500000920E-02 0.  1.
        2   -1    0    0  501    0  0.00000000000E+00  0.00000000000E+00 -0.72900101371E+03  0.72900101371E+03  0.25500000920E-02 0. -1.
    10030    2    1    2    0    0  0.00000000000E+00  0.00000000000E+00  0.25957814988E+03  0.17175801773E+04  0.16978518338E+04 0.  0.
        3    1    3    3  502    0  0.50624182493E+03  0.35356715400E+03  0.71912559068E+03  0.94785660469E+03  0.10100000352E+00 0.  1.
       -3    1    3    3    0  502 -0.50624182493E+03 -0.35356715400E+03 -0.45954744080E+03  0.76972357261E+03  0.10100000352E+00 0. -1.
</event>
<event>
 5   0  0.5821584E-05  0.1703514E+04  0.7818609E-02  0.8759363E-01
       -2   -1    0    0    0  501  0.00000000000E+00  0.00000000000E+00  0.48625572742E+03  0.48625572742E+03  0.25500000920E-02 0. -1.
        2   -1    0    0  501    0  0.00000000000E+00  0.00000000000E+00 -0.14919925130E+04  0.14919925130E+04  0.25500000920E-02 0.  1.
    10030    2    1    2    0    0  0.00000000000E+00  0.00000000000E+00 -0.10057367856E+04  0.19782482405E+04  0.17035139034E+04 0.  0.
        1    1    3    3  502    0  0.96399353223E+02 -0.48588125567E+03  0.30178419069E+03  0.58004062589E+03  0.50400001928E-02 0. -1.
       -1    1    3    3    0  502 -0.96399353223E+02  0.48588125567E+03 -0.13075209763E+04  0.13982076146E+04  0.50400001928E-02 0.  1.
</event>
<event>
 5   0  0.2987859E-05  0.1699763E+04  0.7818609E-02  0.8761499E-01
       -1   -1    0    0    0  501  0.00000000000E+00  0.00000000000E+00  0.62823307478E+03  0.62823307480E+03  0.50400001928E-02 0. -1.
        1   -1    0    0  501    0  0.00000000000E+00  0.00000000000E+00 -0.11497308419E+04  0.11497308419E+04  0.50400001928E-02 0.  1.
    10030    2    1    2    0    0  0.00000000000E+00  0.00000000000E+00 -0.52149776707E+03  0.17779639167E+04  0.16997634447E+04 0.  0.
        5    1    3    3  502    0 -0.42086681392E+03  0.61103718681E+03 -0.69428241676E+03  0.10161424521E+04  0.46999998093E+01 0.  1.
       -5    1    3    3    0  502  0.42086681392E+03 -0.61103718681E+03  0.17278464969E+03  0.76182146458E+03  0.46999998093E+01 0. -1.
</event>
<event>
 5   0  0.5671132E-05  0.1698678E+04  0.7818609E-02  0.8762119E-01
        2   -1    0    0  501    0  0.00000000000E+00  0.00000000000E+00  0.15517443511E+04  0.15517443511E+04  0.25500000920E-02 0.  1.
       -2   -1    0    0    0  501  0.00000000000E+00  0.00000000000E+00 -0.46488111868E+03  0.46488111869E+03  0.25500000920E-02 0. -1.
    10030    2    1    2    0    0  0.00000000000E+00  0.00000000000E+00  0.10868632325E+04  0.20166254698E+04  0.16986778975E+04 0.  0.
        3    1    3    3  502    0  0.19877776508E+03  0.64062598471E+03  0.11619734025E+04  0.13416767310E+04  0.10100000352E+00 0.  1.
       -3    1    3    3    0  502 -0.19877776508E+03 -0.64062598471E+03 -0.75110170066E+02  0.67494873882E+03  0.10100000352E+00 0. -1.
</event>
<event>
 5   0  0.2966258E-05  0.1703694E+04  0.7818609E-02  0.8759260E-01
        1   -1    0    0  501    0  0.00000000000E+00  0.00000000000E+00  0.14120386508E+04  0.14120386508E+04  0.50400001928E-02 0.  1.
       -1   -1    0    0    0  501  0.00000000000E+00  0.00000000000E+00 -0.51389770678E+03  0.51389770681E+03  0.50400001928E-02 0. -1.
    10030    2    1    2    0    0  0.00000000000E+00  0.00000000000E+00  0.89814094399E+03  0.19259363576E+04  0.17036941328E+04 0.  0.
        4    1    3    3  502    0 -0.26703191436E+03  0.80890712854E+03  0.44653620835E+03  0.96178635058E+03  0.12699999809E+01 0. -1.
       -4    1    3    3    0  502  0.26703191436E+03 -0.80890712854E+03  0.45160473564E+03  0.96415000702E+03  0.12699999809E+01 0.  1.
</event>
<event>
 5   0  0.2911632E-05  0.1700257E+04  0.7818609E-02  0.8761218E-01
        1   -1    0    0  501    0  0.00000000000E+00  0.00000000000E+00  0.17202226191E+04  0.17202226191E+04  0.50400001928E-02 0. -1.
       -1   -1    0    0    0  501  0.00000000000E+00  0.00000000000E+00 -0.42013090077E+03  0.42013090080E+03  0.50400001928E-02 0.  1.
    10030    2    1    2    0    0  0.00000000000E+00  0.00000000000E+00  0.13000917183E+04  0.21403535199E+04  0.17002572494E+04 0.  0.
        1    1    3    3  502    0  0.59770652228E+03 -0.28711979189E+03 -0.19662063532E+02  0.66338334199E+03  0.50400001928E-02 0.  1.
       -1    1    3    3    0  502 -0.59770652228E+03  0.28711979189E+03  0.13197537818E+04  0.14769701779E+04  0.50400001928E-02 0. -1.
</event>
<event>
 5   0  0.2993769E-05  0.1700172E+04  0.7818609E-02  0.8761266E-01
        1   -1    0    0  501    0  0.00000000000E+00  0.00000000000E+00  0.14101430450E+04  0.14101430451E+04  0.50400001928E-02 0. -1.
       -1   -1    0    0    0  501  0.00000000000E+00  0.00000000000E+00 -0.51246284425E+03  0.51246284428E+03  0.50400001928E-02 0.  1.
    10030    2    1    2    0    0  0.00000000000E+00  0.00000000000E+00  0.89768020080E+03  0.19226058893E+04  0.17001716569E+04 0.  0.
        3    1    3    3  502    0 -0.28589377380E+03  0.57096219959E+03  0.10834292885E+04  0.12575977563E+04  0.10100000352E+00 0. -1.
       -3    1    3    3    0  502  0.28589377380E+03 -0.57096219959E+03 -0.18574908768E+03  0.66500813306E+03  0.10100000352E+00 0.  1.
</event>
<event>
 5   0  0.5755321E-05  0.1698239E+04  0.7818609E-02  0.8762370E-01
       -2   -1    0    0    0  501  0.00000000000E+00  0.00000000000E+00  0.44791060317E+03  0.44791060317E+03  0.25500000920E-02 0.  1.
        2   -1    0    0  501    0  0.00000000000E+00  0.00000000000E+00 -0.16097044604E+04  0.16097044604E+04  0.25500000920E-02 0. -1.
    10030    2    1    2    0    0  0.00000000000E+00  0.00000000000E+00 -0.11617938572E+04  0.20576150635E+04  0.16982387297E+04 0.  0.
        4    1    3    3  502    0 -0.52012570098E+03 -0.69209582430E+02  0.22797102712E+03  0.57209537074E+03  0.12699999809E+01 0.  1.
       -4    1    3    3    0  502  0.52012570098E+03  0.69209582430E+02 -0.13897648843E+04  0.14855196928E+04  0.12699999809E+01 0. -1.
</event>
<event>
 5   0  0.5755321E-05  0.1697041E+04  0.7818609E-02  0.8763054E-01
       -2   -1    0    0    0  501  0.00000000000E+00  0.00000000000E+00  0.13698922420E+04  0.13698922420E+04  0.25500000920E-02 0. -1.
        2   -1    0    0  501    0  0.00000000000E+00  0.00000000000E+00 -0.52557926631E+03  0.52557926632E+03  0.25500000920E-02 0.  1.
    10030    2    1    2    0    0  0.00000000000E+00  0.00000000000E+00  0.84431297573E+03  0.18954715084E+04  0.16970409064E+04 0.  0.
        4    1    3    3  502    0  0.14251057643E+03  0.55691739852E+03 -0.27493427061E+03  0.63722579925E+03  0.12699999809E+01 0.  1.
       -4    1    3    3    0  502 -0.14251057643E+03 -0.55691739852E+03  0.11192472463E+04  0.12582457091E+04  0.12699999809E+01 0. -1.
</event>
<event>
 5   0  0.2967704E-05  0.1695047E+04  0.7818609E-02  0.8764195E-01
        1   -1    0    0  501    0  0.00000000000E+00  0.00000000000E+00  0.15564301823E+04  0.15564301823E+04  0.50400001928E-02 0.  1.
       -1   -1    0    0    0  501  0.00000000000E+00  0.00000000000E+00 -0.46150206330E+03  0.46150206333E+03  0.50400001928E-02 0. -1.
    10030    2    1    2    0    0  0.00000000000E+00  0.00000000000E+00  0.10949281190E+04  0.20179322457E+04  0.16950465959E+04 0.  0.
        2    1    3    3  502    0 -0.18543003429E+03  0.24862524842E+03 -0.39151080693E+03  0.49947925253E+03  0.25500000920E-02 0. -1.
       -2    1    3    3    0  502  0.18543003429E+03 -0.24862524842E+03  0.14864389260E+04  0.15184529931E+04  0.25500000920E-02 0.  1.
</event>
<event>
 5   0  0.2987859E-05  0.1692472E+04  0.7818609E-02  0.8765669E-01
       -1   -1    0    0    0  501  0.00000000000E+00  0.00000000000E+00  0.47632780926E+03  0.47632780929E+03  0.50400001928E-02 0. -1.
        1   -1    0    0  501    0  0.00000000000E+00  0.00000000000E+00 -0.15034092426E+04  0.15034092426E+04  0.50400001928E-02 0.  1.
    10030    2    1    2    0    0  0.00000000000E+00  0.00000000000E+00 -0.10270814333E+04  0.19797370519E+04  0.16924723111E+04 0.  0.
        5    1    3    3  502    0 -0.22631764894E+03 -0.45606669329E+03 -0.13041931334E+04  0.14000565439E+04  0.46999998093E+01 0.  1.
       -5    1    3    3    0  502  0.22631764894E+03  0.45606669329E+03  0.27711170011E+03  0.57968050794E+03  0.46999998093E+01 0. -1.
</event>
<event>
 5   0  0.2987859E-05  0.1693515E+04  0.7818609E-02  0.8765071E-01
       -1   -1    0    0    0  501  0.00000000000E+00  0.00000000000E+00  0.43851437597E+03  0.43851437599E+03  0.50400001928E-02 0.  1.
        1   -1    0    0  501    0  0.00000000000E+00  0.00000000000E+00 -0.16350628266E+04  0.16350628266E+04  0.50400001928E-02 0. -1.
    10030    2    1    2    0    0  0.00000000000E+00  0.00000000000E+00 -0.11965484507E+04  0.20735772026E+04  0.16935153440E+04 0.  0.
        5    1    3    3  502    0 -0.38202978654E+03 -0.13036888799E+03 -0.15096535019E+04  0.15626959367E+04  0.46999998093E+01 0. -1.
       -5    1    3    3    0  502  0.38202978654E+03  0.13036888799E+03  0.31310505125E+03  0.51088126593E+03  0.46999998093E+01 0.  1.
</event>
<event>
 5   0  0.5652631E-05  0.1700190E+04  0.7818609E-02  0.8761256E-01
        2   -1    0    0  501    0  0.00000000000E+00  0.00000000000E+00  0.12244400487E+04  0.12244400487E+04  0.25500000920E-02 0.  1.
       -2   -1    0    0    0  501  0.00000000000E+00  0.00000000000E+00 -0.59019770207E+03  0.59019770208E+03  0.25500000920E-02 0. -1.
    10030    2    1    2    0    0  0.00000000000E+00  0.00000000000E+00  0.63424234664E+03  0.18146377508E+04  0.17001902283E+04 0.  0.
        2    1    3    3  502    0  0.14378636605E+03 -0.12494322393E+02  0.12112677595E+04  0.12198361416E+04  0.25500000920E-02 0.  1.
       -2    1    3    3    0  502 -0.14378636605E+03  0.12494322393E+02 -0.57702541288E+03  0.59480160917E+03  0.25500000920E-02 0. -1.
</event>
<event>
 5   0  0.5671132E-05  0.1698784E+04  0.7818609E-02  0.8762058E-01
        2   -1    0    0  501    0  0.00000000000E+00  0.00000000000E+00  0.16737216816E+04  0.16737216816E+04  0.25500000920E-02 0. -1.
       -2   -1    0    0    0  501  0.00000000000E+00  0.00000000000E+00 -0.43105548824E+03  0.43105548825E+03  0.25500000920E-02 0.  1.
    10030    2    1    2    0    0  0.00000000000E+00  0.00000000000E+00  0.12426661934E+04  0.21047771699E+04  0.16987841731E+04 0.  0.
        3    1    3    3  502    0 -0.39149879832E+03  0.19392316388E+03 -0.28116689078E+03  0.51955012583E+03  0.10100000352E+00 0.  1.
       -3    1    3    3    0  502  0.39149879832E+03 -0.19392316388E+03  0.15238330842E+04  0.15852270441E+04  0.10100000352E+00 0. -1.
</event>
<event>
 5   0  0.5821584E-05  0.1703513E+04  0.7818609E-02  0.8759363E-01
        2   -1    0    0  501    0  0.00000000000E+00  0.00000000000E+00  0.90242876519E+03  0.90242876519E+03  0.25500000920E-02 0. -1.
       -2   -1    0    0    0  501  0.00000000000E+00  0.00000000000E+00 -0.80392999716E+03  0.80392999717E+03  0.25500000920E-02 0.  1.
    10030    2    1    2    0    0  0.00000000000E+00  0.00000000000E+00  0.98498768024E+02  0.17063587624E+04  0.17035134923E+04 0.  0.
        1    1    3    3  502    0 -0.32883259013E+03 -0.33325453663E+03  0.76198551337E+03  0.89432174363E+03  0.50400001928E-02 0. -1.
       -1    1    3    3    0  502  0.32883259013E+03  0.33325453663E+03 -0.66348674534E+03  0.81203701873E+03  0.50400001928E-02 0.  1.
</event>
<event>
 5   0  0.5652631E-05  0.1703312E+04  0.7818609E-02  0.8759478E-01
        2   -1    0    0  501    0  0.00000000000E+00  0.00000000000E+00  0.12276856174E+04  0.12276856174E+04  0.25500000920E-02 0. -1.
       -2   -1    0    0    0  501  0.00000000000E+00  0.00000000000E+00 -0.59080108950E+03  0.59080108950E+03  0.25500000920E-02 0.  1.
    10030    2    1    2    0    0  0.00000000000E+00  0.00000000000E+00  0.63688452787E+03  0.18184867069E+04  0.17033120681E+04 0.  0.
        2    1    3    3  502    0  0.53749982066E+03  0.29985926533E+03  0.94688433061E+03  0.11293412114E+04  0.25500000920E-02 0. -1.
       -2    1    3    3    0  502 -0.53749982066E+03 -0.29985926533E+03 -0.30999980274E+03  0.68914549546E+03  0.25500000920E-02 0.  1.
</event>
<event>
 5   0  0.5671132E-05  0.1696971E+04  0.7818609E-02  0.8763094E-01
       -2   -1    0    0    0  501  0.00000000000E+00  0.00000000000E+00  0.11990731878E+04  0.11990731878E+04  0.25500000920E-02 0. -1.
        2   -1    0    0  501    0  0.00000000000E+00  0.00000000000E+00 -0.60040370066E+03  0.60040370067E+03  0.25500000920E-02 0.  1.
    10030    2    1    2    0    0  0.00000000000E+00  0.00000000000E+00  0.59866948710E+03  0.17994768884E+04  0.16969713955E+04 0.  0.
        3    1    3    3  502    0  0.39098133064E+03 -0.17711373220E+02 -0.49896630871E+03  0.63415099234E+03  0.10100000352E+00 0.  1.
       -3    1    3    3    0  502 -0.39098133064E+03  0.17711373220E+02  0.10976357958E+04  0.11653258961E+04  0.10100000352E+00 0. -1.
</event>
<event>
 5   0  0.2993769E-05  0.1699096E+04  0.7818609E-02  0.8761880E-01
       -1   -1    0    0    0  501  0.00000000000E+00  0.00000000000E+00  0.31718297075E+03  0.31718297079E+03  0.50400001928E-02 0.  1.
        1   -1    0    0  501    0  0.00000000000E+00  0.00000000000E+00 -0.22754424133E+04  0.22754424133E+04  0.50400001928E-02 0. -1.
    10030    2    1    2    0    0  0.00000000000E+00  0.00000000000E+00 -0.19582594426E+04  0.25926253841E+04  0.16990957413E+04 0.  0.
        3    1    3    3  502    0  0.24319152219E+03 -0.36992109455E+03 -0.20855258990E+04  0.21319948448E+04  0.10100000352E+00 0. -1.
       -3    1    3    3    0  502 -0.24319152219E+03  0.36992109455E+03  0.12726645640E+03  0.46063053935E+03  0.10100000352E+00 0.  1.
</event>
<event>
 5   0  0.5859822E-05  0.1696629E+04  0.7818609E-02  0.8763289E-01
        2   -1    0    0  501    0  0.00000000000E+00  0.00000000000E+00  0.14759294970E+04  0.14759294970E+04  0.25500000920E-02 0. -1.
       -2   -1    0    0    0  501  0.00000000000E+00  0.00000000000E+00 -0.48758245170E+03  0.48758245171E+03  0.25500000920E-02 0.  1.
    10030    2    1    2    0    0  0.00000000000E+00  0.00000000000E+00  0.98834704527E+03  0.19635119487E+04  0.16966288017E+04 0.  0.
        5    1    3    3  502    0  0.51515125651E+03 -0.25442103864E+03 -0.22810195431E+03  0.61819371846E+03  0.46999998093E+01 0.  1.
       -5    1    3    3    0  502 -0.51515125651E+03  0.25442103864E+03  0.12164489996E+04  0.13453182302E+04  0.46999998093E+01 0. -1.
</event>
<event>
 5   0  0.2987859E-05  0.1704221E+04  0.7818609E-02  0.8758961E-01
       -1   -1    0    0    0  501  0.00000000000E+00  0.00000000000E+00  0.45222713584E+03  0.45222713586E+03  0.50400001928E-02 0. -1.
        1   -1    0    0  501    0  0.00000000000E+00  0.00000000000E+00 -0.16055921651E+04  0.16055921652E+04  0.50400001928E-02 0.  1.
    10030    2    1    2    0    0  0.00000000000E+00  0.00000000000E+00 -0.11533650293E+04  0.20578193010E+04  0.17042210493E+04 0.  0.
        5    1    3    3  502    0  0.87066956544E+02 -0.44988751521E+03  0.29076734351E+03  0.54272200002E+03  0.46999998093E+01 0. -1.
       -5    1    3    3    0  502 -0.87066956544E+02  0.44988751521E+03 -0.14441323728E+04  0.15150973010E+04  0.46999998093E+01 0.  1.
</event>
<event>
 5   0  0.2993769E-05  0.1699224E+04  0.7818609E-02  0.8761807E-01
       -1   -1    0    0    0  501  0.00000000000E+00  0.00000000000E+00  0.84501819455E+03  0.84501819456E+03  0.50400001928E-02 0. -1.
        1   -1    0    0  501    0  0.00000000000E+00  0.00000000000E+00 -0.85423029869E+03  0.85423029871E+03  0.50400001928E-02 0.  1.
    10030    2    1    2    0    0  0.00000000000E+00  0.00000000000E+00 -0.92121041446E+01  0.16992484933E+04  0.16992235224E+04 0.  0.
        3    1    3    3  502    0  0.31586990733E+03 -0.57986740061E+03 -0.53923539516E+03  0.85252262272E+03  0.10100000352E+00 0.  1.
       -3    1    3    3    0  502 -0.31586990733E+03  0.57986740061E+03  0.53002329101E+03  0.84672587055E+03  0.10100000352E+00 0. -1.
</event>
<event>
 5   0  0.5671132E-05  0.1695454E+04  0.7818609E-02  0.8763962E-01
       -2   -1    0    0    0  501  0.00000000000E+00  0.00000000000E+00  0.90939067148E+03  0.90939067148E+03  0.25500000920E-02 0.  1.
        2   -1    0    0  501    0  0.00000000000E+00  0.00000000000E+00 -0.79024414204E+03  0.79024414204E+03  0.25500000920E-02 0. -1.
    10030    2    1    2    0    0  0.00000000000E+00  0.00000000000E+00  0.11914652944E+03  0.16996348135E+04  0.16954535098E+04 0.  0.
        3    1    3    3  502    0  0.89402359090E+02 -0.82209844843E+03  0.24658628062E+03  0.86292725343E+03  0.10100000352E+00 0.  1.
       -3    1    3    3    0  502 -0.89402359090E+02  0.82209844843E+03 -0.12743975118E+03  0.83670756009E+03  0.10100000352E+00 0. -1.
</event>
<event>
 5   0  0.2911632E-05  0.1700656E+04  0.7818609E-02  0.8760990E-01
        1   -1    0    0  501    0  0.00000000000E+00  0.00000000000E+00  0.76157504910E+03  0.76157504911E+03  0.50400001928E-02 0.  1.
       -1   -1    0    0    0  501  0.00000000000E+00  0.00000000000E+00 -0.94942411884E+03  0.94942411886E+03  0.50400001928E-02 0. -1.
    10030    2    1    2    0    0  0.00000000000E+00  0.00000000000E+00 -0.18784906975E+03  0.17109991680E+04  0.17006560145E+04 0.  0.
        1    1    3    3  502    0 -0.12099405828E+03  0.78887626477E+03  0.20127503341E+03  0.82308988716E+03  0.50400001928E-02 0. -1.
       -1    1    3    3    0  502  0.12099405828E+03 -0.78887626477E+03 -0.38912410316E+03  0.88790928080E+03  0.50400001928E-02 0.  1.
</event>
<event>
 5   0  0.2993769E-05  0.1700591E+04  0.7818609E-02  0.8761027E-01
        1   -1    0    0  501    0  0.00000000000E+00  0.00000000000E+00  0.20669147632E+04  0.20669147632E+04  0.50400001928E-02 0. -1.
       -1   -1    0    0    0  501  0.00000000000E+00  0.00000000000E+00 -0.34979808493E+03  0.34979808497E+03  0.50400001928E-02 0.  1.
    10030    2    1    2    0    0  0.00000000000E+00  0.00000000000E+00  0.17171166783E+04  0.24167128482E+04  0.17005914570E+04 0.  0.
        3    1    3    3  502    0  0.63250346859E+03 -0.30957085473E+02  0.16649426946E+04  0.17813065894E+04  0.10100000352E+00 0. -1.
       -3    1    3    3    0  502 -0.63250346859E+03  0.30957085473E+02  0.52173983662E+02  0.63540625878E+03  0.10100000352E+00 0.  1.
</event>
<event>
 5   0  0.2967704E-05  0.1699066E+04  0.7818609E-02  0.8761897E-01
        1   -1    0    0  501    0  0.00000000000E+00  0.00000000000E+00  0.12096882857E+04  0.12096882857E+04  0.50400001928E-02 0. -1.
       -1   -1    0    0    0  501  0.00000000000E+00  0.00000000000E+00 -0.59660529326E+03  0.59660529328E+03  0.50400001928E-02 0.  1.
    10030    2    1    2    0    0  0.00000000000E+00  0.00000000000E+00  0.61308299245E+03  0.18062935790E+04  0.16990661370E+04 0.  0.
        2    1    3    3  502    0 -0.30136979421E+03  0.56879127847E+03  0.89592928856E+03  0.11031938005E+04  0.25500000920E-02 0. -1.
       -2    1    3    3    0  502  0.30136979421E+03 -0.56879127847E+03 -0.28284629611E+03  0.70309977852E+03  0.25500000920E-02 0.  1.
</event>
<event>
 5   0  0.2987859E-05  0.1699623E+04  0.7818609E-02  0.8761579E-01
        1   -1    0    0  501    0  0.00000000000E+00  0.00000000000E+00  0.45606858173E+03  0.45606858176E+03  0.50400001928E-02 0. -1.
       -1   -1    0    0    0  501  0.00000000000E+00  0.00000000000E+00 -0.15834891964E+04  0.15834891964E+04  0.50400001928E-02 0.  1.
    10030    2    1    2    0    0  0.00000000000E+00  0.00000000000E+00 -0.11274206147E+04  0.20395577782E+04  0.16996231018E+04 0.  0.
        5    1    3    3  502    0 -0.23991612893E+03  0.72478658053E+03 -0.11586165909E+03  0.77221846021E+03  0.46999998093E+01 0. -1.
       -5    1    3    3    0  502  0.23991612893E+03 -0.72478658053E+03 -0.10115589556E+04  0.12673393180E+04  0.46999998093E+01 0.  1.
</event>
<event>
 5   0  0.5755321E-05  0.1699805E+04  0.7818609E-02  0.8761476E-01
        2   -1    0    0  501    0  0.00000000000E+00  0.00000000000E+00  0.16492450291E+04  0.16492450291E+04  0.25500000920E-02 0.  1.
       -2   -1    0    0    0  501  0.00000000000E+00  0.00000000000E+00 -0.43797864060E+03  0.43797864060E+03  0.25500000920E-02 0. -1.
    10030    2    1    2    0    0  0.00000000000E+00  0.00000000000E+00  0.12112663885E+04  0.20872236697E+04  0.16998048075E+04 0.  0.
        4    1    3    3  502    0  0.11450766503E+03  0.24431792730E+02  0.16392932484E+04  0.16434697700E+04  0.12699999809E+01 0.  1.
       -4    1    3    3    0  502 -0.11450766503E+03 -0.24431792730E+02 -0.42802685986E+03  0.44375389971E+03  0.12699999809E+01 0. -1.
</event>
<event>
 5   0  0.5821584E-05  0.1694905E+04  0.7818609E-02  0.8764276E-01
        2   -1    0    0  501    0  0.00000000000E+00  0.00000000000E+00  0.97533646099E+03  0.97533646099E+03  0.25500000920E-02 0.  1.
       -2   -1    0    0    0  501  0.00000000000E+00  0.00000000000E+00 -0.73633643849E+03  0.73633643850E+03  0.25500000920E-02 0. -1.
    10030    2    1    2    0    0  0.00000000000E+00  0.00000000000E+00  0.23900002250E+03  0.17116728995E+04  0.16949050428E+04 0.  0.
        1    1    3    3  502    0 -0.98241739495E+02  0.76089786871E+03  0.48300369048E+03  0.90659228489E+03  0.50400001928E-02 0.  1.
       -1    1    3    3    0  502  0.98241739495E+02 -0.76089786871E+03 -0.24400366798E+03  0.80508061460E+03  0.50400001928E-02 0. -1.
</event>
<event>
 5   0  0.2966258E-05  0.1693401E+04  0.7818609E-02  0.8765137E-01
       -1   -1    0    0    0  501  0.00000000000E+00  0.00000000000E+00  0.43976421654E+03  0.43976421656E+03  0.50400001928E-02 0. -1.
        1   -1    0    0  501    0  0.00000000000E+00  0.00000000000E+00 -0.16301961067E+04  0.16301961067E+04  0.50400001928E-02 0.  1.
    10030    2    1    2    0    0  0.00000000000E+00  0.00000000000E+00 -0.11904318902E+04  0.20699603233E+04  0.16934012091E+04 0.  0.
        4    1    3    3  502    0 -0.75920231082E+03 -0.36884802456E+03 -0.67687973946E+03  0.10819449194E+04  0.12699999809E+01 0.  1.
       -4    1    3    3    0  502  0.75920231082E+03  0.36884802456E+03 -0.51355215074E+03  0.98801540393E+03  0.12699999809E+01 0. -1.
</event>
<event>
 5   0  0.5652631E-05  0.1692761E+04  0.7818609E-02  0.8765504E-01
        2   -1    0    0  501    0  0.00000000000E+00  0.00000000000E+00  0.42541422777E+03  0.42541422778E+03  0.25500000920E-02 0.  1.
       -2   -1    0    0    0  501  0.00000000000E+00  0.00000000000E+00 -0.16839113700E+04  0.16839113700E+04  0.25500000920E-02 0. -1.
    10030    2    1    2    0    0  0.00000000000E+00  0.00000000000E+00 -0.12584971422E+04  0.21093255978E+04  0.16927608870E+04 0.  0.
        2    1    3    3  502    0 -0.27485723746E+03  0.66908977262E+03 -0.11768636338E+04  0.13813890246E+04  0.25500000920E-02 0.  1.
       -2    1    3    3    0  502  0.27485723746E+03 -0.66908977262E+03 -0.81633508417E+02  0.72793657314E+03  0.25500000920E-02 0. -1.
</event>
<event>
 5   0  0.2987859E-05  0.1698793E+04  0.7818609E-02  0.8762053E-01
        1   -1    0    0  501    0  0.00000000000E+00  0.00000000000E+00  0.14374304291E+04  0.14374304291E+04  0.50400001928E-02 0. -1.
       -1   -1    0    0    0  501  0.00000000000E+00  0.00000000000E+00 -0.50191949957E+03  0.50191949959E+03  0.50400001928E-02 0.  1.
    10030    2    1    2    0    0  0.00000000000E+00  0.00000000000E+00  0.93551092949E+03  0.19393499287E+04  0.16987929381E+04 0.  0.
        5    1    3    3  502    0 -0.80351357581E+03  0.38085294315E+02  0.77907613147E+03  0.11198510012E+04  0.46999998093E+01 0. -1.
       -5    1    3    3    0  502  0.80351357581E+03 -0.38085294315E+02  0.15643479802E+03  0.81949892751E+03  0.46999998093E+01 0.  1.
</event>
<event>
 5   0  0.5652631E-05  0.1696632E+04  0.7818609E-02  0.8763288E-01
       -2   -1    0    0    0  501  0.00000000000E+00  0.00000000000E+00  0.76045630636E+03  0.76045630636E+03  0.25500000920E-02 0.  1.
        2   -1    0    0  501    0  0.00000000000E+00  0.00000000000E+00 -0.94632612389E+03  0.94632612390E+03  0.25500000920E-02 0. -1.
    10030    2    1    2    0    0  0.00000000000E+00  0.00000000000E+00 -0.18586981754E+03  0.17067824303E+04  0.16966315673E+04 0.  0.
        2    1    3    3  502    0 -0.32477210548E+03  0.68176105215E+03 -0.48172436969E+03  0.89573066325E+03  0.25500000920E-02 0. -1.
       -2    1    3    3    0  502  0.32477210548E+03 -0.68176105215E+03  0.29585455215E+03  0.81105176701E+03  0.25500000920E-02 0.  1.
</event>
<event>
 5   0  0.2966258E-05  0.1700705E+04  0.7818609E-02  0.8760962E-01
        1   -1    0    0  501    0  0.00000000000E+00  0.00000000000E+00  0.77202281792E+03  0.77202281794E+03  0.50400001928E-02 0.  1.
       -1   -1    0    0    0  501  0.00000000000E+00  0.00000000000E+00 -0.93662936999E+03  0.93662937001E+03  0.50400001928E-02 0. -1.
    10030    2    1    2    0    0  0.00000000000E+00  0.00000000000E+00 -0.16460655208E+03  0.17086521879E+04  0.17007048487E+04 0.  0.
        4    1    3    3  502    0  0.52411944462E+02 -0.80299589966E+03 -0.35844802850E+03  0.88092907139E+03  0.12699999809E+01 0. -1.
       -4    1    3    3    0  502 -0.52411944462E+02  0.80299589966E+03  0.19384147643E+03  0.82772311655E+03  0.12699999809E+01 0.  1.
</event>
<event>
 5   0  0.2966258E-05  0.1703255E+04  0.7818609E-02  0.8759510E-01
        1   -1    0    0  501    0  0.00000000000E+00  0.00000000000E+00  0.10894135053E+04  0.10894135053E+04  0.50400001928E-02 0. -1.
       -1   -1    0    0    0  501  0.00000000000E+00  0.00000000000E+00 -0.66574328257E+03  0.66574328259E+03  0.50400001928E-02 0.  1.
    10030    2    1    2    0    0  0.00000000000E+00  0.00000000000E+00  0.42367022272E+03  0.17551567879E+04  0.17032553809E+04 0.  0.
        4    1    3    3  502    0  0.56631210761E+02 -0.14447112244E+03  0.10747217217E+04  0.10858671149E+04  0.12699999809E+01 0. -1.
       -4    1    3    3    0  502 -0.56631210761E+02  0.14447112244E+03 -0.65105149894E+03  0.66928967303E+03  0.12699999809E+01 0.  1.
</event>
<event>
 5   0  0.2967704E-05  0.1699099E+04  0.7818609E-02  0.8761878E-01
       -1   -1    0    0    0  501  0.00000000000E+00  0.00000000000E+00  0.13096947095E+04  0.13096947095E+04  0.50400001928E-02 0.  1.
        1   -1    0    0  501    0  0.00000000000E+00  0.00000000000E+00 -0.55107059410E+03  0.55107059412E+03  0.50400001928E-02 0. -1.
    10030    2    1    2    0    0  0.00000000000E+00  0.00000000000E+00  0.75862411542E+03  0.18607653036E+04  0.16990988690E+04 0.  0.
        2    1    3    3  502    0  0.60561046243E+02 -0.61340538957E+03 -0.26095218872E+03  0.66935032463E+03  0.25500000920E-02 0. -1.
       -2    1    3    3    0  502 -0.60561046243E+02  0.61340538957E+03  0.10195763041E+04  0.11914149790E+04  0.25500000920E-02 0.  1.
</event>
<event>
 5   0  0.5652631E-05  0.1691496E+04  0.7818609E-02  0.8766229E-01
       -2   -1    0    0    0  501  0.00000000000E+00  0.00000000000E+00  0.57092777190E+03  0.57092777191E+03  0.25500000920E-02 0.  1.
        2   -1    0    0  501    0  0.00000000000E+00  0.00000000000E+00 -0.12528556518E+04  0.12528556518E+04  0.25500000920E-02 0. -1.
    10030    2    1    2    0    0  0.00000000000E+00  0.00000000000E+00 -0.68192787990E+03  0.18237834237E+04  0.16914964804E+04 0.  0.
        2    1    3    3  502    0  0.73077015999E+02  0.47628729024E+03 -0.10903762074E+04  0.11921032282E+04  0.25500000920E-02 0. -1.
       -2    1    3    3    0  502 -0.73077015999E+02 -0.47628729024E+03  0.40844832750E+03  0.63168019547E+03  0.25500000920E-02 0.  1.
</event>
<event>
 5   0  0.2098250E-05  0.1703928E+04  0.7818609E-02  0.8759127E-01
       -3   -1    0    0    0  501  0.00000000000E+00  0.00000000000E+00  0.85310416899E+03  0.85310417497E+03  0.10100000352E+00 0. -1.
        3   -1    0    0  501    0  0.00000000000E+00  0.00000000000E+00 -0.85082558771E+03  0.85082559370E+03  0.10100000352E+00 0.  1.
    10030    2    1    2    0    0  0.00000000000E+00  0.00000000000E+00  0.22785812838E+01  0.17039297687E+04  0.17039282452E+04 0.  0.
        4    1    3    3  502    0 -0.15700071442E+02  0.58998840617E+03 -0.61327841473E+03  0.85114325383E+03  0.12699999809E+01 0.  1.
       -4    1    3    3    0  502  0.15700071442E+02 -0.58998840617E+03  0.61555699602E+03  0.85278651484E+03  0.12699999809E+01 0. -1.
</event>
<event>
 5   0  0.5859822E-05  0.1701508E+04  0.7818609E-02  0.8760505E-01
       -2   -1    0    0    0  501  0.00000000000E+00  0.00000000000E+00  0.12111568369E+04  0.12111568369E+04  0.25500000920E-02 0. -1.
        2   -1    0    0  501    0  0.00000000000E+00  0.00000000000E+00 -0.59759596001E+03  0.59759596002E+03  0.25500000920E-02 0.  1.
    10030    2    1    2    0    0  0.00000000000E+00  0.00000000000E+00  0.61356087685E+03  0.18087527969E+04  0.17015080754E+04 0.  0.
        5    1    3    3  502    0  0.55606982567E+03  0.46769575448E+03  0.77717221566E+03  0.10639415927E+04  0.46999998093E+01 0. -1.
       -5    1    3    3    0  502 -0.55606982567E+03 -0.46769575448E+03 -0.16361133881E+03  0.74481120424E+03  0.46999998093E+01 0.  1.
</event>
<event>
 5   0  0.5859822E-05  0.1696633E+04  0.7818609E-02  0.8763287E-01
       -2   -1    0    0    0  501  0.00000000000E+00  0.00000000000E+00  0.52803597279E+03  0.52803597280E+03  0.25500000920E-02 0. -1.
        2   -1    0    0  501    0  0.00000000000E+00  0.00000000000E+00 -0.13628632012E+04  0.13628632012E+04  0.25500000920E-02 0.  1.
    10030    2    1    2    0    0  0.00000000000E+00  0.00000000000E+00 -0.83482722841E+03  0.18908991740E+04  0.16966328963E+04 0.  0.
        5    1    3    3  502    0 -0.19343410618E+03  0.76489842277E+03 -0.70067496233E+02  0.79209714973E+03  0.46999998093E+01 0. -1.
       -5    1    3    3    0  502  0.19343410618E+03 -0.76489842277E+03 -0.76475973218E+03  0.10988020243E+04  0.46999998093E+01 0.  1.
</event>
<event>
 5   0  0.5755321E-05  0.1697097E+04  0.7818609E-02  0.8763022E-01
        2   -1    0    0  501    0  0.00000000000E+00  0.00000000000E+00  0.15474598472E+04  0.15474598472E+04  0.25500000920E-02 0.  1.
       -2   -1    0    0    0  501  0.00000000000E+00  0.00000000000E+00 -0.46530076711E+03  0.46530076712E+03  0.25500000920E-02 0. -1.
    10030    2    1    2    0    0  0.00000000000E+00  0.00000000000E+00  0.10821590801E+04  0.20127606143E+04  0.16970966431E+04 0.  0.
        4    1    3    3  502    0  0.34345668019E+03 -0.39117629500E+03 -0.25367589936E+03  0.57908070229E+03  0.12699999809E+01 0. -1.
       -4    1    3    3    0  502 -0.34345668019E+03  0.39117629500E+03  0.13358349794E+04  0.14336799120E+04  0.12699999809E+01 0.  1.
</event>
<event>
 5   0  0.2966258E-05  0.1699616E+04  0.7818609E-02  0.8761583E-01
        1   -1    0    0  501    0  0.00000000000E+00  0.00000000000E+00  0.12302713525E+04  0.12302713525E+04  0.50400001928E-02 0.  1.
       -1   -1    0    0    0  501  0.00000000000E+00  0.00000000000E+00 -0.58700357449E+03  0.58700357451E+03  0.50400001928E-02 0. -1.
    10030    2    1    2    0    0  0.00000000000E+00  0.00000000000E+00  0.64326777798E+03  0.18172749270E+04  0.16996160525E+04 0.  0.
        4    1    3    3  502    0 -0.21783149348E+03 -0.14945649512E+03  0.11852516179E+04  0.12143355443E+04  0.12699999809E+01 0.  1.
       -4    1    3    3    0  502  0.21783149348E+03  0.14945649512E+03 -0.54198383996E+03  0.60293938266E+03  0.12699999809E+01 0. -1.
</event>
<event>
 5   0  0.2967704E-05  0.1703357E+04  0.7818609E-02  0.8759452E-01
        1   -1    0    0  501    0  0.00000000000E+00  0.00000000000E+00  0.77336700124E+03  0.77336700126E+03  0.50400001928E-02 0.  1.
       -1   -1    0    0    0  501  0.00000000000E+00  0.00000000000E+00 -0.93791956986E+03  0.93791956987E+03  0.50400001928E-02 0. -1.
    10030    2    1    2    0    0  0.00000000000E+00  0.00000000000E+00 -0.16455256862E+03  0.17112865711E+04  0.17033567391E+04 0.  0.
        2    1    3    3  502    0 -0.89618090135E+02 -0.10338000720E+03  0.76225430167E+03  0.77443556762E+03  0.25500000920E-02 0.  1.
       -2    1    3    3    0  502  0.89618090135E+02  0.10338000720E+03 -0.92680687029E+03  0.93685100352E+03  0.25500000920E-02 0. -1.
</event>
<event>
 5   0  0.5652631E-05  0.1696858E+04  0.7818609E-02  0.8763159E-01
        2   -1    0    0  501    0  0.00000000000E+00  0.00000000000E+00  0.89720731659E+03  0.89720731659E+03  0.25500000920E-02 0. -1.
       -2   -1    0    0    0  501  0.00000000000E+00  0.00000000000E+00 -0.80230236006E+03  0.80230236007E+03  0.25500000920E-02 0.  1.
    10030    2    1    2    0    0  0.00000000000E+00  0.00000000000E+00  0.94904956524E+02  0.16995096767E+04  0.16968577401E+04 0.  0.
        2    1    3    3  502    0  0.11465279007E+03 -0.57093311747E+03  0.66544326570E+03  0.88426502066E+03  0.25500000920E-02 0. -1.
       -2    1    3    3    0  502 -0.11465279007E+03  0.57093311747E+03 -0.57053830917E+03  0.81524465600E+03  0.25500000920E-02 0.  1.
</event>
<event>
 5   0  0.2967704E-05  0.1699689E+04  0.7818609E-02  0.8761542E-01
       -1   -1    0    0    0  501  0.00000000000E+00  0.00000000000E+00  0.34575817699E+03  0.34575817702E+03  0.50400001928E-02 0. -1.
        1   -1    0    0  501    0  0.00000000000E+00  0.00000000000E+00 -0.20888463147E+04  0.20888463147E+04  0.50400001928E-02 0.  1.
    10030    2    1    2    0    0  0.00000000000E+00  0.00000000000E+00 -0.17430881377E+04  0.24346044917E+04  0.16996890231E+04 0.  0.
        2    1    3    3  502    0  0.80203777796E+03 -0.21062853886E+03 -0.60507970347E+03  0.10265234660E+04  0.25500000920E-02 0. -1.
       -2    1    3    3    0  502 -0.80203777796E+03  0.21062853886E+03 -0.11380084342E+04  0.14080810257E+04  0.25500000920E-02 0.  1.
</event>
<event>
 5   0  0.5671132E-05  0.1695799E+04  0.7818609E-02  0.8763764E-01
       -2   -1    0    0    0  501  0.00000000000E+00  0.00000000000E+00  0.53330279939E+03  0.53330279940E+03  0.25500000920E-02 0.  1.
        2   -1    0    0  501    0  0.00000000000E+00  0.00000000000E+00 -0.13480776316E+04  0.13480776316E+04  0.25500000920E-02 0. -1.
    10030    2    1    2    0    0  0.00000000000E+00  0.00000000000E+00 -0.81477483217E+03  0.18813804310E+04  0.16957990149E+04 0.  0.
        3    1    3    3  502    0  0.26376790602E+03  0.55222544507E+02  0.48452633269E+03  0.55442656407E+03  0.10100000352E+00 0.  1.
       -3    1    3    3    0  502 -0.26376790602E+03 -0.55222544507E+02 -0.12993011649E+04  0.13269538669E+04  0.10100000352E+00 0. -1.
</event>
<event>
 5   0  0.5859822E-05  0.1707381E+04  0.7818609E-02  0.8757166E-01
       -2   -1    0    0    0  501  0.00000000000E+00  0.00000000000E+00  0.54004614116E+03  0.54004614116E+03  0.25500000920E-02 0.  1.
        2   -1    0    0  501    0  0.00000000000E+00  0.00000000000E+00 -0.13494904755E+04  0.13494904755E+04  0.25500000920E-02 0. -1.
    10030    2    1    2    0    0  0.00000000000E+00  0.00000000000E+00 -0.80944433430E+03  0.18895366166E+04  0.17073805947E+04 0.  0.
        5    1    3    3  502    0  0.11056156528E+03 -0.25084607162E+03 -0.12994414169E+04  0.13280503369E+04  0.46999998093E+01 0. -1.
       -5    1    3    3    0  502 -0.11056156528E+03  0.25084607162E+03  0.48999708261E+03  0.56148627973E+03  0.46999998093E+01 0.  1.
</event>
<event>
 5   0  0.2987859E-05  0.1698040E+04  0.7818609E-02  0.8762483E-01
       -1   -1    0    0    0  501  0.00000000000E+00  0.00000000000E+00  0.73710219093E+03  0.73710219095E+03  0.50400001928E-02 0.  1.
        1   -1    0    0  501    0  0.00000000000E+00  0.00000000000E+00 -0.97793104691E+03  0.97793104692E+03  0.50400001928E-02 0. -1.
    10030    2    1    2    0    0  0.00000000000E+00  0.00000000000E+00 -0.24082885597E+03  0.17150332379E+04  0.16980401848E+04 0.  0.
        5    1    3    3  502    0  0.19076317744E+03  0.64571985654E+03 -0.64276339431E+03  0.93086604517E+03  0.46999998093E+01 0. -1.
       -5    1    3    3    0  502 -0.19076317744E+03 -0.64571985654E+03  0.40193453833E+03  0.78416719270E+03  0.46999998093E+01 0.  1.
</event>
<event>
 5   0  0.2993769E-05  0.1698954E+04  0.7818609E-02  0.8761961E-01
        1   -1    0    0  501    0  0.00000000000E+00  0.00000000000E+00  0.17420670875E+04  0.17420670875E+04  0.50400001928E-02 0. -1.
       -1   -1    0    0    0  501  0.00000000000E+00  0.00000000000E+00 -0.41422721493E+03  0.41422721496E+03  0.50400001928E-02 0.  1.
    10030    2    1    2    0    0  0.00000000000E+00  0.00000000000E+00  0.13278398726E+04  0.21562943025E+04  0.16989544996E+04 0.  0.
        3    1    3    3  502    0 -0.15378040742E+03 -0.83535977833E+03  0.64905282072E+03  0.10689920239E+04  0.10100000352E+00 0.  1.
       -3    1    3    3    0  502  0.15378040742E+03  0.83535977833E+03  0.67878705188E+03  0.10873022786E+04  0.10100000352E+00 0. -1.
</event>
<event>
 5   0  0.5671132E-05  0.1696184E+04  0.7818609E-02  0.8763544E-01
        2   -1    0    0  501    0  0.00000000000E+00  0.00000000000E+00  0.87232738069E+03  0.87232738069E+03  0.25500000920E-02 0.  1.
       -2   -1    0    0    0  501  0.00000000000E+00  0.00000000000E+00 -0.82452960142E+03  0.82452960142E+03  0.25500000920E-02 0. -1.
    10030    2    1    2    0    0  0.00000000000E+00  0.00000000000E+00  0.47797779268E+02  0.16968569821E+04  0.16961836546E+04 0.  0.
        3    1    3    3  502    0  0.38459534100E+03  0.67825979594E+03 -0.30986479954E+03  0.83902689545E+03  0.10100000352E+00 0. -1.
       -3    1    3    3    0  502 -0.38459534100E+03 -0.67825979594E+03  0.35766257881E+03  0.85783008666E+03  0.10100000352E+00 0.  1.
</event>
<event>
 5   0  0.5821584E-05  0.1696021E+04  0.7818609E-02  0.8763637E-01
       -2   -1    0    0    0  501  0.00000000000E+00  0.00000000000E+00  0.41346518994E+03  0.41346518994E+03  0.25500000920E-02 0.  1.
        2   -1    0    0  501    0  0.00000000000E+00  0.00000000000E+00 -0.17392560954E+04  0.17392560954E+04  0.25500000920E-02 0. -1.
    10030    2    1    2    0    0  0.00000000000E+00  0.00000000000E+00 -0.13257909055E+04  0.21527212853E+04  0.16960210516E+04 0.  0.
        1    1    3    3  502    0  0.29819289571E+03  0.18251708378E+03  0.31773155464E+03  0.47242441699E+03  0.50400001928E-02 0.  1.
       -1    1    3    3    0  502 -0.29819289571E+03 -0.18251708378E+03 -0.16435224601E+04  0.16802968684E+04  0.50400001928E-02 0. -1.
</event>
<event>
 5   0  0.5821584E-05  0.1698522E+04  0.7818609E-02  0.8762208E-01
       -2   -1    0    0    0  501  0.00000000000E+00  0.00000000000E+00  0.10230664999E+04  0.10230664999E+04  0.25500000920E-02 0. -1.
        2   -1    0    0  501    0  0.00000000000E+00  0.00000000000E+00 -0.70498281960E+03  0.70498281961E+03  0.25500000920E-02 0.  1.
    10030    2    1    2    0    0  0.00000000000E+00  0.00000000000E+00  0.31808368033E+03  0.17280493196E+04  0.16985220702E+04 0.  0.
        1    1    3    3  502    0 -0.48891555469E+03 -0.35065320968E+03  0.76883457670E+03  0.97626978825E+03  0.50400001928E-02 0. -1.
       -1    1    3    3    0  502  0.48891555469E+03  0.35065320968E+03 -0.45075089637E+03  0.75177953130E+03  0.50400001928E-02 0.  1.
</event>
<event>
 5   0  0.5652631E-05  0.1700156E+04  0.7818609E-02  0.8761276E-01
        2   -1    0    0  501    0  0.00000000000E+00  0.00000000000E+00  0.61242345952E+03  0.61242345952E+03  0.25500000920E-02 0. -1.
       -2   -1    0    0    0  501  0.00000000000E+00  0.00000000000E+00 -0.11799551672E+04  0.11799551672E+04  0.25500000920E-02 0.  1.
    10030    2    1    2    0    0  0.00000000000E+00  0.00000000000E+00 -0.56753170767E+03  0.17923786267E+04  0.17001555524E+04 0.  0.
        2    1    3    3  502    0 -0.34141488343E+03  0.23422740006E+03 -0.10664705148E+04  0.11440218339E+04  0.25500000920E-02 0.  1.
       -2    1    3    3    0  502  0.34141488343E+03 -0.23422740006E+03  0.49893880709E+03  0.64835679282E+03  0.25500000920E-02 0. -1.
</event>
<event>
 5   0  0.2911632E-05  0.1686775E+04  0.7818609E-02  0.8768943E-01
        1   -1    0    0  501    0  0.00000000000E+00  0.00000000000E+00  0.11998396261E+04  0.11998396261E+04  0.50400001928E-02 0. -1.
       -1   -1    0    0    0  501  0.00000000000E+00  0.00000000000E+00 -0.59283153212E+03  0.59283153215E+03  0.50400001928E-02 0.  1.
    10030    2    1    2    0    0  0.00000000000E+00  0.00000000000E+00  0.60700809394E+03  0.17926711582E+04  0.16867753423E+04 0.  0.
        1    1    3    3  502    0 -0.75832092212E+03  0.20809954235E+03 -0.20507456736E+02  0.78662354164E+03  0.50400001928E-02 0.  1.
       -1    1    3    3    0  502  0.75832092212E+03 -0.20809954235E+03  0.62751555067E+03  0.10060476166E+04  0.50400001928E-02 0. -1.
</event>
<event>
 5   0  0.5821584E-05  0.1697751E+04  0.7818609E-02  0.8762648E-01
        2   -1    0    0  501    0  0.00000000000E+00  0.00000000000E+00  0.98832777447E+03  0.98832777447E+03  0.25500000920E-02 0. -1.
       -2   -1    0    0    0  501  0.00000000000E+00  0.00000000000E+00 -0.72910018329E+03  0.72910018329E+03  0.25500000920E-02 0.  1.
    10030    2    1    2    0    0  0.00000000000E+00  0.00000000000E+00  0.25922759118E+03  0.17174279578E+04  0.16977514088E+04 0.  0.
        1    1    3    3  502    0 -0.97749998479E+02 -0.88483072492E+02 -0.71867865728E+03  0.73067320245E+03  0.50400001928E-02 0.  1.
       -1    1    3    3    0  502  0.97749998479E+02  0.88483072492E+02  0.97790624847E+03  0.98675475531E+03  0.50400001928E-02 0. -1.
</event>
<event>
 5   0  0.5755321E-05  0.1703335E+04  0.7818609E-02  0.8759465E-01
        2   -1    0    0  501    0  0.00000000000E+00  0.00000000000E+00  0.15647338563E+04  0.15647338563E+04  0.25500000920E-02 0.  1.
       -2   -1    0    0    0  501  0.00000000000E+00  0.00000000000E+00 -0.46355318573E+03  0.46355318573E+03  0.25500000920E-02 0. -1.
    10030    2    1    2    0    0  0.00000000000E+00  0.00000000000E+00  0.11011806705E+04  0.20282870420E+04  0.17033348043E+04 0.  0.
        4    1    3    3  502    0 -0.58354620315E+03 -0.73557957902E+02  0.12840519258E+04  0.14123483654E+04  0.12699999809E+01 0.  1.
       -4    1    3    3    0  502  0.58354620315E+03  0.73557957902E+02 -0.18287125523E+03  0.61593867656E+03  0.12699999809E+01 0. -1.
</event>
<event>
 5   0  0.5671132E-05  0.1700028E+04  0.7818609E-02  0.8761349E-01
        2   -1    0    0  501    0  0.00000000000E+00  0.00000000000E+00  0.22506285489E+04  0.22506285489E+04  0.25500000920E-02 0.  1.
       -2   -1    0    0    0  501  0.00000000000E+00  0.00000000000E+00 -0.32103184622E+03  0.32103184623E+03  0.25500000920E-02 0. -1.
    10030    2    1    2    0    0  0.00000000000E+00  0.00000000000E+00  0.19295967027E+04  0.25716603951E+04  0.17000275742E+04 0.  0.
        3    1    3    3  502    0  0.31806274309E+03  0.60509331052E+03  0.17290147784E+04  0.18592455290E+04  0.10100000352E+00 0.  1.
       -3    1    3    3    0  502 -0.31806274309E+03 -0.60509331052E+03  0.20058192433E+03  0.71241486618E+03  0.10100000352E+00 0. -1.
</event>
<event>
 5   0  0.2987859E-05  0.1700140E+04  0.7818609E-02  0.8761284E-01
       -1   -1    0    0    0  501  0.00000000000E+00  0.00000000000E+00  0.94682302509E+03  0.94682302510E+03  0.50400001928E-02 0. -1.
        1   -1    0    0  501    0  0.00000000000E+00  0.00000000000E+00 -0.76320429088E+03  0.76320429090E+03  0.50400001928E-02 0.  1.
    10030    2    1    2    0    0  0.00000000000E+00  0.00000000000E+00  0.18361873421E+03  0.17100273160E+04  0.17001404595E+04 0.  0.
        5    1    3    3  502    0 -0.10318798240E+03 -0.45120221645E+03 -0.62533491275E+03  0.77800838231E+03  0.46999998093E+01 0.  1.
       -5    1    3    3    0  502  0.10318798240E+03  0.45120221645E+03  0.80895364696E+03  0.93201893369E+03  0.46999998093E+01 0. -1.
</event>
<event>
 5   0  0.2967704E-05  0.1698886E+04  0.7818609E-02  0.8762000E-01
       -1   -1    0    0    0  501  0.00000000000E+00  0.00000000000E+00  0.49370062738E+03  0.49370062740E+03  0.50400001928E-02 0. -1.
        1   -1    0    0  501    0  0.00000000000E+00  0.00000000000E+00 -0.14615203638E+04  0.14615203639E+04  0.50400001928E-02 0.  1.
    10030    2    1    2    0    0  0.00000000000E+00  0.00000000000E+00 -0.96781973647E+03  0.19552209913E+04  0.16988861299E+04 0.  0.
        2    1    3    3  502    0 -0.31994622492E+03  0.57431143116E+03  0.13516982849E+03  0.67117068570E+03  0.25500000920E-02 0. -1.
       -2    1    3    3    0  502  0.31994622492E+03 -0.57431143116E+03 -0.11029895650E+04  0.12840503056E+04  0.25500000920E-02 0.  1.
</event>
<event>
 5   0  0.5821584E-05  0.1699074E+04  0.7818609E-02  0.8761893E-01
       -2   -1    0    0    0  501  0.00000000000E+00  0.00000000000E+00  0.50455413727E+03  0.50455413727E+03  0.25500000920E-02 0. -1.
        2   -1    0    0  501    0  0.00000000000E+00  0.00000000000E+00 -0.14303969821E+04  0.14303969821E+04  0.25500000920E-02 0.  1.
    10030    2    1    2    0    0  0.00000000000E+00  0.00000000000E+00 -0.92584284484E+03  0.19349511194E+04  0.16990735302E+04 0.  0.
        1    1    3    3  502    0  0.73580181914E+02  0.39994519546E+03 -0.13123540685E+04  0.13739153553E+04  0.50400001928E-02 0.  1.
       -1    1    3    3    0  502 -0.73580181914E+02 -0.39994519546E+03  0.38651122363E+03  0.56103576406E+03  0.50400001928E-02 0. -1.
</event>
<event>
 5   0  0.5755321E-05  0.1702863E+04  0.7818609E-02  0.8759733E-01
       -2   -1    0    0    0  501  0.00000000000E+00  0.00000000000E+00  0.10081918140E+04  0.10081918140E+04  0.25500000920E-02 0. -1.
        2   -1    0    0  501    0  0.00000000000E+00  0.00000000000E+00 -0.71904519175E+03  0.71904519175E+03  0.25500000920E-02 0.  1.
    10030    2    1    2    0    0  0.00000000000E+00  0.00000000000E+00  0.28914662221E+03  0.17272370057E+04  0.17028628555E+04 0.  0.
        4    1    3    3  502    0 -0.13838103532E+03 -0.49502504917E+03 -0.54391686507E+03  0.74836239834E+03  0.12699999809E+01 0.  1.
       -4    1    3    3    0  502  0.13838103532E+03  0.49502504917E+03  0.83306348728E+03  0.97887460738E+03  0.12699999809E+01 0. -1.
</event>
<event>
 5   0  0.5671132E-05  0.1698477E+04  0.7818609E-02  0.8762233E-01
       -2   -1    0    0    0  501  0.00000000000E+00  0.00000000000E+00  0.99874120298E+03  0.99874120298E+03  0.25500000920E-02 0. -1.
        2   -1    0    0  501    0  0.00000000000E+00  0.00000000000E+00 -0.72211540025E+03  0.72211540025E+03  0.25500000920E-02 0.  1.
    10030    2    1    2    0    0  0.00000000000E+00  0.00000000000E+00  0.27662580273E+03  0.17208566032E+04  0.16984774400E+04 0.  0.
        3    1    3    3  502    0  0.46385167054E+03  0.55072552899E+03  0.59452279819E+03  0.93376353983E+03  0.10100000352E+00 0.  1.
       -3    1    3    3    0  502 -0.46385167054E+03 -0.55072552899E+03 -0.31789699546E+03  0.78709306341E+03  0.10100000352E+00 0. -1.
</event>
<event>
 5   0  0.2911632E-05  0.1700598E+04  0.7818609E-02  0.8761023E-01
        1   -1    0    0  501    0  0.00000000000E+00  0.00000000000E+00  0.12038182995E+04  0.12038182995E+04  0.50400001928E-02 0.  1.
       -1   -1    0    0    0  501  0.00000000000E+00  0.00000000000E+00 -0.60059604674E+03  0.60059604676E+03  0.50400001928E-02 0. -1.
    10030    2    1    2    0    0  0.00000000000E+00  0.00000000000E+00  0.60322225277E+03  0.18044143463E+04  0.17005981438E+04 0.  0.
        1    1    3    3  502    0  0.30651759223E+03 -0.59688984920E+03  0.85577630019E+03  0.10874665983E+04  0.50400001928E-02 0.  1.
       -1    1    3    3    0  502 -0.30651759223E+03  0.59688984920E+03 -0.25255404742E+03  0.71694774797E+03  0.50400001928E-02 0. -1.
</event>
<event>
 5   0  0.5652631E-05  0.1699871E+04  0.7818609E-02  0.8761438E-01
       -2   -1    0    0    0  501  0.00000000000E+00  0.00000000000E+00  0.62871328734E+03  0.62871328735E+03  0.25500000920E-02 0. -1.
        2   -1    0    0  501    0  0.00000000000E+00  0.00000000000E+00 -0.11489985247E+04  0.11489985247E+04  0.25500000920E-02 0.  1.
    10030    2    1    2    0    0  0.00000000000E+00  0.00000000000E+00 -0.52028523735E+03  0.17777118120E+04  0.16998713359E+04 0.  0.
        2    1    3    3  502    0  0.27352097537E+03 -0.11722656059E+03 -0.10927367862E+04  0.11325323282E+04  0.25500000920E-02 0.  1.
       -2    1    3    3    0  502 -0.27352097537E+03  0.11722656059E+03  0.57245154890E+03  0.64517948380E+03  0.25500000920E-02 0. -1.
</event>
<event>
 5   0  0.2911632E-05  0.1693228E+04  0.7818609E-02  0.8765236E-01
       -1   -1    0    0    0  501  0.00000000000E+00  0.00000000000E+00  0.62682680938E+03  0.62682680940E+03  0.50400001928E-02 0.  1.
        1   -1    0    0  501    0  0.00000000000E+00  0.00000000000E+00 -0.11434661873E+04  0.11434661873E+04  0.50400001928E-02 0. -1.
    10030    2    1    2    0    0  0.00000000000E+00  0.00000000000E+00 -0.51663937796E+03  0.17702929967E+04  0.16932279963E+04 0.  0.
        1    1    3    3  502    0 -0.51693156809E+03  0.34934922342E+03 -0.85663504385E+03  0.10597578612E+04  0.50400001928E-02 0. -1.
       -1    1    3    3    0  502  0.51693156809E+03 -0.34934922342E+03  0.33999566590E+03  0.71053513554E+03  0.50400001928E-02 0.  1.
</event>
<event>
 5   0  0.2967704E-05  0.1696140E+04  0.7818609E-02  0.8763569E-01
       -1   -1    0    0    0  501  0.00000000000E+00  0.00000000000E+00  0.10332001599E+04  0.10332001599E+04  0.50400001928E-02 0.  1.
        1   -1    0    0  501    0  0.00000000000E+00  0.00000000000E+00 -0.69611166414E+03  0.69611166416E+03  0.50400001928E-02 0. -1.
    10030    2    1    2    0    0  0.00000000000E+00  0.00000000000E+00  0.33708849579E+03  0.17293118241E+04  0.16961399503E+04 0.  0.
        2    1    3    3  502    0 -0.77639572251E+02  0.84107422722E+03  0.90971255188E+02  0.84953488931E+03  0.25500000920E-02 0.  1.
       -2    1    3    3    0  502  0.77639572251E+02 -0.84107422722E+03  0.24611724060E+03  0.87977693480E+03  0.25500000920E-02 0. -1.
</event>
<event>
 5   0  0.5859822E-05  0.1715371E+04  0.7818609E-02  0.8752646E-01
       -2   -1    0    0    0  501  0.00000000000E+00  0.00000000000E+00  0.47793027331E+03  0.47793027332E+03  0.25500000920E-02 0.  1.
        2   -1    0    0  501    0  0.00000000000E+00  0.00000000000E+00 -0.15391869331E+04  0.15391869331E+04  0.25500000920E-02 0. -1.
    10030    2    1    2    0    0  0.00000000000E+00  0.00000000000E+00 -0.10612566597E+04  0.20171172064E+04  0.17153705508E+04 0.  0.
        5    1    3    3  502    0 -0.54544497530E+03  0.75215162959E+02 -0.13039021399E+04  0.14153976198E+04  0.46999998093E+01 0. -1.
       -5    1    3    3    0  502  0.54544497530E+03 -0.75215162959E+02  0.24264548014E+03  0.60171958656E+03  0.46999998093E+01 0.  1.
</event>
<event>
 5   0  0.2911632E-05  0.1700632E+04  0.7818609E-02  0.8761004E-01
       -1   -1    0    0    0  501  0.00000000000E+00  0.00000000000E+00  0.66333425141E+03  0.66333425143E+03  0.50400001928E-02 0.  1.
        1   -1    0    0  501    0  0.00000000000E+00  0.00000000000E+00 -0.10900045582E+04  0.10900045582E+04  0.50400001928E-02 0. -1.
    10030    2    1    2    0    0  0.00000000000E+00  0.00000000000E+00 -0.42667030680E+03  0.17533388097E+04  0.17006320680E+04 0.  0.
        1    1    3    3  502    0 -0.13635805694E+02  0.14468600148E+03  0.65043557170E+03  0.66647311062E+03  0.50400001928E-02 0.  1.
       -1    1    3    3    0  502  0.13635805694E+02 -0.14468600148E+03 -0.10771058785E+04  0.10868656990E+04  0.50400001928E-02 0. -1.
</event>
<event>
 5   0  0.5755321E-05  0.1699192E+04  0.7818609E-02  0.8761825E-01
        2   -1    0    0  501    0  0.00000000000E+00  0.00000000000E+00  0.85354621837E+03  0.85354621837E+03  0.25500000920E-02 0.  1.
       -2   -1    0    0    0  501  0.00000000000E+00  0.00000000000E+00 -0.84566454775E+03  0.84566454775E+03  0.25500000920E-02 0. -1.
    10030    2    1    2    0    0  0.00000000000E+00  0.00000000000E+00  0.78816706204E+01  0.16992107661E+04  0.16991924867E+04 0.  0.
        4    1    3    3  502    0 -0.23376674964E+03  0.32638659583E+03  0.75270590064E+03  0.85307847759E+03  0.12699999809E+01 0.  1.
       -4    1    3    3    0  502  0.23376674964E+03 -0.32638659583E+03 -0.74482423002E+03  0.84613228853E+03  0.12699999809E+01 0. -1.
</event>
<event>
 5   0  0.2098250E-05  0.1692375E+04  0.7818609E-02  0.8765725E-01
        3   -1    0    0  501    0  0.00000000000E+00  0.00000000000E+00  0.56826985622E+03  0.56826986520E+03  0.10100000352E+00 0. -1.
       -3   -1    0    0    0  501  0.00000000000E+00  0.00000000000E+00 -0.12600237611E+04  0.12600237651E+04  0.10100000352E+00 0.  1.
    10030    2    1    2    0    0  0.00000000000E+00  0.00000000000E+00 -0.69175390483E+03  0.18282936303E+04  0.16923752934E+04 0.  0.
        4    1    3    3  502    0  0.59541197840E+03  0.23965143325E+03  0.24984805440E+03  0.68874806473E+03  0.12699999809E+01 0. -1.
       -4    1    3    3    0  502 -0.59541197840E+03 -0.23965143325E+03 -0.94160195923E+03  0.11395455656E+04  0.12699999809E+01 0.  1.
</event>
<event>
 5   0  0.5671132E-05  0.1695450E+04  0.7818609E-02  0.8763964E-01
       -2   -1    0    0    0  501  0.00000000000E+00  0.00000000000E+00  0.28301983406E+03  0.28301983407E+03  0.25500000920E-02 0. -1.
        2   -1    0    0  501    0  0.00000000000E+00  0.00000000000E+00 -0.25391771622E+04  0.25391771622E+04  0.25500000920E-02 0.  1.
    10030    2    1    2    0    0  0.00000000000E+00  0.00000000000E+00 -0.22561573281E+04  0.28221969963E+04  0.16954497918E+04 0.  0.
        3    1    3    3  502    0 -0.13241104775E+03  0.37185678630E+03 -0.23768703033E+04  0.24094237078E+04  0.10100000352E+00 0.  1.
       -3    1    3    3    0  502  0.13241104775E+03 -0.37185678630E+03  0.12071297513E+03  0.41277328844E+03  0.10100000352E+00 0. -1.
</event>
<event>
 5   0  0.5671132E-05  0.1702756E+04  0.7818609E-02  0.8759794E-01
        2   -1    0    0  501    0  0.00000000000E+00  0.00000000000E+00  0.11016040752E+04  0.11016040752E+04  0.25500000920E-02 0.  1.
       -2   -1    0    0    0  501  0.00000000000E+00  0.00000000000E+00 -0.65798991338E+03  0.65798991338E+03  0.25500000920E-02 0. -1.
    10030    2    1    2    0    0  0.00000000000E+00  0.00000000000E+00  0.44361416186E+03  0.17595939886E+04  0.17027558487E+04 0.  0.
        3    1    3    3  502    0  0.32776568281E+03 -0.42729257635E+03 -0.45962467900E+03  0.70800010196E+03  0.10100000352E+00 0. -1.
       -3    1    3    3    0  502 -0.32776568281E+03  0.42729257635E+03  0.90323884086E+03  0.10515938867E+04  0.10100000352E+00 0.  1.
</event>
<event>
 5   0  0.2993769E-05  0.1703175E+04  0.7818609E-02  0.8759555E-01
        1   -1    0    0  501    0  0.00000000000E+00  0.00000000000E+00  0.91551838871E+03  0.91551838872E+03  0.50400001928E-02 0.  1.
       -1   -1    0    0    0  501  0.00000000000E+00  0.00000000000E+00 -0.79212110514E+03  0.79212110515E+03  0.50400001928E-02 0. -1.
    10030    2    1    2    0    0  0.00000000000E+00  0.00000000000E+00  0.12339728358E+03  0.17076394939E+04  0.17031751969E+04 0.  0.
        3    1    3    3  502    0 -0.26343778042E+02 -0.27062116734E+03 -0.74743068489E+03  0.79535052007E+03  0.10100000352E+00 0. -1.
       -3    1    3    3    0  502  0.26343778042E+02  0.27062116734E+03  0.87082796847E+03  0.91228897380E+03  0.10100000352E+00 0.  1.
</event>
<event>
 5   0  0.5652631E-05  0.1699030E+04  0.7818609E-02  0.8761918E-01
        2   -1    0    0  501    0  0.00000000000E+00  0.00000000000E+00  0.13248925789E+04  0.13248925790E+04  0.25500000920E-02 0. -1.
       -2   -1    0    0    0  501  0.00000000000E+00  0.00000000000E+00 -0.54470503896E+03  0.54470503897E+03  0.25500000920E-02 0.  1.
    10030    2    1    2    0    0  0.00000000000E+00  0.00000000000E+00  0.78018753999E+03  0.18695976179E+04  0.16990299160E+04 0.  0.
        2    1    3    3  502    0  0.23517530781E+03  0.64762737799E+03 -0.15673205023E+03  0.70660709145E+03  0.25500000920E-02 0.  1.
       -2    1    3    3    0  502 -0.23517530781E+03 -0.64762737799E+03  0.93691959022E+03  0.11629905265E+04  0.25500000920E-02 0. -1.
</event>
<event>
 5   0  0.5755321E-05  0.1692638E+04  0.7818609E-02  0.8765574E-01
       -2   -1    0    0    0  501  0.00000000000E+00  0.00000000000E+00  0.69255736439E+03  0.69255736440E+03  0.25500000920E-02 0. -1.
        2   -1    0    0  501    0  0.00000000000E+00  0.00000000000E+00 -0.10342189474E+04  0.10342189474E+04  0.25500000920E-02 0.  1.
    10030    2    1    2    0    0  0.00000000000E+00  0.00000000000E+00 -0.34166158296E+03  0.17267763118E+04  0.16926381165E+04 0.  0.
        4    1    3    3  502    0 -0.12349366158E+03  0.35445786493E+03 -0.94465628594E+03  0.10164979950E+04  0.12699999809E+01 0.  1.
       -4    1    3    3    0  502  0.12349366158E+03 -0.35445786493E+03  0.60299470298E+03  0.71027831671E+03  0.12699999809E+01 0. -1.
</event>
<event>
 5   0  0.5755321E-05  0.1692566E+04  0.7818609E-02  0.8765616E-01
        2   -1    0    0  501    0  0.00000000000E+00  0.00000000000E+00  0.16213422222E+04  0.16213422222E+04  0.25500000920E-02 0. -1.
       -2   -1    0    0    0  501  0.00000000000E+00  0.00000000000E+00 -0.44172966722E+03  0.44172966722E+03  0.25500000920E-02 0.  1.
    10030    2    1    2    0    0  0.00000000000E+00  0.00000000000E+00  0.11796125550E+04  0.20630718894E+04  0.16925660522E+04 0.  0.
        4    1    3    3  502    0  0.53171336801E+03 -0.43303714806E+03  0.11943042653E+04  0.13771726719E+04  0.12699999809E+01 0. -1.
       -4    1    3    3    0  502 -0.53171336801E+03  0.43303714806E+03 -0.14691710297E+02  0.68589921750E+03  0.12699999809E+01 0.  1.
</event>
<event>
 5   0  0.2966258E-05  0.1704111E+04  0.7818609E-02  0.8759023E-01
       -1   -1    0    0    0  501  0.00000000000E+00  0.00000000000E+00  0.58540417594E+03  0.58540417596E+03  0.50400001928E-02 0. -1.
        1   -1    0    0  501    0  0.00000000000E+00  0.00000000000E+00 -0.12401670840E+04  0.12401670840E+04  0.50400001928E-02 0.  1.
    10030    2    1    2    0    0  0.00000000000E+00  0.00000000000E+00 -0.65476290807E+03  0.18255712600E+04  0.17041114868E+04 0.  0.
        4    1    3    3  502    0 -0.31061043256E+03 -0.16042613013E+03  0.50503539921E+03  0.61422939639E+03  0.12699999809E+01 0. -1.
       -4    1    3    3    0  502  0.31061043256E+03  0.16042613013E+03 -0.11597983073E+04  0.12113418636E+04  0.12699999809E+01 0.  1.
</event>
<event>
 5   0  0.2993769E-05  0.1699762E+04  0.7818609E-02  0.8761500E-01
        1   -1    0    0  501    0  0.00000000000E+00  0.00000000000E+00  0.56763193145E+03  0.56763193147E+03  0.50400001928E-02 0.  1.
       -1   -1    0    0    0  501  0.00000000000E+00  0.00000000000E+00 -0.12724748287E+04  0.12724748287E+04  0.50400001928E-02 0. -1.
    10030    2    1    2    0    0  0.00000000000E+00  0.00000000000E+00 -0.70484289728E+03  0.18401067602E+04  0.16997615654E+04 0.  0.
        3    1    3    3  502    0  0.41311642361E+03 -0.70915070044E+03 -0.59141510259E+03  0.10115986008E+04  0.10100000352E+00 0. -1.
       -3    1    3    3    0  502 -0.41311642361E+03  0.70915070044E+03 -0.11342779469E+03  0.82850815940E+03  0.10100000352E+00 0.  1.
</event>
<event>
 5   0  0.2911632E-05  0.1700885E+04  0.7818609E-02  0.8760860E-01
       -1   -1    0    0    0  501  0.00000000000E+00  0.00000000000E+00  0.42399295981E+03  0.42399295984E+03  0.50400001928E-02 0. -1.
        1   -1    0    0  501    0  0.00000000000E+00  0.00000000000E+00 -0.17058119612E+04  0.17058119612E+04  0.50400001928E-02 0.  1.
    10030    2    1    2    0    0  0.00000000000E+00  0.00000000000E+00 -0.12818190014E+04  0.21298049210E+04  0.17008847843E+04 0.  0.
        1    1    3    3  502    0  0.50740677584E+03  0.36515139216E+03  0.81080896646E+02  0.63037392648E+03  0.50400001928E-02 0. -1.
       -1    1    3    3    0  502 -0.50740677584E+03 -0.36515139216E+03 -0.13628998980E+04  0.14994309945E+04  0.50400001928E-02 0.  1.
</event>
<event>
 5   0  0.2966258E-05  0.1698824E+04  0.7818609E-02  0.8762036E-01
        1   -1    0    0  501    0  0.00000000000E+00  0.00000000000E+00  0.21416835312E+04  0.21416835312E+04  0.50400001928E-02 0. -1.
       -1   -1    0    0    0  501  0.00000000000E+00  0.00000000000E+00 -0.33688468985E+03  0.33688468988E+03  0.50400001928E-02 0.  1.
    10030    2    1    2    0    0  0.00000000000E+00  0.00000000000E+00  0.18047988413E+04  0.24785682211E+04  0.16988235838E+04 0.  0.
        4    1    3    3  502    0 -0.68864518677E+03  0.30919812740E+03  0.14705880860E+04  0.16530174249E+04  0.12699999809E+01 0.  1.
       -4    1    3    3    0  502  0.68864518677E+03 -0.30919812740E+03  0.33421075530E+03  0.82555079620E+03  0.12699999809E+01 0. -1.
</event>
<event>
 5   0  0.2911632E-05  0.1698783E+04  0.7818609E-02  0.8762059E-01
        1   -1    0    0  501    0  0.00000000000E+00  0.00000000000E+00  0.17794599546E+04  0.17794599546E+04  0.50400001928E-02 0. -1.
       -1   -1    0    0    0  501  0.00000000000E+00  0.00000000000E+00 -0.40544109054E+03  0.40544109057E+03  0.50400001928E-02 0.  1.
    10030    2    1    2    0    0  0.00000000000E+00  0.00000000000E+00  0.13740188640E+04  0.21849010451E+04  0.16987833112E+04 0.  0.
        1    1    3    3  502    0  0.83971542440E+03  0.11324291136E+03  0.76331909403E+03  0.11404393847E+04  0.50400001928E-02 0. -1.
       -1    1    3    3    0  502 -0.83971542440E+03 -0.11324291136E+03  0.61069976998E+03  0.10444616604E+04  0.50400001928E-02 0.  1.
</event>
<event>
 5   0  0.5652631E-05  0.1699574E+04  0.7818609E-02  0.8761607E-01
        2   -1    0    0  501    0  0.00000000000E+00  0.00000000000E+00  0.20689356635E+04  0.20689356635E+04  0.25500000920E-02 0.  1.
       -2   -1    0    0    0  501  0.00000000000E+00  0.00000000000E+00 -0.34903852275E+03  0.34903852276E+03  0.25500000920E-02 0. -1.
    10030    2    1    2    0    0  0.00000000000E+00  0.00000000000E+00  0.17198971407E+04  0.24179741862E+04  0.16995743557E+04 0.  0.
        2    1    3    3  502    0 -0.60764991431E+02 -0.84639618655E+03  0.92451064942E+03  0.12549098891E+04  0.25500000920E-02 0. -1.
       -2    1    3    3    0  502  0.60764991431E+02  0.84639618655E+03  0.79538649132E+03  0.11630642972E+04  0.25500000920E-02 0.  1.
</event>
<event>
 5   0  0.2966258E-05  0.1700336E+04  0.7818609E-02  0.8761173E-01
        1   -1    0    0  501    0  0.00000000000E+00  0.00000000000E+00  0.39679229708E+03  0.39679229711E+03  0.50400001928E-02 0. -1.
       -1   -1    0    0    0  501  0.00000000000E+00  0.00000000000E+00 -0.18215724682E+04  0.18215724682E+04  0.50400001928E-02 0.  1.
    10030    2    1    2    0    0  0.00000000000E+00  0.00000000000E+00 -0.14247801711E+04  0.22183647653E+04  0.17003363479E+04 0.  0.
        4    1    3    3  502    0  0.21694281488E+03  0.10173776151E+03 -0.17766055908E+04  0.17926917736E+04  0.12699999809E+01 0.  1.
       -4    1    3    3    0  502 -0.21694281488E+03 -0.10173776151E+03  0.35182541967E+03  0.42567299171E+03  0.12699999809E+01 0. -1.
</event>
<event>
 5   0  0.5652631E-05  0.1702115E+04  0.7818609E-02  0.8760159E-01
        2   -1    0    0  501    0  0.00000000000E+00  0.00000000000E+00  0.90449554345E+03  0.90449554345E+03  0.25500000920E-02 0.  1.
       -2   -1    0    0    0  501  0.00000000000E+00  0.00000000000E+00 -0.80077697407E+03  0.80077697408E+03  0.25500000920E-02 0. -1.
    10030    2    1    2    0    0  0.00000000000E+00  0.00000000000E+00  0.10371856937E+03  0.17052725175E+04  0.17021153949E+04 0.  0.
        2    1    3    3  502    0  0.50876377947E+03  0.17044029580E+02 -0.63143811137E+03  0.81107655048E+03  0.25500000920E-02 0. -1.
       -2    1    3    3    0  502 -0.50876377947E+03 -0.17044029580E+02  0.73515668074E+03  0.89419596705E+03  0.25500000920E-02 0.  1.
</event>
<event>
 5   0  0.2911632E-05  0.1690508E+04  0.7818609E-02  0.8766797E-01
       -1   -1    0    0    0  501  0.00000000000E+00  0.00000000000E+00  0.62935191427E+03  0.62935191429E+03  0.50400001928E-02 0.  1.
        1   -1    0    0  501    0  0.00000000000E+00  0.00000000000E+00 -0.11352216378E+04  0.11352216378E+04  0.50400001928E-02 0. -1.
    10030    2    1    2    0    0  0.00000000000E+00  0.00000000000E+00 -0.50586972356E+03  0.17645735521E+04  0.16905075107E+04 0.  0.
        1    1    3    3  502    0  0.52350282753E+03  0.65570941504E+03 -0.35960755354E+03  0.91286781080E+03  0.50400001928E-02 0. -1.
       -1    1    3    3    0  502 -0.52350282753E+03 -0.65570941504E+03 -0.14626217002E+03  0.85170574133E+03  0.50400001928E-02 0.  1.
</event>
<event>
 5   0  0.2993769E-05  0.1720901E+04  0.7818609E-02  0.8749533E-01
       -1   -1    0    0    0  501  0.00000000000E+00  0.00000000000E+00  0.49499949565E+03  0.49499949567E+03  0.50400001928E-02 0.  1.
        1   -1    0    0  501    0  0.00000000000E+00  0.00000000000E+00 -0.14957087060E+04  0.14957087060E+04  0.50400001928E-02 0. -1.
    10030    2    1    2    0    0  0.00000000000E+00  0.00000000000E+00 -0.10007092103E+04  0.19907082017E+04  0.17209009909E+04 0.  0.
        3    1    3    3  502    0 -0.46917468730E+03 -0.41783570202E+03 -0.11804635276E+04  0.13372380907E+04  0.10100000352E+00 0. -1.
       -3    1    3    3    0  502  0.46917468730E+03  0.41783570202E+03  0.17975431728E+03  0.65347011093E+03  0.10100000352E+00 0.  1.
</event>
<event>
 5   0  0.5652631E-05  0.1700265E+04  0.7818609E-02  0.8761213E-01
        2   -1    0    0  501    0  0.00000000000E+00  0.00000000000E+00  0.10413740556E+04  0.10413740556E+04  0.25500000920E-02 0.  1.
       -2   -1    0    0    0  501  0.00000000000E+00  0.00000000000E+00 -0.69401131765E+03  0.69401131765E+03  0.25500000920E-02 0. -1.
    10030    2    1    2    0    0  0.00000000000E+00  0.00000000000E+00  0.34736273797E+03  0.17353853733E+04  0.17002651329E+04 0.  0.
        2    1    3    3  502    0 -0.76302915580E+02 -0.68577048645E+03 -0.33318708956E+03  0.76623555886E+03  0.25500000920E-02 0. -1.
       -2    1    3    3    0  502  0.76302915580E+02  0.68577048645E+03  0.68054982753E+03  0.96914981441E+03  0.25500000920E-02 0.  1.
</event>
<event>
 5   0  0.5671132E-05  0.1711021E+04  0.7818609E-02  0.8755103E-01
       -2   -1    0    0    0  501  0.00000000000E+00  0.00000000000E+00  0.67440404821E+03  0.67440404821E+03  0.25500000920E-02 0. -1.
        2   -1    0    0  501    0  0.00000000000E+00  0.00000000000E+00 -0.10852520666E+04  0.10852520666E+04  0.25500000920E-02 0.  1.
    10030    2    1    2    0    0  0.00000000000E+00  0.00000000000E+00 -0.41084801837E+03  0.17596561148E+04  0.17110212004E+04 0.  0.
        3    1    3    3  502    0  0.46955050923E+03 -0.37951578883E+03  0.41793059114E+03  0.73428598237E+03  0.10100000352E+00 0. -1.
       -3    1    3    3    0  502 -0.46955050923E+03  0.37951578883E+03 -0.82877860951E+03  0.10253701324E+04  0.10100000352E+00 0.  1.
</event>
<event>
 5   0  0.5859822E-05  0.1700506E+04  0.7818609E-02  0.8761076E-01
       -2   -1    0    0    0  501  0.00000000000E+00  0.00000000000E+00  0.59196341621E+03  0.59196341621E+03  0.25500000920E-02 0.  1.
        2   -1    0    0  501    0  0.00000000000E+00  0.00000000000E+00 -0.12212418529E+04  0.12212418529E+04  0.25500000920E-02 0. -1.
    10030    2    1    2    0    0  0.00000000000E+00  0.00000000000E+00 -0.62927843673E+03  0.18132052691E+04  0.17005063943E+04 0.  0.
        5    1    3    3  502    0 -0.70997187730E+03  0.44635221407E+03 -0.46398623521E+03  0.95843397374E+03  0.46999998093E+01 0. -1.
       -5    1    3    3    0  502  0.70997187730E+03 -0.44635221407E+03 -0.16529220153E+03  0.85477129541E+03  0.46999998093E+01 0.  1.
</event>
<event>
 5   0  0.2966258E-05  0.1699203E+04  0.7818609E-02  0.8761819E-01
       -1   -1    0    0    0  501  0.00000000000E+00  0.00000000000E+00  0.69127640164E+03  0.69127640166E+03  0.50400001928E-02 0. -1.
        1   -1    0    0  501    0  0.00000000000E+00  0.00000000000E+00 -0.10441885255E+04  0.10441885255E+04  0.50400001928E-02 0.  1.
    10030    2    1    2    0    0  0.00000000000E+00  0.00000000000E+00 -0.35291212382E+03  0.17354649271E+04  0.16992032092E+04 0.  0.
        4    1    3    3  502    0  0.47954234637E+03  0.30594244284E+03 -0.82100168915E+03  0.99880279675E+03  0.12699999809E+01 0.  1.
       -4    1    3    3    0  502 -0.47954234637E+03 -0.30594244284E+03  0.46808956533E+03  0.73666213040E+03  0.12699999809E+01 0. -1.
</event>
<event>
 5   0  0.2911632E-05  0.1684914E+04  0.7818609E-02  0.8770015E-01
        1   -1    0    0  501    0  0.00000000000E+00  0.00000000000E+00  0.94562874532E+03  0.94562874534E+03  0.50400001928E-02 0. -1.
       -1   -1    0    0    0  501  0.00000000000E+00  0.00000000000E+00 -0.75054181930E+03  0.75054181932E+03  0.50400001928E-02 0.  1.
    10030    2    1    2    0    0  0.00000000000E+00  0.00000000000E+00  0.19508692602E+03  0.16961705647E+04  0.16849141449E+04 0.  0.
        1    1    3    3  502    0  0.74768574794E+03  0.38516147604E+03  0.14635012823E+03  0.85369883469E+03  0.50400001928E-02 0.  1.
       -1    1    3    3    0  502 -0.74768574794E+03 -0.38516147604E+03  0.48736797793E+02  0.84247172996E+03  0.50400001928E-02 0. -1.
</event>
<event>
 5   0  0.2993769E-05  0.1702042E+04  0.7818609E-02  0.8760200E-01
       -1   -1    0    0    0  501  0.00000000000E+00  0.00000000000E+00  0.10243507356E+04  0.10243507356E+04  0.50400001928E-02 0.  1.
        1   -1    0    0  501    0  0.00000000000E+00  0.00000000000E+00 -0.70702046300E+03  0.70702046302E+03  0.50400001928E-02 0. -1.
    10030    2    1    2    0    0  0.00000000000E+00  0.00000000000E+00  0.31733027259E+03  0.17313711986E+04  0.17020422220E+04 0.  0.
        3    1    3    3  502    0  0.73234230785E+03 -0.16488403804E+01  0.59961944286E+03  0.94650486581E+03  0.10100000352E+00 0.  1.
       -3    1    3    3    0  502 -0.73234230785E+03  0.16488403804E+01 -0.28228917026E+03  0.78486633282E+03  0.10100000352E+00 0. -1.
</event>
<event>
 5   0  0.5671132E-05  0.1698450E+04  0.7818609E-02  0.8762249E-01
        2   -1    0    0  501    0  0.00000000000E+00  0.00000000000E+00  0.13790406366E+04  0.13790406366E+04  0.25500000920E-02 0.  1.
       -2   -1    0    0    0  501  0.00000000000E+00  0.00000000000E+00 -0.52296025650E+03  0.52296025650E+03  0.25500000920E-02 0. -1.
    10030    2    1    2    0    0  0.00000000000E+00  0.00000000000E+00  0.85608038014E+03  0.19020008931E+04  0.16984504056E+04 0.  0.
        3    1    3    3  502    0  0.53883019790E+03  0.55252007455E+03  0.31218282853E+02  0.77239303876E+03  0.10100000352E+00 0. -1.
       -3    1    3    3    0  502 -0.53883019790E+03 -0.55252007455E+03  0.82486209729E+03  0.11296078544E+04  0.10100000352E+00 0.  1.
</event>
<event>
 5   0  0.5652631E-05  0.1699032E+04  0.7818609E-02  0.8761917E-01
       -2   -1    0    0    0  501  0.00000000000E+00  0.00000000000E+00  0.33696660902E+03  0.33696660903E+03  0.25500000920E-02 0. -1.
        2   -1    0    0  501    0  0.00000000000E+00  0.00000000000E+00 -0.21416871747E+04  0.21416871747E+04  0.25500000920E-02 0.  1.
    10030    2    1    2    0    0  0.00000000000E+00  0.00000000000E+00 -0.18047205657E+04  0.24786537837E+04  0.16990315652E+04 0.  0.
        2    1    3    3  502    0  0.51931806739E+03  0.58879162418E+03 -0.13757836703E+04  0.15840288947E+04  0.25500000920E-02 0.  1.
       -2    1    3    3    0  502 -0.51931806739E+03 -0.58879162418E+03 -0.42893689538E+03  0.89462488902E+03  0.25500000920E-02 0. -1.
</event>
<event>
 5   0  0.2967704E-05  0.1698736E+04  0.7818609E-02  0.8762086E-01
       -1   -1    0    0    0  501  0.00000000000E+00  0.00000000000E+00  0.51400962725E+03  0.51400962727E+03  0.50400001928E-02 0. -1.
        1   -1    0    0  501    0  0.00000000000E+00  0.00000000000E+00 -0.14035256888E+04  0.14035256888E+04  0.50400001928E-02 0.  1.
    10030    2    1    2    0    0  0.00000000000E+00  0.00000000000E+00 -0.88951606157E+03  0.19175353161E+04  0.16987356665E+04 0.  0.
        2    1    3    3  502    0 -0.14412145086E+03  0.57447229419E+02 -0.13873948129E+04  0.13960428158E+04  0.25500000920E-02 0.  1.
       -2    1    3    3    0  502  0.14412145086E+03 -0.57447229419E+02  0.49787875135E+03  0.52149250025E+03  0.25500000920E-02 0. -1.
</event>
<event>
 5   0  0.2967704E-05  0.1655718E+04  0.7818609E-02  0.8787031E-01
        1   -1    0    0  501    0  0.00000000000E+00  0.00000000000E+00  0.23721571191E+04  0.23721571191E+04  0.50400001928E-02 0. -1.
       -1   -1    0    0    0  501  0.00000000000E+00  0.00000000000E+00 -0.28891436986E+03  0.28891436991E+03  0.50400001928E-02 0.  1.
    10030    2    1    2    0    0  0.00000000000E+00  0.00000000000E+00  0.20832427492E+04  0.26610714890E+04  0.16557177046E+04 0.  0.
        2    1    3    3  502    0 -0.75833763187E+03 -0.29991129926E+03  0.81247524132E+03  0.11511467192E+04  0.25500000920E-02 0.  1.
       -2    1    3    3    0  502  0.75833763187E+03  0.29991129926E+03  0.12707675079E+04  0.15099247698E+04  0.25500000920E-02 0. -1.
</event>
<event>
 5   0  0.5755321E-05  0.1699875E+04  0.7818609E-02  0.8761436E-01
       -2   -1    0    0    0  501  0.00000000000E+00  0.00000000000E+00  0.40363625192E+03  0.40363625193E+03  0.25500000920E-02 0. -1.
        2   -1    0    0  501    0  0.00000000000E+00  0.00000000000E+00 -0.17897138459E+04  0.17897138459E+04  0.25500000920E-02 0.  1.
    10030    2    1    2    0    0  0.00000000000E+00  0.00000000000E+00 -0.13860775940E+04  0.21933500979E+04  0.16998745704E+04 0.  0.
        4    1    3    3  502    0  0.51818697239E+03 -0.34208628255E+03 -0.14419149652E+04  0.15699239290E+04  0.12699999809E+01 0.  1.
       -4    1    3    3    0  502 -0.51818697239E+03  0.34208628255E+03  0.55837371221E+02  0.62342616884E+03  0.12699999809E+01 0. -1.
</event>
<event>
 5   0  0.2993769E-05  0.1699625E+04  0.7818609E-02  0.8761579E-01
        1   -1    0    0  501    0  0.00000000000E+00  0.00000000000E+00  0.99008157518E+03  0.99008157519E+03  0.50400001928E-02 0. -1.
       -1   -1    0    0    0  501  0.00000000000E+00  0.00000000000E+00 -0.72941551897E+03  0.72941551898E+03  0.50400001928E-02 0.  1.
    10030    2    1    2    0    0  0.00000000000E+00  0.00000000000E+00  0.26066605621E+03  0.17194970942E+04  0.16996245068E+04 0.  0.
        3    1    3    3  502    0 -0.62404309580E+03  0.25435679898E+03 -0.39345956894E+03  0.78034454518E+03  0.10100000352E+00 0.  1.
       -3    1    3    3    0  502  0.62404309580E+03 -0.25435679898E+03  0.65412562515E+03  0.93915254899E+03  0.10100000352E+00 0. -1.
</event>
<event>
 5   0  0.5821584E-05  0.1703481E+04  0.7818609E-02  0.8759381E-01
       -2   -1    0    0    0  501  0.00000000000E+00  0.00000000000E+00  0.11583744026E+04  0.11583744026E+04  0.25500000920E-02 0. -1.
        2   -1    0    0  501    0  0.00000000000E+00  0.00000000000E+00 -0.62627593358E+03  0.62627593358E+03  0.25500000920E-02 0.  1.
    10030    2    1    2    0    0  0.00000000000E+00  0.00000000000E+00  0.53209846898E+03  0.17846503361E+04  0.17034811539E+04 0.  0.
        1    1    3    3  502    0  0.15757727065E+03 -0.80507571731E+03  0.26038121027E+02  0.82076518603E+03  0.50400001928E-02 0.  1.
       -1    1    3    3    0  502 -0.15757727065E+03  0.80507571731E+03  0.50606034795E+03  0.96388515012E+03  0.50400001928E-02 0. -1.
</event>
<event>
 5   0  0.2967704E-05  0.1701488E+04  0.7818609E-02  0.8760516E-01
        1   -1    0    0  501    0  0.00000000000E+00  0.00000000000E+00  0.19331559791E+04  0.19331559791E+04  0.50400001928E-02 0. -1.
       -1   -1    0    0    0  501  0.00000000000E+00  0.00000000000E+00 -0.37439581120E+03  0.37439581123E+03  0.50400001928E-02 0.  1.
    10030    2    1    2    0    0  0.00000000000E+00  0.00000000000E+00  0.15587601679E+04  0.23075517903E+04  0.17014881733E+04 0.  0.
        2    1    3    3  502    0  0.27760116365E+03 -0.42626040433E+03 -0.14542755756E+03  0.52906475300E+03  0.25500000920E-02 0.  1.
       -2    1    3    3    0  502 -0.27760116365E+03  0.42626040433E+03  0.17041877254E+04  0.17784870373E+04  0.25500000920E-02 0. -1.
</event>
<event>
 5   0  0.2966258E-05  0.1697193E+04  0.7818609E-02  0.8762967E-01
       -1   -1    0    0    0  501  0.00000000000E+00  0.00000000000E+00  0.73778666349E+03  0.73778666351E+03  0.50400001928E-02 0. -1.
        1   -1    0    0  501    0  0.00000000000E+00  0.00000000000E+00 -0.97604936267E+03  0.97604936268E+03  0.50400001928E-02 0.  1.
    10030    2    1    2    0    0  0.00000000000E+00  0.00000000000E+00 -0.23826269917E+03  0.17138360262E+04  0.16971932155E+04 0.  0.
        4    1    3    3  502    0  0.53996121890E+02 -0.15650722588E+03 -0.95958154844E+03  0.97375995704E+03  0.12699999809E+01 0.  1.
       -4    1    3    3    0  502 -0.53996121890E+02  0.15650722588E+03  0.72131884926E+03  0.74007606915E+03  0.12699999809E+01 0. -1.
</event>
<event>
 5   0  0.5755321E-05  0.1700716E+04  0.7818609E-02  0.8760956E-01
       -2   -1    0    0    0  501  0.00000000000E+00  0.00000000000E+00  0.82581012967E+03  0.82581012968E+03  0.25500000920E-02 0. -1.
        2   -1    0    0  501    0  0.00000000000E+00  0.00000000000E+00 -0.87563602349E+03  0.87563602349E+03  0.25500000920E-02 0.  1.
    10030    2    1    2    0    0  0.00000000000E+00  0.00000000000E+00 -0.49825893818E+02  0.17014461532E+04  0.17007164350E+04 0.  0.
        4    1    3    3  502    0 -0.57857569038E+03  0.51025308536E+03  0.33301065997E+03  0.84024148503E+03  0.12699999809E+01 0. -1.
       -4    1    3    3    0  502  0.57857569038E+03 -0.51025308536E+03 -0.38283655379E+03  0.86120466814E+03  0.12699999809E+01 0.  1.
</event>
<event>
 5   0  0.5652631E-05  0.1700668E+04  0.7818609E-02  0.8760984E-01
       -2   -1    0    0    0  501  0.00000000000E+00  0.00000000000E+00  0.95954075552E+03  0.95954075552E+03  0.25500000920E-02 0.  1.
        2   -1    0    0  501    0  0.00000000000E+00  0.00000000000E+00 -0.75355593380E+03  0.75355593380E+03  0.25500000920E-02 0. -1.
    10030    2    1    2    0    0  0.00000000000E+00  0.00000000000E+00  0.20598482172E+03  0.17130966893E+04  0.17006676689E+04 0.  0.
        2    1    3    3  502    0  0.31209669349E+03  0.36389430460E+03 -0.60445379579E+03  0.77148415554E+03  0.25500000920E-02 0. -1.
       -2    1    3    3    0  502 -0.31209669349E+03 -0.36389430460E+03  0.81043861751E+03  0.94161253378E+03  0.25500000920E-02 0.  1.
</event>
<event>
 5   0  0.2987859E-05  0.1709628E+04  0.7818609E-02  0.8755892E-01
        1   -1    0    0  501    0  0.00000000000E+00  0.00000000000E+00  0.99073876157E+03  0.99073876158E+03  0.50400001928E-02 0. -1.
       -1   -1    0    0    0  501  0.00000000000E+00  0.00000000000E+00 -0.73753772290E+03  0.73753772291E+03  0.50400001928E-02 0.  1.
    10030    2    1    2    0    0  0.00000000000E+00  0.00000000000E+00  0.25320103867E+03  0.17282764845E+04  0.17096282756E+04 0.  0.
        5    1    3    3  502    0 -0.73396940937E+02  0.74245207422E+03  0.54835982114E+03  0.92592806248E+03  0.46999998093E+01 0. -1.
       -5    1    3    3    0  502  0.73396940937E+02 -0.74245207422E+03 -0.29515878247E+03  0.80234842202E+03  0.46999998093E+01 0.  1.
</event>
<event>
 5   0  0.5859822E-05  0.1703042E+04  0.7818609E-02  0.8759631E-01
        2   -1    0    0  501    0  0.00000000000E+00  0.00000000000E+00  0.13110247355E+04  0.13110247355E+04  0.25500000920E-02 0. -1.
       -2   -1    0    0    0  501  0.00000000000E+00  0.00000000000E+00 -0.55306949171E+03  0.55306949172E+03  0.25500000920E-02 0.  1.
    10030    2    1    2    0    0  0.00000000000E+00  0.00000000000E+00  0.75795524378E+03  0.18640942272E+04  0.17030417307E+04 0.  0.
        5    1    3    3  502    0 -0.78221165466E+03  0.28170074002E+03  0.58037601342E+03  0.10139372695E+04  0.46999998093E+01 0.  1.
       -5    1    3    3    0  502  0.78221165466E+03 -0.28170074002E+03  0.17757923036E+03  0.85015695767E+03  0.46999998093E+01 0. -1.
</event>
<event>
 5   0  0.5652631E-05  0.1698911E+04  0.7818609E-02  0.8761986E-01
        2   -1    0    0  501    0  0.00000000000E+00  0.00000000000E+00  0.11663281639E+04  0.11663281639E+04  0.25500000920E-02 0.  1.
       -2   -1    0    0    0  501  0.00000000000E+00  0.00000000000E+00 -0.61867193166E+03  0.61867193166E+03  0.25500000920E-02 0. -1.
    10030    2    1    2    0    0  0.00000000000E+00  0.00000000000E+00  0.54765623224E+03  0.17850000956E+04  0.16989108253E+04 0.  0.
        2    1    3    3  502    0 -0.66332555967E+03 -0.41559694694E+03  0.62047525293E+03  0.99885492437E+03  0.25500000920E-02 0.  1.
       -2    1    3    3    0  502  0.66332555967E+03  0.41559694694E+03 -0.72819020691E+02  0.78614517120E+03  0.25500000920E-02 0. -1.
</event>
<event>
 5   0  0.2098250E-05  0.1696479E+04  0.7818609E-02  0.8763375E-01
       -4   -1    0    0    0  501  0.00000000000E+00  0.00000000000E+00  0.11378216008E+04  0.11378223096E+04  0.12699999809E+01 0.  1.
        4   -1    0    0  501    0  0.00000000000E+00  0.00000000000E+00 -0.63235618126E+03  0.63235745656E+03  0.12699999809E+01 0. -1.
    10030    2    1    2    0    0  0.00000000000E+00  0.00000000000E+00  0.50546541958E+03  0.17701797662E+04  0.16964790344E+04 0.  0.
        4    1    3    3  502    0 -0.41210833418E+02 -0.43684595047E+03  0.10102006786E+04  0.11013808339E+04  0.12699999809E+01 0.  1.
       -4    1    3    3    0  502  0.41210833418E+02  0.43684595047E+03 -0.50473525904E+03  0.66879893230E+03  0.12699999809E+01 0. -1.
</event>
<event>
 5   0  0.2993769E-05  0.1695405E+04  0.7818609E-02  0.8763990E-01
        1   -1    0    0  501    0  0.00000000000E+00  0.00000000000E+00  0.10809435206E+04  0.10809435206E+04  0.50400001928E-02 0. -1.
       -1   -1    0    0    0  501  0.00000000000E+00  0.00000000000E+00 -0.66478892384E+03  0.66478892386E+03  0.50400001928E-02 0.  1.
    10030    2    1    2    0    0  0.00000000000E+00  0.00000000000E+00  0.41615459673E+03  0.17457324444E+04  0.16954047066E+04 0.  0.
        3    1    3    3  502    0 -0.13487765315E+03 -0.33160101939E+03 -0.58313885654E+03  0.68425298947E+03  0.10100000352E+00 0.  1.
       -3    1    3    3    0  502  0.13487765315E+03  0.33160101939E+03  0.99929345327E+03  0.10614794550E+04  0.10100000352E+00 0. -1.
</event>
<event>
 5   0  0.5821584E-05  0.1703823E+04  0.7818609E-02  0.8759187E-01
        2   -1    0    0  501    0  0.00000000000E+00  0.00000000000E+00  0.20877417034E+04  0.20877417034E+04  0.25500000920E-02 0.  1.
       -2   -1    0    0    0  501  0.00000000000E+00  0.00000000000E+00 -0.34762580650E+03  0.34762580651E+03  0.25500000920E-02 0. -1.
    10030    2    1    2    0    0  0.00000000000E+00  0.00000000000E+00  0.17401158969E+04  0.24353675099E+04  0.17038226357E+04 0.  0.
        1    1    3    3  502    0  0.28623384521E+03 -0.73647675906E+03  0.41484692915E+03  0.89242691882E+03  0.50400001928E-02 0. -1.
       -1    1    3    3    0  502 -0.28623384521E+03  0.73647675906E+03  0.13252689678E+04  0.15429405911E+04  0.50400001928E-02 0.  1.
</event>
<event>
 5   0  0.2993769E-05  0.1699374E+04  0.7818609E-02  0.8761722E-01
       -1   -1    0    0    0  501  0.00000000000E+00  0.00000000000E+00  0.10229515832E+04  0.10229515832E+04  0.50400001928E-02 0.  1.
        1   -1    0    0  501    0  0.00000000000E+00  0.00000000000E+00 -0.70576925497E+03  0.70576925498E+03  0.50400001928E-02 0. -1.
    10030    2    1    2    0    0  0.00000000000E+00  0.00000000000E+00  0.31718232826E+03  0.17287208382E+04  0.16993737397E+04 0.  0.
        3    1    3    3  502    0  0.24377892785E+03 -0.55101121580E+03  0.76804184916E+03  0.97618124232E+03  0.10100000352E+00 0.  1.
       -3    1    3    3    0  502 -0.24377892785E+03  0.55101121580E+03 -0.45085952090E+03  0.75253959590E+03  0.10100000352E+00 0. -1.
</event>
<event>
 5   0  0.5652631E-05  0.1708710E+04  0.7818609E-02  0.8756412E-01
       -2   -1    0    0    0  501  0.00000000000E+00  0.00000000000E+00  0.95232009196E+03  0.95232009197E+03  0.25500000920E-02 0. -1.
        2   -1    0    0  501    0  0.00000000000E+00  0.00000000000E+00 -0.76646774972E+03  0.76646774973E+03  0.25500000920E-02 0.  1.
    10030    2    1    2    0    0  0.00000000000E+00  0.00000000000E+00  0.18585234224E+03  0.17187878417E+04  0.17087102012E+04 0.  0.
        2    1    3    3  502    0 -0.10798128175E+03  0.12316078208E+03  0.93637859038E+03  0.95059633914E+03  0.25500000920E-02 0. -1.
       -2    1    3    3    0  502  0.10798128175E+03 -0.12316078208E+03 -0.75052624814E+03  0.76819150256E+03  0.25500000920E-02 0.  1.
</event>
<event>
 5   0  0.5671132E-05  0.1698732E+04  0.7818609E-02  0.8762088E-01
        2   -1    0    0  501    0  0.00000000000E+00  0.00000000000E+00  0.10862649986E+04  0.10862649986E+04  0.25500000920E-02 0. -1.
       -2   -1    0    0    0  501  0.00000000000E+00  0.00000000000E+00 -0.66413136143E+03  0.66413136143E+03  0.25500000920E-02 0.  1.
    10030    2    1    2    0    0  0.00000000000E+00  0.00000000000E+00  0.42213363715E+03  0.17503963600E+04  0.16987320594E+04 0.  0.
        3    1    3    3  502    0 -0.51220968142E+03  0.13206896716E+03 -0.47369053914E+03  0.71005894607E+03  0.10100000352E+00 0.  1.
       -3    1    3    3    0  502  0.51220968142E+03 -0.13206896716E+03  0.89582417629E+03  0.10403374139E+04  0.10100000352E+00 0. -1.
</event>
<event>
 5   0  0.5821584E-05  0.1700505E+04  0.7818609E-02  0.8761076E-01
        2   -1    0    0  501    0  0.00000000000E+00  0.00000000000E+00  0.89840483854E+03  0.89840483855E+03  0.25500000920E-02 0. -1.
       -2   -1    0    0    0  501  0.00000000000E+00  0.00000000000E+00 -0.80468127223E+03  0.80468127223E+03  0.25500000920E-02 0.  1.
    10030    2    1    2    0    0  0.00000000000E+00  0.00000000000E+00  0.93723566316E+02  0.17030861108E+04  0.17005052760E+04 0.  0.
        1    1    3    3  502    0 -0.74997287553E+03  0.34096122931E+03  0.25745615028E+03  0.86313240193E+03  0.50400001928E-02 0. -1.
       -1    1    3    3    0  502  0.74997287553E+03 -0.34096122931E+03 -0.16373258396E+03  0.83995370885E+03  0.50400001928E-02 0.  1.
</event>
<event>
 5   0  0.5859822E-05  0.1699933E+04  0.7818609E-02  0.8761403E-01
        2   -1    0    0  501    0  0.00000000000E+00  0.00000000000E+00  0.71170184086E+03  0.71170184087E+03  0.25500000920E-02 0.  1.
       -2   -1    0    0    0  501  0.00000000000E+00  0.00000000000E+00 -0.10150924042E+04  0.10150924042E+04  0.25500000920E-02 0. -1.
    10030    2    1    2    0    0  0.00000000000E+00  0.00000000000E+00 -0.30339056331E+03  0.17267942450E+04  0.16999330960E+04 0.  0.
        5    1    3    3  502    0 -0.98992301246E+02  0.65544355565E+02  0.70322417907E+03  0.71319133077E+03  0.46999998093E+01 0.  1.
       -5    1    3    3    0  502  0.98992301246E+02 -0.65544355565E+02 -0.10066147424E+04  0.10136029143E+04  0.46999998093E+01 0. -1.
</event>
<event>
 5   0  0.2966258E-05  0.1701096E+04  0.7818609E-02  0.8760740E-01
       -1   -1    0    0    0  501  0.00000000000E+00  0.00000000000E+00  0.15889723667E+04  0.15889723668E+04  0.50400001928E-02 0.  1.
        1   -1    0    0  501    0  0.00000000000E+00  0.00000000000E+00 -0.45528271248E+03  0.45528271251E+03  0.50400001928E-02 0. -1.
    10030    2    1    2    0    0  0.00000000000E+00  0.00000000000E+00  0.11336896543E+04  0.20442550793E+04  0.17010957048E+04 0.  0.
        4    1    3    3  502    0  0.33494569907E+03 -0.44071972571E+03  0.13428744336E+04  0.14524929794E+04  0.12699999809E+01 0.  1.
       -4    1    3    3    0  502 -0.33494569907E+03  0.44071972571E+03 -0.20918477936E+03  0.59176209981E+03  0.12699999809E+01 0. -1.
</event>
<event>
 5   0  0.2987859E-05  0.1706611E+04  0.7818609E-02  0.8757603E-01
       -1   -1    0    0    0  501  0.00000000000E+00  0.00000000000E+00  0.71023503008E+03  0.71023503010E+03  0.50400001928E-02 0.  1.
        1   -1    0    0  501    0  0.00000000000E+00  0.00000000000E+00 -0.10251959309E+04  0.10251959309E+04  0.50400001928E-02 0. -1.
    10030    2    1    2    0    0  0.00000000000E+00  0.00000000000E+00 -0.31496090078E+03  0.17354309610E+04  0.17066107498E+04 0.  0.
        5    1    3    3  502    0  0.37662742644E+03 -0.49323919344E+03  0.43805004227E+03  0.75963349703E+03  0.46999998093E+01 0.  1.
       -5    1    3    3    0  502 -0.37662742644E+03  0.49323919344E+03 -0.75301094305E+03  0.97579746394E+03  0.46999998093E+01 0. -1.
</event>
<event>
 5   0  0.5755321E-05  0.1703543E+04  0.7818609E-02  0.8759346E-01
       -2   -1    0    0    0  501  0.00000000000E+00  0.00000000000E+00  0.63183943815E+03  0.63183943815E+03  0.25500000920E-02 0. -1.
        2   -1    0    0  501    0  0.00000000000E+00  0.00000000000E+00 -0.11482579374E+04  0.11482579374E+04  0.25500000920E-02 0.  1.
    10030    2    1    2    0    0  0.00000000000E+00  0.00000000000E+00 -0.51641849927E+03  0.17800973756E+04  0.17035429552E+04 0.  0.
        4    1    3    3  502    0 -0.78685587201E+03 -0.32051497615E+03 -0.32126176757E+03  0.90834065717E+03  0.12699999809E+01 0.  1.
       -4    1    3    3    0  502  0.78685587201E+03  0.32051497615E+03 -0.19515673170E+03  0.87175671840E+03  0.12699999809E+01 0. -1.
</event>
<event>
 5   0  0.2966258E-05  0.1698385E+04  0.7818609E-02  0.8762286E-01
        1   -1    0    0  501    0  0.00000000000E+00  0.00000000000E+00  0.66733321514E+03  0.66733321516E+03  0.50400001928E-02 0.  1.
       -1   -1    0    0    0  501  0.00000000000E+00  0.00000000000E+00 -0.10806108852E+04  0.10806108852E+04  0.50400001928E-02 0. -1.
    10030    2    1    2    0    0  0.00000000000E+00  0.00000000000E+00 -0.41327767004E+03  0.17479441004E+04  0.16983845694E+04 0.  0.
        4    1    3    3  502    0  0.82594551698E+03  0.82849478707E+02 -0.22315268881E+02  0.83039124349E+03  0.12699999809E+01 0.  1.
       -4    1    3    3    0  502 -0.82594551698E+03 -0.82849478707E+02 -0.39096240116E+03  0.91755285687E+03  0.12699999809E+01 0. -1.
</event>
<event>
 5   0  0.2911632E-05  0.1696406E+04  0.7818609E-02  0.8763417E-01
       -1   -1    0    0    0  501  0.00000000000E+00  0.00000000000E+00  0.11131792551E+04  0.11131792551E+04  0.50400001928E-02 0. -1.
        1   -1    0    0  501    0  0.00000000000E+00  0.00000000000E+00 -0.64630019323E+03  0.64630019325E+03  0.50400001928E-02 0.  1.
    10030    2    1    2    0    0  0.00000000000E+00  0.00000000000E+00  0.46687906185E+03  0.17594794483E+04  0.16964055738E+04 0.  0.
        1    1    3    3  502    0  0.59866933743E+03  0.58256118548E+03  0.80774898177E+02  0.83923006060E+03  0.50400001928E-02 0.  1.
       -1    1    3    3    0  502 -0.59866933743E+03 -0.58256118548E+03  0.38610416367E+03  0.92024938774E+03  0.50400001928E-02 0. -1.
</event>
<event>
 5   0  0.5821584E-05  0.1705064E+04  0.7818609E-02  0.8758481E-01
       -2   -1    0    0    0  501  0.00000000000E+00  0.00000000000E+00  0.44494073095E+03  0.44494073096E+03  0.25500000920E-02 0. -1.
        2   -1    0    0  501    0  0.00000000000E+00  0.00000000000E+00 -0.16335010575E+04  0.16335010575E+04  0.25500000920E-02 0.  1.
    10030    2    1    2    0    0  0.00000000000E+00  0.00000000000E+00 -0.11885603265E+04  0.20784417884E+04  0.17050644029E+04 0.  0.
        1    1    3    3  502    0 -0.25584168850E+02  0.31185473511E+03  0.37241376372E+03  0.48641539546E+03  0.50400001928E-02 0. -1.
       -1    1    3    3    0  502  0.25584168850E+02 -0.31185473511E+03 -0.15609740902E+04  0.15920263930E+04  0.50400001928E-02 0.  1.
</event>
<event>
 5   0  0.2987859E-05  0.1704170E+04  0.7818609E-02  0.8758990E-01
        1   -1    0    0  501    0  0.00000000000E+00  0.00000000000E+00  0.90179695366E+03  0.90179695367E+03  0.50400001928E-02 0. -1.
       -1   -1    0    0    0  501  0.00000000000E+00  0.00000000000E+00 -0.80511312314E+03  0.80511312316E+03  0.50400001928E-02 0.  1.
    10030    2    1    2    0    0  0.00000000000E+00  0.00000000000E+00  0.96683830514E+02  0.17069100768E+04  0.17041696651E+04 0.  0.
        5    1    3    3  502    0  0.28853245905E+03  0.37338804567E+03  0.75895926637E+03  0.89370625520E+03  0.46999998093E+01 0. -1.
       -5    1    3    3    0  502 -0.28853245905E+03 -0.37338804567E+03 -0.66227543585E+03  0.81320382163E+03  0.46999998093E+01 0.  1.
</event>
<event>
 5   0  0.5755321E-05  0.1696509E+04  0.7818609E-02  0.8763358E-01
       -2   -1    0    0    0  501  0.00000000000E+00  0.00000000000E+00  0.75974521843E+03  0.75974521843E+03  0.25500000920E-02 0.  1.
        2   -1    0    0  501    0  0.00000000000E+00  0.00000000000E+00 -0.94707481162E+03  0.94707481163E+03  0.25500000920E-02 0. -1.
    10030    2    1    2    0    0  0.00000000000E+00  0.00000000000E+00 -0.18732959319E+03  0.17068200301E+04  0.16965088383E+04 0.  0.
        4    1    3    3  502    0  0.56562778905E+03  0.52111617848E+03  0.26633270270E+03  0.81389900396E+03  0.12699999809E+01 0.  1.
       -4    1    3    3    0  502 -0.56562778905E+03 -0.52111617848E+03 -0.45366229590E+03  0.89292102609E+03  0.12699999809E+01 0. -1.
</event>
<event>
 5   0  0.5821584E-05  0.1699651E+04  0.7818609E-02  0.8761563E-01
       -2   -1    0    0    0  501  0.00000000000E+00  0.00000000000E+00  0.72500433167E+03  0.72500433168E+03  0.25500000920E-02 0. -1.
        2   -1    0    0  501    0  0.00000000000E+00  0.00000000000E+00 -0.99613684188E+03  0.99613684189E+03  0.25500000920E-02 0.  1.
    10030    2    1    2    0    0  0.00000000000E+00  0.00000000000E+00 -0.27113251021E+03  0.17211411736E+04  0.16996511705E+04 0.  0.
        1    1    3    3  502    0  0.12979886826E+03 -0.84069184846E+01  0.71486468406E+03  0.72660163709E+03  0.50400001928E-02 0. -1.
       -1    1    3    3    0  502 -0.12979886826E+03  0.84069184846E+01 -0.98599719427E+03  0.99453953648E+03  0.50400001928E-02 0.  1.
</event>
<event>
 5   0  0.5671132E-05  0.1705796E+04  0.7818609E-02  0.8758066E-01
       -2   -1    0    0    0  501  0.00000000000E+00  0.00000000000E+00  0.89691208726E+03  0.89691208726E+03  0.25500000920E-02 0. -1.
        2   -1    0    0  501    0  0.00000000000E+00  0.00000000000E+00 -0.81104387855E+03  0.81104387855E+03  0.25500000920E-02 0.  1.
    10030    2    1    2    0    0  0.00000000000E+00  0.00000000000E+00  0.85868208707E+02  0.17079559658E+04  0.17057960698E+04 0.  0.
        3    1    3    3  502    0  0.56322315094E+02  0.65779851451E+03  0.58358444305E+03  0.88115940740E+03  0.10100000352E+00 0. -1.
       -3    1    3    3    0  502 -0.56322315094E+02 -0.65779851451E+03 -0.49771623435E+03  0.82679655842E+03  0.10100000352E+00 0.  1.
</event>
<event>
 5   0  0.5652631E-05  0.1702135E+04  0.7818609E-02  0.8760148E-01
        2   -1    0    0  501    0  0.00000000000E+00  0.00000000000E+00  0.19199999736E+04  0.19199999736E+04  0.25500000920E-02 0. -1.
       -2   -1    0    0    0  501  0.00000000000E+00  0.00000000000E+00 -0.37724790812E+03  0.37724790813E+03  0.25500000920E-02 0.  1.
    10030    2    1    2    0    0  0.00000000000E+00  0.00000000000E+00  0.15427520655E+04  0.22972478817E+04  0.17021350988E+04 0.  0.
        2    1    3    3  502    0 -0.55412772337E+02  0.41455484269E+03  0.17717308813E+04  0.18204275895E+04  0.25500000920E-02 0. -1.
       -2    1    3    3    0  502  0.55412772337E+02 -0.41455484269E+03 -0.22897881583E+03  0.47682029219E+03  0.25500000920E-02 0.  1.
</event>
<event>
 5   0  0.5821584E-05  0.1700285E+04  0.7818609E-02  0.8761202E-01
       -2   -1    0    0    0  501  0.00000000000E+00  0.00000000000E+00  0.84911278955E+03  0.84911278956E+03  0.25500000920E-02 0.  1.
        2   -1    0    0  501    0  0.00000000000E+00  0.00000000000E+00 -0.85117330014E+03  0.85117330015E+03  0.25500000920E-02 0. -1.
    10030    2    1    2    0    0  0.00000000000E+00  0.00000000000E+00 -0.20605105908E+01  0.17002860897E+04  0.17002848412E+04 0.  0.
        1    1    3    3  502    0  0.29750586041E+03  0.77697864743E+03  0.17371706101E+03  0.84993127537E+03  0.50400001928E-02 0.  1.
       -1    1    3    3    0  502 -0.29750586041E+03 -0.77697864743E+03 -0.17577757160E+03  0.85035481433E+03  0.50400001928E-02 0. -1.
</event>
<event>
 5   0  0.5859822E-05  0.1704159E+04  0.7818609E-02  0.8758996E-01
       -2   -1    0    0    0  501  0.00000000000E+00  0.00000000000E+00  0.59364690383E+03  0.59364690383E+03  0.25500000920E-02 0. -1.
        2   -1    0    0  501    0  0.00000000000E+00  0.00000000000E+00 -0.12230163961E+04  0.12230163961E+04  0.25500000920E-02 0.  1.
    10030    2    1    2    0    0  0.00000000000E+00  0.00000000000E+00 -0.62936949229E+03  0.18166633000E+04  0.17041594959E+04 0.  0.
        5    1    3    3  502    0 -0.78452017836E+03  0.31457722185E+03 -0.19993519796E+03  0.86857752224E+03  0.46999998093E+01 0. -1.
       -5    1    3    3    0  502  0.78452017836E+03 -0.31457722185E+03 -0.42943429433E+03  0.94808577771E+03  0.46999998093E+01 0.  1.
</event>
<event>
 5   0  0.5652631E-05  0.1700665E+04  0.7818609E-02  0.8760985E-01
        2   -1    0    0  501    0  0.00000000000E+00  0.00000000000E+00  0.12230248039E+04  0.12230248039E+04  0.25500000920E-02 0.  1.
       -2   -1    0    0    0  501  0.00000000000E+00  0.00000000000E+00 -0.59121072869E+03  0.59121072869E+03  0.25500000920E-02 0. -1.
    10030    2    1    2    0    0  0.00000000000E+00  0.00000000000E+00  0.63181407523E+03  0.18142355326E+04  0.17006650294E+04 0.  0.
        2    1    3    3  502    0  0.33415713146E+03 -0.78173721810E+03  0.29769916595E+03  0.90077680925E+03  0.25500000920E-02 0. -1.
       -2    1    3    3    0  502 -0.33415713146E+03  0.78173721810E+03  0.33411490928E+03  0.91345872336E+03  0.25500000920E-02 0.  1.
</event>
<event>
 5   0  0.2993769E-05  0.1702925E+04  0.7818609E-02  0.8759698E-01
        1   -1    0    0  501    0  0.00000000000E+00  0.00000000000E+00  0.58699439862E+03  0.58699439864E+03  0.50400001928E-02 0.  1.
       -1   -1    0    0    0  501  0.00000000000E+00  0.00000000000E+00 -0.12350853666E+04  0.12350853666E+04  0.50400001928E-02 0. -1.
    10030    2    1    2    0    0  0.00000000000E+00  0.00000000000E+00 -0.64809096800E+03  0.18220797653E+04  0.17029247688E+04 0.  0.
        3    1    3    3  502    0  0.33656802017E+03 -0.27687969478E+03 -0.11066965982E+04  0.11894190886E+04  0.10100000352E+00 0. -1.
       -3    1    3    3    0  502 -0.33656802017E+03  0.27687969478E+03  0.45860563020E+03  0.63266067669E+03  0.10100000352E+00 0.  1.
</event>
<event>
 5   0  0.2911632E-05  0.1647263E+04  0.7818609E-02  0.8792027E-01
        1   -1    0    0  501    0  0.00000000000E+00  0.00000000000E+00  0.11314238755E+04  0.11314238756E+04  0.50400001928E-02 0.  1.
       -1   -1    0    0    0  501  0.00000000000E+00  0.00000000000E+00 -0.59957066633E+03  0.59957066635E+03  0.50400001928E-02 0. -1.
    10030    2    1    2    0    0  0.00000000000E+00  0.00000000000E+00  0.53185320921E+03  0.17309945419E+04  0.16472626591E+04 0.  0.
        1    1    3    3  502    0  0.36132050199E+03  0.69773045421E+03  0.64154560010E+01  0.78576170052E+03  0.50400001928E-02 0. -1.
       -1    1    3    3    0  502 -0.36132050199E+03 -0.69773045421E+03  0.52543775321E+03  0.94523284138E+03  0.50400001928E-02 0.  1.
</event>
<event>
 5   0  0.5652631E-05  0.1726659E+04  0.7818609E-02  0.8746304E-01
       -2   -1    0    0    0  501  0.00000000000E+00  0.00000000000E+00  0.60633267775E+03  0.60633267775E+03  0.25500000920E-02 0. -1.
        2   -1    0    0  501    0  0.00000000000E+00  0.00000000000E+00 -0.12292549561E+04  0.12292549561E+04  0.25500000920E-02 0.  1.
    10030    2    1    2    0    0  0.00000000000E+00  0.00000000000E+00 -0.62292227836E+03  0.18355876339E+04  0.17266585640E+04 0.  0.
        2    1    3    3  502    0 -0.91949210446E+02 -0.19109741762E+03  0.57821253501E+03  0.61587548740E+03  0.25500000920E-02 0. -1.
       -2    1    3    3    0  502  0.91949210446E+02  0.19109741762E+03 -0.12011348134E+04  0.12197121465E+04  0.25500000920E-02 0.  1.
</event>
<event>
 5   0  0.5859822E-05  0.1702481E+04  0.7818609E-02  0.8759951E-01
        2   -1    0    0  501    0  0.00000000000E+00  0.00000000000E+00  0.12497970130E+04  0.12497970130E+04  0.25500000920E-02 0.  1.
       -2   -1    0    0    0  501  0.00000000000E+00  0.00000000000E+00 -0.57978255766E+03  0.57978255767E+03  0.25500000920E-02 0. -1.
    10030    2    1    2    0    0  0.00000000000E+00  0.00000000000E+00  0.67001445534E+03  0.18295795707E+04  0.17024811409E+04 0.  0.
        5    1    3    3  502    0 -0.45001247546E+03  0.24527314264E+03 -0.39537730133E+03  0.64731402192E+03  0.46999998093E+01 0. -1.
       -5    1    3    3    0  502  0.45001247546E+03 -0.24527314264E+03  0.10653917567E+04  0.11822655487E+04  0.46999998093E+01 0.  1.
</event>
<event>
 5   0  0.5859822E-05  0.1698763E+04  0.7818609E-02  0.8762070E-01
        2   -1    0    0  501    0  0.00000000000E+00  0.00000000000E+00  0.87827887951E+03  0.87827887951E+03  0.25500000920E-02 0. -1.
       -2   -1    0    0    0  501  0.00000000000E+00  0.00000000000E+00 -0.82143512730E+03  0.82143512731E+03  0.25500000920E-02 0.  1.
    10030    2    1    2    0    0  0.00000000000E+00  0.00000000000E+00  0.56843752206E+02  0.16997140068E+04  0.16987632245E+04 0.  0.
        5    1    3    3  502    0  0.62057256488E+03 -0.98180208217E+02  0.60029874282E+03  0.86898235437E+03  0.46999998093E+01 0. -1.
       -5    1    3    3    0  502 -0.62057256488E+03  0.98180208217E+02 -0.54345499062E+03  0.83073165245E+03  0.46999998093E+01 0.  1.
</event>
<event>
 5   0  0.2966258E-05  0.1698206E+04  0.7818609E-02  0.8762388E-01
       -1   -1    0    0    0  501  0.00000000000E+00  0.00000000000E+00  0.92192785090E+03  0.92192785091E+03  0.50400001928E-02 0.  1.
        1   -1    0    0  501    0  0.00000000000E+00  0.00000000000E+00 -0.78203065523E+03  0.78203065525E+03  0.50400001928E-02 0. -1.
    10030    2    1    2    0    0  0.00000000000E+00  0.00000000000E+00  0.13989719566E+03  0.17039585062E+04  0.16982059255E+04 0.  0.
        4    1    3    3  502    0  0.29028571539E+03  0.14951018692E+03  0.85641180424E+03  0.91654889880E+03  0.12699999809E+01 0.  1.
       -4    1    3    3    0  502 -0.29028571539E+03 -0.14951018692E+03 -0.71651460858E+03  0.78740960736E+03  0.12699999809E+01 0. -1.
</event>
<event>
 5   0  0.2987859E-05  0.1701363E+04  0.7818609E-02  0.8760588E-01
        1   -1    0    0  501    0  0.00000000000E+00  0.00000000000E+00  0.56276029598E+03  0.56276029600E+03  0.50400001928E-02 0.  1.
       -1   -1    0    0    0  501  0.00000000000E+00  0.00000000000E+00 -0.12859091842E+04  0.12859091842E+04  0.50400001928E-02 0. -1.
    10030    2    1    2    0    0  0.00000000000E+00  0.00000000000E+00 -0.72314888819E+03  0.18486694802E+04  0.17013625517E+04 0.  0.
        5    1    3    3  502    0  0.46520428761E+02  0.48509584564E+03 -0.11191911079E+04  0.12206936371E+04  0.46999998093E+01 0. -1.
       -5    1    3    3    0  502 -0.46520428761E+02 -0.48509584564E+03  0.39604221966E+03  0.62797584309E+03  0.46999998093E+01 0.  1.
</event>
<event>
 5   0  0.5821584E-05  0.1697420E+04  0.7818609E-02  0.8762837E-01
        2   -1    0    0  501    0  0.00000000000E+00  0.00000000000E+00  0.11461678559E+04  0.11461678559E+04  0.25500000920E-02 0.  1.
       -2   -1    0    0    0  501  0.00000000000E+00  0.00000000000E+00 -0.62844971109E+03  0.62844971109E+03  0.25500000920E-02 0. -1.
    10030    2    1    2    0    0  0.00000000000E+00  0.00000000000E+00  0.51771814480E+03  0.17746175670E+04  0.16974202283E+04 0.  0.
        1    1    3    3  502    0 -0.97216127010E+02 -0.64258364691E+03 -0.31180801575E+03  0.72082519194E+03  0.50400001928E-02 0. -1.
       -1    1    3    3    0  502  0.97216127010E+02  0.64258364691E+03  0.82952616054E+03  0.10537923750E+04  0.50400001928E-02 0.  1.
</event>
<event>
 5   0  0.5755321E-05  0.1705889E+04  0.7818609E-02  0.8758013E-01
        2   -1    0    0  501    0  0.00000000000E+00  0.00000000000E+00  0.16883040772E+04  0.16883040772E+04  0.25500000920E-02 0. -1.
       -2   -1    0    0    0  501  0.00000000000E+00  0.00000000000E+00 -0.43091434604E+03  0.43091434605E+03  0.25500000920E-02 0.  1.
    10030    2    1    2    0    0  0.00000000000E+00  0.00000000000E+00  0.12573897311E+04  0.21192184232E+04  0.17058891492E+04 0.  0.
        4    1    3    3  502    0 -0.32997492278E+03 -0.70795733879E+03  0.20299191367E+03  0.80702811173E+03  0.12699999809E+01 0.  1.
       -4    1    3    3    0  502  0.32997492278E+03  0.70795733879E+03  0.10543978175E+04  0.13121903115E+04  0.12699999809E+01 0. -1.
</event>
<event>
 5   0  0.5652631E-05  0.1702254E+04  0.7818609E-02  0.8760080E-01
        2   -1    0    0  501    0  0.00000000000E+00  0.00000000000E+00  0.74051652056E+03  0.74051652056E+03  0.25500000920E-02 0.  1.
       -2   -1    0    0    0  501  0.00000000000E+00  0.00000000000E+00 -0.97825886990E+03  0.97825886990E+03  0.25500000920E-02 0. -1.
    10030    2    1    2    0    0  0.00000000000E+00  0.00000000000E+00 -0.23774234934E+03  0.17187753905E+04  0.17022536292E+04 0.  0.
        2    1    3    3  502    0 -0.82241730683E+03  0.21902854667E+03 -0.12750541145E+03  0.86058198958E+03  0.25500000920E-02 0.  1.
       -2    1    3    3    0  502  0.82241730683E+03 -0.21902854667E+03 -0.11023693789E+03  0.85819340088E+03  0.25500000920E-02 0. -1.
</event>
<event>
 5   0  0.5652631E-05  0.1708112E+04  0.7818609E-02  0.8756751E-01
        2   -1    0    0  501    0  0.00000000000E+00  0.00000000000E+00  0.10375104194E+04  0.10375104194E+04  0.25500000920E-02 0. -1.
       -2   -1    0    0    0  501  0.00000000000E+00  0.00000000000E+00 -0.70304047313E+03  0.70304047313E+03  0.25500000920E-02 0.  1.
    10030    2    1    2    0    0  0.00000000000E+00  0.00000000000E+00  0.33446994629E+03  0.17405508926E+04  0.17081121932E+04 0.  0.
        2    1    3    3  502    0 -0.19290562916E+03  0.80135971798E+03  0.39513803023E+03  0.91407004234E+03  0.25500000920E-02 0.  1.
       -2    1    3    3    0  502  0.19290562916E+03 -0.80135971798E+03 -0.60668083937E+02  0.82648085022E+03  0.25500000920E-02 0. -1.
</event>
<event>
 5   0  0.2967704E-05  0.1700036E+04  0.7818609E-02  0.8761344E-01
        1   -1    0    0  501    0  0.00000000000E+00  0.00000000000E+00  0.18989872536E+04  0.18989872536E+04  0.50400001928E-02 0. -1.
       -1   -1    0    0    0  501  0.00000000000E+00  0.00000000000E+00 -0.38048194163E+03  0.38048194166E+03  0.50400001928E-02 0.  1.
    10030    2    1    2    0    0  0.00000000000E+00  0.00000000000E+00  0.15185053119E+04  0.22794691952E+04  0.17000357142E+04 0.  0.
        2    1    3    3  502    0  0.68923232770E+03 -0.21441940225E+03  0.13611573489E+04  0.15407031544E+04  0.25500000920E-02 0. -1.
       -2    1    3    3    0  502 -0.68923232770E+03  0.21441940225E+03  0.15734796309E+03  0.73876604085E+03  0.25500000920E-02 0.  1.
</event>
<event>
 5   0  0.2993769E-05  0.1699574E+04  0.7818609E-02  0.8761607E-01
        1   -1    0    0  501    0  0.00000000000E+00  0.00000000000E+00  0.95979954794E+03  0.95979954796E+03  0.50400001928E-02 0.  1.
       -1   -1    0    0    0  501  0.00000000000E+00  0.00000000000E+00 -0.75238419098E+03  0.75238419100E+03  0.50400001928E-02 0. -1.
    10030    2    1    2    0    0  0.00000000000E+00  0.00000000000E+00  0.20741535697E+03  0.17121837390E+04  0.16995740718E+04 0.  0.
        3    1    3    3  502    0 -0.28777497989E+02 -0.59867100779E+03 -0.50317602589E+03  0.78257347463E+03  0.10100000352E+00 0. -1.
       -3    1    3    3    0  502  0.28777497989E+02  0.59867100779E+03  0.71059138286E+03  0.92961026433E+03  0.10100000352E+00 0.  1.
</event>
<event>
 5   0  0.5859822E-05  0.1703200E+04  0.7818609E-02  0.8759542E-01
        2   -1    0    0  501    0  0.00000000000E+00  0.00000000000E+00  0.20457858397E+04  0.20457858397E+04  0.25500000920E-02 0. -1.
       -2   -1    0    0    0  501  0.00000000000E+00  0.00000000000E+00 -0.35449567360E+03  0.35449567361E+03  0.25500000920E-02 0.  1.
    10030    2    1    2    0    0  0.00000000000E+00  0.00000000000E+00  0.16912901661E+04  0.24002815133E+04  0.17031996116E+04 0.  0.
        5    1    3    3  502    0 -0.58902440266E+03 -0.36004711490E+03  0.15483315289E+04  0.16952687944E+04  0.46999998093E+01 0. -1.
       -5    1    3    3    0  502  0.58902440266E+03  0.36004711490E+03  0.14295863720E+03  0.70501271891E+03  0.46999998093E+01 0.  1.
</event>
<event>
 5   0  0.5821584E-05  0.1698301E+04  0.7818609E-02  0.8762334E-01
        2   -1    0    0  501    0  0.00000000000E+00  0.00000000000E+00  0.18443662848E+04  0.18443662848E+04  0.25500000920E-02 0.  1.
       -2   -1    0    0    0  501  0.00000000000E+00  0.00000000000E+00 -0.39095066926E+03  0.39095066927E+03  0.25500000920E-02 0. -1.
    10030    2    1    2    0    0  0.00000000000E+00  0.00000000000E+00  0.14534156155E+04  0.22353169540E+04  0.16983006017E+04 0.  0.
        1    1    3    3  502    0 -0.81198425621E+03  0.20131275373E+03  0.91840020000E+03  0.12422979452E+04  0.50400001928E-02 0. -1.
       -1    1    3    3    0  502  0.81198425621E+03 -0.20131275373E+03  0.53501541551E+03  0.99301900889E+03  0.50400001928E-02 0.  1.
</event>
<event>
 5   0  0.2966258E-05  0.1698583E+04  0.7818609E-02  0.8762173E-01
       -1   -1    0    0    0  501  0.00000000000E+00  0.00000000000E+00  0.71951481552E+03  0.71951481553E+03  0.50400001928E-02 0.  1.
        1   -1    0    0  501    0  0.00000000000E+00  0.00000000000E+00 -0.10024753209E+04  0.10024753209E+04  0.50400001928E-02 0. -1.
    10030    2    1    2    0    0  0.00000000000E+00  0.00000000000E+00 -0.28296050535E+03  0.17219901364E+04  0.16985827570E+04 0.  0.
        4    1    3    3  502    0  0.49799981137E+03 -0.51289592133E+02  0.55402033387E+03  0.74670916536E+03  0.12699999809E+01 0.  1.
       -4    1    3    3    0  502 -0.49799981137E+03  0.51289592133E+02 -0.83698083923E+03  0.97528097106E+03  0.12699999809E+01 0. -1.
</event>
<event>
 5   0  0.2993769E-05  0.1678111E+04  0.7818609E-02  0.8773948E-01
        1   -1    0    0  501    0  0.00000000000E+00  0.00000000000E+00  0.11131846295E+04  0.11131846295E+04  0.50400001928E-02 0.  1.
       -1   -1    0    0    0  501  0.00000000000E+00  0.00000000000E+00 -0.63243238040E+03  0.63243238042E+03  0.50400001928E-02 0. -1.
    10030    2    1    2    0    0  0.00000000000E+00  0.00000000000E+00  0.48075224906E+03  0.17456170099E+04  0.16781108486E+04 0.  0.
        3    1    3    3  502    0 -0.31816319566E+03  0.57791294619E+03  0.77969449821E+03  0.10213396659E+04  0.10100000352E+00 0.  1.
       -3    1    3    3    0  502  0.31816319566E+03 -0.57791294619E+03 -0.29894224915E+03  0.72427734396E+03  0.10100000352E+00 0. -1.
</event>
<event>
 5   0  0.5859822E-05  0.1682721E+04  0.7818609E-02  0.8771281E-01
       -2   -1    0    0    0  501  0.00000000000E+00  0.00000000000E+00  0.63391613946E+03  0.63391613946E+03  0.25500000920E-02 0.  1.
        2   -1    0    0  501    0  0.00000000000E+00  0.00000000000E+00 -0.11166897088E+04  0.11166897088E+04  0.25500000920E-02 0. -1.
    10030    2    1    2    0    0  0.00000000000E+00  0.00000000000E+00 -0.48277356938E+03  0.17506058483E+04  0.16827211643E+04 0.  0.
        5    1    3    3  502    0  0.38362615438E+02 -0.34216725061E+03 -0.10400250614E+04  0.10955475051E+04  0.46999998093E+01 0. -1.
       -5    1    3    3    0  502 -0.38362615438E+02  0.34216725061E+03  0.55725149200E+03  0.65505834319E+03  0.46999998093E+01 0.  1.
</event>
<event>
 5   0  0.2098250E-05  0.1699445E+04  0.7818609E-02  0.8761681E-01
        4   -1    0    0  501    0  0.00000000000E+00  0.00000000000E+00  0.85549107677E+03  0.85549201945E+03  0.12699999809E+01 0.  1.
       -4   -1    0    0    0  501  0.00000000000E+00  0.00000000000E+00 -0.84399054934E+03  0.84399150486E+03  0.12699999809E+01 0. -1.
    10030    2    1    2    0    0  0.00000000000E+00  0.00000000000E+00  0.11500527433E+02  0.16994835243E+04  0.16994446114E+04 0.  0.
        2    1    3    3  502    0 -0.63671775094E+03 -0.51586386636E+03  0.23048407656E+03  0.85126255205E+03  0.25500000920E-02 0.  1.
       -2    1    3    3    0  502  0.63671775094E+03  0.51586386636E+03 -0.21898354913E+03  0.84822097225E+03  0.25500000920E-02 0. -1.
</event>
<event>
 5   0  0.5652631E-05  0.1703359E+04  0.7818609E-02  0.8759451E-01
        2   -1    0    0  501    0  0.00000000000E+00  0.00000000000E+00  0.83212907615E+03  0.83212907615E+03  0.25500000920E-02 0.  1.
       -2   -1    0    0    0  501  0.00000000000E+00  0.00000000000E+00 -0.87168969459E+03  0.87168969459E+03  0.25500000920E-02 0. -1.
    10030    2    1    2    0    0  0.00000000000E+00  0.00000000000E+00 -0.39560618443E+02  0.17038187707E+04  0.17033594339E+04 0.  0.
        2    1    3    3  502    0  0.64158746203E+03  0.49026657400E+03  0.25114796032E+03  0.84561875747E+03  0.25500000920E-02 0.  1.
       -2    1    3    3    0  502 -0.64158746203E+03 -0.49026657400E+03 -0.29070857876E+03  0.85820001327E+03  0.25500000920E-02 0. -1.
</event>
<event>
 5   0  0.5755321E-05  0.1699264E+04  0.7818609E-02  0.8761784E-01
        2   -1    0    0  501    0  0.00000000000E+00  0.00000000000E+00  0.88667607487E+03  0.88667607487E+03  0.25500000920E-02 0.  1.
       -2   -1    0    0    0  501  0.00000000000E+00  0.00000000000E+00 -0.81413520009E+03  0.81413520009E+03  0.25500000920E-02 0. -1.
    10030    2    1    2    0    0  0.00000000000E+00  0.00000000000E+00  0.72540874774E+02  0.17008112750E+04  0.16992636095E+04 0.  0.
        4    1    3    3  502    0 -0.16433740634E+03 -0.38276626939E+03 -0.70491450245E+03  0.81879354465E+03  0.12699999809E+01 0. -1.
       -4    1    3    3    0  502  0.16433740634E+03  0.38276626939E+03  0.77745537722E+03  0.88201773031E+03  0.12699999809E+01 0.  1.
</event>
<event>
 5   0  0.2911632E-05  0.1679825E+04  0.7818609E-02  0.8772955E-01
       -1   -1    0    0    0  501  0.00000000000E+00  0.00000000000E+00  0.83034451534E+03  0.83034451535E+03  0.50400001928E-02 0. -1.
        1   -1    0    0  501    0  0.00000000000E+00  0.00000000000E+00 -0.84959111838E+03  0.84959111840E+03  0.50400001928E-02 0.  1.
    10030    2    1    2    0    0  0.00000000000E+00  0.00000000000E+00 -0.19246603048E+02  0.16799356337E+04  0.16798253784E+04 0.  0.
        1    1    3    3  502    0  0.78571308274E+02 -0.23292617119E+03  0.79356406703E+03  0.83076589976E+03  0.50400001928E-02 0. -1.
       -1    1    3    3    0  502 -0.78571308274E+02  0.23292617119E+03 -0.81281067007E+03  0.84916973399E+03  0.50400001928E-02 0.  1.
</event>
<event>
 5   0  0.2911632E-05  0.1696618E+04  0.7818609E-02  0.8763295E-01
       -1   -1    0    0    0  501  0.00000000000E+00  0.00000000000E+00  0.33986017741E+03  0.33986017744E+03  0.50400001928E-02 0.  1.
        1   -1    0    0  501    0  0.00000000000E+00  0.00000000000E+00 -0.21174251064E+04  0.21174251064E+04  0.50400001928E-02 0. -1.
    10030    2    1    2    0    0  0.00000000000E+00  0.00000000000E+00 -0.17775649290E+04  0.24572852838E+04  0.16966183688E+04 0.  0.
        1    1    3    3  502    0  0.48681053176E+03  0.19283448031E+03  0.77880782488E+02  0.52937231410E+03  0.50400001928E-02 0.  1.
       -1    1    3    3    0  502 -0.48681053176E+03 -0.19283448031E+03 -0.18554457115E+04  0.19279129697E+04  0.50400001928E-02 0. -1.
</event>
<event>
 5   0  0.2987859E-05  0.1696072E+04  0.7818609E-02  0.8763608E-01
        1   -1    0    0  501    0  0.00000000000E+00  0.00000000000E+00  0.11571648904E+04  0.11571648905E+04  0.50400001928E-02 0.  1.
       -1   -1    0    0    0  501  0.00000000000E+00  0.00000000000E+00 -0.62148892887E+03  0.62148892889E+03  0.50400001928E-02 0. -1.
    10030    2    1    2    0    0  0.00000000000E+00  0.00000000000E+00  0.53567596157E+03  0.17786538193E+04  0.16960721309E+04 0.  0.
        5    1    3    3  502    0 -0.43507208477E+03  0.50459140398E+03  0.81801842988E+03  0.10550243815E+04  0.46999998093E+01 0.  1.
       -5    1    3    3    0  502  0.43507208477E+03 -0.50459140398E+03 -0.28234246831E+03  0.72362943785E+03  0.46999998093E+01 0. -1.
</event>
<event>
 5   0  0.5821584E-05  0.1696394E+04  0.7818609E-02  0.8763424E-01
       -2   -1    0    0    0  501  0.00000000000E+00  0.00000000000E+00  0.27459950302E+03  0.27459950303E+03  0.25500000920E-02 0. -1.
        2   -1    0    0  501    0  0.00000000000E+00  0.00000000000E+00 -0.26199549818E+04  0.26199549818E+04  0.25500000920E-02 0.  1.
    10030    2    1    2    0    0  0.00000000000E+00  0.00000000000E+00 -0.23453554788E+04  0.28945544848E+04  0.16963942183E+04 0.  0.
        1    1    3    3  502    0 -0.47428019521E+02 -0.37580608973E+03 -0.24676206348E+04  0.24965238295E+04  0.50400001928E-02 0.  1.
       -1    1    3    3    0  502  0.47428019521E+02  0.37580608973E+03  0.12226515606E+03  0.39803065526E+03  0.50400001928E-02 0. -1.
</event>
<event>
 5   0  0.5755321E-05  0.1715027E+04  0.7818609E-02  0.8752840E-01
       -2   -1    0    0    0  501  0.00000000000E+00  0.00000000000E+00  0.10889909394E+04  0.10889909394E+04  0.25500000920E-02 0.  1.
        2   -1    0    0  501    0  0.00000000000E+00  0.00000000000E+00 -0.67523919158E+03  0.67523919159E+03  0.25500000920E-02 0. -1.
    10030    2    1    2    0    0  0.00000000000E+00  0.00000000000E+00  0.41375174778E+03  0.17642301309E+04  0.17150269520E+04 0.  0.
        4    1    3    3  502    0  0.38626823388E+03  0.33379955919E+02  0.99367898963E+03  0.10666381379E+04  0.12699999809E+01 0.  1.
       -4    1    3    3    0  502 -0.38626823388E+03 -0.33379955919E+02 -0.57992724186E+03  0.69759199301E+03  0.12699999809E+01 0. -1.
</event>
<event>
 5   0  0.2966258E-05  0.1681932E+04  0.7818609E-02  0.8771737E-01
       -1   -1    0    0    0  501  0.00000000000E+00  0.00000000000E+00  0.49012369130E+03  0.49012369132E+03  0.50400001928E-02 0. -1.
        1   -1    0    0  501    0  0.00000000000E+00  0.00000000000E+00 -0.14429490597E+04  0.14429490597E+04  0.50400001928E-02 0.  1.
    10030    2    1    2    0    0  0.00000000000E+00  0.00000000000E+00 -0.95282536840E+03  0.19330727510E+04  0.16819316508E+04 0.  0.
        4    1    3    3  502    0 -0.81015630711E+02 -0.83469750890E+03 -0.40428497664E+03  0.93098411319E+03  0.12699999809E+01 0.  1.
       -4    1    3    3    0  502  0.81015630711E+02  0.83469750890E+03 -0.54854039176E+03  0.10020886378E+04  0.12699999809E+01 0. -1.
</event>
<event>
 5   0  0.2987859E-05  0.1701264E+04  0.7818609E-02  0.8760644E-01
        1   -1    0    0  501    0  0.00000000000E+00  0.00000000000E+00  0.13313373495E+04  0.13313373495E+04  0.50400001928E-02 0.  1.
       -1   -1    0    0    0  501  0.00000000000E+00  0.00000000000E+00 -0.54349485301E+03  0.54349485304E+03  0.50400001928E-02 0. -1.
    10030    2    1    2    0    0  0.00000000000E+00  0.00000000000E+00  0.78784249644E+03  0.18748322025E+04  0.17012642324E+04 0.  0.
        5    1    3    3  502    0 -0.10259432391E+03  0.67172650593E+03 -0.16995580655E+03  0.70046353242E+03  0.46999998093E+01 0. -1.
       -5    1    3    3    0  502  0.10259432391E+03 -0.67172650593E+03  0.95779830299E+03  0.11743686701E+04  0.46999998093E+01 0.  1.
</event>
<event>
 5   0  0.5821584E-05  0.1699828E+04  0.7818609E-02  0.8761462E-01
        2   -1    0    0  501    0  0.00000000000E+00  0.00000000000E+00  0.20203664053E+04  0.20203664053E+04  0.25500000920E-02 0. -1.
       -2   -1    0    0    0  501  0.00000000000E+00  0.00000000000E+00 -0.35753603393E+03  0.35753603394E+03  0.25500000920E-02 0.  1.
    10030    2    1    2    0    0  0.00000000000E+00  0.00000000000E+00  0.16628303714E+04  0.23779024393E+04  0.16998279815E+04 0.  0.
        1    1    3    3  502    0  0.66982943215E+03 -0.13063064888E+03  0.12276389912E+03  0.69340234320E+03  0.50400001928E-02 0.  1.
       -1    1    3    3    0  502 -0.66982943215E+03  0.13063064888E+03  0.15400664723E+04  0.16845000961E+04  0.50400001928E-02 0. -1.
</event>
<event>
 5   0  0.2993769E-05  0.1704375E+04  0.7818609E-02  0.8758873E-01
       -1   -1    0    0    0  501  0.00000000000E+00  0.00000000000E+00  0.42090798806E+03  0.42090798809E+03  0.50400001928E-02 0. -1.
        1   -1    0    0  501    0  0.00000000000E+00  0.00000000000E+00 -0.17253730348E+04  0.17253730348E+04  0.50400001928E-02 0.  1.
    10030    2    1    2    0    0  0.00000000000E+00  0.00000000000E+00 -0.13044650467E+04  0.21462810229E+04  0.17043747156E+04 0.  0.
        3    1    3    3  502    0 -0.37257676948E+03 -0.44455820311E+03  0.13396210769E+03  0.59530773690E+03  0.10100000352E+00 0. -1.
       -3    1    3    3    0  502  0.37257676948E+03  0.44455820311E+03 -0.14384271544E+04  0.15509732860E+04  0.10100000352E+00 0.  1.
</event>
<event>
 5   0  0.5652631E-05  0.1702157E+04  0.7818609E-02  0.8760135E-01
        2   -1    0    0  501    0  0.00000000000E+00  0.00000000000E+00  0.13053596545E+04  0.13053596545E+04  0.25500000920E-02 0. -1.
       -2   -1    0    0    0  501  0.00000000000E+00  0.00000000000E+00 -0.55489260184E+03  0.55489260185E+03  0.25500000920E-02 0.  1.
    10030    2    1    2    0    0  0.00000000000E+00  0.00000000000E+00  0.75046705268E+03  0.18602522564E+04  0.17021567672E+04 0.  0.
        2    1    3    3  502    0 -0.27506197492E+03  0.49053846887E+02 -0.50334171717E+03  0.57568937301E+03  0.25500000920E-02 0.  1.
       -2    1    3    3    0  502  0.27506197492E+03 -0.49053846887E+02  0.12538087699E+04  0.12845628834E+04  0.25500000920E-02 0. -1.
</event>
<event>
 5   0  0.5652631E-05  0.1697933E+04  0.7818609E-02  0.8762544E-01
       -2   -1    0    0    0  501  0.00000000000E+00  0.00000000000E+00  0.28158050114E+03  0.28158050115E+03  0.25500000920E-02 0.  1.
        2   -1    0    0  501    0  0.00000000000E+00  0.00000000000E+00 -0.25596365861E+04  0.25596365861E+04  0.25500000920E-02 0. -1.
    10030    2    1    2    0    0  0.00000000000E+00  0.00000000000E+00 -0.22780560850E+04  0.28412170873E+04  0.16979325695E+04 0.  0.
        2    1    3    3  502    0  0.72566744147E+03  0.42458229570E+03 -0.13361726183E+04  0.15786768597E+04  0.25500000920E-02 0. -1.
       -2    1    3    3    0  502 -0.72566744147E+03 -0.42458229570E+03 -0.94188346665E+03  0.12625402276E+04  0.25500000920E-02 0.  1.
</event>
<event>
 5   0  0.5755321E-05  0.1703390E+04  0.7818609E-02  0.8759433E-01
        2   -1    0    0  501    0  0.00000000000E+00  0.00000000000E+00  0.77785808358E+03  0.77785808358E+03  0.25500000920E-02 0.  1.
       -2   -1    0    0    0  501  0.00000000000E+00  0.00000000000E+00 -0.93254052443E+03  0.93254052443E+03  0.25500000920E-02 0. -1.
    10030    2    1    2    0    0  0.00000000000E+00  0.00000000000E+00 -0.15468244085E+03  0.17103986080E+04  0.17033897795E+04 0.  0.
        4    1    3    3  502    0  0.31939092159E+03 -0.12792080589E+03 -0.85965432379E+03  0.92594895252E+03  0.12699999809E+01 0. -1.
       -4    1    3    3    0  502 -0.31939092159E+03  0.12792080589E+03  0.70497188293E+03  0.78444965549E+03  0.12699999809E+01 0.  1.
</event>
<event>
 5   0  0.5671132E-05  0.1701638E+04  0.7818609E-02  0.8760431E-01
        2   -1    0    0  501    0  0.00000000000E+00  0.00000000000E+00  0.11681230974E+04  0.11681230974E+04  0.25500000920E-02 0.  1.
       -2   -1    0    0    0  501  0.00000000000E+00  0.00000000000E+00 -0.61970599376E+03  0.61970599377E+03  0.25500000920E-02 0. -1.
    10030    2    1    2    0    0  0.00000000000E+00  0.00000000000E+00  0.54841710364E+03  0.17878290912E+04  0.17016378991E+04 0.  0.
        3    1    3    3  502    0  0.71226992101E+03 -0.45990575681E+03  0.19953735912E+03  0.87100913509E+03  0.10100000352E+00 0.  1.
       -3    1    3    3    0  502 -0.71226992101E+03  0.45990575681E+03  0.34887974452E+03  0.91681995608E+03  0.10100000352E+00 0. -1.
</event>
<event>
 5   0  0.5821584E-05  0.1702454E+04  0.7818609E-02  0.8759966E-01
       -2   -1    0    0    0  501  0.00000000000E+00  0.00000000000E+00  0.58012308204E+03  0.58012308205E+03  0.25500000920E-02 0. -1.
        2   -1    0    0  501    0  0.00000000000E+00  0.00000000000E+00 -0.12490240760E+04  0.12490240760E+04  0.25500000920E-02 0.  1.
    10030    2    1    2    0    0  0.00000000000E+00  0.00000000000E+00 -0.66890099399E+03  0.18291471581E+04  0.17024543419E+04 0.  0.
        1    1    3    3  502    0 -0.63501082108E+03  0.90556197350E+02  0.26679018817E+03  0.69470581708E+03  0.50400001928E-02 0. -1.
       -1    1    3    3    0  502  0.63501082108E+03 -0.90556197350E+02 -0.93569118216E+03  0.11344413410E+04  0.50400001928E-02 0.  1.
</event>
<event>
 5   0  0.5859822E-05  0.1701375E+04  0.7818609E-02  0.8760580E-01
        2   -1    0    0  501    0  0.00000000000E+00  0.00000000000E+00  0.18185617269E+04  0.18185617269E+04  0.25500000920E-02 0. -1.
       -2   -1    0    0    0  501  0.00000000000E+00  0.00000000000E+00 -0.39793497748E+03  0.39793497749E+03  0.25500000920E-02 0.  1.
    10030    2    1    2    0    0  0.00000000000E+00  0.00000000000E+00  0.14206267494E+04  0.22164967044E+04  0.17013751142E+04 0.  0.
        5    1    3    3  502    0  0.19948545223E+02  0.25887448511E+03 -0.34503571891E+03  0.43183987868E+03  0.46999998093E+01 0.  1.
       -5    1    3    3    0  502 -0.19948545223E+02 -0.25887448511E+03  0.17656624683E+04  0.17846568257E+04  0.46999998093E+01 0. -1.
</event>
<event>
 5   0  0.2966258E-05  0.1694824E+04  0.7818609E-02  0.8764322E-01
        1   -1    0    0  501    0  0.00000000000E+00  0.00000000000E+00  0.16302611652E+04  0.16302611652E+04  0.50400001928E-02 0. -1.
       -1   -1    0    0    0  501  0.00000000000E+00  0.00000000000E+00 -0.44048595212E+03  0.44048595215E+03  0.50400001928E-02 0.  1.
    10030    2    1    2    0    0  0.00000000000E+00  0.00000000000E+00  0.11897752130E+04  0.20707471173E+04  0.16948240517E+04 0.  0.
        4    1    3    3  502    0 -0.66916399826E+03 -0.14563360432E+03 -0.14934540701E+02  0.68499215812E+03  0.12699999809E+01 0.  1.
       -4    1    3    3    0  502  0.66916399826E+03  0.14563360432E+03  0.12047097537E+04  0.13857549592E+04  0.12699999809E+01 0. -1.
</event>
<event>
 5   0  0.2987859E-05  0.1700768E+04  0.7818609E-02  0.8760926E-01
        1   -1    0    0  501    0  0.00000000000E+00  0.00000000000E+00  0.18537706305E+04  0.18537706305E+04  0.50400001928E-02 0.  1.
       -1   -1    0    0    0  501  0.00000000000E+00  0.00000000000E+00 -0.39009838484E+03  0.39009838488E+03  0.50400001928E-02 0. -1.
    10030    2    1    2    0    0  0.00000000000E+00  0.00000000000E+00  0.14636722456E+04  0.22438690154E+04  0.17007679781E+04 0.  0.
        5    1    3    3  502    0 -0.25552976876E+02  0.50747608645E+03  0.16314448194E+04  0.17087478520E+04  0.46999998093E+01 0.  1.
       -5    1    3    3    0  502  0.25552976876E+02 -0.50747608645E+03 -0.16777257379E+03  0.53512116334E+03  0.46999998093E+01 0. -1.
</event>
<event>
 5   0  0.5755321E-05  0.1716249E+04  0.7818609E-02  0.8752151E-01
        2   -1    0    0  501    0  0.00000000000E+00  0.00000000000E+00  0.23189705918E+04  0.23189705918E+04  0.25500000920E-02 0.  1.
       -2   -1    0    0    0  501  0.00000000000E+00  0.00000000000E+00 -0.31754491622E+03  0.31754491623E+03  0.25500000920E-02 0. -1.
    10030    2    1    2    0    0  0.00000000000E+00  0.00000000000E+00  0.20014256756E+04  0.26365155080E+04  0.17162486094E+04 0.  0.
        4    1    3    3  502    0  0.22851445610E+03  0.29342660863E+03 -0.18730145899E+03  0.41641503423E+03  0.12699999809E+01 0. -1.
       -4    1    3    3    0  502 -0.22851445610E+03 -0.29342660863E+03  0.21887271346E+04  0.22201004738E+04  0.12699999809E+01 0.  1.
</event>
<event>
 5   0  0.5652631E-05  0.1696587E+04  0.7818609E-02  0.8763313E-01
       -2   -1    0    0    0  501  0.00000000000E+00  0.00000000000E+00  0.12769036169E+04  0.12769036169E+04  0.25500000920E-02 0.  1.
        2   -1    0    0  501    0  0.00000000000E+00  0.00000000000E+00 -0.56355214184E+03  0.56355214184E+03  0.25500000920E-02 0. -1.
    10030    2    1    2    0    0  0.00000000000E+00  0.00000000000E+00  0.71335147511E+03  0.18404557588E+04  0.16965868893E+04 0.  0.
        2    1    3    3  502    0  0.70475026043E+03 -0.10414156339E+03 -0.14290143656E+03  0.72659425773E+03  0.25500000920E-02 0. -1.
       -2    1    3    3    0  502 -0.70475026043E+03  0.10414156339E+03  0.85625291167E+03  0.11138615011E+04  0.25500000920E-02 0.  1.
</event>
<event>
 5   0  0.2987859E-05  0.1712290E+04  0.7818609E-02  0.8754386E-01
        1   -1    0    0  501    0  0.00000000000E+00  0.00000000000E+00  0.71723070532E+03  0.71723070534E+03  0.50400001928E-02 0. -1.
       -1   -1    0    0    0  501  0.00000000000E+00  0.00000000000E+00 -0.10219644926E+04  0.10219644926E+04  0.50400001928E-02 0.  1.
    10030    2    1    2    0    0  0.00000000000E+00  0.00000000000E+00 -0.30473378727E+03  0.17391951980E+04  0.17122900617E+04 0.  0.
        5    1    3    3  502    0  0.47648353170E+03 -0.63361807732E+03  0.17590455649E+03  0.81207938459E+03  0.46999998093E+01 0. -1.
       -5    1    3    3    0  502 -0.47648353170E+03  0.63361807732E+03 -0.48063834376E+03  0.92711581336E+03  0.46999998093E+01 0.  1.
</event>
<event>
 5   0  0.2967704E-05  0.1703937E+04  0.7818609E-02  0.8759122E-01
       -1   -1    0    0    0  501  0.00000000000E+00  0.00000000000E+00  0.91520558770E+03  0.91520558771E+03  0.50400001928E-02 0. -1.
        1   -1    0    0  501    0  0.00000000000E+00  0.00000000000E+00 -0.79310067750E+03  0.79310067751E+03  0.50400001928E-02 0.  1.
    10030    2    1    2    0    0  0.00000000000E+00  0.00000000000E+00  0.12210491020E+03  0.17083062652E+04  0.17039368200E+04 0.  0.
        2    1    3    3  502    0 -0.40659089025E+03 -0.74189489287E+03 -0.39833553681E+02  0.84694208545E+03  0.25500000920E-02 0.  1.
       -2    1    3    3    0  502  0.40659089025E+03  0.74189489287E+03  0.16193846388E+03  0.86136417977E+03  0.25500000920E-02 0. -1.
</event>
<event>
 5   0  0.5859822E-05  0.1698683E+04  0.7818609E-02  0.8762116E-01
       -2   -1    0    0    0  501  0.00000000000E+00  0.00000000000E+00  0.64546565934E+03  0.64546565935E+03  0.25500000920E-02 0. -1.
        2   -1    0    0  501    0  0.00000000000E+00  0.00000000000E+00 -0.11176132720E+04  0.11176132720E+04  0.25500000920E-02 0.  1.
    10030    2    1    2    0    0  0.00000000000E+00  0.00000000000E+00 -0.47214761268E+03  0.17630789314E+04  0.16986830046E+04 0.  0.
        5    1    3    3  502    0 -0.73512750185E+03  0.42488599528E+03 -0.21484495615E+03  0.87585443890E+03  0.46999998093E+01 0.  1.
       -5    1    3    3    0  502  0.73512750185E+03 -0.42488599528E+03 -0.25730265653E+03  0.88722449246E+03  0.46999998093E+01 0. -1.
</event>
<event>
 5   0  0.2967704E-05  0.1701930E+04  0.7818609E-02  0.8760264E-01
       -1   -1    0    0    0  501  0.00000000000E+00  0.00000000000E+00  0.51287636817E+03  0.51287636820E+03  0.50400001928E-02 0.  1.
        1   -1    0    0  501    0  0.00000000000E+00  0.00000000000E+00 -0.14119221164E+04  0.14119221164E+04  0.50400001928E-02 0. -1.
    10030    2    1    2    0    0  0.00000000000E+00  0.00000000000E+00 -0.89904574825E+03  0.19247984846E+04  0.17019300658E+04 0.  0.
        2    1    3    3  502    0  0.19716403423E+03 -0.54027890658E+02 -0.13837377519E+04  0.13987576043E+04  0.25500000920E-02 0. -1.
       -2    1    3    3    0  502 -0.19716403423E+03  0.54027890658E+02  0.48469200368E+03  0.52604088036E+03  0.25500000920E-02 0.  1.
</event>
<event>
 5   0  0.2993769E-05  0.1701214E+04  0.7818609E-02  0.8760672E-01
       -1   -1    0    0    0  501  0.00000000000E+00  0.00000000000E+00  0.10576184903E+04  0.10576184903E+04  0.50400001928E-02 0.  1.
        1   -1    0    0  501    0  0.00000000000E+00  0.00000000000E+00 -0.68411436164E+03  0.68411436166E+03  0.50400001928E-02 0. -1.
    10030    2    1    2    0    0  0.00000000000E+00  0.00000000000E+00  0.37350412865E+03  0.17417328520E+04  0.17012136825E+04 0.  0.
        3    1    3    3  502    0 -0.17109597152E+03 -0.13027425403E+03 -0.65582372191E+03  0.69018111910E+03  0.10100000352E+00 0. -1.
       -3    1    3    3    0  502  0.17109597152E+03  0.13027425403E+03  0.10293278506E+04  0.10515517329E+04  0.10100000352E+00 0.  1.
</event>
<event>
 5   0  0.2911632E-05  0.1697923E+04  0.7818609E-02  0.8762550E-01
        1   -1    0    0  501    0  0.00000000000E+00  0.00000000000E+00  0.13724029667E+04  0.13724029667E+04  0.50400001928E-02 0.  1.
       -1   -1    0    0    0  501  0.00000000000E+00  0.00000000000E+00 -0.52516319859E+03  0.52516319861E+03  0.50400001928E-02 0. -1.
    10030    2    1    2    0    0  0.00000000000E+00  0.00000000000E+00  0.84723976813E+03  0.18975661653E+04  0.16979228861E+04 0.  0.
        1    1    3    3  502    0 -0.53809866739E+03  0.60421261919E+03  0.71097613344E+03  0.10770840856E+04  0.50400001928E-02 0.  1.
       -1    1    3    3    0  502  0.53809866739E+03 -0.60421261919E+03  0.13626363468E+03  0.82048207976E+03  0.50400001928E-02 0. -1.
</event>
<event>
 5   0  0.5821584E-05  0.1721730E+04  0.7818609E-02  0.8749067E-01
       -2   -1    0    0    0  501  0.00000000000E+00  0.00000000000E+00  0.71942473129E+03  0.71942473129E+03  0.25500000920E-02 0. -1.
        2   -1    0    0  501    0  0.00000000000E+00  0.00000000000E+00 -0.10301121316E+04  0.10301121316E+04  0.25500000920E-02 0.  1.
    10030    2    1    2    0    0  0.00000000000E+00  0.00000000000E+00 -0.31068740034E+03  0.17495368629E+04  0.17217295299E+04 0.  0.
        1    1    3    3  502    0 -0.15986189917E+03 -0.28803891627E+03  0.65284180549E+03  0.73124870400E+03  0.50400001928E-02 0. -1.
       -1    1    3    3    0  502  0.15986189917E+03  0.28803891627E+03 -0.96352920583E+03  0.10182881589E+04  0.50400001928E-02 0.  1.
</event>
<event>
 5   0  0.5671132E-05  0.1705413E+04  0.7818609E-02  0.8758283E-01
       -2   -1    0    0    0  501  0.00000000000E+00  0.00000000000E+00  0.59914739253E+03  0.59914739253E+03  0.25500000920E-02 0.  1.
        2   -1    0    0  501    0  0.00000000000E+00  0.00000000000E+00 -0.12135713276E+04  0.12135713276E+04  0.25500000920E-02 0. -1.
    10030    2    1    2    0    0  0.00000000000E+00  0.00000000000E+00 -0.61442393504E+03  0.18127187201E+04  0.17054126733E+04 0.  0.
        3    1    3    3  502    0  0.36952436481E+03 -0.60878757568E+03 -0.80569524476E+03  0.10753210712E+04  0.10100000352E+00 0. -1.
       -3    1    3    3    0  502 -0.36952436481E+03  0.60878757568E+03  0.19127130972E+03  0.73739764891E+03  0.10100000352E+00 0.  1.
</event>
<event>
 5   0  0.5859822E-05  0.1698257E+04  0.7818609E-02  0.8762359E-01
        2   -1    0    0  501    0  0.00000000000E+00  0.00000000000E+00  0.75405250494E+03  0.75405250494E+03  0.25500000920E-02 0. -1.
       -2   -1    0    0    0  501  0.00000000000E+00  0.00000000000E+00 -0.95619246998E+03  0.95619246999E+03  0.25500000920E-02 0.  1.
    10030    2    1    2    0    0  0.00000000000E+00  0.00000000000E+00 -0.20213996504E+03  0.17102449749E+04  0.16982571386E+04 0.  0.
        5    1    3    3  502    0  0.69576722537E+02  0.47997685685E+03 -0.80296802964E+03  0.93808232584E+03  0.46999998093E+01 0.  1.
       -5    1    3    3    0  502 -0.69576722537E+02 -0.47997685685E+03  0.60082806460E+03  0.77216264908E+03  0.46999998093E+01 0. -1.
</event>
<event>
 5   0  0.5755321E-05  0.1701348E+04  0.7818609E-02  0.8760596E-01
        2   -1    0    0  501    0  0.00000000000E+00  0.00000000000E+00  0.73938475561E+03  0.73938475562E+03  0.25500000920E-02 0.  1.
       -2   -1    0    0    0  501  0.00000000000E+00  0.00000000000E+00 -0.97871423111E+03  0.97871423112E+03  0.25500000920E-02 0. -1.
    10030    2    1    2    0    0  0.00000000000E+00  0.00000000000E+00 -0.23932947550E+03  0.17180989867E+04  0.17013481508E+04 0.  0.
        4    1    3    3  502    0  0.83818946553E+03 -0.15329153566E+01  0.26957195553E+02  0.83862520427E+03  0.12699999809E+01 0.  1.
       -4    1    3    3    0  502 -0.83818946553E+03  0.15329153566E+01 -0.26628667106E+03  0.87947378246E+03  0.12699999809E+01 0. -1.
</event>
<event>
 5   0  0.5821584E-05  0.1702577E+04  0.7818609E-02  0.8759896E-01
        2   -1    0    0  501    0  0.00000000000E+00  0.00000000000E+00  0.60637558539E+03  0.60637558539E+03  0.25500000920E-02 0. -1.
       -2   -1    0    0    0  501  0.00000000000E+00  0.00000000000E+00 -0.11951215480E+04  0.11951215480E+04  0.25500000920E-02 0.  1.
    10030    2    1    2    0    0  0.00000000000E+00  0.00000000000E+00 -0.58874596264E+03  0.18014971334E+04  0.17025774911E+04 0.  0.
        1    1    3    3  502    0  0.14252248245E+03 -0.53436251704E+03  0.39040373547E+03  0.67695718795E+03  0.50400001928E-02 0. -1.
       -1    1    3    3    0  502 -0.14252248245E+03  0.53436251704E+03 -0.97914969811E+03  0.11245399455E+04  0.50400001928E-02 0.  1.
</event>
<event>
 5   0  0.2967704E-05  0.1700339E+04  0.7818609E-02  0.8761171E-01
       -1   -1    0    0    0  501  0.00000000000E+00  0.00000000000E+00  0.50247609523E+03  0.50247609526E+03  0.50400001928E-02 0. -1.
        1   -1    0    0  501    0  0.00000000000E+00  0.00000000000E+00 -0.14384535518E+04  0.14384535518E+04  0.50400001928E-02 0.  1.
    10030    2    1    2    0    0  0.00000000000E+00  0.00000000000E+00 -0.93597745659E+03  0.19409296471E+04  0.17003394060E+04 0.  0.
        2    1    3    3  502    0  0.82665482066E+03  0.74606073768E+02 -0.25792793471E+03  0.86916688747E+03  0.25500000920E-02 0. -1.
       -2    1    3    3    0  502 -0.82665482066E+03 -0.74606073768E+02 -0.67804952188E+03  0.10717627596E+04  0.25500000920E-02 0.  1.
</event>
<event>
 5   0  0.2993769E-05  0.1675539E+04  0.7818609E-02  0.8775439E-01
        1   -1    0    0  501    0  0.00000000000E+00  0.00000000000E+00  0.77959917178E+03  0.77959917179E+03  0.50400001928E-02 0. -1.
       -1   -1    0    0    0  501  0.00000000000E+00  0.00000000000E+00 -0.90028061948E+03  0.90028061949E+03  0.50400001928E-02 0.  1.
    10030    2    1    2    0    0  0.00000000000E+00  0.00000000000E+00 -0.12068144770E+03  0.16798797913E+04  0.16755393464E+04 0.  0.
        3    1    3    3  502    0 -0.75918852140E+03  0.32231688611E+03 -0.20769979620E+03  0.85052607346E+03  0.10100000352E+00 0.  1.
       -3    1    3    3    0  502  0.75918852140E+03 -0.32231688611E+03  0.87018348492E+02  0.82935371782E+03  0.10100000352E+00 0. -1.
</event>
<event>
 5   0  0.5671132E-05  0.1701595E+04  0.7818609E-02  0.8760455E-01
       -2   -1    0    0    0  501  0.00000000000E+00  0.00000000000E+00  0.54592337676E+03  0.54592337677E+03  0.25500000920E-02 0. -1.
        2   -1    0    0  501    0  0.00000000000E+00  0.00000000000E+00 -0.13259299629E+04  0.13259299629E+04  0.25500000920E-02 0.  1.
    10030    2    1    2    0    0  0.00000000000E+00  0.00000000000E+00 -0.78000658611E+03  0.18718533396E+04  0.17015947375E+04 0.  0.
        3    1    3    3  502    0  0.46718996151E+03  0.59896529105E+03  0.31521852660E+02  0.76027594821E+03  0.10100000352E+00 0. -1.
       -3    1    3    3    0  502 -0.46718996151E+03 -0.59896529105E+03 -0.81152843877E+03  0.11115773914E+04  0.10100000352E+00 0.  1.
</event>
<event>
 5   0  0.5671132E-05  0.1698685E+04  0.7818609E-02  0.8762115E-01
       -2   -1    0    0    0  501  0.00000000000E+00  0.00000000000E+00  0.81794677099E+03  0.81794677099E+03  0.25500000920E-02 0. -1.
        2   -1    0    0  501    0  0.00000000000E+00  0.00000000000E+00 -0.88194362970E+03  0.88194362971E+03  0.25500000920E-02 0.  1.
    10030    2    1    2    0    0  0.00000000000E+00  0.00000000000E+00 -0.63996858716E+02  0.16998904007E+04  0.16986853082E+04 0.  0.
        3    1    3    3  502    0 -0.26961824111E+03 -0.68246476076E+03  0.39600908492E+03  0.83383172832E+03  0.10100000352E+00 0. -1.
       -3    1    3    3    0  502  0.26961824111E+03  0.68246476076E+03 -0.46000594364E+03  0.86605867238E+03  0.10100000352E+00 0.  1.
</event>
<event>
 5   0  0.2967704E-05  0.1677033E+04  0.7818609E-02  0.8774573E-01
        1   -1    0    0  501    0  0.00000000000E+00  0.00000000000E+00  0.80159440511E+03  0.80159440513E+03  0.50400001928E-02 0. -1.
       -1   -1    0    0    0  501  0.00000000000E+00  0.00000000000E+00 -0.87713969053E+03  0.87713969055E+03  0.50400001928E-02 0.  1.
    10030    2    1    2    0    0  0.00000000000E+00  0.00000000000E+00 -0.75545285420E+02  0.16787340957E+04  0.16770334146E+04 0.  0.
        2    1    3    3  502    0  0.69290317639E+03  0.37944793308E+03 -0.31915327769E+03  0.85202955373E+03  0.25500000920E-02 0.  1.
       -2    1    3    3    0  502 -0.69290317639E+03 -0.37944793308E+03  0.24360799227E+03  0.82670454194E+03  0.25500000920E-02 0. -1.
</event>
<event>
 5   0  0.2911632E-05  0.1673757E+04  0.7818609E-02  0.8776475E-01
       -1   -1    0    0    0  501  0.00000000000E+00  0.00000000000E+00  0.57501541859E+03  0.57501541861E+03  0.50400001928E-02 0.  1.
        1   -1    0    0  501    0  0.00000000000E+00  0.00000000000E+00 -0.12179938314E+04  0.12179938314E+04  0.50400001928E-02 0. -1.
    10030    2    1    2    0    0  0.00000000000E+00  0.00000000000E+00 -0.64297841277E+03  0.17930092500E+04  0.16737565328E+04 0.  0.
        1    1    3    3  502    0  0.44585481721E+03  0.30345908669E+03 -0.10069972944E+04  0.11423298500E+04  0.50400001928E-02 0. -1.
       -1    1    3    3    0  502 -0.44585481721E+03 -0.30345908669E+03  0.36401888161E+03  0.65067939995E+03  0.50400001928E-02 0.  1.
</event>
<event>
 5   0  0.5859822E-05  0.1698457E+04  0.7818609E-02  0.8762245E-01
       -2   -1    0    0    0  501  0.00000000000E+00  0.00000000000E+00  0.70728532243E+03  0.70728532243E+03  0.25500000920E-02 0.  1.
        2   -1    0    0  501    0  0.00000000000E+00  0.00000000000E+00 -0.10196578844E+04  0.10196578844E+04  0.25500000920E-02 0. -1.
    10030    2    1    2    0    0  0.00000000000E+00  0.00000000000E+00 -0.31237256197E+03  0.17269432068E+04  0.16984570122E+04 0.  0.
        5    1    3    3  502    0 -0.47403732115E+03 -0.16589294926E+03  0.54008722902E+03  0.73752841125E+03  0.46999998093E+01 0.  1.
       -5    1    3    3    0  502  0.47403732115E+03  0.16589294926E+03 -0.85245979099E+03  0.98941479558E+03  0.46999998093E+01 0. -1.
</event>
<event>
 5   0  0.2966258E-05  0.1698540E+04  0.7818609E-02  0.8762197E-01
       -1   -1    0    0    0  501  0.00000000000E+00  0.00000000000E+00  0.77610562726E+03  0.77610562728E+03  0.50400001928E-02 0.  1.
        1   -1    0    0  501    0  0.00000000000E+00  0.00000000000E+00 -0.92933218328E+03  0.92933218329E+03  0.50400001928E-02 0. -1.
    10030    2    1    2    0    0  0.00000000000E+00  0.00000000000E+00 -0.15322655601E+03  0.17054378106E+04  0.16985404759E+04 0.  0.
        4    1    3    3  502    0 -0.19556829496E+03  0.41757747086E+03  0.63947311647E+03  0.78838149506E+03  0.12699999809E+01 0.  1.
       -4    1    3    3    0  502  0.19556829496E+03 -0.41757747086E+03 -0.79269967248E+03  0.91705631551E+03  0.12699999809E+01 0. -1.
</event>
<event>
 5   0  0.2911632E-05  0.1700959E+04  0.7818609E-02  0.8760818E-01
       -1   -1    0    0    0  501  0.00000000000E+00  0.00000000000E+00  0.91351447639E+03  0.91351447640E+03  0.50400001928E-02 0.  1.
        1   -1    0    0  501    0  0.00000000000E+00  0.00000000000E+00 -0.79179409482E+03  0.79179409484E+03  0.50400001928E-02 0. -1.
    10030    2    1    2    0    0  0.00000000000E+00  0.00000000000E+00  0.12172038157E+03  0.17053085712E+04  0.17009589859E+04 0.  0.
        1    1    3    3  502    0 -0.71779121674E+03  0.24384979106E+03 -0.32564920737E+03  0.82506627474E+03  0.50400001928E-02 0. -1.
       -1    1    3    3    0  502  0.71779121674E+03 -0.24384979106E+03  0.44736958893E+03  0.88024229650E+03  0.50400001928E-02 0.  1.
</event>
<event>
 5   0  0.5755321E-05  0.1692939E+04  0.7818609E-02  0.8765402E-01
       -2   -1    0    0    0  501  0.00000000000E+00  0.00000000000E+00  0.10771909073E+04  0.10771909073E+04  0.25500000920E-02 0.  1.
        2   -1    0    0  501    0  0.00000000000E+00  0.00000000000E+00 -0.66516620777E+03  0.66516620777E+03  0.25500000920E-02 0. -1.
    10030    2    1    2    0    0  0.00000000000E+00  0.00000000000E+00  0.41202469949E+03  0.17423571150E+04  0.16929394447E+04 0.  0.
        4    1    3    3  502    0 -0.19220381003E+03  0.80849347055E+03  0.40362615031E+02  0.83200646038E+03  0.12699999809E+01 0. -1.
       -4    1    3    3    0  502  0.19220381003E+03 -0.80849347055E+03  0.37166208446E+03  0.91035065466E+03  0.12699999809E+01 0.  1.
</event>
<event>
 5   0  0.2993769E-05  0.1710496E+04  0.7818609E-02  0.8755401E-01
       -1   -1    0    0    0  501  0.00000000000E+00  0.00000000000E+00  0.10032756440E+04  0.10032756440E+04  0.50400001928E-02 0.  1.
        1   -1    0    0  501    0  0.00000000000E+00  0.00000000000E+00 -0.72906081213E+03  0.72906081214E+03  0.50400001928E-02 0. -1.
    10030    2    1    2    0    0  0.00000000000E+00  0.00000000000E+00  0.27421483185E+03  0.17323364561E+04  0.17104957829E+04 0.  0.
        3    1    3    3  502    0  0.31731344237E+03  0.36991786213E+03  0.84887692333E+03  0.97883557689E+03  0.10100000352E+00 0.  1.
       -3    1    3    3    0  502 -0.31731344237E+03 -0.36991786213E+03 -0.57466209148E+03  0.75350087924E+03  0.10100000352E+00 0. -1.
</event>
<event>
 5   0  0.2911632E-05  0.1700953E+04  0.7818609E-02  0.8760821E-01
        1   -1    0    0  501    0  0.00000000000E+00  0.00000000000E+00  0.89399485576E+03  0.89399485577E+03  0.50400001928E-02 0. -1.
       -1   -1    0    0    0  501  0.00000000000E+00  0.00000000000E+00 -0.80907699019E+03  0.80907699020E+03  0.50400001928E-02 0.  1.
    10030    2    1    2    0    0  0.00000000000E+00  0.00000000000E+00  0.84917865572E+02  0.17030718460E+04  0.17009534587E+04 0.  0.
        1    1    3    3  502    0  0.44267172176E+03  0.72586725812E+03  0.64145489608E+02  0.85261724913E+03  0.50400001928E-02 0. -1.
       -1    1    3    3    0  502 -0.44267172176E+03 -0.72586725812E+03  0.20772375964E+02  0.85045459684E+03  0.50400001928E-02 0.  1.
</event>
<event>
 5   0  0.2911632E-05  0.1698150E+04  0.7818609E-02  0.8762420E-01
       -1   -1    0    0    0  501  0.00000000000E+00  0.00000000000E+00  0.68375669023E+03  0.68375669025E+03  0.50400001928E-02 0. -1.
        1   -1    0    0  501    0  0.00000000000E+00  0.00000000000E+00 -0.10543644088E+04  0.10543644088E+04  0.50400001928E-02 0.  1.
    10030    2    1    2    0    0  0.00000000000E+00  0.00000000000E+00 -0.37060771858E+03  0.17381210991E+04  0.16981504274E+04 0.  0.
        1    1    3    3  502    0  0.47526556192E+03  0.68149613893E+03 -0.36439189948E+03  0.90724627205E+03  0.50400001928E-02 0. -1.
       -1    1    3    3    0  502 -0.47526556192E+03 -0.68149613893E+03 -0.62158190952E+01  0.83087482701E+03  0.50400001928E-02 0.  1.
</event>
<event>
 5   0  0.2987859E-05  0.1699142E+04  0.7818609E-02  0.8761854E-01
       -1   -1    0    0    0  501  0.00000000000E+00  0.00000000000E+00  0.11921259096E+04  0.11921259096E+04  0.50400001928E-02 0. -1.
        1   -1    0    0  501    0  0.00000000000E+00  0.00000000000E+00 -0.60544846596E+03  0.60544846599E+03  0.50400001928E-02 0.  1.
    10030    2    1    2    0    0  0.00000000000E+00  0.00000000000E+00  0.58667744360E+03  0.17975743756E+04  0.16991419049E+04 0.  0.
        5    1    3    3  502    0  0.50041683996E+03  0.34921638716E+03  0.91866401937E+03  0.11028756817E+04  0.46999998093E+01 0. -1.
       -5    1    3    3    0  502 -0.50041683996E+03 -0.34921638716E+03 -0.33198657577E+03  0.69469869387E+03  0.46999998093E+01 0.  1.
</event>
<event>
 5   0  0.2987859E-05  0.1700879E+04  0.7818609E-02  0.8760863E-01
       -1   -1    0    0    0  501  0.00000000000E+00  0.00000000000E+00  0.59636954658E+03  0.59636954660E+03  0.50400001928E-02 0. -1.
        1   -1    0    0  501    0  0.00000000000E+00  0.00000000000E+00 -0.12127507878E+04  0.12127507878E+04  0.50400001928E-02 0.  1.
    10030    2    1    2    0    0  0.00000000000E+00  0.00000000000E+00 -0.61638124117E+03  0.18091203344E+04  0.17008793460E+04 0.  0.
        5    1    3    3  502    0  0.84969876360E+03  0.20992747847E+02 -0.27816542737E+03  0.89433035244E+03  0.46999998093E+01 0.  1.
       -5    1    3    3    0  502 -0.84969876360E+03 -0.20992747847E+02 -0.33821581380E+03  0.91478998192E+03  0.46999998093E+01 0. -1.
</event>
<event>
 5   0  0.2967704E-05  0.1697499E+04  0.7818609E-02  0.8762792E-01
       -1   -1    0    0    0  501  0.00000000000E+00  0.00000000000E+00  0.45655773332E+03  0.45655773335E+03  0.50400001928E-02 0. -1.
        1   -1    0    0  501    0  0.00000000000E+00  0.00000000000E+00 -0.15778420609E+04  0.15778420610E+04  0.50400001928E-02 0.  1.
    10030    2    1    2    0    0  0.00000000000E+00  0.00000000000E+00 -0.11212843276E+04  0.20343997943E+04  0.16974993313E+04 0.  0.
        2    1    3    3  502    0  0.19326494626E+03  0.64293827152E+03 -0.11829868101E+04  0.13602127603E+04  0.25500000920E-02 0.  1.
       -2    1    3    3    0  502 -0.19326494626E+03 -0.64293827152E+03  0.61702482489E+02  0.67418703398E+03  0.25500000920E-02 0. -1.
</event>
<event>
 5   0  0.2967704E-05  0.1695770E+04  0.7818609E-02  0.8763781E-01
        1   -1    0    0  501    0  0.00000000000E+00  0.00000000000E+00  0.17376261289E+04  0.17376261289E+04  0.50400001928E-02 0.  1.
       -1   -1    0    0    0  501  0.00000000000E+00  0.00000000000E+00 -0.41373050816E+03  0.41373050819E+03  0.50400001928E-02 0. -1.
    10030    2    1    2    0    0  0.00000000000E+00  0.00000000000E+00  0.13238956207E+04  0.21513566371E+04  0.16957699624E+04 0.  0.
        2    1    3    3  502    0  0.44531659985E+03  0.28321225219E+03  0.15038577185E+04  0.15937704011E+04  0.25500000920E-02 0.  1.
       -2    1    3    3    0  502 -0.44531659985E+03 -0.28321225219E+03 -0.17996209780E+03  0.55758623597E+03  0.25500000920E-02 0. -1.
</event>
<event>
 5   0  0.2967704E-05  0.1699140E+04  0.7818609E-02  0.8761855E-01
       -1   -1    0    0    0  501  0.00000000000E+00  0.00000000000E+00  0.70761572636E+03  0.70761572638E+03  0.50400001928E-02 0.  1.
        1   -1    0    0  501    0  0.00000000000E+00  0.00000000000E+00 -0.10200014247E+04  0.10200014247E+04  0.50400001928E-02 0. -1.
    10030    2    1    2    0    0  0.00000000000E+00  0.00000000000E+00 -0.31238569831E+03  0.17276171511E+04  0.16991398401E+04 0.  0.
        2    1    3    3  502    0 -0.29299210305E+03 -0.79701370066E+03 -0.12941058552E+03  0.85896583817E+03  0.25500000920E-02 0. -1.
       -2    1    3    3    0  502  0.29299210305E+03  0.79701370066E+03 -0.18297511279E+03  0.86865131290E+03  0.25500000920E-02 0.  1.
</event>
<event>
 5   0  0.5859822E-05  0.1702447E+04  0.7818609E-02  0.8759970E-01
       -2   -1    0    0    0  501  0.00000000000E+00  0.00000000000E+00  0.11851979207E+04  0.11851979207E+04  0.25500000920E-02 0.  1.
        2   -1    0    0  501    0  0.00000000000E+00  0.00000000000E+00 -0.61135872651E+03  0.61135872651E+03  0.25500000920E-02 0. -1.
    10030    2    1    2    0    0  0.00000000000E+00  0.00000000000E+00  0.57383919416E+03  0.17965566472E+04  0.17024465824E+04 0.  0.
        5    1    3    3  502    0  0.65828069022E+03  0.40665984323E+03  0.66128847361E+03  0.10178557022E+04  0.46999998093E+01 0.  1.
       -5    1    3    3    0  502 -0.65828069022E+03 -0.40665984323E+03 -0.87449279448E+02  0.77870094497E+03  0.46999998093E+01 0. -1.
</event>
<event>
 5   0  0.2911632E-05  0.1700281E+04  0.7818609E-02  0.8761204E-01
        1   -1    0    0  501    0  0.00000000000E+00  0.00000000000E+00  0.13234419535E+04  0.13234419536E+04  0.50400001928E-02 0.  1.
       -1   -1    0    0    0  501  0.00000000000E+00  0.00000000000E+00 -0.54610577048E+03  0.54610577050E+03  0.50400001928E-02 0. -1.
    10030    2    1    2    0    0  0.00000000000E+00  0.00000000000E+00  0.77733618307E+03  0.18695477241E+04  0.17002814917E+04 0.  0.
        1    1    3    3  502    0  0.83327390159E+02 -0.89768551907E+02 -0.53635338114E+03  0.55016070047E+03  0.50400001928E-02 0. -1.
       -1    1    3    3    0  502 -0.83327390159E+02  0.89768551907E+02  0.13136895642E+04  0.13193870236E+04  0.50400001928E-02 0.  1.
</event>
<event>
 5   0  0.2098250E-05  0.1704407E+04  0.7818609E-02  0.8758855E-01
        3   -1    0    0  501    0  0.00000000000E+00  0.00000000000E+00  0.65654810669E+03  0.65654811446E+03  0.10100000352E+00 0. -1.
       -3   -1    0    0    0  501  0.00000000000E+00  0.00000000000E+00 -0.11061650617E+04  0.11061650663E+04  0.10100000352E+00 0.  1.
    10030    2    1    2    0    0  0.00000000000E+00  0.00000000000E+00 -0.44961695504E+03  0.17627131808E+04  0.17044067447E+04 0.  0.
        1    1    3    3  502    0 -0.39793339544E+02  0.80661879102E+03  0.56589959098E+02  0.80958001914E+03  0.50400001928E-02 0. -1.
       -1    1    3    3    0  502  0.39793339544E+02 -0.80661879102E+03 -0.50620691414E+03  0.95313316166E+03  0.50400001928E-02 0.  1.
</event>
<event>
 5   0  0.5671132E-05  0.1684608E+04  0.7818609E-02  0.8770192E-01
       -2   -1    0    0    0  501  0.00000000000E+00  0.00000000000E+00  0.70140100913E+03  0.70140100913E+03  0.25500000920E-02 0. -1.
        2   -1    0    0  501    0  0.00000000000E+00  0.00000000000E+00 -0.10115122268E+04  0.10115122268E+04  0.25500000920E-02 0.  1.
    10030    2    1    2    0    0  0.00000000000E+00  0.00000000000E+00 -0.31011121766E+03  0.17129132359E+04  0.16846076061E+04 0.  0.
        3    1    3    3  502    0  0.19280504366E+03 -0.77434898772E+03 -0.42918817964E+03  0.90608644366E+03  0.10100000352E+00 0.  1.
       -3    1    3    3    0  502 -0.19280504366E+03  0.77434898772E+03  0.11907696198E+03  0.80682679226E+03  0.10100000352E+00 0. -1.
</event>
<event>
 5   0  0.2966258E-05  0.1703655E+04  0.7818609E-02  0.8759283E-01
       -1   -1    0    0    0  501  0.00000000000E+00  0.00000000000E+00  0.57143845190E+03  0.57143845192E+03  0.50400001928E-02 0. -1.
        1   -1    0    0  501    0  0.00000000000E+00  0.00000000000E+00 -0.12697952818E+04  0.12697952819E+04  0.50400001928E-02 0.  1.
    10030    2    1    2    0    0  0.00000000000E+00  0.00000000000E+00 -0.69835682995E+03  0.18412337338E+04  0.17036547187E+04 0.  0.
        4    1    3    3  502    0  0.79539873590E+03  0.30294765200E+03 -0.38617448764E+03  0.93464901259E+03  0.12699999809E+01 0. -1.
       -4    1    3    3    0  502 -0.79539873590E+03 -0.30294765200E+03 -0.31218234231E+03  0.90658472118E+03  0.12699999809E+01 0.  1.
</event>
<event>
 5   0  0.5755321E-05  0.1699904E+04  0.7818609E-02  0.8761419E-01
       -2   -1    0    0    0  501  0.00000000000E+00  0.00000000000E+00  0.58807155766E+03  0.58807155766E+03  0.25500000920E-02 0. -1.
        2   -1    0    0  501    0  0.00000000000E+00  0.00000000000E+00 -0.12284534323E+04  0.12284534323E+04  0.25500000920E-02 0.  1.
    10030    2    1    2    0    0  0.00000000000E+00  0.00000000000E+00 -0.64038187460E+03  0.18165249899E+04  0.16999041425E+04 0.  0.
        4    1    3    3  502    0 -0.16594778408E+03  0.71848642489E+03  0.13148311381E+03  0.74903326488E+03  0.12699999809E+01 0. -1.
       -4    1    3    3    0  502  0.16594778408E+03 -0.71848642489E+03 -0.77186498841E+03  0.10674917250E+04  0.12699999809E+01 0.  1.
</event>
<event>
 5   0  0.5821584E-05  0.1699434E+04  0.7818609E-02  0.8761687E-01
        2   -1    0    0  501    0  0.00000000000E+00  0.00000000000E+00  0.23382268920E+04  0.23382268920E+04  0.25500000920E-02 0. -1.
       -2   -1    0    0    0  501  0.00000000000E+00  0.00000000000E+00 -0.30878906193E+03  0.30878906195E+03  0.25500000920E-02 0.  1.
    10030    2    1    2    0    0  0.00000000000E+00  0.00000000000E+00  0.20294378300E+04  0.26470159539E+04  0.16994338923E+04 0.  0.
        1    1    3    3  502    0  0.53680570474E+03 -0.93106023424E+02 -0.93020939694E+00  0.54482103626E+03  0.50400001928E-02 0.  1.
       -1    1    3    3    0  502 -0.53680570474E+03  0.93106023424E+02  0.20303680394E+04  0.21021949177E+04  0.50400001928E-02 0. -1.
</event>
<event>
 5   0  0.2993769E-05  0.1701452E+04  0.7818609E-02  0.8760537E-01
        1   -1    0    0  501    0  0.00000000000E+00  0.00000000000E+00  0.73759463394E+03  0.73759463396E+03  0.50400001928E-02 0.  1.
       -1   -1    0    0    0  501  0.00000000000E+00  0.00000000000E+00 -0.98120884173E+03  0.98120884174E+03  0.50400001928E-02 0. -1.
    10030    2    1    2    0    0  0.00000000000E+00  0.00000000000E+00 -0.24361420779E+03  0.17188034757E+04  0.17014515879E+04 0.  0.
        3    1    3    3  502    0  0.60760828971E+03  0.58412323877E+03 -0.51015473941E+01  0.84286050315E+03  0.10100000352E+00 0.  1.
       -3    1    3    3    0  502 -0.60760828971E+03 -0.58412323877E+03 -0.23851266040E+03  0.87594297255E+03  0.10100000352E+00 0. -1.
</event>
<event>
 5   0  0.5671132E-05  0.1702496E+04  0.7818609E-02  0.8759942E-01
        2   -1    0    0  501    0  0.00000000000E+00  0.00000000000E+00  0.10275947234E+04  0.10275947234E+04  0.25500000920E-02 0. -1.
       -2   -1    0    0    0  501  0.00000000000E+00  0.00000000000E+00 -0.70516459678E+03  0.70516459679E+03  0.25500000920E-02 0.  1.
    10030    2    1    2    0    0  0.00000000000E+00  0.00000000000E+00  0.32243012657E+03  0.17327593201E+04  0.17024963069E+04 0.  0.
        3    1    3    3  502    0  0.58061277277E+03 -0.25206294354E+03  0.74052211143E+03  0.97417653797E+03  0.10100000352E+00 0. -1.
       -3    1    3    3    0  502 -0.58061277277E+03  0.25206294354E+03 -0.41809198486E+03  0.75858278218E+03  0.10100000352E+00 0.  1.
</event>
<event>
 5   0  0.2966258E-05  0.1695041E+04  0.7818609E-02  0.8764197E-01
        1   -1    0    0  501    0  0.00000000000E+00  0.00000000000E+00  0.21127023774E+04  0.21127023774E+04  0.50400001928E-02 0.  1.
       -1   -1    0    0    0  501  0.00000000000E+00  0.00000000000E+00 -0.33998703695E+03  0.33998703699E+03  0.50400001928E-02 0. -1.
    10030    2    1    2    0    0  0.00000000000E+00  0.00000000000E+00  0.17727153404E+04  0.24526894144E+04  0.16950414995E+04 0.  0.
        4    1    3    3  502    0 -0.55175341707E+03 -0.59176671504E+03  0.52124232171E+03  0.96245251785E+03  0.12699999809E+01 0. -1.
       -4    1    3    3    0  502  0.55175341707E+03  0.59176671504E+03  0.12514730187E+04  0.14902368965E+04  0.12699999809E+01 0.  1.
</event>
<event>
 5   0  0.5652631E-05  0.1702579E+04  0.7818609E-02  0.8759895E-01
       -2   -1    0    0    0  501  0.00000000000E+00  0.00000000000E+00  0.71345571285E+03  0.71345571285E+03  0.25500000920E-02 0. -1.
        2   -1    0    0  501    0  0.00000000000E+00  0.00000000000E+00 -0.10157521165E+04  0.10157521165E+04  0.25500000920E-02 0.  1.
    10030    2    1    2    0    0  0.00000000000E+00  0.00000000000E+00 -0.30229640369E+03  0.17292078294E+04  0.17025793965E+04 0.  0.
        2    1    3    3  502    0 -0.49829172814E+03 -0.39727317191E+02 -0.85099807880E+03  0.98695016905E+03  0.25500000920E-02 0.  1.
       -2    1    3    3    0  502  0.49829172814E+03  0.39727317191E+02  0.54870167511E+03  0.74225766034E+03  0.25500000920E-02 0. -1.
</event>
<event>
 5   0  0.2966258E-05  0.1696176E+04  0.7818609E-02  0.8763548E-01
       -1   -1    0    0    0  501  0.00000000000E+00  0.00000000000E+00  0.69699809951E+03  0.69699809953E+03  0.50400001928E-02 0.  1.
        1   -1    0    0  501    0  0.00000000000E+00  0.00000000000E+00 -0.10319297884E+04  0.10319297884E+04  0.50400001928E-02 0. -1.
    10030    2    1    2    0    0  0.00000000000E+00  0.00000000000E+00 -0.33493168890E+03  0.17289278880E+04  0.16961758180E+04 0.  0.
        4    1    3    3  502    0 -0.13819931073E+02 -0.71959776884E+03  0.28979359550E+03  0.77588264596E+03  0.12699999809E+01 0.  1.
       -4    1    3    3    0  502  0.13819931073E+02  0.71959776884E+03 -0.62472528440E+03  0.95304524199E+03  0.12699999809E+01 0. -1.
</event>
<event>
 5   0  0.2966258E-05  0.1694679E+04  0.7818609E-02  0.8764405E-01
       -1   -1    0    0    0  501  0.00000000000E+00  0.00000000000E+00  0.33693961962E+03  0.33693961965E+03  0.50400001928E-02 0.  1.
        1   -1    0    0  501    0  0.00000000000E+00  0.00000000000E+00 -0.21308980796E+04  0.21308980796E+04  0.50400001928E-02 0. -1.
    10030    2    1    2    0    0  0.00000000000E+00  0.00000000000E+00 -0.17939584600E+04  0.24678376993E+04  0.16946787170E+04 0.  0.
        4    1    3    3  502    0 -0.59425255242E+03 -0.39957903506E+03 -0.15566082799E+04  0.17134265234E+04  0.12699999809E+01 0. -1.
       -4    1    3    3    0  502  0.59425255242E+03  0.39957903506E+03 -0.23735018011E+03  0.75441117583E+03  0.12699999809E+01 0.  1.
</event>
<event>
 5   0  0.2967704E-05  0.1699657E+04  0.7818609E-02  0.8761560E-01
        1   -1    0    0  501    0  0.00000000000E+00  0.00000000000E+00  0.58639635462E+03  0.58639635464E+03  0.50400001928E-02 0.  1.
       -1   -1    0    0    0  501  0.00000000000E+00  0.00000000000E+00 -0.12316045931E+04  0.12316045931E+04  0.50400001928E-02 0. -1.
    10030    2    1    2    0    0  0.00000000000E+00  0.00000000000E+00 -0.64520823844E+03  0.18180009477E+04  0.16996569580E+04 0.  0.
        2    1    3    3  502    0 -0.23316647763E+03 -0.64667080278E+03 -0.85705302234E+03  0.10986763020E+04  0.25500000920E-02 0. -1.
       -2    1    3    3    0  502  0.23316647763E+03  0.64667080278E+03  0.21184478390E+03  0.71932464572E+03  0.25500000920E-02 0.  1.
</event>
<event>
 5   0  0.5652631E-05  0.1700990E+04  0.7818609E-02  0.8760800E-01
       -2   -1    0    0    0  501  0.00000000000E+00  0.00000000000E+00  0.14050765512E+04  0.14050765512E+04  0.25500000920E-02 0.  1.
        2   -1    0    0  501    0  0.00000000000E+00  0.00000000000E+00 -0.51480622784E+03  0.51480622784E+03  0.25500000920E-02 0. -1.
    10030    2    1    2    0    0  0.00000000000E+00  0.00000000000E+00  0.89027032335E+03  0.19198827790E+04  0.17009904869E+04 0.  0.
        2    1    3    3  502    0 -0.50174635737E+03  0.16834079072E+03 -0.30631334172E+03  0.61148662477E+03  0.25500000920E-02 0. -1.
       -2    1    3    3    0  502  0.50174635737E+03 -0.16834079072E+03  0.11965836651E+04  0.13083961543E+04  0.25500000920E-02 0.  1.
</event>
<event>
 5   0  0.5821584E-05  0.1705097E+04  0.7818609E-02  0.8758463E-01
       -2   -1    0    0    0  501  0.00000000000E+00  0.00000000000E+00  0.42370449233E+03  0.42370449233E+03  0.25500000920E-02 0. -1.
        2   -1    0    0  501    0  0.00000000000E+00  0.00000000000E+00 -0.17154381372E+04  0.17154381372E+04  0.25500000920E-02 0.  1.
    10030    2    1    2    0    0  0.00000000000E+00  0.00000000000E+00 -0.12917336449E+04  0.21391426296E+04  0.17050968829E+04 0.  0.
        1    1    3    3  502    0 -0.71602004928E+03  0.21880543300E+03 -0.13429278996E+03  0.76065437746E+03  0.50400001928E-02 0. -1.
       -1    1    3    3    0  502  0.71602004928E+03 -0.21880543300E+03 -0.11574408549E+04  0.13784882521E+04  0.50400001928E-02 0.  1.
</event>
<event>
 5   0  0.2098250E-05  0.1711181E+04  0.7818609E-02  0.8755013E-01
       -4   -1    0    0    0  501  0.00000000000E+00  0.00000000000E+00  0.10237649402E+04  0.10237657279E+04  0.12699999809E+01 0.  1.
        4   -1    0    0  501    0  0.00000000000E+00  0.00000000000E+00 -0.71504040613E+03  0.71504153397E+03  0.12699999809E+01 0. -1.
    10030    2    1    2    0    0  0.00000000000E+00  0.00000000000E+00  0.30872453407E+03  0.17388072619E+04  0.17111808368E+04 0.  0.
        4    1    3    3  502    0 -0.19677974081E+03 -0.67689144270E+03  0.64709191018E+03  0.95688758207E+03  0.12699999809E+01 0.  1.
       -4    1    3    3    0  502  0.19677974081E+03  0.67689144270E+03 -0.33836737611E+03  0.78191967983E+03  0.12699999809E+01 0. -1.
</event>
<event>
 5   0  0.5821584E-05  0.1701790E+04  0.7818609E-02  0.8760344E-01
        2   -1    0    0  501    0  0.00000000000E+00  0.00000000000E+00  0.21309096833E+04  0.21309096833E+04  0.25500000920E-02 0. -1.
       -2   -1    0    0    0  501  0.00000000000E+00  0.00000000000E+00 -0.33977128643E+03  0.33977128644E+03  0.25500000920E-02 0.  1.
    10030    2    1    2    0    0  0.00000000000E+00  0.00000000000E+00  0.17911383968E+04  0.24706809697E+04  0.17017895573E+04 0.  0.
        1    1    3    3  502    0 -0.76266277579E+03 -0.33848711213E+03  0.11376082712E+04  0.14108084963E+04  0.50400001928E-02 0. -1.
       -1    1    3    3    0  502  0.76266277579E+03  0.33848711213E+03  0.65353012565E+03  0.10598724734E+04  0.50400001928E-02 0.  1.
</event>
<event>
 5   0  0.2911632E-05  0.1699527E+04  0.7818609E-02  0.8761634E-01
        1   -1    0    0  501    0  0.00000000000E+00  0.00000000000E+00  0.10984791978E+04  0.10984791978E+04  0.50400001928E-02 0. -1.
       -1   -1    0    0    0  501  0.00000000000E+00  0.00000000000E+00 -0.65736182088E+03  0.65736182090E+03  0.50400001928E-02 0.  1.
    10030    2    1    2    0    0  0.00000000000E+00  0.00000000000E+00  0.44111737696E+03  0.17558410187E+04  0.16995273292E+04 0.  0.
        1    1    3    3  502    0  0.81526207013E+03  0.11029948547E+03  0.71674009363E+00  0.82268993748E+03  0.50400001928E-02 0.  1.
       -1    1    3    3    0  502 -0.81526207013E+03 -0.11029948547E+03  0.44040063686E+03  0.93315108127E+03  0.50400001928E-02 0. -1.
</event>
<event>
 5   0  0.5859822E-05  0.1671463E+04  0.7818609E-02  0.8777810E-01
       -2   -1    0    0    0  501  0.00000000000E+00  0.00000000000E+00  0.60652802717E+03  0.60652802718E+03  0.25500000920E-02 0.  1.
        2   -1    0    0  501    0  0.00000000000E+00  0.00000000000E+00 -0.11515492351E+04  0.11515492351E+04  0.25500000920E-02 0. -1.
    10030    2    1    2    0    0  0.00000000000E+00  0.00000000000E+00 -0.54502120790E+03  0.17580772623E+04  0.16714626957E+04 0.  0.
        5    1    3    3  502    0  0.28918500816E+03 -0.53159290368E+02 -0.10953340541E+04  0.11341219772E+04  0.46999998093E+01 0. -1.
       -5    1    3    3    0  502 -0.28918500816E+03  0.53159290368E+02  0.55031284618E+03  0.62395528507E+03  0.46999998093E+01 0.  1.
</event>
<event>
 5   0  0.2098250E-05  0.1702222E+04  0.7818609E-02  0.8760098E-01
       -3   -1    0    0    0  501  0.00000000000E+00  0.00000000000E+00  0.13870392127E+04  0.13870392164E+04  0.10100000352E+00 0. -1.
        3   -1    0    0  501    0  0.00000000000E+00  0.00000000000E+00 -0.52225601572E+03  0.52225602549E+03  0.10100000352E+00 0.  1.
    10030    2    1    2    0    0  0.00000000000E+00  0.00000000000E+00  0.86478319697E+03  0.19092952419E+04  0.17022215904E+04 0.  0.
        5    1    3    3  502    0  0.21946213590E+03 -0.63165518364E+03  0.10229540425E+04  0.12221329564E+04  0.46999998093E+01 0. -1.
       -5    1    3    3    0  502 -0.21946213590E+03  0.63165518364E+03 -0.15817084555E+03  0.68716228541E+03  0.46999998093E+01 0.  1.
</event>
<event>
 5   0  0.5755321E-05  0.1698237E+04  0.7818609E-02  0.8762370E-01
       -2   -1    0    0    0  501  0.00000000000E+00  0.00000000000E+00  0.49109681068E+03  0.49109681069E+03  0.25500000920E-02 0.  1.
        2   -1    0    0  501    0  0.00000000000E+00  0.00000000000E+00 -0.14681471356E+04  0.14681471357E+04  0.25500000920E-02 0. -1.
    10030    2    1    2    0    0  0.00000000000E+00  0.00000000000E+00 -0.97705032497E+03  0.19592439463E+04  0.16982371754E+04 0.  0.
        4    1    3    3  502    0 -0.28039345079E+01  0.64787210702E+03  0.14469835804E+03  0.66384136420E+03  0.12699999809E+01 0.  1.
       -4    1    3    3    0  502  0.28039345079E+01 -0.64787210702E+03 -0.11217486830E+04  0.12954025821E+04  0.12699999809E+01 0. -1.
</event>
<event>
 5   0  0.5755321E-05  0.1696599E+04  0.7818609E-02  0.8763306E-01
        2   -1    0    0  501    0  0.00000000000E+00  0.00000000000E+00  0.11516758361E+04  0.11516758361E+04  0.25500000920E-02 0. -1.
       -2   -1    0    0    0  501  0.00000000000E+00  0.00000000000E+00 -0.62483905596E+03  0.62483905597E+03  0.25500000920E-02 0.  1.
    10030    2    1    2    0    0  0.00000000000E+00  0.00000000000E+00  0.52683678010E+03  0.17765148920E+04  0.16965990006E+04 0.  0.
        4    1    3    3  502    0  0.16517035555E+02 -0.79924862898E+03 -0.33743714241E+02  0.80013213567E+03  0.12699999809E+01 0.  1.
       -4    1    3    3    0  502 -0.16517035555E+02  0.79924862898E+03  0.56058049434E+03  0.97638275636E+03  0.12699999809E+01 0. -1.
</event>
<event>
 5   0  0.2967704E-05  0.1700128E+04  0.7818609E-02  0.8761291E-01
        1   -1    0    0  501    0  0.00000000000E+00  0.00000000000E+00  0.84586571446E+03  0.84586571448E+03  0.50400001928E-02 0.  1.
       -1   -1    0    0    0  501  0.00000000000E+00  0.00000000000E+00 -0.85428360172E+03  0.85428360174E+03  0.50400001928E-02 0. -1.
    10030    2    1    2    0    0  0.00000000000E+00  0.00000000000E+00 -0.84178872568E+01  0.17001493162E+04  0.17001284765E+04 0.  0.
        2    1    3    3  502    0  0.32679459537E+03 -0.19229000945E+03  0.75661511254E+03  0.84630761773E+03  0.25500000920E-02 0.  1.
       -2    1    3    3    0  502 -0.32679459537E+03  0.19229000945E+03 -0.76503299979E+03  0.85384169849E+03  0.25500000920E-02 0. -1.
</event>
<event>
 5   0  0.2993769E-05  0.1701646E+04  0.7818609E-02  0.8760426E-01
       -1   -1    0    0    0  501  0.00000000000E+00  0.00000000000E+00  0.36265153017E+03  0.36265153020E+03  0.50400001928E-02 0.  1.
        1   -1    0    0  501    0  0.00000000000E+00  0.00000000000E+00 -0.19961294111E+04  0.19961294111E+04  0.50400001928E-02 0. -1.
    10030    2    1    2    0    0  0.00000000000E+00  0.00000000000E+00 -0.16334778809E+04  0.23587809413E+04  0.17016455393E+04 0.  0.
        3    1    3    3  502    0 -0.28489936683E+02 -0.32182439739E+03 -0.19077899087E+04  0.19349534788E+04  0.10100000352E+00 0. -1.
       -3    1    3    3    0  502  0.28489936683E+02  0.32182439739E+03  0.27431202772E+03  0.42382746254E+03  0.10100000352E+00 0.  1.
</event>
<event>
 5   0  0.2987859E-05  0.1686038E+04  0.7818609E-02  0.8769367E-01
       -1   -1    0    0    0  501  0.00000000000E+00  0.00000000000E+00  0.66176071107E+03  0.66176071109E+03  0.50400001928E-02 0.  1.
        1   -1    0    0  501    0  0.00000000000E+00  0.00000000000E+00 -0.10739249625E+04  0.10739249625E+04  0.50400001928E-02 0. -1.
    10030    2    1    2    0    0  0.00000000000E+00  0.00000000000E+00 -0.41216425140E+03  0.17356856736E+04  0.16860383707E+04 0.  0.
        5    1    3    3  502    0 -0.68068009860E+03 -0.43139225222E+03 -0.46082498197E+03  0.92833529822E+03  0.46999998093E+01 0.  1.
       -5    1    3    3    0  502  0.68068009860E+03  0.43139225222E+03  0.48660730566E+02  0.80735037537E+03  0.46999998093E+01 0. -1.
</event>
<event>
 5   0  0.5755321E-05  0.1699302E+04  0.7818609E-02  0.8761763E-01
        2   -1    0    0  501    0  0.00000000000E+00  0.00000000000E+00  0.14380793697E+04  0.14380793697E+04  0.25500000920E-02 0.  1.
       -2   -1    0    0    0  501  0.00000000000E+00  0.00000000000E+00 -0.50199376755E+03  0.50199376756E+03  0.25500000920E-02 0. -1.
    10030    2    1    2    0    0  0.00000000000E+00  0.00000000000E+00  0.93608560215E+03  0.19400731373E+04  0.16993020695E+04 0.  0.
        4    1    3    3  502    0  0.42420338009E+03 -0.36328645461E+03  0.11990618587E+04  0.13227533820E+04  0.12699999809E+01 0.  1.
       -4    1    3    3    0  502 -0.42420338009E+03  0.36328645461E+03 -0.26297625656E+03  0.61731975523E+03  0.12699999809E+01 0. -1.
</event>
<event>
 5   0  0.5859822E-05  0.1698222E+04  0.7818609E-02  0.8762379E-01
       -2   -1    0    0    0  501  0.00000000000E+00  0.00000000000E+00  0.12103240865E+04  0.12103240865E+04  0.25500000920E-02 0. -1.
        2   -1    0    0  501    0  0.00000000000E+00  0.00000000000E+00 -0.59569974382E+03  0.59569974382E+03  0.25500000920E-02 0.  1.
    10030    2    1    2    0    0  0.00000000000E+00  0.00000000000E+00  0.61462434265E+03  0.18060238303E+04  0.16982223038E+04 0.  0.
        5    1    3    3  502    0  0.15478145468E+03 -0.62702033536E+03 -0.27891067961E+03  0.70350910219E+03  0.46999998093E+01 0.  1.
       -5    1    3    3    0  502 -0.15478145468E+03  0.62702033536E+03  0.89353502225E+03  0.11025147281E+04  0.46999998093E+01 0. -1.
</event>
<event>
 5   0  0.5821584E-05  0.1699179E+04  0.7818609E-02  0.8761833E-01
       -2   -1    0    0    0  501  0.00000000000E+00  0.00000000000E+00  0.14178969685E+04  0.14178969685E+04  0.25500000920E-02 0.  1.
        2   -1    0    0  501    0  0.00000000000E+00  0.00000000000E+00 -0.50906550978E+03  0.50906550979E+03  0.25500000920E-02 0. -1.
    10030    2    1    2    0    0  0.00000000000E+00  0.00000000000E+00  0.90883145871E+03  0.19269624783E+04  0.16991791466E+04 0.  0.
        1    1    3    3  502    0 -0.33071091587E+03  0.17078025776E+03 -0.41168365666E+03  0.55499463016E+03  0.50400001928E-02 0. -1.
       -1    1    3    3    0  502  0.33071091587E+03 -0.17078025776E+03  0.13205151154E+04  0.13719678481E+04  0.50400001928E-02 0.  1.
</event>
<event>
 5   0  0.5821584E-05  0.1701112E+04  0.7818609E-02  0.8760731E-01
        2   -1    0    0  501    0  0.00000000000E+00  0.00000000000E+00  0.17693365433E+04  0.17693365433E+04  0.25500000920E-02 0.  1.
       -2   -1    0    0    0  501  0.00000000000E+00  0.00000000000E+00 -0.40887942795E+03  0.40887942796E+03  0.25500000920E-02 0. -1.
    10030    2    1    2    0    0  0.00000000000E+00  0.00000000000E+00  0.13604571153E+04  0.21782159712E+04  0.17011117702E+04 0.  0.
        1    1    3    3  502    0  0.56174376028E+03 -0.16334400730E+03 -0.11035738832E+03  0.59532853965E+03  0.50400001928E-02 0. -1.
       -1    1    3    3    0  502 -0.56174376028E+03  0.16334400730E+03  0.14708145036E+04  0.15828874316E+04  0.50400001928E-02 0.  1.
</event>
<event>
 5   0  0.2098250E-05  0.1699827E+04  0.7818609E-02  0.8761463E-01
        3   -1    0    0  501    0  0.00000000000E+00  0.00000000000E+00  0.60212402964E+03  0.60212403811E+03  0.10100000352E+00 0.  1.
       -3   -1    0    0    0  501  0.00000000000E+00  0.00000000000E+00 -0.11996748747E+04  0.11996748789E+04  0.10100000352E+00 0. -1.
    10030    2    1    2    0    0  0.00000000000E+00  0.00000000000E+00 -0.59755084504E+03  0.18017989170E+04  0.16998271456E+04 0.  0.
        2    1    3    3  502    0 -0.50057594704E+03  0.18574871966E+03  0.40216078716E+03  0.66844009780E+03  0.25500000920E-02 0.  1.
       -2    1    3    3    0  502  0.50057594704E+03 -0.18574871966E+03 -0.99971163220E+03  0.11333588192E+04  0.25500000920E-02 0. -1.
</event>
<event>
 5   0  0.2098250E-05  0.1699805E+04  0.7818609E-02  0.8761476E-01
        3   -1    0    0  501    0  0.00000000000E+00  0.00000000000E+00  0.79834870967E+03  0.79834871606E+03  0.10100000352E+00 0. -1.
       -3   -1    0    0    0  501  0.00000000000E+00  0.00000000000E+00 -0.90478492461E+03  0.90478493025E+03  0.10100000352E+00 0.  1.
    10030    2    1    2    0    0  0.00000000000E+00  0.00000000000E+00 -0.10643621494E+03  0.17031336463E+04  0.16998045621E+04 0.  0.
        4    1    3    3  502    0  0.23212852174E+03 -0.75507008359E+03  0.26095267820E+03  0.83193292693E+03  0.12699999809E+01 0. -1.
       -4    1    3    3    0  502 -0.23212852174E+03  0.75507008359E+03 -0.36738889314E+03  0.87120071938E+03  0.12699999809E+01 0.  1.
</event>
<event>
 5   0  0.5755321E-05  0.1700440E+04  0.7818609E-02  0.8761114E-01
        2   -1    0    0  501    0  0.00000000000E+00  0.00000000000E+00  0.19211414473E+04  0.19211414473E+04  0.25500000920E-02 0.  1.
       -2   -1    0    0    0  501  0.00000000000E+00  0.00000000000E+00 -0.37627301067E+03  0.37627301068E+03  0.25500000920E-02 0. -1.
    10030    2    1    2    0    0  0.00000000000E+00  0.00000000000E+00  0.15448684367E+04  0.22974144580E+04  0.17004395624E+04 0.  0.
        4    1    3    3  502    0  0.74215095621E+03  0.17844874299E+03  0.12783919136E+04  0.14889323333E+04  0.12699999809E+01 0. -1.
       -4    1    3    3    0  502 -0.74215095621E+03 -0.17844874299E+03  0.26647652310E+03  0.80848212469E+03  0.12699999809E+01 0.  1.
</event>
<event>
 5   0  0.2966258E-05  0.1700474E+04  0.7818609E-02  0.8761094E-01
        1   -1    0    0  501    0  0.00000000000E+00  0.00000000000E+00  0.10151473764E+04  0.10151473764E+04  0.50400001928E-02 0. -1.
       -1   -1    0    0    0  501  0.00000000000E+00  0.00000000000E+00 -0.71211606465E+03  0.71211606467E+03  0.50400001928E-02 0.  1.
    10030    2    1    2    0    0  0.00000000000E+00  0.00000000000E+00  0.30303131175E+03  0.17272634411E+04  0.17004737631E+04 0.  0.
        4    1    3    3  502    0  0.14623713284E+03 -0.50818746856E+03  0.82778324322E+03  0.98227618972E+03  0.12699999809E+01 0. -1.
       -4    1    3    3    0  502 -0.14623713284E+03  0.50818746856E+03 -0.52475193147E+03  0.74498725137E+03  0.12699999809E+01 0.  1.
</event>
<event>
 5   0  0.5755321E-05  0.1694633E+04  0.7818609E-02  0.8764431E-01
        2   -1    0    0  501    0  0.00000000000E+00  0.00000000000E+00  0.10434912248E+04  0.10434912248E+04  0.25500000920E-02 0.  1.
       -2   -1    0    0    0  501  0.00000000000E+00  0.00000000000E+00 -0.68802235636E+03  0.68802235637E+03  0.25500000920E-02 0. -1.
    10030    2    1    2    0    0  0.00000000000E+00  0.00000000000E+00  0.35546886839E+03  0.17315135811E+04  0.16946330474E+04 0.  0.
        4    1    3    3  502    0  0.74649374527E+03 -0.37799108287E+03  0.41362513638E+02  0.83776049136E+03  0.12699999809E+01 0. -1.
       -4    1    3    3    0  502 -0.74649374527E+03  0.37799108287E+03  0.31410635475E+03  0.89375308976E+03  0.12699999809E+01 0.  1.
</event>
<event>
 5   0  0.2993769E-05  0.1698818E+04  0.7818609E-02  0.8762039E-01
        1   -1    0    0  501    0  0.00000000000E+00  0.00000000000E+00  0.10400998953E+04  0.10400998953E+04  0.50400001928E-02 0.  1.
       -1   -1    0    0    0  501  0.00000000000E+00  0.00000000000E+00 -0.69367928118E+03  0.69367928120E+03  0.50400001928E-02 0. -1.
    10030    2    1    2    0    0  0.00000000000E+00  0.00000000000E+00  0.34642061413E+03  0.17337791765E+04  0.16988181159E+04 0.  0.
        3    1    3    3  502    0  0.70190572312E+03  0.47826569795E+03  0.18267563053E+03  0.86878082286E+03  0.10100000352E+00 0. -1.
       -3    1    3    3    0  502 -0.70190572312E+03 -0.47826569795E+03  0.16374498360E+03  0.86499835366E+03  0.10100000352E+00 0.  1.
</event>
<event>
 5   0  0.2966258E-05  0.1701816E+04  0.7818609E-02  0.8760329E-01
        1   -1    0    0  501    0  0.00000000000E+00  0.00000000000E+00  0.14555816909E+04  0.14555816909E+04  0.50400001928E-02 0.  1.
       -1   -1    0    0    0  501  0.00000000000E+00  0.00000000000E+00 -0.49742609961E+03  0.49742609964E+03  0.50400001928E-02 0. -1.
    10030    2    1    2    0    0  0.00000000000E+00  0.00000000000E+00  0.95815559127E+03  0.19530077905E+04  0.17018158810E+04 0.  0.
        4    1    3    3  502    0 -0.59249814836E+03 -0.59144906847E+03  0.65378739636E+03  0.10622173172E+04  0.12699999809E+01 0.  1.
       -4    1    3    3    0  502  0.59249814836E+03  0.59144906847E+03  0.30436819490E+03  0.89079047333E+03  0.12699999809E+01 0. -1.
</event>
<event>
 5   0  0.2967704E-05  0.1698207E+04  0.7818609E-02  0.8762387E-01
        1   -1    0    0  501    0  0.00000000000E+00  0.00000000000E+00  0.10761311819E+04  0.10761311819E+04  0.50400001928E-02 0.  1.
       -1   -1    0    0    0  501  0.00000000000E+00  0.00000000000E+00 -0.66997143127E+03  0.66997143129E+03  0.50400001928E-02 0. -1.
    10030    2    1    2    0    0  0.00000000000E+00  0.00000000000E+00  0.40615975062E+03  0.17461026132E+04  0.16982074646E+04 0.  0.
        2    1    3    3  502    0  0.23186917564E+03  0.33029156256E+03 -0.56506532645E+03  0.69437356954E+03  0.25500000920E-02 0. -1.
       -2    1    3    3    0  502 -0.23186917564E+03 -0.33029156256E+03  0.97122507708E+03  0.10517290437E+04  0.25500000920E-02 0.  1.
</event>
<event>
 5   0  0.5821584E-05  0.1699969E+04  0.7818609E-02  0.8761382E-01
        2   -1    0    0  501    0  0.00000000000E+00  0.00000000000E+00  0.13783918069E+04  0.13783918069E+04  0.25500000920E-02 0. -1.
       -2   -1    0    0    0  501  0.00000000000E+00  0.00000000000E+00 -0.52414226013E+03  0.52414226013E+03  0.25500000920E-02 0.  1.
    10030    2    1    2    0    0  0.00000000000E+00  0.00000000000E+00  0.85424954681E+03  0.19025340671E+04  0.16999687021E+04 0.  0.
        1    1    3    3  502    0 -0.37892973865E+03 -0.30732547408E+03  0.12060755888E+04  0.13010207607E+04  0.50400001928E-02 0. -1.
       -1    1    3    3    0  502  0.37892973865E+03  0.30732547408E+03 -0.35182604202E+03  0.60151330635E+03  0.50400001928E-02 0.  1.
</event>
<event>
 5   0  0.2911632E-05  0.1701341E+04  0.7818609E-02  0.8760600E-01
        1   -1    0    0  501    0  0.00000000000E+00  0.00000000000E+00  0.10707554424E+04  0.10707554424E+04  0.50400001928E-02 0.  1.
       -1   -1    0    0    0  501  0.00000000000E+00  0.00000000000E+00 -0.67582256351E+03  0.67582256353E+03  0.50400001928E-02 0. -1.
    10030    2    1    2    0    0  0.00000000000E+00  0.00000000000E+00  0.39493287886E+03  0.17465780059E+04  0.17013414566E+04 0.  0.
        1    1    3    3  502    0  0.75015493320E+03 -0.21264977632E+03 -0.15170707254E+03  0.79433455613E+03  0.50400001928E-02 0. -1.
       -1    1    3    3    0  502 -0.75015493320E+03  0.21264977632E+03  0.54663995140E+03  0.95224344979E+03  0.50400001928E-02 0.  1.
</event>
<event>
 5   0  0.5821584E-05  0.1700585E+04  0.7818609E-02  0.8761031E-01
       -2   -1    0    0    0  501  0.00000000000E+00  0.00000000000E+00  0.73681802863E+03  0.73681802863E+03  0.25500000920E-02 0.  1.
        2   -1    0    0  501    0  0.00000000000E+00  0.00000000000E+00 -0.98124306106E+03  0.98124306106E+03  0.25500000920E-02 0. -1.
    10030    2    1    2    0    0  0.00000000000E+00  0.00000000000E+00 -0.24442503243E+03  0.17180610897E+04  0.17005852850E+04 0.  0.
        1    1    3    3  502    0 -0.84336782529E+02  0.47856926101E+03 -0.82713376761E+03  0.95931824752E+03  0.50400001928E-02 0. -1.
       -1    1    3    3    0  502  0.84336782529E+02 -0.47856926101E+03  0.58270873518E+03  0.75874284217E+03  0.50400001928E-02 0.  1.
</event>
<event>
 5   0  0.5652631E-05  0.1686831E+04  0.7818609E-02  0.8768911E-01
       -2   -1    0    0    0  501  0.00000000000E+00  0.00000000000E+00  0.55292028921E+03  0.55292028922E+03  0.25500000920E-02 0. -1.
        2   -1    0    0  501    0  0.00000000000E+00  0.00000000000E+00 -0.12865325549E+04  0.12865325549E+04  0.25500000920E-02 0.  1.
    10030    2    1    2    0    0  0.00000000000E+00  0.00000000000E+00 -0.73361226565E+03  0.18394528441E+04  0.16868312925E+04 0.  0.
        2    1    3    3  502    0 -0.50019696142E+03 -0.97190605610E+02 -0.10997072615E+04  0.12120227205E+04  0.25500000920E-02 0.  1.
       -2    1    3    3    0  502  0.50019696142E+03  0.97190605610E+02  0.36609499582E+03  0.62743012360E+03  0.25500000920E-02 0. -1.
</event>
<event>
 5   0  0.5755321E-05  0.1704051E+04  0.7818609E-02  0.8759057E-01
       -2   -1    0    0    0  501  0.00000000000E+00  0.00000000000E+00  0.45583633306E+03  0.45583633306E+03  0.25500000920E-02 0.  1.
        2   -1    0    0  501    0  0.00000000000E+00  0.00000000000E+00 -0.15925622596E+04  0.15925622596E+04  0.25500000920E-02 0. -1.
    10030    2    1    2    0    0  0.00000000000E+00  0.00000000000E+00 -0.11367259265E+04  0.20483985926E+04  0.17040513379E+04 0.  0.
        4    1    3    3  502    0  0.22025202679E+03 -0.74930707530E+03 -0.15899650002E+03  0.79702794702E+03  0.12699999809E+01 0.  1.
       -4    1    3    3    0  502 -0.22025202679E+03  0.74930707530E+03 -0.97772942650E+03  0.12513706456E+04  0.12699999809E+01 0. -1.
</event>
<event>
 5   0  0.2966258E-05  0.1698438E+04  0.7818609E-02  0.8762256E-01
       -1   -1    0    0    0  501  0.00000000000E+00  0.00000000000E+00  0.13168736895E+04  0.13168736895E+04  0.50400001928E-02 0. -1.
        1   -1    0    0  501    0  0.00000000000E+00  0.00000000000E+00 -0.54764015247E+03  0.54764015250E+03  0.50400001928E-02 0.  1.
    10030    2    1    2    0    0  0.00000000000E+00  0.00000000000E+00  0.76923353701E+03  0.18645138420E+04  0.16984379978E+04 0.  0.
        4    1    3    3  502    0  0.82496938057E+03  0.18999612801E+03  0.31098935763E+03  0.90188081307E+03  0.12699999809E+01 0. -1.
       -4    1    3    3    0  502 -0.82496938057E+03 -0.18999612801E+03  0.45824417938E+03  0.96263302892E+03  0.12699999809E+01 0.  1.
</event>
<event>
 5   0  0.2911632E-05  0.1699934E+04  0.7818609E-02  0.8761402E-01
        1   -1    0    0  501    0  0.00000000000E+00  0.00000000000E+00  0.17276914958E+04  0.17276914959E+04  0.50400001928E-02 0. -1.
       -1   -1    0    0    0  501  0.00000000000E+00  0.00000000000E+00 -0.41815554736E+03  0.41815554740E+03  0.50400001928E-02 0.  1.
    10030    2    1    2    0    0  0.00000000000E+00  0.00000000000E+00  0.13095359485E+04  0.21458470433E+04  0.16999338613E+04 0.  0.
        1    1    3    3  502    0 -0.45853584061E+03  0.62655516109E+03  0.21818808342E+03  0.80649397195E+03  0.50400001928E-02 0.  1.
       -1    1    3    3    0  502  0.45853584061E+03 -0.62655516109E+03  0.10913478651E+04  0.13393530713E+04  0.50400001928E-02 0. -1.
</event>
<event>
 5   0  0.5755321E-05  0.1701260E+04  0.7818609E-02  0.8760646E-01
       -2   -1    0    0    0  501  0.00000000000E+00  0.00000000000E+00  0.10416558232E+04  0.10416558232E+04  0.25500000920E-02 0.  1.
        2   -1    0    0  501    0  0.00000000000E+00  0.00000000000E+00 -0.69463536460E+03  0.69463536460E+03  0.25500000920E-02 0. -1.
    10030    2    1    2    0    0  0.00000000000E+00  0.00000000000E+00  0.34702045859E+03  0.17362911878E+04  0.17012595011E+04 0.  0.
        4    1    3    3  502    0 -0.65364600381E+03  0.19145961075E+03 -0.34655053264E+03  0.76420466200E+03  0.12699999809E+01 0. -1.
       -4    1    3    3    0  502  0.65364600381E+03 -0.19145961075E+03  0.69357099123E+03  0.97208652579E+03  0.12699999809E+01 0.  1.
</event>
<event>
 5   0  0.5859822E-05  0.1699807E+04  0.7818609E-02  0.8761475E-01
       -2   -1    0    0    0  501  0.00000000000E+00  0.00000000000E+00  0.10559639025E+04  0.10559639025E+04  0.25500000920E-02 0. -1.
        2   -1    0    0  501    0  0.00000000000E+00  0.00000000000E+00 -0.68405331983E+03  0.68405331983E+03  0.25500000920E-02 0.  1.
    10030    2    1    2    0    0  0.00000000000E+00  0.00000000000E+00  0.37191058271E+03  0.17400172224E+04  0.16998065927E+04 0.  0.
        5    1    3    3  502    0  0.48947591221E+03  0.30311999095E+03  0.82592053409E+03  0.10067945253E+04  0.46999998093E+01 0. -1.
       -5    1    3    3    0  502 -0.48947591221E+03 -0.30311999095E+03 -0.45400995138E+03  0.73322269707E+03  0.46999998093E+01 0.  1.
</event>
<event>
 5   0  0.2967704E-05  0.1698462E+04  0.7818609E-02  0.8762242E-01
        1   -1    0    0  501    0  0.00000000000E+00  0.00000000000E+00  0.12587919371E+04  0.12587919371E+04  0.50400001928E-02 0.  1.
       -1   -1    0    0    0  501  0.00000000000E+00  0.00000000000E+00 -0.57292468173E+03  0.57292468175E+03  0.50400001928E-02 0. -1.
    10030    2    1    2    0    0  0.00000000000E+00  0.00000000000E+00  0.68586725537E+03  0.18317166189E+04  0.16984616215E+04 0.  0.
        2    1    3    3  502    0 -0.60289066905E+03  0.29781248060E+03  0.90230171709E+03  0.11253078784E+04  0.25500000920E-02 0.  1.
       -2    1    3    3    0  502  0.60289066905E+03 -0.29781248060E+03 -0.21643446172E+03  0.70640874050E+03  0.25500000920E-02 0. -1.
</event>
<event>
 5   0  0.2993769E-05  0.1714417E+04  0.7818609E-02  0.8753184E-01
        1   -1    0    0  501    0  0.00000000000E+00  0.00000000000E+00  0.18074238542E+04  0.18074238542E+04  0.50400001928E-02 0.  1.
       -1   -1    0    0    0  501  0.00000000000E+00  0.00000000000E+00 -0.40654893716E+03  0.40654893719E+03  0.50400001928E-02 0. -1.
    10030    2    1    2    0    0  0.00000000000E+00  0.00000000000E+00  0.14008749170E+04  0.22139727914E+04  0.17144168069E+04 0.  0.
        3    1    3    3  502    0 -0.80798940280E+03  0.24527131310E+03  0.89111410461E+03  0.12276356339E+04  0.10100000352E+00 0.  1.
       -3    1    3    3    0  502  0.80798940280E+03 -0.24527131310E+03  0.50976081241E+03  0.98633715744E+03  0.10100000352E+00 0. -1.
</event>
<event>
 5   0  0.5652631E-05  0.1663703E+04  0.7818609E-02  0.8782341E-01
        2   -1    0    0  501    0  0.00000000000E+00  0.00000000000E+00  0.10776089271E+04  0.10776089271E+04  0.25500000920E-02 0. -1.
       -2   -1    0    0    0  501  0.00000000000E+00  0.00000000000E+00 -0.64214140609E+03  0.64214140609E+03  0.25500000920E-02 0.  1.
    10030    2    1    2    0    0  0.00000000000E+00  0.00000000000E+00  0.43546752102E+03  0.17197503332E+04  0.16637034732E+04 0.  0.
        2    1    3    3  502    0  0.64002100107E+03 -0.10171339756E+03 -0.32137671989E+03  0.72336401151E+03  0.25500000920E-02 0.  1.
       -2    1    3    3    0  502 -0.64002100107E+03  0.10171339756E+03  0.75684424091E+03  0.99638632170E+03  0.25500000920E-02 0. -1.
</event>
<event>
 5   0  0.5755321E-05  0.1703906E+04  0.7818609E-02  0.8759140E-01
       -2   -1    0    0    0  501  0.00000000000E+00  0.00000000000E+00  0.36004634704E+03  0.36004634705E+03  0.25500000920E-02 0.  1.
        2   -1    0    0  501    0  0.00000000000E+00  0.00000000000E+00 -0.20159184187E+04  0.20159184187E+04  0.25500000920E-02 0. -1.
    10030    2    1    2    0    0  0.00000000000E+00  0.00000000000E+00 -0.16558720717E+04  0.23759647658E+04  0.17039061742E+04 0.  0.
        4    1    3    3  502    0 -0.54876380942E+03 -0.37202359188E+03 -0.15740225678E+04  0.17079496270E+04  0.12699999809E+01 0. -1.
       -4    1    3    3    0  502  0.54876380942E+03  0.37202359188E+03 -0.81849503855E+02  0.66801513877E+03  0.12699999809E+01 0.  1.
</event>
<event>
 5   0  0.2911632E-05  0.1700462E+04  0.7818609E-02  0.8761101E-01
       -1   -1    0    0    0  501  0.00000000000E+00  0.00000000000E+00  0.62786752248E+03  0.62786752250E+03  0.50400001928E-02 0. -1.
        1   -1    0    0  501    0  0.00000000000E+00  0.00000000000E+00 -0.11513459376E+04  0.11513459376E+04  0.50400001928E-02 0.  1.
    10030    2    1    2    0    0  0.00000000000E+00  0.00000000000E+00 -0.52347841509E+03  0.17792134601E+04  0.17004619624E+04 0.  0.
        1    1    3    3  502    0 -0.81401697787E+03  0.40086907075E+02 -0.51515869861E+03  0.96416756072E+03  0.50400001928E-02 0. -1.
       -1    1    3    3    0  502  0.81401697787E+03 -0.40086907075E+02 -0.83197164858E+01  0.81504589937E+03  0.50400001928E-02 0.  1.
</event>
<event>
 5   0  0.2911632E-05  0.1691733E+04  0.7818609E-02  0.8766094E-01
        1   -1    0    0  501    0  0.00000000000E+00  0.00000000000E+00  0.15962208773E+04  0.15962208773E+04  0.50400001928E-02 0.  1.
       -1   -1    0    0    0  501  0.00000000000E+00  0.00000000000E+00 -0.44823986639E+03  0.44823986642E+03  0.50400001928E-02 0. -1.
    10030    2    1    2    0    0  0.00000000000E+00  0.00000000000E+00  0.11479810109E+04  0.20444607437E+04  0.16917326418E+04 0.  0.
        1    1    3    3  502    0  0.44272232546E+03  0.90245919874E+02  0.14381680370E+04  0.15074729471E+04  0.50400001928E-02 0.  1.
       -1    1    3    3    0  502 -0.44272232546E+03 -0.90245919874E+02 -0.29018702615E+03  0.53698779659E+03  0.50400001928E-02 0. -1.
</event>
<event>
 5   0  0.5671132E-05  0.1705272E+04  0.7818609E-02  0.8758363E-01
       -2   -1    0    0    0  501  0.00000000000E+00  0.00000000000E+00  0.39058548399E+03  0.39058548400E+03  0.25500000920E-02 0.  1.
        2   -1    0    0  501    0  0.00000000000E+00  0.00000000000E+00 -0.18612774274E+04  0.18612774274E+04  0.25500000920E-02 0. -1.
    10030    2    1    2    0    0  0.00000000000E+00  0.00000000000E+00 -0.14706919434E+04  0.22518629114E+04  0.17052717611E+04 0.  0.
        3    1    3    3  502    0 -0.71716634460E+03  0.45852772550E+03 -0.80020933244E+03  0.11682937245E+04  0.10100000352E+00 0.  1.
       -3    1    3    3    0  502  0.71716634460E+03 -0.45852772550E+03 -0.67048261094E+03  0.10835691868E+04  0.10100000352E+00 0. -1.
</event>
<event>
 5   0  0.2966258E-05  0.1704550E+04  0.7818609E-02  0.8758774E-01
       -1   -1    0    0    0  501  0.00000000000E+00  0.00000000000E+00  0.90060117011E+03  0.90060117013E+03  0.50400001928E-02 0.  1.
        1   -1    0    0  501    0  0.00000000000E+00  0.00000000000E+00 -0.80654178055E+03  0.80654178056E+03  0.50400001928E-02 0. -1.
    10030    2    1    2    0    0  0.00000000000E+00  0.00000000000E+00  0.94059389568E+02  0.17071429507E+04  0.17045497603E+04 0.  0.
        4    1    3    3  502    0  0.29534144310E+03 -0.28668282181E+03 -0.70040135604E+03  0.81238985763E+03  0.12699999809E+01 0. -1.
       -4    1    3    3    0  502 -0.29534144310E+03  0.28668282181E+03  0.79446074561E+03  0.89475309306E+03  0.12699999809E+01 0.  1.
</event>
<event>
 5   0  0.2911632E-05  0.1699404E+04  0.7818609E-02  0.8761704E-01
        1   -1    0    0  501    0  0.00000000000E+00  0.00000000000E+00  0.10063637496E+04  0.10063637496E+04  0.50400001928E-02 0. -1.
       -1   -1    0    0    0  501  0.00000000000E+00  0.00000000000E+00 -0.71742803686E+03  0.71742803687E+03  0.50400001928E-02 0.  1.
    10030    2    1    2    0    0  0.00000000000E+00  0.00000000000E+00  0.28893571271E+03  0.17237917865E+04  0.16994040947E+04 0.  0.
        1    1    3    3  502    0 -0.79824693643E+03  0.17960995080E+03  0.37696373380E+03  0.90086600700E+03  0.50400001928E-02 0. -1.
       -1    1    3    3    0  502  0.79824693643E+03 -0.17960995080E+03 -0.88028021093E+02  0.82292577945E+03  0.50400001928E-02 0.  1.
</event>
<event>
 5   0  0.2911632E-05  0.1700034E+04  0.7818609E-02  0.8761345E-01
       -1   -1    0    0    0  501  0.00000000000E+00  0.00000000000E+00  0.97168081031E+03  0.97168081033E+03  0.50400001928E-02 0.  1.
        1   -1    0    0  501    0  0.00000000000E+00  0.00000000000E+00 -0.74358628142E+03  0.74358628144E+03  0.50400001928E-02 0. -1.
    10030    2    1    2    0    0  0.00000000000E+00  0.00000000000E+00  0.22809452889E+03  0.17152670918E+04  0.17000335532E+04 0.  0.
        1    1    3    3  502    0  0.84410280529E+03  0.83434251488E+02  0.16983923713E+03  0.86505270747E+03  0.50400001928E-02 0. -1.
       -1    1    3    3    0  502 -0.84410280529E+03 -0.83434251488E+02  0.58255291757E+02  0.85021438429E+03  0.50400001928E-02 0.  1.
</event>
<event>
 5   0  0.2993769E-05  0.1666754E+04  0.7818609E-02  0.8780556E-01
       -1   -1    0    0    0  501  0.00000000000E+00  0.00000000000E+00  0.77397724484E+03  0.77397724486E+03  0.50400001928E-02 0.  1.
        1   -1    0    0  501    0  0.00000000000E+00  0.00000000000E+00 -0.89733598876E+03  0.89733598877E+03  0.50400001928E-02 0. -1.
    10030    2    1    2    0    0  0.00000000000E+00  0.00000000000E+00 -0.12335874392E+03  0.16713132336E+04  0.16667544946E+04 0.  0.
        3    1    3    3  502    0  0.10410086914E+03  0.24036462836E+03  0.73162636363E+03  0.77710314095E+03  0.10100000352E+00 0.  1.
       -3    1    3    3    0  502 -0.10410086914E+03 -0.24036462836E+03 -0.85498510754E+03  0.89421009268E+03  0.10100000352E+00 0. -1.
</event>
<event>
 5   0  0.5859822E-05  0.1698665E+04  0.7818609E-02  0.8762126E-01
        2   -1    0    0  501    0  0.00000000000E+00  0.00000000000E+00  0.22102774170E+04  0.22102774170E+04  0.25500000920E-02 0.  1.
       -2   -1    0    0    0  501  0.00000000000E+00  0.00000000000E+00 -0.32636867183E+03  0.32636867184E+03  0.25500000920E-02 0. -1.
    10030    2    1    2    0    0  0.00000000000E+00  0.00000000000E+00  0.18839087451E+04  0.25366460888E+04  0.16986645401E+04 0.  0.
        5    1    3    3  502    0 -0.31782808630E+03  0.50459726363E+03  0.38885756587E+02  0.59763474043E+03  0.46999998093E+01 0. -1.
       -5    1    3    3    0  502  0.31782808630E+03 -0.50459726363E+03  0.18450229885E+04  0.19390113484E+04  0.46999998093E+01 0.  1.
</event>
<event>
 5   0  0.2966258E-05  0.1697632E+04  0.7818609E-02  0.8762716E-01
        1   -1    0    0  501    0  0.00000000000E+00  0.00000000000E+00  0.10063968805E+04  0.10063968805E+04  0.50400001928E-02 0.  1.
       -1   -1    0    0    0  501  0.00000000000E+00  0.00000000000E+00 -0.71590923818E+03  0.71590923820E+03  0.50400001928E-02 0. -1.
    10030    2    1    2    0    0  0.00000000000E+00  0.00000000000E+00  0.29048764233E+03  0.17223061187E+04  0.16976322618E+04 0.  0.
        4    1    3    3  502    0 -0.40413603765E+03 -0.12711894206E+03 -0.60097496698E+03  0.73529428543E+03  0.12699999809E+01 0. -1.
       -4    1    3    3    0  502  0.40413603765E+03  0.12711894206E+03  0.89146260930E+03  0.98701183328E+03  0.12699999809E+01 0.  1.
</event>
<event>
 5   0  0.2911632E-05  0.1699001E+04  0.7818609E-02  0.8761934E-01
       -1   -1    0    0    0  501  0.00000000000E+00  0.00000000000E+00  0.11155905670E+04  0.11155905670E+04  0.50400001928E-02 0. -1.
        1   -1    0    0  501    0  0.00000000000E+00  0.00000000000E+00 -0.64687801060E+03  0.64687801062E+03  0.50400001928E-02 0.  1.
    10030    2    1    2    0    0  0.00000000000E+00  0.00000000000E+00  0.46871255637E+03  0.17624685776E+04  0.16990008907E+04 0.  0.
        1    1    3    3  502    0  0.80469819855E+03 -0.14421016349E+03  0.47388272899E+03  0.94493417912E+03  0.50400001928E-02 0. -1.
       -1    1    3    3    0  502 -0.80469819855E+03  0.14421016349E+03 -0.51701726154E+01  0.81753439849E+03  0.50400001928E-02 0.  1.
</event>
<event>
 5   0  0.2911632E-05  0.1694637E+04  0.7818609E-02  0.8764429E-01
       -1   -1    0    0    0  501  0.00000000000E+00  0.00000000000E+00  0.83779749486E+03  0.83779749487E+03  0.50400001928E-02 0. -1.
        1   -1    0    0  501    0  0.00000000000E+00  0.00000000000E+00 -0.85694750355E+03  0.85694750356E+03  0.50400001928E-02 0.  1.
    10030    2    1    2    0    0  0.00000000000E+00  0.00000000000E+00 -0.19150008688E+02  0.16947449984E+04  0.16946368009E+04 0.  0.
        1    1    3    3  502    0  0.59603673563E+03  0.60199758753E+03  0.73844415071E+01  0.84718086358E+03  0.50400001928E-02 0. -1.
       -1    1    3    3    0  502 -0.59603673563E+03 -0.60199758753E+03 -0.26534450195E+02  0.84756413485E+03  0.50400001928E-02 0.  1.
</event>
<event>
 5   0  0.5859822E-05  0.1702091E+04  0.7818609E-02  0.8760172E-01
       -2   -1    0    0    0  501  0.00000000000E+00  0.00000000000E+00  0.43688634143E+03  0.43688634144E+03  0.25500000920E-02 0. -1.
        2   -1    0    0  501    0  0.00000000000E+00  0.00000000000E+00 -0.16578197131E+04  0.16578197131E+04  0.25500000920E-02 0.  1.
    10030    2    1    2    0    0  0.00000000000E+00  0.00000000000E+00 -0.12209333716E+04  0.20947060545E+04  0.17020914067E+04 0.  0.
        5    1    3    3  502    0  0.21173364728E+03 -0.41095821830E+03  0.26886886159E+03  0.53481805253E+03  0.46999998093E+01 0. -1.
       -5    1    3    3    0  502 -0.21173364728E+03  0.41095821830E+03 -0.14898022332E+04  0.15598880020E+04  0.46999998093E+01 0.  1.
</event>
<event>
 5   0  0.5755321E-05  0.1699803E+04  0.7818609E-02  0.8761477E-01
        2   -1    0    0  501    0  0.00000000000E+00  0.00000000000E+00  0.67404255599E+03  0.67404255600E+03  0.25500000920E-02 0. -1.
       -2   -1    0    0    0  501  0.00000000000E+00  0.00000000000E+00 -0.10716420835E+04  0.10716420835E+04  0.25500000920E-02 0.  1.
    10030    2    1    2    0    0  0.00000000000E+00  0.00000000000E+00 -0.39759952754E+03  0.17456846395E+04  0.16998027757E+04 0.  0.
        4    1    3    3  502    0  0.77500710588E+03  0.54823799193E+02 -0.55261184817E+03  0.95342704533E+03  0.12699999809E+01 0. -1.
       -4    1    3    3    0  502 -0.77500710588E+03 -0.54823799193E+02  0.15501232063E+03  0.79225759420E+03  0.12699999809E+01 0.  1.
</event>
<event>
 5   0  0.2987859E-05  0.1719058E+04  0.7818609E-02  0.8750569E-01
       -1   -1    0    0    0  501  0.00000000000E+00  0.00000000000E+00  0.40232811065E+03  0.40232811068E+03  0.50400001928E-02 0.  1.
        1   -1    0    0  501    0  0.00000000000E+00  0.00000000000E+00 -0.18362868022E+04  0.18362868022E+04  0.50400001928E-02 0. -1.
    10030    2    1    2    0    0  0.00000000000E+00  0.00000000000E+00 -0.14339586916E+04  0.22386149129E+04  0.17190576486E+04 0.  0.
        5    1    3    3  502    0 -0.57023147804E+03  0.59060225997E+01  0.12047835949E+03  0.58286872000E+03  0.46999998093E+01 0.  1.
       -5    1    3    3    0  502  0.57023147804E+03 -0.59060225997E+01 -0.15544370510E+04  0.16557461929E+04  0.46999998093E+01 0. -1.
</event>
<event>
 5   0  0.5755321E-05  0.1698427E+04  0.7818609E-02  0.8762262E-01
        2   -1    0    0  501    0  0.00000000000E+00  0.00000000000E+00  0.91082041327E+03  0.91082041327E+03  0.25500000920E-02 0.  1.
       -2   -1    0    0    0  501  0.00000000000E+00  0.00000000000E+00 -0.79177317141E+03  0.79177317141E+03  0.25500000920E-02 0. -1.
    10030    2    1    2    0    0  0.00000000000E+00  0.00000000000E+00  0.11904724186E+03  0.17025935847E+04  0.16984265274E+04 0.  0.
        4    1    3    3  502    0  0.76114840378E+03 -0.21658436584E+03  0.36834742995E+03  0.87289009741E+03  0.12699999809E+01 0.  1.
       -4    1    3    3    0  502 -0.76114840378E+03  0.21658436584E+03 -0.24930018809E+03  0.82970348727E+03  0.12699999809E+01 0. -1.
</event>
<event>
 5   0  0.2993769E-05  0.1700366E+04  0.7818609E-02  0.8761156E-01
       -1   -1    0    0    0  501  0.00000000000E+00  0.00000000000E+00  0.99022085431E+03  0.99022085433E+03  0.50400001928E-02 0. -1.
        1   -1    0    0  501    0  0.00000000000E+00  0.00000000000E+00 -0.72994958221E+03  0.72994958222E+03  0.50400001928E-02 0.  1.
    10030    2    1    2    0    0  0.00000000000E+00  0.00000000000E+00  0.26027127211E+03  0.17201704365E+04  0.17003661946E+04 0.  0.
        3    1    3    3  502    0  0.63279294324E+03  0.55558727569E+03  0.24857681982E+03  0.87800602247E+03  0.10100000352E+00 0. -1.
       -3    1    3    3    0  502 -0.63279294324E+03 -0.55558727569E+03  0.11694452286E+02  0.84216441408E+03  0.10100000352E+00 0.  1.
</event>
<event>
 5   0  0.5652631E-05  0.1699280E+04  0.7818609E-02  0.8761775E-01
       -2   -1    0    0    0  501  0.00000000000E+00  0.00000000000E+00  0.34715612214E+03  0.34715612215E+03  0.25500000920E-02 0. -1.
        2   -1    0    0  501    0  0.00000000000E+00  0.00000000000E+00 -0.20794338504E+04  0.20794338504E+04  0.25500000920E-02 0.  1.
    10030    2    1    2    0    0  0.00000000000E+00  0.00000000000E+00 -0.17322777283E+04  0.24265899726E+04  0.16992800732E+04 0.  0.
        2    1    3    3  502    0  0.39910583159E+03  0.74037243266E+03 -0.69447210292E+03  0.10907466734E+04  0.25500000920E-02 0. -1.
       -2    1    3    3    0  502 -0.39910583159E+03 -0.74037243266E+03 -0.10378056254E+04  0.13358432992E+04  0.25500000920E-02 0.  1.
</event>
<event>
 5   0  0.5821584E-05  0.1698446E+04  0.7818609E-02  0.8762251E-01
       -2   -1    0    0    0  501  0.00000000000E+00  0.00000000000E+00  0.94411756455E+03  0.94411756456E+03  0.25500000920E-02 0. -1.
        2   -1    0    0  501    0  0.00000000000E+00  0.00000000000E+00 -0.76386642709E+03  0.76386642710E+03  0.25500000920E-02 0.  1.
    10030    2    1    2    0    0  0.00000000000E+00  0.00000000000E+00  0.18025113746E+03  0.17079839917E+04  0.16984460083E+04 0.  0.
        1    1    3    3  502    0 -0.23331611687E+03 -0.33019081067E+03  0.84112415516E+03  0.93324821257E+03  0.50400001928E-02 0.  1.
       -1    1    3    3    0  502  0.23331611687E+03  0.33019081067E+03 -0.66087301770E+03  0.77473577908E+03  0.50400001928E-02 0. -1.
</event>
<event>
 5   0  0.2966258E-05  0.1700586E+04  0.7818609E-02  0.8761030E-01
        1   -1    0    0  501    0  0.00000000000E+00  0.00000000000E+00  0.17348948091E+04  0.17348948091E+04  0.50400001928E-02 0.  1.
       -1   -1    0    0    0  501  0.00000000000E+00  0.00000000000E+00 -0.41673881009E+03  0.41673881012E+03  0.50400001928E-02 0. -1.
    10030    2    1    2    0    0  0.00000000000E+00  0.00000000000E+00  0.13181559990E+04  0.21516336192E+04  0.17005857795E+04 0.  0.
        4    1    3    3  502    0 -0.29606842600E+03 -0.63895858562E+03  0.12619864599E+04  0.14451768144E+04  0.12699999809E+01 0.  1.
       -4    1    3    3    0  502  0.29606842600E+03  0.63895858562E+03  0.56169539061E+02  0.70645680479E+03  0.12699999809E+01 0. -1.
</event>
<event>
 5   0  0.5821584E-05  0.1698229E+04  0.7818609E-02  0.8762375E-01
        2   -1    0    0  501    0  0.00000000000E+00  0.00000000000E+00  0.59310035402E+03  0.59310035403E+03  0.25500000920E-02 0. -1.
       -2   -1    0    0    0  501  0.00000000000E+00  0.00000000000E+00 -0.12156382664E+04  0.12156382664E+04  0.25500000920E-02 0.  1.
    10030    2    1    2    0    0  0.00000000000E+00  0.00000000000E+00 -0.62253791233E+03  0.18087386204E+04  0.16982290613E+04 0.  0.
        1    1    3    3  502    0  0.10774451235E+03  0.13081498702E+02  0.58568189551E+03  0.59565366473E+03  0.50400001928E-02 0. -1.
       -1    1    3    3    0  502 -0.10774451235E+03 -0.13081498702E+02 -0.12082198078E+04  0.12130849557E+04  0.50400001928E-02 0.  1.
</event>
<event>
 5   0  0.2967704E-05  0.1698988E+04  0.7818609E-02  0.8761942E-01
        1   -1    0    0  501    0  0.00000000000E+00  0.00000000000E+00  0.12776329880E+04  0.12776329880E+04  0.50400001928E-02 0.  1.
       -1   -1    0    0    0  501  0.00000000000E+00  0.00000000000E+00 -0.56482576708E+03  0.56482576710E+03  0.50400001928E-02 0. -1.
    10030    2    1    2    0    0  0.00000000000E+00  0.00000000000E+00  0.71280722096E+03  0.18424587551E+04  0.16989879723E+04 0.  0.
        2    1    3    3  502    0 -0.69434107286E+02 -0.31690508637E+03  0.12078068511E+04  0.12506187743E+04  0.25500000920E-02 0.  1.
       -2    1    3    3    0  502  0.69434107286E+02  0.31690508637E+03 -0.49499963018E+03  0.59183998083E+03  0.25500000920E-02 0. -1.
</event>
<event>
 5   0  0.5755321E-05  0.1706757E+04  0.7818609E-02  0.8757520E-01
       -2   -1    0    0    0  501  0.00000000000E+00  0.00000000000E+00  0.34385460402E+03  0.34385460403E+03  0.25500000920E-02 0. -1.
        2   -1    0    0  501    0  0.00000000000E+00  0.00000000000E+00 -0.21179147915E+04  0.21179147915E+04  0.25500000920E-02 0.  1.
    10030    2    1    2    0    0  0.00000000000E+00  0.00000000000E+00 -0.17740601875E+04  0.24617693956E+04  0.17067568685E+04 0.  0.
        4    1    3    3  502    0 -0.60231115010E+03  0.52120869986E+03 -0.44524205438E+03  0.91251264661E+03  0.12699999809E+01 0.  1.
       -4    1    3    3    0  502  0.60231115010E+03 -0.52120869986E+03 -0.13288181331E+04  0.15492567490E+04  0.12699999809E+01 0. -1.
</event>
<event>
 5   0  0.5671132E-05  0.1693665E+04  0.7818609E-02  0.8764986E-01
       -2   -1    0    0    0  501  0.00000000000E+00  0.00000000000E+00  0.34938557777E+03  0.34938557778E+03  0.25500000920E-02 0.  1.
        2   -1    0    0  501    0  0.00000000000E+00  0.00000000000E+00 -0.20525319392E+04  0.20525319392E+04  0.25500000920E-02 0. -1.
    10030    2    1    2    0    0  0.00000000000E+00  0.00000000000E+00 -0.17031463614E+04  0.24019175170E+04  0.16936647336E+04 0.  0.
        3    1    3    3  502    0  0.71760350733E+03  0.44554709239E+02 -0.21705137178E+03  0.75103343736E+03  0.10100000352E+00 0.  1.
       -3    1    3    3    0  502 -0.71760350733E+03 -0.44554709239E+02 -0.14860949897E+04  0.16508840796E+04  0.10100000352E+00 0. -1.
</event>
<event>
 5   0  0.2967704E-05  0.1698517E+04  0.7818609E-02  0.8762211E-01
        1   -1    0    0  501    0  0.00000000000E+00  0.00000000000E+00  0.60363564511E+03  0.60363564514E+03  0.50400001928E-02 0. -1.
       -1   -1    0    0    0  501  0.00000000000E+00  0.00000000000E+00 -0.11948261637E+04  0.11948261637E+04  0.50400001928E-02 0.  1.
    10030    2    1    2    0    0  0.00000000000E+00  0.00000000000E+00 -0.59119051859E+03  0.17984618088E+04  0.16985166024E+04 0.  0.
        2    1    3    3  502    0  0.66048444795E+03 -0.50864859709E+03 -0.12395637420E+03  0.84280975553E+03  0.25500000920E-02 0. -1.
       -2    1    3    3    0  502 -0.66048444795E+03  0.50864859709E+03 -0.46723414439E+03  0.95565205331E+03  0.25500000920E-02 0.  1.
</event>
<event>
 5   0  0.2966258E-05  0.1698442E+04  0.7818609E-02  0.8762254E-01
        1   -1    0    0  501    0  0.00000000000E+00  0.00000000000E+00  0.11790513778E+04  0.11790513778E+04  0.50400001928E-02 0.  1.
       -1   -1    0    0    0  501  0.00000000000E+00  0.00000000000E+00 -0.61165776955E+03  0.61165776957E+03  0.50400001928E-02 0. -1.
    10030    2    1    2    0    0  0.00000000000E+00  0.00000000000E+00  0.56739360825E+03  0.17907091474E+04  0.16984415633E+04 0.  0.
        4    1    3    3  502    0  0.12852116938E+01  0.14934435260E+03 -0.59770170461E+03  0.61607980653E+03  0.12699999809E+01 0. -1.
       -4    1    3    3    0  502 -0.12852116938E+01 -0.14934435260E+03  0.11650953129E+04  0.11746293408E+04  0.12699999809E+01 0.  1.
</event>
<event>
 5   0  0.2993769E-05  0.1705787E+04  0.7818609E-02  0.8758071E-01
        1   -1    0    0  501    0  0.00000000000E+00  0.00000000000E+00  0.89275324803E+03  0.89275324805E+03  0.50400001928E-02 0.  1.
       -1   -1    0    0    0  501  0.00000000000E+00  0.00000000000E+00 -0.81481297415E+03  0.81481297416E+03  0.50400001928E-02 0. -1.
    10030    2    1    2    0    0  0.00000000000E+00  0.00000000000E+00  0.77940273884E+02  0.17075662222E+04  0.17057865391E+04 0.  0.
        3    1    3    3  502    0 -0.33296985834E+03  0.11920802496E+03  0.81589032495E+03  0.88924491133E+03  0.10100000352E+00 0.  1.
       -3    1    3    3    0  502  0.33296985834E+03 -0.11920802496E+03 -0.73795005106E+03  0.81832131088E+03  0.10100000352E+00 0. -1.
</event>
<event>
 5   0  0.2993769E-05  0.1699552E+04  0.7818609E-02  0.8761620E-01
       -1   -1    0    0    0  501  0.00000000000E+00  0.00000000000E+00  0.11505488077E+04  0.11505488078E+04  0.50400001928E-02 0. -1.
        1   -1    0    0  501    0  0.00000000000E+00  0.00000000000E+00 -0.62762992231E+03  0.62762992233E+03  0.50400001928E-02 0.  1.
    10030    2    1    2    0    0  0.00000000000E+00  0.00000000000E+00  0.52291888544E+03  0.17781787301E+04  0.16995515395E+04 0.  0.
        3    1    3    3  502    0  0.14207590175E+03  0.53499670926E+03 -0.41312644572E+03  0.69071014987E+03  0.10100000352E+00 0.  1.
       -3    1    3    3    0  502 -0.14207590175E+03 -0.53499670926E+03  0.93604533116E+03  0.10874685802E+04  0.10100000352E+00 0. -1.
</event>
<event>
 5   0  0.5671132E-05  0.1699700E+04  0.7818609E-02  0.8761535E-01
       -2   -1    0    0    0  501  0.00000000000E+00  0.00000000000E+00  0.10376408348E+04  0.10376408348E+04  0.25500000920E-02 0. -1.
        2   -1    0    0  501    0  0.00000000000E+00  0.00000000000E+00 -0.69604526203E+03  0.69604526203E+03  0.25500000920E-02 0.  1.
    10030    2    1    2    0    0  0.00000000000E+00  0.00000000000E+00  0.34159557273E+03  0.17336860968E+04  0.16996999579E+04 0.  0.
        3    1    3    3  502    0 -0.26672070436E+03  0.31621767935E+03 -0.58641494724E+03  0.71764619097E+03  0.10100000352E+00 0.  1.
       -3    1    3    3    0  502  0.26672070436E+03 -0.31621767935E+03  0.92801051997E+03  0.10160399058E+04  0.10100000352E+00 0. -1.
</event>
<event>
 5   0  0.5859822E-05  0.1697376E+04  0.7818609E-02  0.8762863E-01
        2   -1    0    0  501    0  0.00000000000E+00  0.00000000000E+00  0.12074004864E+04  0.12074004864E+04  0.25500000920E-02 0.  1.
       -2   -1    0    0    0  501  0.00000000000E+00  0.00000000000E+00 -0.59654682865E+03  0.59654682866E+03  0.25500000920E-02 0. -1.
    10030    2    1    2    0    0  0.00000000000E+00  0.00000000000E+00  0.61085365774E+03  0.18039473150E+04  0.16973755401E+04 0.  0.
        5    1    3    3  502    0  0.12817890522E+03 -0.21596394116E+03  0.11669909635E+04  0.11937169909E+04  0.46999998093E+01 0.  1.
       -5    1    3    3    0  502 -0.12817890522E+03  0.21596394116E+03 -0.55613730574E+03  0.61023032411E+03  0.46999998093E+01 0. -1.
</event>
<event>
 5   0  0.5652631E-05  0.1697834E+04  0.7818609E-02  0.8762601E-01
        2   -1    0    0  501    0  0.00000000000E+00  0.00000000000E+00  0.20673749752E+04  0.20673749752E+04  0.25500000920E-02 0. -1.
       -2   -1    0    0    0  501  0.00000000000E+00  0.00000000000E+00 -0.34858706798E+03  0.34858706799E+03  0.25500000920E-02 0.  1.
    10030    2    1    2    0    0  0.00000000000E+00  0.00000000000E+00  0.17187879072E+04  0.24159620432E+04  0.16978341274E+04 0.  0.
        2    1    3    3  502    0 -0.25433176254E+03 -0.91871810632E+02  0.20044493749E+04  0.20226078146E+04  0.25500000920E-02 0. -1.
       -2    1    3    3    0  502  0.25433176254E+03  0.91871810632E+02 -0.28566146770E+03  0.39335422860E+03  0.25500000920E-02 0.  1.
</event>
<event>
 5   0  0.2911632E-05  0.1697878E+04  0.7818609E-02  0.8762576E-01
       -1   -1    0    0    0  501  0.00000000000E+00  0.00000000000E+00  0.15539777801E+04  0.15539777801E+04  0.50400001928E-02 0.  1.
        1   -1    0    0  501    0  0.00000000000E+00  0.00000000000E+00 -0.46377579140E+03  0.46377579143E+03  0.50400001928E-02 0. -1.
    10030    2    1    2    0    0  0.00000000000E+00  0.00000000000E+00  0.10902019887E+04  0.20177535715E+04  0.16978778222E+04 0.  0.
        1    1    3    3  502    0 -0.53785109397E+03  0.51617431005E+02 -0.23304898110E+03  0.58843860010E+03  0.50400001928E-02 0. -1.
       -1    1    3    3    0  502  0.53785109397E+03 -0.51617431005E+02  0.13232509698E+04  0.14293149714E+04  0.50400001928E-02 0.  1.
</event>
<event>
 5   0  0.5652631E-05  0.1699325E+04  0.7818609E-02  0.8761750E-01
        2   -1    0    0  501    0  0.00000000000E+00  0.00000000000E+00  0.10991974558E+04  0.10991974558E+04  0.25500000920E-02 0.  1.
       -2   -1    0    0    0  501  0.00000000000E+00  0.00000000000E+00 -0.65677568396E+03  0.65677568397E+03  0.25500000920E-02 0. -1.
    10030    2    1    2    0    0  0.00000000000E+00  0.00000000000E+00  0.44242177187E+03  0.17559731398E+04  0.16993247610E+04 0.  0.
        2    1    3    3  502    0 -0.18951173997E+03  0.38014207411E+03  0.98161087636E+03  0.10695712266E+04  0.25500000920E-02 0.  1.
       -2    1    3    3    0  502  0.18951173997E+03 -0.38014207411E+03 -0.53918910449E+03  0.68640191324E+03  0.25500000920E-02 0. -1.
</event>
<event>
 5   0  0.2911632E-05  0.1700697E+04  0.7818609E-02  0.8760967E-01
       -1   -1    0    0    0  501  0.00000000000E+00  0.00000000000E+00  0.33946290811E+03  0.33946290815E+03  0.50400001928E-02 0.  1.
        1   -1    0    0  501    0  0.00000000000E+00  0.00000000000E+00 -0.21301084751E+04  0.21301084752E+04  0.50400001928E-02 0. -1.
    10030    2    1    2    0    0  0.00000000000E+00  0.00000000000E+00 -0.17906455670E+04  0.24695713833E+04  0.17006972895E+04 0.  0.
        1    1    3    3  502    0 -0.82122634480E+03  0.16332903699E+03 -0.11107213241E+04  0.13909676285E+04  0.50400001928E-02 0.  1.
       -1    1    3    3    0  502  0.82122634480E+03 -0.16332903699E+03 -0.67992424294E+03  0.10786037548E+04  0.50400001928E-02 0. -1.
</event>
<event>
 5   0  0.2987859E-05  0.1701896E+04  0.7818609E-02  0.8760284E-01
       -1   -1    0    0    0  501  0.00000000000E+00  0.00000000000E+00  0.32681221421E+03  0.32681221425E+03  0.50400001928E-02 0. -1.
        1   -1    0    0  501    0  0.00000000000E+00  0.00000000000E+00 -0.22156824393E+04  0.22156824393E+04  0.50400001928E-02 0.  1.
    10030    2    1    2    0    0  0.00000000000E+00  0.00000000000E+00 -0.18888702251E+04  0.25424946536E+04  0.17018955127E+04 0.  0.
        5    1    3    3  502    0 -0.36385574722E+03 -0.63453508474E+03 -0.29485634093E+03  0.78866224098E+03  0.46999998093E+01 0. -1.
       -5    1    3    3    0  502  0.36385574722E+03  0.63453508474E+03 -0.15940138842E+04  0.17538324126E+04  0.46999998093E+01 0.  1.
</event>
<event>
 5   0  0.5755321E-05  0.1696709E+04  0.7818609E-02  0.8763243E-01
        2   -1    0    0  501    0  0.00000000000E+00  0.00000000000E+00  0.80918891840E+03  0.80918891840E+03  0.25500000920E-02 0.  1.
       -2   -1    0    0    0  501  0.00000000000E+00  0.00000000000E+00 -0.88941596181E+03  0.88941596181E+03  0.25500000920E-02 0. -1.
    10030    2    1    2    0    0  0.00000000000E+00  0.00000000000E+00 -0.80227043409E+02  0.16986048802E+04  0.16967092151E+04 0.  0.
        4    1    3    3  502    0 -0.61839390395E+02  0.46599576895E+03 -0.74710913692E+03  0.88269464837E+03  0.12699999809E+01 0. -1.
       -4    1    3    3    0  502  0.61839390395E+02 -0.46599576895E+03  0.66688209351E+03  0.81591023184E+03  0.12699999809E+01 0.  1.
</event>
<event>
 5   0  0.2993769E-05  0.1700024E+04  0.7818609E-02  0.8761351E-01
       -1   -1    0    0    0  501  0.00000000000E+00  0.00000000000E+00  0.43050608487E+03  0.43050608490E+03  0.50400001928E-02 0.  1.
        1   -1    0    0  501    0  0.00000000000E+00  0.00000000000E+00 -0.16783049638E+04  0.16783049638E+04  0.50400001928E-02 0. -1.
    10030    2    1    2    0    0  0.00000000000E+00  0.00000000000E+00 -0.12477988789E+04  0.21088110487E+04  0.17000241166E+04 0.  0.
        3    1    3    3  502    0 -0.37239081233E+02  0.10144897120E+03  0.42194978582E+03  0.43556890945E+03  0.10100000352E+00 0.  1.
       -3    1    3    3    0  502  0.37239081233E+02 -0.10144897120E+03 -0.16697486647E+04  0.16732421392E+04  0.10100000352E+00 0. -1.
</event>
<event>
 5   0  0.2098250E-05  0.1701204E+04  0.7818609E-02  0.8760678E-01
        3   -1    0    0  501    0  0.00000000000E+00  0.00000000000E+00  0.44084718439E+03  0.44084719596E+03  0.10100000352E+00 0. -1.
       -3   -1    0    0    0  501  0.00000000000E+00  0.00000000000E+00 -0.16412125691E+04  0.16412125722E+04  0.10100000352E+00 0.  1.
    10030    2    1    2    0    0  0.00000000000E+00  0.00000000000E+00 -0.12003653847E+04  0.20820597682E+04  0.17012042268E+04 0.  0.
        1    1    3    3  502    0  0.30486622916E+03  0.31045367803E+03 -0.14946990680E+04  0.15567434625E+04  0.50400001928E-02 0.  1.
       -1    1    3    3    0  502 -0.30486622916E+03 -0.31045367803E+03  0.29433368332E+03  0.52531630571E+03  0.50400001928E-02 0. -1.
</event>
<event>
 5   0  0.2911632E-05  0.1715180E+04  0.7818609E-02  0.8752754E-01
       -1   -1    0    0    0  501  0.00000000000E+00  0.00000000000E+00  0.45972661371E+03  0.45972661374E+03  0.50400001928E-02 0.  1.
        1   -1    0    0  501    0  0.00000000000E+00  0.00000000000E+00 -0.15997779760E+04  0.15997779760E+04  0.50400001928E-02 0. -1.
    10030    2    1    2    0    0  0.00000000000E+00  0.00000000000E+00 -0.11400513623E+04  0.20595045897E+04  0.17151798875E+04 0.  0.
        1    1    3    3  502    0  0.38367553421E+03 -0.54129641815E+03 -0.12224788635E+04  0.13909217446E+04  0.50400001928E-02 0. -1.
       -1    1    3    3    0  502 -0.38367553421E+03  0.54129641815E+03  0.82427501210E+02  0.66858284515E+03  0.50400001928E-02 0.  1.
</event>
<event>
 5   0  0.2967704E-05  0.1701564E+04  0.7818609E-02  0.8760473E-01
        1   -1    0    0  501    0  0.00000000000E+00  0.00000000000E+00  0.10030159809E+04  0.10030159809E+04  0.50400001928E-02 0. -1.
       -1   -1    0    0    0  501  0.00000000000E+00  0.00000000000E+00 -0.72165392352E+03  0.72165392353E+03  0.50400001928E-02 0.  1.
    10030    2    1    2    0    0  0.00000000000E+00  0.00000000000E+00  0.28136205735E+03  0.17246699044E+04  0.17015644777E+04 0.  0.
        2    1    3    3  502    0 -0.39551701944E+03 -0.61508909990E+03 -0.30003598676E+03  0.79043652929E+03  0.25500000920E-02 0.  1.
       -2    1    3    3    0  502  0.39551701944E+03  0.61508909990E+03  0.58139804411E+03  0.93423337512E+03  0.25500000920E-02 0. -1.
</event>
<event>
 5   0  0.2966258E-05  0.1700837E+04  0.7818609E-02  0.8760887E-01
       -1   -1    0    0    0  501  0.00000000000E+00  0.00000000000E+00  0.80346229183E+03  0.80346229185E+03  0.50400001928E-02 0.  1.
        1   -1    0    0  501    0  0.00000000000E+00  0.00000000000E+00 -0.90011884260E+03  0.90011884261E+03  0.50400001928E-02 0. -1.
    10030    2    1    2    0    0  0.00000000000E+00  0.00000000000E+00 -0.96656550768E+02  0.17035811345E+04  0.17008369095E+04 0.  0.
        4    1    3    3  502    0 -0.34054520564E+03  0.30164120529E+03 -0.76799397775E+03  0.89262243786E+03  0.12699999809E+01 0. -1.
       -4    1    3    3    0  502  0.34054520564E+03 -0.30164120529E+03  0.67133742698E+03  0.81095869660E+03  0.12699999809E+01 0.  1.
</event>
<event>
 5   0  0.2098250E-05  0.1701240E+04  0.7818609E-02  0.8760658E-01
        3   -1    0    0  501    0  0.00000000000E+00  0.00000000000E+00  0.80856726175E+03  0.80856726806E+03  0.10100000352E+00 0. -1.
       -3   -1    0    0    0  501  0.00000000000E+00  0.00000000000E+00 -0.89485936094E+03  0.89485936663E+03  0.10100000352E+00 0.  1.
    10030    2    1    2    0    0  0.00000000000E+00  0.00000000000E+00 -0.86292099188E+02  0.17034266347E+04  0.17012395403E+04 0.  0.
        2    1    3    3  502    0  0.79406918378E+03  0.42811544194E+02  0.25919461084E+03  0.83639735966E+03  0.25500000920E-02 0. -1.
       -2    1    3    3    0  502 -0.79406918378E+03 -0.42811544194E+02 -0.34548671002E+03  0.86702927503E+03  0.25500000920E-02 0.  1.
</event>
<event>
 5   0  0.5821584E-05  0.1702067E+04  0.7818609E-02  0.8760186E-01
        2   -1    0    0  501    0  0.00000000000E+00  0.00000000000E+00  0.89349424866E+03  0.89349424866E+03  0.25500000920E-02 0.  1.
       -2   -1    0    0    0  501  0.00000000000E+00  0.00000000000E+00 -0.81059093223E+03  0.81059093223E+03  0.25500000920E-02 0. -1.
    10030    2    1    2    0    0  0.00000000000E+00  0.00000000000E+00  0.82903316430E+02  0.17040851809E+04  0.17020673735E+04 0.  0.
        1    1    3    3  502    0 -0.54408763512E+03 -0.65171864937E+03 -0.17692762645E+02  0.84916522922E+03  0.50400001928E-02 0.  1.
       -1    1    3    3    0  502  0.54408763512E+03  0.65171864937E+03  0.10059607908E+03  0.85491995168E+03  0.50400001928E-02 0. -1.
</event>
<event>
 5   0  0.2967704E-05  0.1697696E+04  0.7818609E-02  0.8762680E-01
       -1   -1    0    0    0  501  0.00000000000E+00  0.00000000000E+00  0.15530639551E+04  0.15530639551E+04  0.50400001928E-02 0. -1.
        1   -1    0    0  501    0  0.00000000000E+00  0.00000000000E+00 -0.46394923987E+03  0.46394923990E+03  0.50400001928E-02 0.  1.
    10030    2    1    2    0    0  0.00000000000E+00  0.00000000000E+00  0.10891147153E+04  0.20170131950E+04  0.16976958991E+04 0.  0.
        2    1    3    3  502    0  0.38516686897E+03 -0.27805699714E+03  0.13803450977E+04  0.14598019727E+04  0.25500000920E-02 0. -1.
       -2    1    3    3    0  502 -0.38516686897E+03  0.27805699714E+03 -0.29123038249E+03  0.55721122234E+03  0.25500000920E-02 0.  1.
</event>
<event>
 5   0  0.5671132E-05  0.1706103E+04  0.7818609E-02  0.8757891E-01
       -2   -1    0    0    0  501  0.00000000000E+00  0.00000000000E+00  0.59831328818E+03  0.59831328818E+03  0.25500000920E-02 0.  1.
        2   -1    0    0  501    0  0.00000000000E+00  0.00000000000E+00 -0.12162468858E+04  0.12162468858E+04  0.25500000920E-02 0. -1.
    10030    2    1    2    0    0  0.00000000000E+00  0.00000000000E+00 -0.61793359766E+03  0.18145601740E+04  0.17061027794E+04 0.  0.
        3    1    3    3  502    0  0.61377351616E+02  0.34000976499E+03  0.52056539778E+03  0.62478969514E+03  0.10100000352E+00 0.  1.
       -3    1    3    3    0  502 -0.61377351616E+02 -0.34000976499E+03 -0.11384989954E+04  0.11897704789E+04  0.10100000352E+00 0. -1.
</event>
<event>
 5   0  0.2966258E-05  0.1697556E+04  0.7818609E-02  0.8762759E-01
        1   -1    0    0  501    0  0.00000000000E+00  0.00000000000E+00  0.18384068277E+04  0.18384068277E+04  0.50400001928E-02 0.  1.
       -1   -1    0    0    0  501  0.00000000000E+00  0.00000000000E+00 -0.39187425649E+03  0.39187425652E+03  0.50400001928E-02 0. -1.
    10030    2    1    2    0    0  0.00000000000E+00  0.00000000000E+00  0.14465325712E+04  0.22302810842E+04  0.16975562539E+04 0.  0.
        4    1    3    3  502    0  0.43068992596E+03  0.15681269729E+02 -0.23742445876E+03  0.49204847430E+03  0.12699999809E+01 0. -1.
       -4    1    3    3    0  502 -0.43068992596E+03 -0.15681269729E+02  0.16839570299E+04  0.17382326099E+04  0.12699999809E+01 0.  1.
</event>
<event>
 5   0  0.5821584E-05  0.1701482E+04  0.7818609E-02  0.8760520E-01
        2   -1    0    0  501    0  0.00000000000E+00  0.00000000000E+00  0.14251000993E+04  0.14251000993E+04  0.25500000920E-02 0.  1.
       -2   -1    0    0    0  501  0.00000000000E+00  0.00000000000E+00 -0.50786615390E+03  0.50786615391E+03  0.25500000920E-02 0. -1.
    10030    2    1    2    0    0  0.00000000000E+00  0.00000000000E+00  0.91723394540E+03  0.19329662532E+04  0.17014818322E+04 0.  0.
        1    1    3    3  502    0  0.79655912863E+03 -0.70493701966E+01  0.79792102050E+03  0.11274901747E+04  0.50400001928E-02 0.  1.
       -1    1    3    3    0  502 -0.79655912863E+03  0.70493701966E+01  0.11931292490E+03  0.80547607854E+03  0.50400001928E-02 0. -1.
</event>
<event>
 5   0  0.2993769E-05  0.1697320E+04  0.7818609E-02  0.8762894E-01
       -1   -1    0    0    0  501  0.00000000000E+00  0.00000000000E+00  0.45785488617E+03  0.45785488619E+03  0.50400001928E-02 0. -1.
        1   -1    0    0  501    0  0.00000000000E+00  0.00000000000E+00 -0.15730394101E+04  0.15730394101E+04  0.50400001928E-02 0.  1.
    10030    2    1    2    0    0  0.00000000000E+00  0.00000000000E+00 -0.11151845239E+04  0.20308942963E+04  0.16973199817E+04 0.  0.
        3    1    3    3  502    0 -0.58151010712E+03  0.56222472532E+03 -0.86492379253E+03  0.11842059886E+04  0.10100000352E+00 0. -1.
       -3    1    3    3    0  502  0.58151010712E+03 -0.56222472532E+03 -0.25026073140E+03  0.84668830766E+03  0.10100000352E+00 0.  1.
</event>
<event>
 5   0  0.5755321E-05  0.1692465E+04  0.7818609E-02  0.8765673E-01
       -2   -1    0    0    0  501  0.00000000000E+00  0.00000000000E+00  0.63754090296E+03  0.63754090296E+03  0.25500000920E-02 0.  1.
        2   -1    0    0  501    0  0.00000000000E+00  0.00000000000E+00 -0.11232370149E+04  0.11232370149E+04  0.25500000920E-02 0. -1.
    10030    2    1    2    0    0  0.00000000000E+00  0.00000000000E+00 -0.48569611193E+03  0.17607779178E+04  0.16924651142E+04 0.  0.
        4    1    3    3  502    0 -0.30598139008E+02  0.49762206156E+03  0.46852282751E+03  0.68416314945E+03  0.12699999809E+01 0.  1.
       -4    1    3    3    0  502  0.30598139008E+02 -0.49762206156E+03 -0.95421893944E+03  0.10766147684E+04  0.12699999809E+01 0. -1.
</event>
<event>
 5   0  0.5755321E-05  0.1699622E+04  0.7818609E-02  0.8761580E-01
       -2   -1    0    0    0  501  0.00000000000E+00  0.00000000000E+00  0.81437372987E+03  0.81437372988E+03  0.25500000920E-02 0.  1.
        2   -1    0    0  501    0  0.00000000000E+00  0.00000000000E+00 -0.88679039421E+03  0.88679039421E+03  0.25500000920E-02 0. -1.
    10030    2    1    2    0    0  0.00000000000E+00  0.00000000000E+00 -0.72416664334E+02  0.17011641241E+04  0.16996220768E+04 0.  0.
        4    1    3    3  502    0  0.76310519033E+03 -0.15143534065E+03 -0.37844690628E+03  0.86515077743E+03  0.12699999809E+01 0.  1.
       -4    1    3    3    0  502 -0.76310519033E+03  0.15143534065E+03  0.30603024194E+03  0.83601334666E+03  0.12699999809E+01 0. -1.
</event>
<event>
 5   0  0.5859822E-05  0.1701315E+04  0.7818609E-02  0.8760615E-01
        2   -1    0    0  501    0  0.00000000000E+00  0.00000000000E+00  0.19324057791E+04  0.19324057791E+04  0.25500000920E-02 0.  1.
       -2   -1    0    0    0  501  0.00000000000E+00  0.00000000000E+00 -0.37446478697E+03  0.37446478698E+03  0.25500000920E-02 0. -1.
    10030    2    1    2    0    0  0.00000000000E+00  0.00000000000E+00  0.15579409922E+04  0.23068705661E+04  0.17013146898E+04 0.  0.
        5    1    3    3  502    0 -0.58872002826E+03 -0.61383984448E+03  0.75954690779E+03  0.11403175968E+04  0.46999998093E+01 0. -1.
       -5    1    3    3    0  502  0.58872002826E+03  0.61383984448E+03  0.79839408437E+03  0.11665529694E+04  0.46999998093E+01 0.  1.
</event>
<event>
 5   0  0.5652631E-05  0.1705221E+04  0.7818609E-02  0.8758392E-01
       -2   -1    0    0    0  501  0.00000000000E+00  0.00000000000E+00  0.45040813127E+03  0.45040813128E+03  0.25500000920E-02 0.  1.
        2   -1    0    0  501    0  0.00000000000E+00  0.00000000000E+00 -0.16139680767E+04  0.16139680768E+04  0.25500000920E-02 0. -1.
    10030    2    1    2    0    0  0.00000000000E+00  0.00000000000E+00 -0.11635599455E+04  0.20643762080E+04  0.17052206255E+04 0.  0.
        2    1    3    3  502    0  0.43583858266E+02 -0.17815316154E+03 -0.15898038602E+04  0.16003482170E+04  0.25500000920E-02 0. -1.
       -2    1    3    3    0  502 -0.43583858266E+02  0.17815316154E+03  0.42624391470E+03  0.46402799107E+03  0.25500000920E-02 0.  1.
</event>
<event>
 5   0  0.5671132E-05  0.1682179E+04  0.7818609E-02  0.8771594E-01
       -2   -1    0    0    0  501  0.00000000000E+00  0.00000000000E+00  0.54496659568E+03  0.54496659568E+03  0.25500000920E-02 0.  1.
        2   -1    0    0  501    0  0.00000000000E+00  0.00000000000E+00 -0.12981189025E+04  0.12981189025E+04  0.25500000920E-02 0. -1.
    10030    2    1    2    0    0  0.00000000000E+00  0.00000000000E+00 -0.75315230678E+03  0.18430854981E+04  0.16821788717E+04 0.  0.
        3    1    3    3  502    0  0.46067197243E+03  0.41827731448E+03 -0.99662017228E+03  0.11749154676E+04  0.10100000352E+00 0. -1.
       -3    1    3    3    0  502 -0.46067197243E+03 -0.41827731448E+03  0.24346786550E+03  0.66817003055E+03  0.10100000352E+00 0.  1.
</event>
<event>
 5   0  0.5671132E-05  0.1699739E+04  0.7818609E-02  0.8761513E-01
       -2   -1    0    0    0  501  0.00000000000E+00  0.00000000000E+00  0.62956003189E+03  0.62956003189E+03  0.25500000920E-02 0.  1.
        2   -1    0    0  501    0  0.00000000000E+00  0.00000000000E+00 -0.11472746382E+04  0.11472746382E+04  0.25500000920E-02 0. -1.
    10030    2    1    2    0    0  0.00000000000E+00  0.00000000000E+00 -0.51771460627E+03  0.17768346700E+04  0.16997391068E+04 0.  0.
        3    1    3    3  502    0  0.55046490706E+03 -0.64746219645E+03 -0.26690980143E+03  0.89076358370E+03  0.10100000352E+00 0.  1.
       -3    1    3    3    0  502 -0.55046490706E+03  0.64746219645E+03 -0.25080480484E+03  0.88607108635E+03  0.10100000352E+00 0. -1.
</event>
<event>
 5   0  0.5652631E-05  0.1702822E+04  0.7818609E-02  0.8759756E-01
        2   -1    0    0  501    0  0.00000000000E+00  0.00000000000E+00  0.70657871169E+03  0.70657871169E+03  0.25500000920E-02 0. -1.
       -2   -1    0    0    0  501  0.00000000000E+00  0.00000000000E+00 -0.10259309145E+04  0.10259309145E+04  0.25500000920E-02 0.  1.
    10030    2    1    2    0    0  0.00000000000E+00  0.00000000000E+00 -0.31935220281E+03  0.17325096262E+04  0.17028222971E+04 0.  0.
        2    1    3    3  502    0  0.76429482116E+03  0.36163602792E+03 -0.26128591239E+03  0.88498447351E+03  0.25500000920E-02 0. -1.
       -2    1    3    3    0  502 -0.76429482116E+03 -0.36163602792E+03 -0.58066290421E+02  0.84752515268E+03  0.25500000920E-02 0.  1.
</event>
<event>
 5   0  0.2098250E-05  0.1696745E+04  0.7818609E-02  0.8763223E-01
        3   -1    0    0  501    0  0.00000000000E+00  0.00000000000E+00  0.61076971277E+03  0.61076972112E+03  0.10100000352E+00 0.  1.
       -3   -1    0    0    0  501  0.00000000000E+00  0.00000000000E+00 -0.11784075575E+04  0.11784075618E+04  0.10100000352E+00 0. -1.
    10030    2    1    2    0    0  0.00000000000E+00  0.00000000000E+00 -0.56763784471E+03  0.17891772829E+04  0.16967447147E+04 0.  0.
        5    1    3    3  502    0 -0.53715034699E+03  0.64848441632E+03 -0.39264494095E+03  0.92911499457E+03  0.46999998093E+01 0. -1.
       -5    1    3    3    0  502  0.53715034699E+03 -0.64848441632E+03 -0.17499290376E+03  0.86006228836E+03  0.46999998093E+01 0.  1.
</event>
<event>
 5   0  0.2098250E-05  0.1698832E+04  0.7818609E-02  0.8762031E-01
       -4   -1    0    0    0  501  0.00000000000E+00  0.00000000000E+00  0.92467975586E+03  0.92468062800E+03  0.12699999809E+01 0.  1.
        4   -1    0    0  501    0  0.00000000000E+00  0.00000000000E+00 -0.78027672690E+03  0.78027776044E+03  0.12699999809E+01 0. -1.
    10030    2    1    2    0    0  0.00000000000E+00  0.00000000000E+00  0.14440302897E+03  0.17049583884E+04  0.16988322082E+04 0.  0.
        4    1    3    3  502    0 -0.54427112114E+03 -0.15796568851E+03 -0.56279006845E+03  0.79869799430E+03  0.12699999809E+01 0. -1.
       -4    1    3    3    0  502  0.54427112114E+03  0.15796568851E+03  0.70719309742E+03  0.90626039414E+03  0.12699999809E+01 0.  1.
</event>
<event>
 5   0  0.5671132E-05  0.1673759E+04  0.7818609E-02  0.8776474E-01
       -2   -1    0    0    0  501  0.00000000000E+00  0.00000000000E+00  0.41641452753E+03  0.41641452754E+03  0.25500000920E-02 0. -1.
        2   -1    0    0  501    0  0.00000000000E+00  0.00000000000E+00 -0.16818992028E+04  0.16818992028E+04  0.25500000920E-02 0.  1.
    10030    2    1    2    0    0  0.00000000000E+00  0.00000000000E+00 -0.12654846753E+04  0.20983137303E+04  0.16737589574E+04 0.  0.
        3    1    3    3  502    0  0.23609719129E+01 -0.78917129606E+03 -0.98190304454E+03  0.12597343005E+04  0.10100000352E+00 0.  1.
       -3    1    3    3    0  502 -0.23609719129E+01  0.78917129606E+03 -0.28358163073E+03  0.83857942987E+03  0.10100000352E+00 0. -1.
</event>
<event>
 5   0  0.2966258E-05  0.1665969E+04  0.7818609E-02  0.8781015E-01
       -1   -1    0    0    0  501  0.00000000000E+00  0.00000000000E+00  0.15369335296E+04  0.15369335296E+04  0.50400001928E-02 0.  1.
        1   -1    0    0  501    0  0.00000000000E+00  0.00000000000E+00 -0.45145927044E+03  0.45145927047E+03  0.50400001928E-02 0. -1.
    10030    2    1    2    0    0  0.00000000000E+00  0.00000000000E+00  0.10854742591E+04  0.19883928000E+04  0.16659686552E+04 0.  0.
        4    1    3    3  502    0 -0.78778440201E+03  0.23149584614E+03  0.37535813649E+03  0.90282331292E+03  0.12699999809E+01 0. -1.
       -4    1    3    3    0  502  0.78778440201E+03 -0.23149584614E+03  0.71011612265E+03  0.10855694871E+04  0.12699999809E+01 0.  1.
</event>
<event>
 5   0  0.5821584E-05  0.1700165E+04  0.7818609E-02  0.8761270E-01
        2   -1    0    0  501    0  0.00000000000E+00  0.00000000000E+00  0.83281244710E+03  0.83281244710E+03  0.25500000920E-02 0. -1.
       -2   -1    0    0    0  501  0.00000000000E+00  0.00000000000E+00 -0.86771037757E+03  0.86771037757E+03  0.25500000920E-02 0.  1.
    10030    2    1    2    0    0  0.00000000000E+00  0.00000000000E+00 -0.34897930470E+02  0.17005228247E+04  0.17001647013E+04 0.  0.
        1    1    3    3  502    0  0.71621254195E+03  0.41957220933E+03 -0.20089631916E+03  0.85402609747E+03  0.50400001928E-02 0. -1.
       -1    1    3    3    0  502 -0.71621254195E+03 -0.41957220933E+03  0.16599838869E+03  0.84649672720E+03  0.50400001928E-02 0.  1.
</event>
<event>
 5   0  0.5652631E-05  0.1699794E+04  0.7818609E-02  0.8761482E-01
        2   -1    0    0  501    0  0.00000000000E+00  0.00000000000E+00  0.57504563100E+03  0.57504563100E+03  0.25500000920E-02 0.  1.
       -2   -1    0    0    0  501  0.00000000000E+00  0.00000000000E+00 -0.12561182131E+04  0.12561182131E+04  0.25500000920E-02 0. -1.
    10030    2    1    2    0    0  0.00000000000E+00  0.00000000000E+00 -0.68107258213E+03  0.18311638441E+04  0.16997944470E+04 0.  0.
        2    1    3    3  502    0  0.39897410296E+03  0.23110577550E+02  0.46750741696E+03  0.61504277781E+03  0.25500000920E-02 0.  1.
       -2    1    3    3    0  502 -0.39897410296E+03 -0.23110577550E+02 -0.11485799991E+04  0.12161210663E+04  0.25500000920E-02 0. -1.
</event>
<event>
 5   0  0.2967704E-05  0.1700355E+04  0.7818609E-02  0.8761162E-01
       -1   -1    0    0    0  501  0.00000000000E+00  0.00000000000E+00  0.48995381886E+03  0.48995381888E+03  0.50400001928E-02 0. -1.
        1   -1    0    0  501    0  0.00000000000E+00  0.00000000000E+00 -0.14752452131E+04  0.14752452131E+04  0.50400001928E-02 0.  1.
    10030    2    1    2    0    0  0.00000000000E+00  0.00000000000E+00 -0.98529139426E+03  0.19651990320E+04  0.17003552875E+04 0.  0.
        2    1    3    3  502    0  0.79857862579E+03 -0.26563170444E+03 -0.35340683864E+03  0.91278936101E+03  0.25500000920E-02 0.  1.
       -2    1    3    3    0  502 -0.79857862579E+03  0.26563170444E+03 -0.63188455562E+03  0.10524096710E+04  0.25500000920E-02 0. -1.
</event>
<event>
 5   0  0.5859822E-05  0.1706821E+04  0.7818609E-02  0.8757484E-01
       -2   -1    0    0    0  501  0.00000000000E+00  0.00000000000E+00  0.70911644244E+03  0.70911644244E+03  0.25500000920E-02 0.  1.
        2   -1    0    0  501    0  0.00000000000E+00  0.00000000000E+00 -0.10270659219E+04  0.10270659219E+04  0.25500000920E-02 0. -1.
    10030    2    1    2    0    0  0.00000000000E+00  0.00000000000E+00 -0.31794947945E+03  0.17361823643E+04  0.17068208256E+04 0.  0.
        5    1    3    3  502    0  0.12382674609E+03  0.38387776674E+03  0.60602106157E+03  0.72799644224E+03  0.46999998093E+01 0.  1.
       -5    1    3    3    0  502 -0.12382674609E+03 -0.38387776674E+03 -0.92397054102E+03  0.10081859221E+04  0.46999998093E+01 0. -1.
</event>
<event>
 5   0  0.2993769E-05  0.1702367E+04  0.7818609E-02  0.8760016E-01
        1   -1    0    0  501    0  0.00000000000E+00  0.00000000000E+00  0.96489995752E+03  0.96489995753E+03  0.50400001928E-02 0.  1.
       -1   -1    0    0    0  501  0.00000000000E+00  0.00000000000E+00 -0.75086852712E+03  0.75086852714E+03  0.50400001928E-02 0. -1.
    10030    2    1    2    0    0  0.00000000000E+00  0.00000000000E+00  0.21403143040E+03  0.17157684847E+04  0.17023665997E+04 0.  0.
        3    1    3    3  502    0 -0.71946156983E+03 -0.35529522208E+03  0.39324681148E+03  0.89358978857E+03  0.10100000352E+00 0.  1.
       -3    1    3    3    0  502  0.71946156983E+03  0.35529522208E+03 -0.17921538107E+03  0.82217869610E+03  0.10100000352E+00 0. -1.
</event>
<event>
 5   0  0.2993769E-05  0.1709874E+04  0.7818609E-02  0.8755753E-01
        1   -1    0    0  501    0  0.00000000000E+00  0.00000000000E+00  0.68456047415E+03  0.68456047417E+03  0.50400001928E-02 0.  1.
       -1   -1    0    0    0  501  0.00000000000E+00  0.00000000000E+00 -0.10677177470E+04  0.10677177470E+04  0.50400001928E-02 0. -1.
    10030    2    1    2    0    0  0.00000000000E+00  0.00000000000E+00 -0.38315727283E+03  0.17522782212E+04  0.17098741090E+04 0.  0.
        3    1    3    3  502    0 -0.68502162503E+03 -0.51105953910E+03 -0.21405138777E+03  0.88105305519E+03  0.10100000352E+00 0.  1.
       -3    1    3    3    0  502  0.68502162503E+03  0.51105953910E+03 -0.16910588506E+03  0.87122516597E+03  0.10100000352E+00 0. -1.
</event>
<event>
 5   0  0.2966258E-05  0.1698873E+04  0.7818609E-02  0.8762007E-01
        1   -1    0    0  501    0  0.00000000000E+00  0.00000000000E+00  0.62282407803E+03  0.62282407806E+03  0.50400001928E-02 0.  1.
       -1   -1    0    0    0  501  0.00000000000E+00  0.00000000000E+00 -0.11585016142E+04  0.11585016142E+04  0.50400001928E-02 0. -1.
    10030    2    1    2    0    0  0.00000000000E+00  0.00000000000E+00 -0.53567753614E+03  0.17813256922E+04  0.16988733911E+04 0.  0.
        4    1    3    3  502    0 -0.36975777726E+03 -0.51759444698E+03 -0.85811402606E+03  0.10681695184E+04  0.12699999809E+01 0. -1.
       -4    1    3    3    0  502  0.36975777726E+03  0.51759444698E+03  0.32243648992E+03  0.71315617386E+03  0.12699999809E+01 0.  1.
</event>
<event>
 5   0  0.5755321E-05  0.1699364E+04  0.7818609E-02  0.8761727E-01
        2   -1    0    0  501    0  0.00000000000E+00  0.00000000000E+00  0.17146127717E+04  0.17146127717E+04  0.25500000920E-02 0. -1.
       -2   -1    0    0    0  501  0.00000000000E+00  0.00000000000E+00 -0.42106291981E+03  0.42106291982E+03  0.25500000920E-02 0.  1.
    10030    2    1    2    0    0  0.00000000000E+00  0.00000000000E+00  0.12935498519E+04  0.21356756915E+04  0.16993644224E+04 0.  0.
        4    1    3    3  502    0 -0.62008651516E+03  0.40791621613E+03  0.11665519491E+04  0.13826597515E+04  0.12699999809E+01 0.  1.
       -4    1    3    3    0  502  0.62008651516E+03 -0.40791621613E+03  0.12699790279E+03  0.75301593999E+03  0.12699999809E+01 0. -1.
</event>
<event>
 5   0  0.5652631E-05  0.1700833E+04  0.7818609E-02  0.8760889E-01
       -2   -1    0    0    0  501  0.00000000000E+00  0.00000000000E+00  0.51919878198E+03  0.51919878198E+03  0.25500000920E-02 0.  1.
        2   -1    0    0  501    0  0.00000000000E+00  0.00000000000E+00 -0.13929310289E+04  0.13929310289E+04  0.25500000920E-02 0. -1.
    10030    2    1    2    0    0  0.00000000000E+00  0.00000000000E+00 -0.87373224693E+03  0.19121298109E+04  0.17008328473E+04 0.  0.
        2    1    3    3  502    0  0.21177911296E+02  0.28011485427E+03  0.46553204529E+03  0.54372136312E+03  0.25500000920E-02 0.  1.
       -2    1    3    3    0  502 -0.21177911296E+02 -0.28011485427E+03 -0.13392642922E+04  0.13684084478E+04  0.25500000920E-02 0. -1.
</event>
<event>
 5   0  0.5755321E-05  0.1699775E+04  0.7818609E-02  0.8761493E-01
        2   -1    0    0  501    0  0.00000000000E+00  0.00000000000E+00  0.95753074544E+03  0.95753074544E+03  0.25500000920E-02 0.  1.
       -2   -1    0    0    0  501  0.00000000000E+00  0.00000000000E+00 -0.75434501295E+03  0.75434501295E+03  0.25500000920E-02 0. -1.
    10030    2    1    2    0    0  0.00000000000E+00  0.00000000000E+00  0.20318573249E+03  0.17118757584E+04  0.16997747410E+04 0.  0.
        4    1    3    3  502    0 -0.28063779082E+03 -0.32544967031E+03  0.84004674191E+03  0.94358634954E+03  0.12699999809E+01 0.  1.
       -4    1    3    3    0  502  0.28063779082E+03  0.32544967031E+03 -0.63686100942E+03  0.76828940885E+03  0.12699999809E+01 0. -1.
</event>
<event>
 5   0  0.5821584E-05  0.1703352E+04  0.7818609E-02  0.8759455E-01
        2   -1    0    0  501    0  0.00000000000E+00  0.00000000000E+00  0.84490091449E+03  0.84490091450E+03  0.25500000920E-02 0.  1.
       -2   -1    0    0    0  501  0.00000000000E+00  0.00000000000E+00 -0.85850508660E+03  0.85850508660E+03  0.25500000920E-02 0. -1.
    10030    2    1    2    0    0  0.00000000000E+00  0.00000000000E+00 -0.13604172104E+02  0.17034060011E+04  0.17033516757E+04 0.  0.
        1    1    3    3  502    0  0.67792566033E+03  0.38027342323E+03  0.34129040731E+03  0.84892297618E+03  0.50400001928E-02 0.  1.
       -1    1    3    3    0  502 -0.67792566033E+03 -0.38027342323E+03 -0.35489457942E+03  0.85448302492E+03  0.50400001928E-02 0. -1.
</event>
<event>
 5   0  0.5671132E-05  0.1700901E+04  0.7818609E-02  0.8760851E-01
       -2   -1    0    0    0  501  0.00000000000E+00  0.00000000000E+00  0.75786752855E+03  0.75786752855E+03  0.25500000920E-02 0. -1.
        2   -1    0    0  501    0  0.00000000000E+00  0.00000000000E+00 -0.95434391219E+03  0.95434391219E+03  0.25500000920E-02 0.  1.
    10030    2    1    2    0    0  0.00000000000E+00  0.00000000000E+00 -0.19647638364E+03  0.17122114407E+04  0.17009012460E+04 0.  0.
        3    1    3    3  502    0 -0.29840740151E+03  0.50582743471E+03  0.52096001157E+03  0.78505268284E+03  0.10100000352E+00 0. -1.
       -3    1    3    3    0  502  0.29840740151E+03 -0.50582743471E+03 -0.71743639521E+03  0.92715875790E+03  0.10100000352E+00 0.  1.
</event>
<event>
 5   0  0.2911632E-05  0.1732660E+04  0.7818609E-02  0.8742953E-01
        1   -1    0    0  501    0  0.00000000000E+00  0.00000000000E+00  0.19378875629E+04  0.19378875629E+04  0.50400001928E-02 0.  1.
       -1   -1    0    0    0  501  0.00000000000E+00  0.00000000000E+00 -0.38729164516E+03  0.38729164519E+03  0.50400001928E-02 0. -1.
    10030    2    1    2    0    0  0.00000000000E+00  0.00000000000E+00  0.15505959177E+04  0.23251792081E+04  0.17326599925E+04 0.  0.
        1    1    3    3  502    0 -0.14143243011E+03  0.32469235843E+03 -0.28570751658E+03  0.45503521288E+03  0.50400001928E-02 0. -1.
       -1    1    3    3    0  502  0.14143243011E+03 -0.32469235843E+03  0.18363034343E+04  0.18701439952E+04  0.50400001928E-02 0.  1.
</event>
<event>
 5   0  0.5652631E-05  0.1706005E+04  0.7818609E-02  0.8757947E-01
       -2   -1    0    0    0  501  0.00000000000E+00  0.00000000000E+00  0.61728312557E+03  0.61728312557E+03  0.25500000920E-02 0. -1.
        2   -1    0    0  501    0  0.00000000000E+00  0.00000000000E+00 -0.11787343860E+04  0.11787343860E+04  0.25500000920E-02 0.  1.
    10030    2    1    2    0    0  0.00000000000E+00  0.00000000000E+00 -0.56145126046E+03  0.17960175116E+04  0.17060045088E+04 0.  0.
        2    1    3    3  502    0  0.67369815600E+03 -0.22454333757E+03  0.21678002669E+03  0.74248400375E+03  0.25500000920E-02 0. -1.
       -2    1    3    3    0  502 -0.67369815600E+03  0.22454333757E+03 -0.77823128715E+03  0.10535335078E+04  0.25500000920E-02 0.  1.
</event>
<event>
 5   0  0.2967704E-05  0.1705740E+04  0.7818609E-02  0.8758097E-01
       -1   -1    0    0    0  501  0.00000000000E+00  0.00000000000E+00  0.86802089658E+03  0.86802089659E+03  0.50400001928E-02 0.  1.
        1   -1    0    0  501    0  0.00000000000E+00  0.00000000000E+00 -0.83798356182E+03  0.83798356183E+03  0.50400001928E-02 0. -1.
    10030    2    1    2    0    0  0.00000000000E+00  0.00000000000E+00  0.30037334762E+02  0.17060044584E+04  0.17057400068E+04 0.  0.
        2    1    3    3  502    0  0.20883101562E+03 -0.64677831090E+03  0.53032147422E+03  0.86207507942E+03  0.25500000920E-02 0.  1.
       -2    1    3    3    0  502 -0.20883101562E+03  0.64677831090E+03 -0.50028413946E+03  0.84392937900E+03  0.25500000920E-02 0. -1.
</event>
<event>
 5   0  0.5652631E-05  0.1699786E+04  0.7818609E-02  0.8761487E-01
        2   -1    0    0  501    0  0.00000000000E+00  0.00000000000E+00  0.10784466606E+04  0.10784466606E+04  0.25500000920E-02 0. -1.
       -2   -1    0    0    0  501  0.00000000000E+00  0.00000000000E+00 -0.66977626634E+03  0.66977626634E+03  0.25500000920E-02 0.  1.
    10030    2    1    2    0    0  0.00000000000E+00  0.00000000000E+00  0.40867039422E+03  0.17482229269E+04  0.16997858427E+04 0.  0.
        2    1    3    3  502    0 -0.23675456589E+03  0.74659965593E+03 -0.13499711243E+03  0.79478801644E+03  0.25500000920E-02 0. -1.
       -2    1    3    3    0  502  0.23675456589E+03 -0.74659965593E+03  0.54366750665E+03  0.95343491047E+03  0.25500000920E-02 0.  1.
</event>
<event>
 5   0  0.5755321E-05  0.1704653E+04  0.7818609E-02  0.8758715E-01
        2   -1    0    0  501    0  0.00000000000E+00  0.00000000000E+00  0.18136875227E+04  0.18136875227E+04  0.25500000920E-02 0. -1.
       -2   -1    0    0    0  501  0.00000000000E+00  0.00000000000E+00 -0.40054323864E+03  0.40054323865E+03  0.25500000920E-02 0.  1.
    10030    2    1    2    0    0  0.00000000000E+00  0.00000000000E+00  0.14131442841E+04  0.22142307614E+04  0.17046527790E+04 0.  0.
        4    1    3    3  502    0 -0.76839674854E+02 -0.66586036298E+03  0.22705743920E+02  0.67066498517E+03  0.12699999809E+01 0.  1.
       -4    1    3    3    0  502  0.76839674854E+02  0.66586036298E+03  0.13904385401E+04  0.15435657762E+04  0.12699999809E+01 0. -1.
</event>
<event>
 5   0  0.2911632E-05  0.1669264E+04  0.7818609E-02  0.8779091E-01
        1   -1    0    0  501    0  0.00000000000E+00  0.00000000000E+00  0.64340361573E+03  0.64340361575E+03  0.50400001928E-02 0.  1.
       -1   -1    0    0    0  501  0.00000000000E+00  0.00000000000E+00 -0.10826962998E+04  0.10826962998E+04  0.50400001928E-02 0. -1.
    10030    2    1    2    0    0  0.00000000000E+00  0.00000000000E+00 -0.43929268406E+03  0.17260999156E+04  0.16692641661E+04 0.  0.
        1    1    3    3  502    0 -0.61709863359E+03  0.56177904518E+03 -0.23442617649E+03  0.86681142784E+03  0.50400001928E-02 0.  1.
       -1    1    3    3    0  502  0.61709863359E+03 -0.56177904518E+03 -0.20486650757E+03  0.85928848772E+03  0.50400001928E-02 0. -1.
</event>
<event>
 5   0  0.2993769E-05  0.1691926E+04  0.7818609E-02  0.8765982E-01
        1   -1    0    0  501    0  0.00000000000E+00  0.00000000000E+00  0.73234729582E+03  0.73234729583E+03  0.50400001928E-02 0.  1.
       -1   -1    0    0    0  501  0.00000000000E+00  0.00000000000E+00 -0.97720550048E+03  0.97720550049E+03  0.50400001928E-02 0. -1.
    10030    2    1    2    0    0  0.00000000000E+00  0.00000000000E+00 -0.24485820466E+03  0.17095527963E+04  0.16919264828E+04 0.  0.
        3    1    3    3  502    0 -0.53636876540E+03 -0.12849501128E+03  0.52569815832E+03  0.76194552580E+03  0.10100000352E+00 0.  1.
       -3    1    3    3    0  502  0.53636876540E+03  0.12849501128E+03 -0.77055636298E+03  0.94760727053E+03  0.10100000352E+00 0. -1.
</event>
<event>
 5   0  0.5671132E-05  0.1700252E+04  0.7818609E-02  0.8761221E-01
       -2   -1    0    0    0  501  0.00000000000E+00  0.00000000000E+00  0.57986300448E+03  0.57986300449E+03  0.25500000920E-02 0. -1.
        2   -1    0    0  501    0  0.00000000000E+00  0.00000000000E+00 -0.12463535417E+04  0.12463535417E+04  0.25500000920E-02 0.  1.
    10030    2    1    2    0    0  0.00000000000E+00  0.00000000000E+00 -0.66649053725E+03  0.18262165462E+04  0.17002521100E+04 0.  0.
        3    1    3    3  502    0 -0.23236402655E+03  0.51949948881E+03 -0.10115723293E+04  0.11606684915E+04  0.10100000352E+00 0.  1.
       -3    1    3    3    0  502  0.23236402655E+03 -0.51949948881E+03  0.34508179203E+03  0.66554805468E+03  0.10100000352E+00 0. -1.
</event>
<event>
 5   0  0.2987859E-05  0.1697466E+04  0.7818609E-02  0.8762811E-01
        1   -1    0    0  501    0  0.00000000000E+00  0.00000000000E+00  0.14763540091E+04  0.14763540091E+04  0.50400001928E-02 0.  1.
       -1   -1    0    0    0  501  0.00000000000E+00  0.00000000000E+00 -0.48792346096E+03  0.48792346098E+03  0.50400001928E-02 0. -1.
    10030    2    1    2    0    0  0.00000000000E+00  0.00000000000E+00  0.98843054814E+03  0.19642774701E+04  0.16974660618E+04 0.  0.
        5    1    3    3  502    0  0.73289311200E+03 -0.80378852737E+01 -0.98399707227E+00  0.73295291763E+03  0.46999998093E+01 0. -1.
       -5    1    3    3    0  502 -0.73289311200E+03  0.80378852737E+01  0.98941454521E+03  0.12313245525E+04  0.46999998093E+01 0.  1.
</event>
<event>
 5   0  0.2966258E-05  0.1700108E+04  0.7818609E-02  0.8761303E-01
        1   -1    0    0  501    0  0.00000000000E+00  0.00000000000E+00  0.13749538597E+04  0.13749538597E+04  0.50400001928E-02 0.  1.
       -1   -1    0    0    0  501  0.00000000000E+00  0.00000000000E+00 -0.52553867720E+03  0.52553867722E+03  0.50400001928E-02 0. -1.
    10030    2    1    2    0    0  0.00000000000E+00  0.00000000000E+00  0.84941518249E+03  0.19004925369E+04  0.17001075644E+04 0.  0.
        4    1    3    3  502    0 -0.39204065951E+03 -0.53664465833E+03  0.10171834045E+04  0.12150502292E+04  0.12699999809E+01 0.  1.
       -4    1    3    3    0  502  0.39204065951E+03  0.53664465833E+03 -0.16776822205E+03  0.68544230775E+03  0.12699999809E+01 0. -1.
</event>
<event>
 5   0  0.5755321E-05  0.1697369E+04  0.7818609E-02  0.8762866E-01
        2   -1    0    0  501    0  0.00000000000E+00  0.00000000000E+00  0.52592237442E+03  0.52592237442E+03  0.25500000920E-02 0. -1.
       -2   -1    0    0    0  501  0.00000000000E+00  0.00000000000E+00 -0.13695285469E+04  0.13695285469E+04  0.25500000920E-02 0.  1.
    10030    2    1    2    0    0  0.00000000000E+00  0.00000000000E+00 -0.84360617253E+03  0.18954509214E+04  0.16973693826E+04 0.  0.
        4    1    3    3  502    0 -0.55900305288E+02  0.14104728717E+03 -0.13542601780E+04  0.13627330715E+04  0.12699999809E+01 0.  1.
       -4    1    3    3    0  502  0.55900305288E+02 -0.14104728717E+03  0.51065400552E+03  0.53271784990E+03  0.12699999809E+01 0. -1.
</event>
<event>
 5   0  0.5821584E-05  0.1700681E+04  0.7818609E-02  0.8760976E-01
        2   -1    0    0  501    0  0.00000000000E+00  0.00000000000E+00  0.22384297840E+04  0.22384297840E+04  0.25500000920E-02 0. -1.
       -2   -1    0    0    0  501  0.00000000000E+00  0.00000000000E+00 -0.32302954262E+03  0.32302954263E+03  0.25500000920E-02 0.  1.
    10030    2    1    2    0    0  0.00000000000E+00  0.00000000000E+00  0.19154002414E+04  0.25614593267E+04  0.17006809805E+04 0.  0.
        1    1    3    3  502    0 -0.73306436235E+03 -0.43090396760E+03  0.95142462691E+03  0.12760369937E+04  0.50400001928E-02 0.  1.
       -1    1    3    3    0  502  0.73306436235E+03  0.43090396760E+03  0.96397561452E+03  0.12854223329E+04  0.50400001928E-02 0. -1.
</event>
<event>
 5   0  0.2967704E-05  0.1701244E+04  0.7818609E-02  0.8760655E-01
       -1   -1    0    0    0  501  0.00000000000E+00  0.00000000000E+00  0.13326052604E+04  0.13326052604E+04  0.50400001928E-02 0.  1.
        1   -1    0    0  501    0  0.00000000000E+00  0.00000000000E+00 -0.54296487982E+03  0.54296487985E+03  0.50400001928E-02 0. -1.
    10030    2    1    2    0    0  0.00000000000E+00  0.00000000000E+00  0.78964038057E+03  0.18755701403E+04  0.17012440802E+04 0.  0.
        2    1    3    3  502    0 -0.72130053509E+03  0.13843958676E+03 -0.78238100946E+02  0.73862113533E+03  0.25500000920E-02 0.  1.
       -2    1    3    3    0  502  0.72130053509E+03 -0.13843958676E+03  0.86787848152E+03  0.11369490049E+04  0.25500000920E-02 0. -1.
</event>
<event>
 5   0  0.5652631E-05  0.1681393E+04  0.7818609E-02  0.8772048E-01
       -2   -1    0    0    0  501  0.00000000000E+00  0.00000000000E+00  0.40317853813E+03  0.40317853814E+03  0.25500000920E-02 0.  1.
        2   -1    0    0  501    0  0.00000000000E+00  0.00000000000E+00 -0.17529974894E+04  0.17529974894E+04  0.25500000920E-02 0. -1.
    10030    2    1    2    0    0  0.00000000000E+00  0.00000000000E+00 -0.13498189513E+04  0.21561760276E+04  0.16813934282E+04 0.  0.
        2    1    3    3  502    0  0.33373013455E+03  0.36684681356E+03 -0.15454316882E+04  0.16230562191E+04  0.25500000920E-02 0. -1.
       -2    1    3    3    0  502 -0.33373013455E+03 -0.36684681356E+03  0.19561273694E+03  0.53311980847E+03  0.25500000920E-02 0.  1.
</event>
<event>
 5   0  0.5821584E-05  0.1700546E+04  0.7818609E-02  0.8761053E-01
       -2   -1    0    0    0  501  0.00000000000E+00  0.00000000000E+00  0.72133765958E+03  0.72133765958E+03  0.25500000920E-02 0. -1.
        2   -1    0    0  501    0  0.00000000000E+00  0.00000000000E+00 -0.10022553158E+04  0.10022553158E+04  0.25500000920E-02 0.  1.
    10030    2    1    2    0    0  0.00000000000E+00  0.00000000000E+00 -0.28091765619E+03  0.17235929753E+04  0.17005463872E+04 0.  0.
        1    1    3    3  502    0 -0.68826461066E+03 -0.24599111121E+03 -0.58079424524E+03  0.93356400767E+03  0.50400001928E-02 0.  1.
       -1    1    3    3    0  502  0.68826461066E+03  0.24599111121E+03  0.29987658906E+03  0.79002896768E+03  0.50400001928E-02 0. -1.
</event>
<event>
 5   0  0.5671132E-05  0.1700962E+04  0.7818609E-02  0.8760816E-01
       -2   -1    0    0    0  501  0.00000000000E+00  0.00000000000E+00  0.10587308593E+04  0.10587308593E+04  0.25500000920E-02 0. -1.
        2   -1    0    0  501    0  0.00000000000E+00  0.00000000000E+00 -0.68319343054E+03  0.68319343055E+03  0.25500000920E-02 0.  1.
    10030    2    1    2    0    0  0.00000000000E+00  0.00000000000E+00  0.37553742880E+03  0.17419242899E+04  0.17009620429E+04 0.  0.
        3    1    3    3  502    0 -0.65199514043E+03 -0.42542760036E+03  0.53840519130E+03  0.94655505202E+03  0.10100000352E+00 0. -1.
       -3    1    3    3    0  502  0.65199514043E+03  0.42542760036E+03 -0.16286776250E+03  0.79536923787E+03  0.10100000352E+00 0.  1.
</event>
<event>
 5   0  0.5652631E-05  0.1699749E+04  0.7818609E-02  0.8761508E-01
        2   -1    0    0  501    0  0.00000000000E+00  0.00000000000E+00  0.14635147871E+04  0.14635147871E+04  0.25500000920E-02 0.  1.
       -2   -1    0    0    0  501  0.00000000000E+00  0.00000000000E+00 -0.49352863838E+03  0.49352863839E+03  0.25500000920E-02 0. -1.
    10030    2    1    2    0    0  0.00000000000E+00  0.00000000000E+00  0.96998614870E+03  0.19570434255E+04  0.16997487581E+04 0.  0.
        2    1    3    3  502    0 -0.34317538387E+03  0.74106854925E+03  0.21415244846E+03  0.84428266000E+03  0.25500000920E-02 0. -1.
       -2    1    3    3    0  502  0.34317538387E+03 -0.74106854925E+03  0.75583370024E+03  0.11127607655E+04  0.25500000920E-02 0.  1.
</event>
<event>
 5   0  0.2987859E-05  0.1698905E+04  0.7818609E-02  0.8761989E-01
       -1   -1    0    0    0  501  0.00000000000E+00  0.00000000000E+00  0.32979880386E+03  0.32979880390E+03  0.50400001928E-02 0. -1.
        1   -1    0    0  501    0  0.00000000000E+00  0.00000000000E+00 -0.21879095432E+04  0.21879095432E+04  0.50400001928E-02 0.  1.
    10030    2    1    2    0    0  0.00000000000E+00  0.00000000000E+00 -0.18581107393E+04  0.25177083471E+04  0.16989054716E+04 0.  0.
        5    1    3    3  502    0  0.81243684151E+03 -0.30055143587E+02 -0.12938429166E+04  0.15280734655E+04  0.46999998093E+01 0. -1.
       -5    1    3    3    0  502 -0.81243684151E+03  0.30055143587E+02 -0.56426782270E+03  0.98963488158E+03  0.46999998093E+01 0.  1.
</event>
<event>
 5   0  0.5755321E-05  0.1697091E+04  0.7818609E-02  0.8763025E-01
       -2   -1    0    0    0  501  0.00000000000E+00  0.00000000000E+00  0.12412968524E+04  0.12412968524E+04  0.25500000920E-02 0.  1.
        2   -1    0    0  501    0  0.00000000000E+00  0.00000000000E+00 -0.58006229217E+03  0.58006229218E+03  0.25500000920E-02 0. -1.
    10030    2    1    2    0    0  0.00000000000E+00  0.00000000000E+00  0.66123456027E+03  0.18213591446E+04  0.16970910376E+04 0.  0.
        4    1    3    3  502    0  0.75410230295E+03  0.38272204572E+03  0.25563402409E+03  0.88345730784E+03  0.12699999809E+01 0.  1.
       -4    1    3    3    0  502 -0.75410230295E+03 -0.38272204572E+03  0.40560053618E+03  0.93790183679E+03  0.12699999809E+01 0. -1.
</event>
<event>
 5   0  0.2993769E-05  0.1691406E+04  0.7818609E-02  0.8766281E-01
        1   -1    0    0  501    0  0.00000000000E+00  0.00000000000E+00  0.15707317784E+04  0.15707317784E+04  0.50400001928E-02 0.  1.
       -1   -1    0    0    0  501  0.00000000000E+00  0.00000000000E+00 -0.45533774116E+03  0.45533774119E+03  0.50400001928E-02 0. -1.
    10030    2    1    2    0    0  0.00000000000E+00  0.00000000000E+00  0.11153940373E+04  0.20260695196E+04  0.16914058768E+04 0.  0.
        3    1    3    3  502    0 -0.82206450613E+03 -0.11535865432E+03  0.75127590874E+03  0.11196040249E+04  0.10100000352E+00 0.  1.
       -3    1    3    3    0  502  0.82206450613E+03  0.11535865432E+03  0.36411812853E+03  0.90646549471E+03  0.10100000352E+00 0. -1.
</event>
<event>
 5   0  0.2911632E-05  0.1692062E+04  0.7818609E-02  0.8765905E-01
        1   -1    0    0  501    0  0.00000000000E+00  0.00000000000E+00  0.52167855969E+03  0.52167855972E+03  0.50400001928E-02 0.  1.
       -1   -1    0    0    0  501  0.00000000000E+00  0.00000000000E+00 -0.13720485702E+04  0.13720485702E+04  0.50400001928E-02 0. -1.
    10030    2    1    2    0    0  0.00000000000E+00  0.00000000000E+00 -0.85037001048E+03  0.18937271299E+04  0.16920618451E+04 0.  0.
        1    1    3    3  502    0 -0.12866568237E+03  0.80606846916E+03 -0.17626526604E+03  0.83508722828E+03  0.50400001928E-02 0. -1.
       -1    1    3    3    0  502  0.12866568237E+03 -0.80606846916E+03 -0.67410474443E+03  0.10586399016E+04  0.50400001928E-02 0.  1.
</event>
<event>
 5   0  0.5671132E-05  0.1690756E+04  0.7818609E-02  0.8766654E-01
        2   -1    0    0  501    0  0.00000000000E+00  0.00000000000E+00  0.13503877060E+04  0.13503877060E+04  0.25500000920E-02 0. -1.
       -2   -1    0    0    0  501  0.00000000000E+00  0.00000000000E+00 -0.52922895287E+03  0.52922895287E+03  0.25500000920E-02 0.  1.
    10030    2    1    2    0    0  0.00000000000E+00  0.00000000000E+00  0.82115875311E+03  0.18796166589E+04  0.16907563652E+04 0.  0.
        3    1    3    3  502    0 -0.29292105847E+03  0.73904014694E+03  0.90916960741E+02  0.80015560314E+03  0.10100000352E+00 0.  1.
       -3    1    3    3    0  502  0.29292105847E+03 -0.73904014694E+03  0.73024179237E+03  0.10794610557E+04  0.10100000352E+00 0. -1.
</event>
<event>
 5   0  0.2098250E-05  0.1700724E+04  0.7818609E-02  0.8760952E-01
        3   -1    0    0  501    0  0.00000000000E+00  0.00000000000E+00  0.13882373423E+04  0.13882373460E+04  0.10100000352E+00 0.  1.
       -3   -1    0    0    0  501  0.00000000000E+00  0.00000000000E+00 -0.52088750926E+03  0.52088751905E+03  0.10100000352E+00 0. -1.
    10030    2    1    2    0    0  0.00000000000E+00  0.00000000000E+00  0.86734983306E+03  0.19091248650E+04  0.17007239686E+04 0.  0.
        1    1    3    3  502    0  0.43219755333E+03  0.67741040110E+03  0.74604666935E+03  0.10964785495E+04  0.50400001928E-02 0.  1.
       -1    1    3    3    0  502 -0.43219755333E+03 -0.67741040110E+03  0.12130316370E+03  0.81264631555E+03  0.50400001928E-02 0. -1.
</event>
<event>
 5   0  0.2993769E-05  0.1701065E+04  0.7818609E-02  0.8760757E-01
       -1   -1    0    0    0  501  0.00000000000E+00  0.00000000000E+00  0.79977577570E+03  0.79977577572E+03  0.50400001928E-02 0.  1.
        1   -1    0    0  501    0  0.00000000000E+00  0.00000000000E+00 -0.90451005798E+03  0.90451005799E+03  0.50400001928E-02 0. -1.
    10030    2    1    2    0    0  0.00000000000E+00  0.00000000000E+00 -0.10473428228E+03  0.17042858337E+04  0.17010646470E+04 0.  0.
        3    1    3    3  502    0  0.46931297995E+02 -0.36972690497E+03 -0.81834394174E+03  0.89921485096E+03  0.10100000352E+00 0. -1.
       -3    1    3    3    0  502 -0.46931297995E+02  0.36972690497E+03  0.71360965947E+03  0.80507098276E+03  0.10100000352E+00 0.  1.
</event>
<event>
 5   0  0.2966258E-05  0.1697182E+04  0.7818609E-02  0.8762973E-01
       -1   -1    0    0    0  501  0.00000000000E+00  0.00000000000E+00  0.11842818629E+04  0.11842818630E+04  0.50400001928E-02 0.  1.
        1   -1    0    0  501    0  0.00000000000E+00  0.00000000000E+00 -0.60805357797E+03  0.60805357799E+03  0.50400001928E-02 0. -1.
    10030    2    1    2    0    0  0.00000000000E+00  0.00000000000E+00  0.57622828497E+03  0.17923354409E+04  0.16971821636E+04 0.  0.
        4    1    3    3  502    0  0.59921166059E+03 -0.18306693772E+03 -0.31628115805E+03  0.70185718042E+03  0.12699999809E+01 0. -1.
       -4    1    3    3    0  502 -0.59921166059E+03  0.18306693772E+03  0.89250944303E+03  0.10904782605E+04  0.12699999809E+01 0.  1.
</event>
<event>
 5   0  0.2987859E-05  0.1697836E+04  0.7818609E-02  0.8762600E-01
       -1   -1    0    0    0  501  0.00000000000E+00  0.00000000000E+00  0.74270851641E+03  0.74270851643E+03  0.50400001928E-02 0.  1.
        1   -1    0    0  501    0  0.00000000000E+00  0.00000000000E+00 -0.97031526401E+03  0.97031526402E+03  0.50400001928E-02 0. -1.
    10030    2    1    2    0    0  0.00000000000E+00  0.00000000000E+00 -0.22760674760E+03  0.17130237804E+04  0.16978355753E+04 0.  0.
        5    1    3    3  502    0  0.16753179464E+03  0.32944646455E+03 -0.88486325822E+03  0.95896139180E+03  0.46999998093E+01 0. -1.
       -5    1    3    3    0  502 -0.16753179464E+03 -0.32944646455E+03  0.65725651062E+03  0.75406238865E+03  0.46999998093E+01 0.  1.
</event>
<event>
 5   0  0.2966258E-05  0.1696201E+04  0.7818609E-02  0.8763534E-01
       -1   -1    0    0    0  501  0.00000000000E+00  0.00000000000E+00  0.76801444644E+03  0.76801444646E+03  0.50400001928E-02 0.  1.
        1   -1    0    0  501    0  0.00000000000E+00  0.00000000000E+00 -0.93653714979E+03  0.93653714980E+03  0.50400001928E-02 0. -1.
    10030    2    1    2    0    0  0.00000000000E+00  0.00000000000E+00 -0.16852270335E+03  0.17045515963E+04  0.16962005314E+04 0.  0.
        4    1    3    3  502    0 -0.24013184860E+02 -0.84436853563E+03 -0.81415335755E+01  0.84475011363E+03  0.12699999809E+01 0.  1.
       -4    1    3    3    0  502  0.24013184860E+02  0.84436853563E+03 -0.16038116977E+03  0.85980148263E+03  0.12699999809E+01 0. -1.
</event>
<event>
 5   0  0.5671132E-05  0.1704683E+04  0.7818609E-02  0.8758698E-01
       -2   -1    0    0    0  501  0.00000000000E+00  0.00000000000E+00  0.13605996118E+04  0.13605996118E+04  0.25500000920E-02 0.  1.
        2   -1    0    0  501    0  0.00000000000E+00  0.00000000000E+00 -0.53394565391E+03  0.53394565391E+03  0.25500000920E-02 0. -1.
    10030    2    1    2    0    0  0.00000000000E+00  0.00000000000E+00  0.82665395793E+03  0.18945452658E+04  0.17046832544E+04 0.  0.
        3    1    3    3  502    0  0.38541107726E+03  0.20860024695E+03 -0.39914220914E+03  0.59276494061E+03  0.10100000352E+00 0. -1.
       -3    1    3    3    0  502 -0.38541107726E+03 -0.20860024695E+03  0.12257961671E+04  0.13017803251E+04  0.10100000352E+00 0.  1.
</event>
<event>
 5   0  0.2911632E-05  0.1700602E+04  0.7818609E-02  0.8761021E-01
       -1   -1    0    0    0  501  0.00000000000E+00  0.00000000000E+00  0.11180944922E+04  0.11180944922E+04  0.50400001928E-02 0. -1.
        1   -1    0    0  501    0  0.00000000000E+00  0.00000000000E+00 -0.64664678906E+03  0.64664678908E+03  0.50400001928E-02 0.  1.
    10030    2    1    2    0    0  0.00000000000E+00  0.00000000000E+00  0.47144770315E+03  0.17647412813E+04  0.17006024971E+04 0.  0.
        1    1    3    3  502    0  0.63350877136E+03  0.22130746458E+03  0.77762775505E+03  0.10271393687E+04  0.50400001928E-02 0. -1.
       -1    1    3    3    0  502 -0.63350877136E+03 -0.22130746458E+03 -0.30618005190E+03  0.73760191260E+03  0.50400001928E-02 0.  1.
</event>
<event>
 5   0  0.5671132E-05  0.1697187E+04  0.7818609E-02  0.8762970E-01
       -2   -1    0    0    0  501  0.00000000000E+00  0.00000000000E+00  0.73603212332E+03  0.73603212332E+03  0.25500000920E-02 0. -1.
        2   -1    0    0  501    0  0.00000000000E+00  0.00000000000E+00 -0.97836899332E+03  0.97836899332E+03  0.25500000920E-02 0.  1.
    10030    2    1    2    0    0  0.00000000000E+00  0.00000000000E+00 -0.24233687000E+03  0.17144011166E+04  0.16971870935E+04 0.  0.
        3    1    3    3  502    0 -0.17810926883E+03 -0.17921688520E+02 -0.95907974637E+03  0.97564238769E+03  0.10100000352E+00 0.  1.
       -3    1    3    3    0  502  0.17810926883E+03  0.17921688520E+02  0.71674287637E+03  0.73875872895E+03  0.10100000352E+00 0. -1.
</event>
<event>
 5   0  0.5755321E-05  0.1702831E+04  0.7818609E-02  0.8759752E-01
       -2   -1    0    0    0  501  0.00000000000E+00  0.00000000000E+00  0.10814381836E+04  0.10814381836E+04  0.25500000920E-02 0. -1.
        2   -1    0    0  501    0  0.00000000000E+00  0.00000000000E+00 -0.67031845905E+03  0.67031845905E+03  0.25500000920E-02 0.  1.
    10030    2    1    2    0    0  0.00000000000E+00  0.00000000000E+00  0.41111972455E+03  0.17517566426E+04  0.17028305574E+04 0.  0.
        4    1    3    3  502    0  0.44674930050E+03 -0.60273866948E+03 -0.20853203637E+03  0.77869510354E+03  0.12699999809E+01 0.  1.
       -4    1    3    3    0  502 -0.44674930050E+03  0.60273866948E+03  0.61965176091E+03  0.97306153911E+03  0.12699999809E+01 0. -1.
</event>
<event>
 5   0  0.2966258E-05  0.1707360E+04  0.7818609E-02  0.8757178E-01
        1   -1    0    0  501    0  0.00000000000E+00  0.00000000000E+00  0.19506329193E+04  0.19506329193E+04  0.50400001928E-02 0. -1.
       -1   -1    0    0    0  501  0.00000000000E+00  0.00000000000E+00 -0.37360676993E+03  0.37360676996E+03  0.50400001928E-02 0.  1.
    10030    2    1    2    0    0  0.00000000000E+00  0.00000000000E+00  0.15770261493E+04  0.23242396892E+04  0.17073601428E+04 0.  0.
        4    1    3    3  502    0 -0.40697741176E+03  0.74543434241E+03  0.90613085398E+03  0.12419250017E+04  0.12699999809E+01 0. -1.
       -4    1    3    3    0  502  0.40697741176E+03 -0.74543434241E+03  0.67089529535E+03  0.10823146875E+04  0.12699999809E+01 0.  1.
</event>
<event>
 5   0  0.2911632E-05  0.1688411E+04  0.7818609E-02  0.8768002E-01
        1   -1    0    0  501    0  0.00000000000E+00  0.00000000000E+00  0.47331845090E+03  0.47331845093E+03  0.50400001928E-02 0.  1.
       -1   -1    0    0    0  501  0.00000000000E+00  0.00000000000E+00 -0.15057149280E+04  0.15057149280E+04  0.50400001928E-02 0. -1.
    10030    2    1    2    0    0  0.00000000000E+00  0.00000000000E+00 -0.10323964771E+04  0.19790333789E+04  0.16884106814E+04 0.  0.
        1    1    3    3  502    0  0.54020819889E+03 -0.52545255890E+03 -0.70238793423E+02  0.75687434752E+03  0.50400001928E-02 0.  1.
       -1    1    3    3    0  502 -0.54020819889E+03  0.52545255890E+03 -0.96215768367E+03  0.12221590314E+04  0.50400001928E-02 0. -1.
</event>
<event>
 5   0  0.5652631E-05  0.1701987E+04  0.7818609E-02  0.8760232E-01
       -2   -1    0    0    0  501  0.00000000000E+00  0.00000000000E+00  0.30648304538E+03  0.30648304539E+03  0.25500000920E-02 0. -1.
        2   -1    0    0  501    0  0.00000000000E+00  0.00000000000E+00 -0.23629033405E+04  0.23629033405E+04  0.25500000920E-02 0.  1.
    10030    2    1    2    0    0  0.00000000000E+00  0.00000000000E+00 -0.20564202951E+04  0.26693863859E+04  0.17019868528E+04 0.  0.
        2    1    3    3  502    0 -0.41000272154E+03 -0.35867590087E+03 -0.28122956523E+01  0.54475548877E+03  0.25500000920E-02 0. -1.
       -2    1    3    3    0  502  0.41000272154E+03  0.35867590087E+03 -0.20536079994E+04  0.21246308971E+04  0.25500000920E-02 0.  1.
</event>
<event>
 5   0  0.5671132E-05  0.1697957E+04  0.7818609E-02  0.8762531E-01
       -2   -1    0    0    0  501  0.00000000000E+00  0.00000000000E+00  0.29976273337E+03  0.29976273338E+03  0.25500000920E-02 0.  1.
        2   -1    0    0  501    0  0.00000000000E+00  0.00000000000E+00 -0.24044487390E+04  0.24044487390E+04  0.25500000920E-02 0. -1.
    10030    2    1    2    0    0  0.00000000000E+00  0.00000000000E+00 -0.21046860057E+04  0.27042114724E+04  0.16979565675E+04 0.  0.
        3    1    3    3  502    0  0.28679497611E+03 -0.79237771012E+03 -0.88798326187E+03  0.12241846582E+04  0.10100000352E+00 0.  1.
       -3    1    3    3    0  502 -0.28679497611E+03  0.79237771012E+03 -0.12167027438E+04  0.14800268142E+04  0.10100000352E+00 0. -1.
</event>
<event>
 5   0  0.2966258E-05  0.1689451E+04  0.7818609E-02  0.8767404E-01
       -1   -1    0    0    0  501  0.00000000000E+00  0.00000000000E+00  0.95771316457E+03  0.95771316458E+03  0.50400001928E-02 0. -1.
        1   -1    0    0  501    0  0.00000000000E+00  0.00000000000E+00 -0.74506752631E+03  0.74506752632E+03  0.50400001928E-02 0.  1.
    10030    2    1    2    0    0  0.00000000000E+00  0.00000000000E+00  0.21264563826E+03  0.17027806909E+04  0.16894507728E+04 0.  0.
        4    1    3    3  502    0 -0.60110244075E+03  0.25008621994E+03  0.64880003670E+03  0.91913566039E+03  0.12699999809E+01 0. -1.
       -4    1    3    3    0  502  0.60110244075E+03 -0.25008621994E+03 -0.43615439844E+03  0.78364503052E+03  0.12699999809E+01 0.  1.
</event>
<event>
 5   0  0.2967704E-05  0.1695625E+04  0.7818609E-02  0.8763863E-01
        1   -1    0    0  501    0  0.00000000000E+00  0.00000000000E+00  0.10233667769E+04  0.10233667769E+04  0.50400001928E-02 0. -1.
       -1   -1    0    0    0  501  0.00000000000E+00  0.00000000000E+00 -0.70237394951E+03  0.70237394953E+03  0.50400001928E-02 0.  1.
    10030    2    1    2    0    0  0.00000000000E+00  0.00000000000E+00  0.32099282735E+03  0.17257407264E+04  0.16956251530E+04 0.  0.
        2    1    3    3  502    0 -0.75937219123E+03 -0.25271416016E+03 -0.12425040597E+03  0.80990662113E+03  0.25500000920E-02 0.  1.
       -2    1    3    3    0  502  0.75937219123E+03  0.25271416016E+03  0.44524323333E+03  0.91583410527E+03  0.25500000920E-02 0. -1.
</event>
<event>
 5   0  0.2911632E-05  0.1702844E+04  0.7818609E-02  0.8759744E-01
        1   -1    0    0  501    0  0.00000000000E+00  0.00000000000E+00  0.96156457638E+03  0.96156457639E+03  0.50400001928E-02 0.  1.
       -1   -1    0    0    0  501  0.00000000000E+00  0.00000000000E+00 -0.75389586962E+03  0.75389586963E+03  0.50400001928E-02 0. -1.
    10030    2    1    2    0    0  0.00000000000E+00  0.00000000000E+00  0.20766870676E+03  0.17154604460E+04  0.17028441649E+04 0.  0.
        1    1    3    3  502    0 -0.42824459282E+03  0.25959019703E+03 -0.58984484426E+03  0.77375541484E+03  0.50400001928E-02 0. -1.
       -1    1    3    3    0  502  0.42824459282E+03 -0.25959019703E+03  0.79751355102E+03  0.94170503118E+03  0.50400001928E-02 0.  1.
</event>
<event>
 5   0  0.5652631E-05  0.1701039E+04  0.7818609E-02  0.8760772E-01
       -2   -1    0    0    0  501  0.00000000000E+00  0.00000000000E+00  0.84790909578E+03  0.84790909579E+03  0.25500000920E-02 0.  1.
        2   -1    0    0  501    0  0.00000000000E+00  0.00000000000E+00 -0.85313769478E+03  0.85313769478E+03  0.25500000920E-02 0. -1.
    10030    2    1    2    0    0  0.00000000000E+00  0.00000000000E+00 -0.52285989926E+01  0.17010467906E+04  0.17010387548E+04 0.  0.
        2    1    3    3  502    0 -0.36127824668E+03 -0.12754123286E+03 -0.76195606803E+03  0.85285742491E+03  0.25500000920E-02 0. -1.
       -2    1    3    3    0  502  0.36127824668E+03  0.12754123286E+03  0.75672746904E+03  0.84818936566E+03  0.25500000920E-02 0.  1.
</event>
<event>
 5   0  0.2987859E-05  0.1700174E+04  0.7818609E-02  0.8761265E-01
        1   -1    0    0  501    0  0.00000000000E+00  0.00000000000E+00  0.73271278278E+03  0.73271278280E+03  0.50400001928E-02 0. -1.
       -1   -1    0    0    0  501  0.00000000000E+00  0.00000000000E+00 -0.98626325880E+03  0.98626325882E+03  0.50400001928E-02 0.  1.
    10030    2    1    2    0    0  0.00000000000E+00  0.00000000000E+00 -0.25355047602E+03  0.17189760416E+04  0.17001737522E+04 0.  0.
        5    1    3    3  502    0 -0.73202113213E+03 -0.36291472176E+03  0.11047612387E+03  0.82449323654E+03  0.46999998093E+01 0. -1.
       -5    1    3    3    0  502  0.73202113213E+03  0.36291472176E+03 -0.36402659990E+03  0.89448280508E+03  0.46999998093E+01 0.  1.
</event>
<event>
 5   0  0.2993769E-05  0.1703339E+04  0.7818609E-02  0.8759462E-01
        1   -1    0    0  501    0  0.00000000000E+00  0.00000000000E+00  0.14641353476E+04  0.14641353476E+04  0.50400001928E-02 0. -1.
       -1   -1    0    0    0  501  0.00000000000E+00  0.00000000000E+00 -0.49540583049E+03  0.49540583051E+03  0.50400001928E-02 0.  1.
    10030    2    1    2    0    0  0.00000000000E+00  0.00000000000E+00  0.96872951714E+03  0.19595411781E+04  0.17033392943E+04 0.  0.
        3    1    3    3  502    0 -0.55541990009E+03 -0.35939989741E+03 -0.13266951994E+03  0.67473014116E+03  0.10100000352E+00 0.  1.
       -3    1    3    3    0  502  0.55541990009E+03  0.35939989741E+03  0.11013990371E+04  0.12848110370E+04  0.10100000352E+00 0. -1.
</event>
<event>
 5   0  0.5671132E-05  0.1698766E+04  0.7818609E-02  0.8762069E-01
        2   -1    0    0  501    0  0.00000000000E+00  0.00000000000E+00  0.13233084902E+04  0.13233084902E+04  0.25500000920E-02 0. -1.
       -2   -1    0    0    0  501  0.00000000000E+00  0.00000000000E+00 -0.54518754319E+03  0.54518754320E+03  0.25500000920E-02 0.  1.
    10030    2    1    2    0    0  0.00000000000E+00  0.00000000000E+00  0.77812094703E+03  0.18684960334E+04  0.16987657928E+04 0.  0.
        3    1    3    3  502    0  0.28433031997E+03 -0.17548651635E+03  0.12479882998E+04  0.12919419704E+04  0.10100000352E+00 0. -1.
       -3    1    3    3    0  502 -0.28433031997E+03  0.17548651635E+03 -0.46986735272E+03  0.57655406306E+03  0.10100000352E+00 0.  1.
</event>
<event>
 5   0  0.5671132E-05  0.1701663E+04  0.7818609E-02  0.8760416E-01
       -2   -1    0    0    0  501  0.00000000000E+00  0.00000000000E+00  0.99643129062E+03  0.99643129062E+03  0.25500000920E-02 0.  1.
        2   -1    0    0  501    0  0.00000000000E+00  0.00000000000E+00 -0.72650687614E+03  0.72650687615E+03  0.25500000920E-02 0. -1.
    10030    2    1    2    0    0  0.00000000000E+00  0.00000000000E+00  0.26992441448E+03  0.17229381668E+04  0.17016629328E+04 0.  0.
        3    1    3    3  502    0 -0.81297236389E+03 -0.24121284966E+03  0.64766701870E+02  0.85047189204E+03  0.10100000352E+00 0.  1.
       -3    1    3    3    0  502  0.81297236389E+03  0.24121284966E+03  0.20515771261E+03  0.87246627472E+03  0.10100000352E+00 0. -1.
</event>
<event>
 5   0  0.2911632E-05  0.1704030E+04  0.7818609E-02  0.8759069E-01
        1   -1    0    0  501    0  0.00000000000E+00  0.00000000000E+00  0.12803289449E+04  0.12803289449E+04  0.50400001928E-02 0.  1.
       -1   -1    0    0    0  501  0.00000000000E+00  0.00000000000E+00 -0.56698697255E+03  0.56698697257E+03  0.50400001928E-02 0. -1.
    10030    2    1    2    0    0  0.00000000000E+00  0.00000000000E+00  0.71334197236E+03  0.18473159175E+04  0.17040303194E+04 0.  0.
        1    1    3    3  502    0 -0.14233103417E+03 -0.40039302010E+02  0.12663147182E+04  0.12749173442E+04  0.50400001928E-02 0.  1.
       -1    1    3    3    0  502  0.14233103417E+03  0.40039302010E+02 -0.55297274586E+03  0.57239857327E+03  0.50400001928E-02 0. -1.
</event>
<event>
 5   0  0.5821584E-05  0.1693886E+04  0.7818609E-02  0.8764859E-01
       -2   -1    0    0    0  501  0.00000000000E+00  0.00000000000E+00  0.10210083336E+04  0.10210083336E+04  0.25500000920E-02 0.  1.
        2   -1    0    0  501    0  0.00000000000E+00  0.00000000000E+00 -0.70255324031E+03  0.70255324031E+03  0.25500000920E-02 0. -1.
    10030    2    1    2    0    0  0.00000000000E+00  0.00000000000E+00  0.31845509331E+03  0.17235615739E+04  0.16938863163E+04 0.  0.
        1    1    3    3  502    0 -0.31436067916E+03  0.48865739491E+03  0.78622408769E+03  0.97762825363E+03  0.50400001928E-02 0.  1.
       -1    1    3    3    0  502  0.31436067916E+03 -0.48865739491E+03 -0.46776899438E+03  0.74593332030E+03  0.50400001928E-02 0. -1.
</event>
<event>
 5   0  0.2967704E-05  0.1698324E+04  0.7818609E-02  0.8762321E-01
       -1   -1    0    0    0  501  0.00000000000E+00  0.00000000000E+00  0.56926931148E+03  0.56926931150E+03  0.50400001928E-02 0. -1.
        1   -1    0    0  501    0  0.00000000000E+00  0.00000000000E+00 -0.12666698177E+04  0.12666698177E+04  0.50400001928E-02 0.  1.
    10030    2    1    2    0    0  0.00000000000E+00  0.00000000000E+00 -0.69740050621E+03  0.18359391292E+04  0.16983241799E+04 0.  0.
        2    1    3    3  502    0 -0.23088840938E+03 -0.65679580077E+03 -0.87429211067E+03  0.11176210790E+04  0.25500000920E-02 0.  1.
       -2    1    3    3    0  502  0.23088840938E+03  0.65679580077E+03  0.17689160446E+03  0.71831805019E+03  0.25500000920E-02 0. -1.
</event>
<event>
 5   0  0.2911632E-05  0.1701071E+04  0.7818609E-02  0.8760754E-01
       -1   -1    0    0    0  501  0.00000000000E+00  0.00000000000E+00  0.40676901456E+03  0.40676901460E+03  0.50400001928E-02 0.  1.
        1   -1    0    0  501    0  0.00000000000E+00  0.00000000000E+00 -0.17784309339E+04  0.17784309339E+04  0.50400001928E-02 0. -1.
    10030    2    1    2    0    0  0.00000000000E+00  0.00000000000E+00 -0.13716619193E+04  0.21851999485E+04  0.17010709550E+04 0.  0.
        1    1    3    3  502    0 -0.10465152740E+03 -0.74060208615E+03 -0.12060032947E+04  0.14191149844E+04  0.50400001928E-02 0. -1.
       -1    1    3    3    0  502  0.10465152740E+03  0.74060208615E+03 -0.16565862460E+03  0.76608496404E+03  0.50400001928E-02 0.  1.
</event>
<event>
 5   0  0.2098250E-05  0.1697255E+04  0.7818609E-02  0.8762931E-01
       -4   -1    0    0    0  501  0.00000000000E+00  0.00000000000E+00  0.77299860019E+03  0.77299964346E+03  0.12699999809E+01 0. -1.
        4   -1    0    0  501    0  0.00000000000E+00  0.00000000000E+00 -0.93165387318E+03  0.93165473879E+03  0.12699999809E+01 0.  1.
    10030    2    1    2    0    0  0.00000000000E+00  0.00000000000E+00 -0.15865527299E+03  0.17046543823E+04  0.16972551568E+04 0.  0.
        3    1    3    3  502    0 -0.50434611118E+03 -0.68085234630E+03 -0.12690332447E+03  0.85675514664E+03  0.10100000352E+00 0.  1.
       -3    1    3    3    0  502  0.50434611118E+03  0.68085234630E+03 -0.31751948517E+02  0.84789923562E+03  0.10100000352E+00 0. -1.
</event>
<event>
 5   0  0.5821584E-05  0.1702317E+04  0.7818609E-02  0.8760044E-01
        2   -1    0    0  501    0  0.00000000000E+00  0.00000000000E+00  0.13739558413E+04  0.13739558413E+04  0.25500000920E-02 0.  1.
       -2   -1    0    0    0  501  0.00000000000E+00  0.00000000000E+00 -0.52728855449E+03  0.52728855449E+03  0.25500000920E-02 0. -1.
    10030    2    1    2    0    0  0.00000000000E+00  0.00000000000E+00  0.84666728678E+03  0.19012443958E+04  0.17023174668E+04 0.  0.
        1    1    3    3  502    0  0.64469828755E+03 -0.40633697205E+03  0.84674686511E+03  0.11391777168E+04  0.50400001928E-02 0.  1.
       -1    1    3    3    0  502 -0.64469828755E+03  0.40633697205E+03 -0.79578338722E-01  0.76206667897E+03  0.50400001928E-02 0. -1.
</event>
<event>
 5   0  0.2966258E-05  0.1700544E+04  0.7818609E-02  0.8761054E-01
        1   -1    0    0  501    0  0.00000000000E+00  0.00000000000E+00  0.75877113014E+03  0.75877113015E+03  0.50400001928E-02 0. -1.
       -1   -1    0    0    0  501  0.00000000000E+00  0.00000000000E+00 -0.95280740802E+03  0.95280740803E+03  0.50400001928E-02 0.  1.
    10030    2    1    2    0    0  0.00000000000E+00  0.00000000000E+00 -0.19403627788E+03  0.17115785382E+04  0.17005443291E+04 0.  0.
        4    1    3    3  502    0  0.49315988571E+02 -0.14777493226E+03 -0.93831961184E+03  0.95116497213E+03  0.12699999809E+01 0.  1.
       -4    1    3    3    0  502 -0.49315988571E+02  0.14777493226E+03  0.74428333396E+03  0.76041356606E+03  0.12699999809E+01 0. -1.
</event>
<event>
 5   0  0.2967704E-05  0.1698623E+04  0.7818609E-02  0.8762150E-01
        1   -1    0    0  501    0  0.00000000000E+00  0.00000000000E+00  0.80656381455E+03  0.80656381456E+03  0.50400001928E-02 0.  1.
       -1   -1    0    0    0  501  0.00000000000E+00  0.00000000000E+00 -0.89432497350E+03  0.89432497352E+03  0.50400001928E-02 0. -1.
    10030    2    1    2    0    0  0.00000000000E+00  0.00000000000E+00 -0.87761158959E+02  0.17008887881E+04  0.16986231626E+04 0.  0.
        2    1    3    3  502    0 -0.73491904143E+03  0.36703106030E+03  0.17207433399E+03  0.83930171756E+03  0.25500000920E-02 0.  1.
       -2    1    3    3    0  502  0.73491904143E+03 -0.36703106030E+03 -0.25983549295E+03  0.86158707052E+03  0.25500000920E-02 0. -1.
</event>
<event>
 5   0  0.5652631E-05  0.1703178E+04  0.7818609E-02  0.8759554E-01
        2   -1    0    0  501    0  0.00000000000E+00  0.00000000000E+00  0.18594992104E+04  0.18594992104E+04  0.25500000920E-02 0. -1.
       -2   -1    0    0    0  501  0.00000000000E+00  0.00000000000E+00 -0.38999944544E+03  0.38999944545E+03  0.25500000920E-02 0.  1.
    10030    2    1    2    0    0  0.00000000000E+00  0.00000000000E+00  0.14694997650E+04  0.22494986558E+04  0.17031778074E+04 0.  0.
        2    1    3    3  502    0  0.37270151213E+03  0.34101022124E+03 -0.17073032464E+03  0.53323843812E+03  0.25500000920E-02 0.  1.
       -2    1    3    3    0  502 -0.37270151213E+03 -0.34101022124E+03  0.16402300896E+04  0.17162602177E+04  0.25500000920E-02 0. -1.
</event>
<event>
 5   0  0.2993769E-05  0.1703289E+04  0.7818609E-02  0.8759491E-01
       -1   -1    0    0    0  501  0.00000000000E+00  0.00000000000E+00  0.58809954009E+03  0.58809954011E+03  0.50400001928E-02 0. -1.
        1   -1    0    0  501    0  0.00000000000E+00  0.00000000000E+00 -0.12332917212E+04  0.12332917212E+04  0.50400001928E-02 0.  1.
    10030    2    1    2    0    0  0.00000000000E+00  0.00000000000E+00 -0.64519218112E+03  0.18213912613E+04  0.17032889292E+04 0.  0.
        3    1    3    3  502    0 -0.49207636503E+03  0.69276751610E+03 -0.26180065279E+03  0.88916003755E+03  0.10100000352E+00 0.  1.
       -3    1    3    3    0  502  0.49207636503E+03 -0.69276751610E+03 -0.38339152833E+03  0.93223122377E+03  0.10100000352E+00 0. -1.
</event>
<event>
 5   0  0.5859822E-05  0.1697798E+04  0.7818609E-02  0.8762621E-01
        2   -1    0    0  501    0  0.00000000000E+00  0.00000000000E+00  0.30884984100E+04  0.30884984100E+04  0.25500000920E-02 0.  1.
       -2   -1    0    0    0  501  0.00000000000E+00  0.00000000000E+00 -0.23332685875E+03  0.23332685876E+03  0.25500000920E-02 0. -1.
    10030    2    1    2    0    0  0.00000000000E+00  0.00000000000E+00  0.28551715513E+04  0.33218252688E+04  0.16977981414E+04 0.  0.
        5    1    3    3  502    0 -0.18732059595E+03 -0.46894220691E+03  0.27626516441E+04  0.28084269611E+04  0.46999998093E+01 0.  1.
       -5    1    3    3    0  502  0.18732059595E+03  0.46894220691E+03  0.92519907138E+02  0.51339830766E+03  0.46999998093E+01 0. -1.
</event>
<event>
 5   0  0.2993769E-05  0.1701167E+04  0.7818609E-02  0.8760699E-01
        1   -1    0    0  501    0  0.00000000000E+00  0.00000000000E+00  0.19844313954E+04  0.19844313954E+04  0.50400001928E-02 0. -1.
       -1   -1    0    0    0  501  0.00000000000E+00  0.00000000000E+00 -0.36458413511E+03  0.36458413515E+03  0.50400001928E-02 0.  1.
    10030    2    1    2    0    0  0.00000000000E+00  0.00000000000E+00  0.16198472603E+04  0.23490155306E+04  0.17011668984E+04 0.  0.
        3    1    3    3  502    0 -0.27104104121E+03  0.28414548790E+02  0.19225143469E+04  0.19417342910E+04  0.10100000352E+00 0. -1.
       -3    1    3    3    0  502  0.27104104121E+03 -0.28414548790E+02 -0.30266708659E+03  0.40728123958E+03  0.10100000352E+00 0.  1.
</event>
<event>
 5   0  0.5652631E-05  0.1698306E+04  0.7818609E-02  0.8762331E-01
       -2   -1    0    0    0  501  0.00000000000E+00  0.00000000000E+00  0.50115226382E+03  0.50115226383E+03  0.25500000920E-02 0.  1.
        2   -1    0    0  501    0  0.00000000000E+00  0.00000000000E+00 -0.14388067088E+04  0.14388067088E+04  0.25500000920E-02 0. -1.
    10030    2    1    2    0    0  0.00000000000E+00  0.00000000000E+00 -0.93765444495E+03  0.19399589726E+04  0.16983064969E+04 0.  0.
        2    1    3    3  502    0 -0.42232176337E+03 -0.18827530893E+03  0.34473526661E+03  0.57675442592E+03  0.25500000920E-02 0.  1.
       -2    1    3    3    0  502  0.42232176337E+03  0.18827530893E+03 -0.12823897116E+04  0.13632045467E+04  0.25500000920E-02 0. -1.
</event>
<event>
 5   0  0.5652631E-05  0.1696689E+04  0.7818609E-02  0.8763255E-01
        2   -1    0    0  501    0  0.00000000000E+00  0.00000000000E+00  0.22769914011E+04  0.22769914011E+04  0.25500000920E-02 0.  1.
       -2   -1    0    0    0  501  0.00000000000E+00  0.00000000000E+00 -0.31607001300E+03  0.31607001301E+03  0.25500000920E-02 0. -1.
    10030    2    1    2    0    0  0.00000000000E+00  0.00000000000E+00  0.19609213881E+04  0.25930614141E+04  0.16966893667E+04 0.  0.
        2    1    3    3  502    0 -0.12475262436E+03 -0.24874463917E+03 -0.24433332897E+03  0.37031863098E+03  0.25500000920E-02 0. -1.
       -2    1    3    3    0  502  0.12475262436E+03  0.24874463917E+03  0.22052547171E+04  0.22227427831E+04  0.25500000920E-02 0.  1.
</event>
<event>
 5   0  0.2911632E-05  0.1702376E+04  0.7818609E-02  0.8760010E-01
       -1   -1    0    0    0  501  0.00000000000E+00  0.00000000000E+00  0.11652771428E+04  0.11652771428E+04  0.50400001928E-02 0. -1.
        1   -1    0    0  501    0  0.00000000000E+00  0.00000000000E+00 -0.62175851463E+03  0.62175851465E+03  0.50400001928E-02 0.  1.
    10030    2    1    2    0    0  0.00000000000E+00  0.00000000000E+00  0.54351862820E+03  0.17870356575E+04  0.17023759696E+04 0.  0.
        1    1    3    3  502    0  0.52731934056E+03 -0.57195041589E+03 -0.90858349866E+02  0.78322934376E+03  0.50400001928E-02 0.  1.
       -1    1    3    3    0  502 -0.52731934056E+03  0.57195041589E+03  0.63437697807E+03  0.10038063137E+04  0.50400001928E-02 0. -1.
</event>
<event>
 5   0  0.5671132E-05  0.1698416E+04  0.7818609E-02  0.8762268E-01
        2   -1    0    0  501    0  0.00000000000E+00  0.00000000000E+00  0.21949526521E+04  0.21949526521E+04  0.25500000920E-02 0.  1.
       -2   -1    0    0    0  501  0.00000000000E+00  0.00000000000E+00 -0.32855105780E+03  0.32855105781E+03  0.25500000920E-02 0. -1.
    10030    2    1    2    0    0  0.00000000000E+00  0.00000000000E+00  0.18664015943E+04  0.25235037099E+04  0.16984157509E+04 0.  0.
        3    1    3    3  502    0 -0.41486558212E+03  0.57084096418E+03  0.16351225349E+04  0.17808982486E+04  0.10100000352E+00 0.  1.
       -3    1    3    3    0  502  0.41486558212E+03 -0.57084096418E+03  0.23127905939E+03  0.74260546129E+03  0.10100000352E+00 0. -1.
</event>
<event>
 5   0  0.5652631E-05  0.1710813E+04  0.7818609E-02  0.8755221E-01
        2   -1    0    0  501    0  0.00000000000E+00  0.00000000000E+00  0.90336253970E+03  0.90336253970E+03  0.25500000920E-02 0. -1.
       -2   -1    0    0    0  501  0.00000000000E+00  0.00000000000E+00 -0.80999610203E+03  0.80999610203E+03  0.25500000920E-02 0.  1.
    10030    2    1    2    0    0  0.00000000000E+00  0.00000000000E+00  0.93366437672E+02  0.17133586417E+04  0.17108128312E+04 0.  0.
        2    1    3    3  502    0  0.65671045047E+03  0.42195133523E+03 -0.30370680265E+03  0.83758543865E+03  0.25500000920E-02 0.  1.
       -2    1    3    3    0  502 -0.65671045047E+03 -0.42195133523E+03  0.39707324032E+03  0.87577320309E+03  0.25500000920E-02 0. -1.
</event>
<event>
 5   0  0.2993769E-05  0.1698684E+04  0.7818609E-02  0.8762115E-01
       -1   -1    0    0    0  501  0.00000000000E+00  0.00000000000E+00  0.24257075606E+03  0.24257075611E+03  0.50400001928E-02 0. -1.
        1   -1    0    0  501    0  0.00000000000E+00  0.00000000000E+00 -0.29739043083E+04  0.29739043083E+04  0.50400001928E-02 0.  1.
    10030    2    1    2    0    0  0.00000000000E+00  0.00000000000E+00 -0.27313335523E+04  0.32164750645E+04  0.16986844517E+04 0.  0.
        3    1    3    3  502    0  0.79139966858E+03 -0.29540296544E+03 -0.11983737534E+04  0.14661773462E+04  0.10100000352E+00 0. -1.
       -3    1    3    3    0  502 -0.79139966858E+03  0.29540296544E+03 -0.15329597989E+04  0.17502977183E+04  0.10100000352E+00 0.  1.
</event>
<event>
 5   0  0.2993769E-05  0.1701228E+04  0.7818609E-02  0.8760664E-01
        1   -1    0    0  501    0  0.00000000000E+00  0.00000000000E+00  0.19616525214E+04  0.19616525214E+04  0.50400001928E-02 0. -1.
       -1   -1    0    0    0  501  0.00000000000E+00  0.00000000000E+00 -0.36884428300E+03  0.36884428303E+03  0.50400001928E-02 0.  1.
    10030    2    1    2    0    0  0.00000000000E+00  0.00000000000E+00  0.15928082384E+04  0.23304968044E+04  0.17012281655E+04 0.  0.
        3    1    3    3  502    0  0.76346980829E+03  0.22714178942E+03  0.38757773547E+03  0.88583071289E+03  0.10100000352E+00 0.  1.
       -3    1    3    3    0  502 -0.76346980829E+03 -0.22714178942E+03  0.12052305029E+04  0.14446660915E+04  0.10100000352E+00 0. -1.
</event>
<event>
 5   0  0.2966258E-05  0.1701169E+04  0.7818609E-02  0.8760698E-01
        1   -1    0    0  501    0  0.00000000000E+00  0.00000000000E+00  0.11217387789E+04  0.11217387789E+04  0.50400001928E-02 0. -1.
       -1   -1    0    0    0  501  0.00000000000E+00  0.00000000000E+00 -0.64497512130E+03  0.64497512132E+03  0.50400001928E-02 0.  1.
    10030    2    1    2    0    0  0.00000000000E+00  0.00000000000E+00  0.47676365763E+03  0.17667139003E+04  0.17011685455E+04 0.  0.
        4    1    3    3  502    0  0.20359993290E+03  0.11757565266E+03  0.10873218356E+04  0.11124510568E+04  0.12699999809E+01 0. -1.
       -4    1    3    3    0  502 -0.20359993290E+03 -0.11757565266E+03 -0.61055817794E+03  0.65426284346E+03  0.12699999809E+01 0.  1.
</event>
<event>
 5   0  0.5671132E-05  0.1696928E+04  0.7818609E-02  0.8763118E-01
        2   -1    0    0  501    0  0.00000000000E+00  0.00000000000E+00  0.12822608681E+04  0.12822608681E+04  0.25500000920E-02 0. -1.
       -2   -1    0    0    0  501  0.00000000000E+00  0.00000000000E+00 -0.56142356605E+03  0.56142356606E+03  0.25500000920E-02 0.  1.
    10030    2    1    2    0    0  0.00000000000E+00  0.00000000000E+00  0.72083730205E+03  0.18436844342E+04  0.16969283652E+04 0.  0.
        3    1    3    3  502    0 -0.45131711475E+03 -0.35782460178E+03 -0.31649263670E+03  0.65718580553E+03  0.10100000352E+00 0.  1.
       -3    1    3    3    0  502  0.45131711475E+03  0.35782460178E+03  0.10373299387E+04  0.11864986286E+04  0.10100000352E+00 0. -1.
</event>
<event>
 5   0  0.5652631E-05  0.1700319E+04  0.7818609E-02  0.8761182E-01
        2   -1    0    0  501    0  0.00000000000E+00  0.00000000000E+00  0.14372969810E+04  0.14372969810E+04  0.25500000920E-02 0.  1.
       -2   -1    0    0    0  501  0.00000000000E+00  0.00000000000E+00 -0.50286848541E+03  0.50286848542E+03  0.25500000920E-02 0. -1.
    10030    2    1    2    0    0  0.00000000000E+00  0.00000000000E+00  0.93442849554E+03  0.19401654664E+04  0.17003192123E+04 0.  0.
        2    1    3    3  502    0  0.12752122909E+03  0.53734952406E+02 -0.48993153318E+03  0.50909922038E+03  0.25500000920E-02 0. -1.
       -2    1    3    3    0  502 -0.12752122909E+03 -0.53734952406E+02  0.14243600287E+04  0.14310662460E+04  0.25500000920E-02 0.  1.
</event>
<event>
 5   0  0.5755321E-05  0.1697671E+04  0.7818609E-02  0.8762694E-01
       -2   -1    0    0    0  501  0.00000000000E+00  0.00000000000E+00  0.97188136859E+03  0.97188136859E+03  0.25500000920E-02 0. -1.
        2   -1    0    0  501    0  0.00000000000E+00  0.00000000000E+00 -0.74136819559E+03  0.74136819560E+03  0.25500000920E-02 0.  1.
    10030    2    1    2    0    0  0.00000000000E+00  0.00000000000E+00  0.23051317299E+03  0.17132495642E+04  0.16976712716E+04 0.  0.
        4    1    3    3  502    0 -0.43174604118E+03  0.29709233645E+03 -0.55859197255E+03  0.76596025037E+03  0.12699999809E+01 0.  1.
       -4    1    3    3    0  502  0.43174604118E+03 -0.29709233645E+03  0.78910514554E+03  0.94728931382E+03  0.12699999809E+01 0. -1.
</event>
<event>
 5   0  0.2967704E-05  0.1699553E+04  0.7818609E-02  0.8761619E-01
        1   -1    0    0  501    0  0.00000000000E+00  0.00000000000E+00  0.13985272858E+04  0.13985272858E+04  0.50400001928E-02 0.  1.
       -1   -1    0    0    0  501  0.00000000000E+00  0.00000000000E+00 -0.51634346592E+03  0.51634346595E+03  0.50400001928E-02 0. -1.
    10030    2    1    2    0    0  0.00000000000E+00  0.00000000000E+00  0.88218381987E+03  0.19148707518E+04  0.16995533836E+04 0.  0.
        2    1    3    3  502    0 -0.73557375095E+03 -0.28259048324E+03  0.82679792611E+02  0.79231437726E+03  0.25500000920E-02 0. -1.
       -2    1    3    3    0  502  0.73557375095E+03  0.28259048324E+03  0.79950402726E+03  0.11225563745E+04  0.25500000920E-02 0.  1.
</event>
<event>
 5   0  0.2098250E-05  0.1696122E+04  0.7818609E-02  0.8763579E-01
        3   -1    0    0  501    0  0.00000000000E+00  0.00000000000E+00  0.95164497989E+03  0.95164498525E+03  0.10100000352E+00 0. -1.
       -3   -1    0    0    0  501  0.00000000000E+00  0.00000000000E+00 -0.75575166672E+03  0.75575167346E+03  0.10100000352E+00 0.  1.
    10030    2    1    2    0    0  0.00000000000E+00  0.00000000000E+00  0.19589331317E+03  0.17073966587E+04  0.16961217999E+04 0.  0.
        3    1    3    3  502    0  0.69836020024E+03 -0.38014990744E+03  0.39484171289E+03  0.88776174160E+03  0.10100000352E+00 0. -1.
       -3    1    3    3    0  502 -0.69836020024E+03  0.38014990744E+03 -0.19894839972E+03  0.81963491711E+03  0.10100000352E+00 0.  1.
</event>
<event>
 5   0  0.5671132E-05  0.1703624E+04  0.7818609E-02  0.8759300E-01
        2   -1    0    0  501    0  0.00000000000E+00  0.00000000000E+00  0.78126267479E+03  0.78126267479E+03  0.25500000920E-02 0. -1.
       -2   -1    0    0    0  501  0.00000000000E+00  0.00000000000E+00 -0.92873189956E+03  0.92873189957E+03  0.25500000920E-02 0.  1.
    10030    2    1    2    0    0  0.00000000000E+00  0.00000000000E+00 -0.14746922477E+03  0.17099945744E+04  0.17036238646E+04 0.  0.
        3    1    3    3  502    0 -0.47296910315E+03 -0.70799703980E+03 -0.48661671270E+02  0.85283500711E+03  0.10100000352E+00 0. -1.
       -3    1    3    3    0  502  0.47296910315E+03  0.70799703980E+03 -0.98807553504E+02  0.85715956725E+03  0.10100000352E+00 0.  1.
</event>
<event>
 5   0  0.5652631E-05  0.1699616E+04  0.7818609E-02  0.8761584E-01
       -2   -1    0    0    0  501  0.00000000000E+00  0.00000000000E+00  0.77873078497E+03  0.77873078497E+03  0.25500000920E-02 0.  1.
        2   -1    0    0  501    0  0.00000000000E+00  0.00000000000E+00 -0.92737211970E+03  0.92737211970E+03  0.25500000920E-02 0. -1.
    10030    2    1    2    0    0  0.00000000000E+00  0.00000000000E+00 -0.14864133473E+03  0.17061029047E+04  0.16996155080E+04 0.  0.
        2    1    3    3  502    0  0.25019413690E+03  0.44221394547E+03  0.60947172156E+03  0.79347719507E+03  0.25500000920E-02 0.  1.
       -2    1    3    3    0  502 -0.25019413690E+03 -0.44221394547E+03 -0.75811305629E+03  0.91262570961E+03  0.25500000920E-02 0. -1.
</event>
<event>
 5   0  0.2911632E-05  0.1690976E+04  0.7818609E-02  0.8766528E-01
        1   -1    0    0  501    0  0.00000000000E+00  0.00000000000E+00  0.10161679461E+04  0.10161679462E+04  0.50400001928E-02 0.  1.
       -1   -1    0    0    0  501  0.00000000000E+00  0.00000000000E+00 -0.70347601516E+03  0.70347601518E+03  0.50400001928E-02 0. -1.
    10030    2    1    2    0    0  0.00000000000E+00  0.00000000000E+00  0.31269193098E+03  0.17196439613E+04  0.16909757864E+04 0.  0.
        1    1    3    3  502    0  0.65538831064E+03 -0.25463832193E+03 -0.32116251231E+03  0.77299409575E+03  0.50400001928E-02 0. -1.
       -1    1    3    3    0  502 -0.65538831064E+03  0.25463832193E+03  0.63385444329E+03  0.94664986559E+03  0.50400001928E-02 0.  1.
</event>
<event>
 5   0  0.2993769E-05  0.1702638E+04  0.7818609E-02  0.8759861E-01
        1   -1    0    0  501    0  0.00000000000E+00  0.00000000000E+00  0.79581440947E+03  0.79581440948E+03  0.50400001928E-02 0.  1.
       -1   -1    0    0    0  501  0.00000000000E+00  0.00000000000E+00 -0.91069520189E+03  0.91069520190E+03  0.50400001928E-02 0. -1.
    10030    2    1    2    0    0  0.00000000000E+00  0.00000000000E+00 -0.11488079242E+03  0.17065096114E+04  0.17026383812E+04 0.  0.
        3    1    3    3  502    0  0.67882756556E+03  0.43866305291E+03 -0.32546609605E+03  0.87129807048E+03  0.10100000352E+00 0.  1.
       -3    1    3    3    0  502 -0.67882756556E+03 -0.43866305291E+03  0.21058530362E+03  0.83521154090E+03  0.10100000352E+00 0. -1.
</event>
<event>
 5   0  0.2966258E-05  0.1695920E+04  0.7818609E-02  0.8763695E-01
       -1   -1    0    0    0  501  0.00000000000E+00  0.00000000000E+00  0.94326762562E+03  0.94326762563E+03  0.50400001928E-02 0. -1.
        1   -1    0    0  501    0  0.00000000000E+00  0.00000000000E+00 -0.76228193073E+03  0.76228193075E+03  0.50400001928E-02 0.  1.
    10030    2    1    2    0    0  0.00000000000E+00  0.00000000000E+00  0.18098569489E+03  0.17055495564E+04  0.16959196524E+04 0.  0.
        4    1    3    3  502    0  0.36146166008E+03  0.31610587747E+03 -0.61237252594E+03  0.77818968183E+03  0.12699999809E+01 0.  1.
       -4    1    3    3    0  502 -0.36146166008E+03 -0.31610587747E+03  0.79335822083E+03  0.92735987455E+03  0.12699999809E+01 0. -1.
</event>
<event>
 5   0  0.2993769E-05  0.1700729E+04  0.7818609E-02  0.8760948E-01
       -1   -1    0    0    0  501  0.00000000000E+00  0.00000000000E+00  0.42256983858E+03  0.42256983861E+03  0.50400001928E-02 0. -1.
        1   -1    0    0  501    0  0.00000000000E+00  0.00000000000E+00 -0.17112441083E+04  0.17112441083E+04  0.50400001928E-02 0.  1.
    10030    2    1    2    0    0  0.00000000000E+00  0.00000000000E+00 -0.12886742697E+04  0.21338139469E+04  0.17007294278E+04 0.  0.
        3    1    3    3  502    0  0.83713426657E+03  0.35608476009E+02 -0.46226900454E+03  0.95695056643E+03  0.10100000352E+00 0. -1.
       -3    1    3    3    0  502 -0.83713426657E+03 -0.35608476009E+02 -0.82640526519E+03  0.11768633805E+04  0.10100000352E+00 0.  1.
</event>
<event>
 5   0  0.5671132E-05  0.1696975E+04  0.7818609E-02  0.8763091E-01
        2   -1    0    0  501    0  0.00000000000E+00  0.00000000000E+00  0.13442310856E+04  0.13442310856E+04  0.25500000920E-02 0. -1.
       -2   -1    0    0    0  501  0.00000000000E+00  0.00000000000E+00 -0.53557089380E+03  0.53557089380E+03  0.25500000920E-02 0.  1.
    10030    2    1    2    0    0  0.00000000000E+00  0.00000000000E+00  0.80866019176E+03  0.18798019794E+04  0.16969750074E+04 0.  0.
        3    1    3    3  502    0  0.39534054104E+03  0.56892944823E+03 -0.13829842909E+03  0.70647103702E+03  0.10100000352E+00 0.  1.
       -3    1    3    3    0  502 -0.39534054104E+03 -0.56892944823E+03  0.94695862085E+03  0.11733309423E+04  0.10100000352E+00 0. -1.
</event>
<event>
 5   0  0.2967704E-05  0.1700207E+04  0.7818609E-02  0.8761246E-01
        1   -1    0    0  501    0  0.00000000000E+00  0.00000000000E+00  0.11721286566E+04  0.11721286566E+04  0.50400001928E-02 0. -1.
       -1   -1    0    0    0  501  0.00000000000E+00  0.00000000000E+00 -0.61655007734E+03  0.61655007736E+03  0.50400001928E-02 0.  1.
    10030    2    1    2    0    0  0.00000000000E+00  0.00000000000E+00  0.55557857922E+03  0.17886787339E+04  0.17002070626E+04 0.  0.
        2    1    3    3  502    0 -0.72903512933E+02 -0.83170893343E+03  0.10939340942E+03  0.84203419775E+03  0.25500000920E-02 0.  1.
       -2    1    3    3    0  502  0.72903512933E+02  0.83170893343E+03  0.44618516980E+03  0.94664453619E+03  0.25500000920E-02 0. -1.
</event>
<event>
 5   0  0.5821584E-05  0.1698295E+04  0.7818609E-02  0.8762337E-01
       -2   -1    0    0    0  501  0.00000000000E+00  0.00000000000E+00  0.59802894806E+03  0.59802894807E+03  0.25500000920E-02 0. -1.
        2   -1    0    0  501    0  0.00000000000E+00  0.00000000000E+00 -0.12057139099E+04  0.12057139099E+04  0.25500000920E-02 0.  1.
    10030    2    1    2    0    0  0.00000000000E+00  0.00000000000E+00 -0.60768496184E+03  0.18037428580E+04  0.16982954056E+04 0.  0.
        1    1    3    3  502    0  0.47488107084E+01 -0.84394657946E+03 -0.20430337531E+03  0.86833648396E+03  0.50400001928E-02 0. -1.
       -1    1    3    3    0  502 -0.47488107084E+01  0.84394657946E+03 -0.40338158653E+03  0.93540637402E+03  0.50400001928E-02 0.  1.
</event>
<event>
 5   0  0.2967704E-05  0.1685305E+04  0.7818609E-02  0.8769790E-01
        1   -1    0    0  501    0  0.00000000000E+00  0.00000000000E+00  0.56283600749E+03  0.56283600751E+03  0.50400001928E-02 0.  1.
       -1   -1    0    0    0  501  0.00000000000E+00  0.00000000000E+00 -0.12615814026E+04  0.12615814026E+04  0.50400001928E-02 0. -1.
    10030    2    1    2    0    0  0.00000000000E+00  0.00000000000E+00 -0.69874539512E+03  0.18244174101E+04  0.16853052421E+04 0.  0.
        2    1    3    3  502    0 -0.75920327056E+03  0.33534025171E+03 -0.19167476704E+03  0.85181095718E+03  0.25500000920E-02 0. -1.
       -2    1    3    3    0  502  0.75920327056E+03 -0.33534025171E+03 -0.50707062808E+03  0.97260645295E+03  0.25500000920E-02 0.  1.
</event>
<event>
 5   0  0.2993769E-05  0.1699367E+04  0.7818609E-02  0.8761725E-01
       -1   -1    0    0    0  501  0.00000000000E+00  0.00000000000E+00  0.32461005629E+03  0.32461005633E+03  0.50400001928E-02 0. -1.
        1   -1    0    0  501    0  0.00000000000E+00  0.00000000000E+00 -0.22240914547E+04  0.22240914547E+04  0.50400001928E-02 0.  1.
    10030    2    1    2    0    0  0.00000000000E+00  0.00000000000E+00 -0.18994813984E+04  0.25487015111E+04  0.16993674734E+04 0.  0.
        3    1    3    3  502    0  0.53368070323E+03  0.26388451951E+03 -0.40523546969E+02  0.59673469876E+03  0.10100000352E+00 0. -1.
       -3    1    3    3    0  502 -0.53368070323E+03 -0.26388451951E+03 -0.18589578515E+04  0.19519668123E+04  0.10100000352E+00 0.  1.
</event>
<event>
 5   0  0.5755321E-05  0.1701326E+04  0.7818609E-02  0.8760608E-01
        2   -1    0    0  501    0  0.00000000000E+00  0.00000000000E+00  0.11999145617E+04  0.11999145618E+04  0.25500000920E-02 0.  1.
       -2   -1    0    0    0  501  0.00000000000E+00  0.00000000000E+00 -0.60306599416E+03  0.60306599416E+03  0.25500000920E-02 0. -1.
    10030    2    1    2    0    0  0.00000000000E+00  0.00000000000E+00  0.59684856759E+03  0.18029805559E+04  0.17013261511E+04 0.  0.
        4    1    3    3  502    0  0.78769750685E+03  0.22583986629E+03  0.56404070720E+02  0.82137326448E+03  0.12699999809E+01 0. -1.
       -4    1    3    3    0  502 -0.78769750685E+03 -0.22583986629E+03  0.54044449687E+03  0.98160729144E+03  0.12699999809E+01 0.  1.
</event>
<event>
 5   0  0.2966258E-05  0.1700624E+04  0.7818609E-02  0.8761009E-01
        1   -1    0    0  501    0  0.00000000000E+00  0.00000000000E+00  0.65632435454E+03  0.65632435456E+03  0.50400001928E-02 0. -1.
       -1   -1    0    0    0  501  0.00000000000E+00  0.00000000000E+00 -0.11016353974E+04  0.11016353974E+04  0.50400001928E-02 0.  1.
    10030    2    1    2    0    0  0.00000000000E+00  0.00000000000E+00 -0.44531104282E+03  0.17579597519E+04  0.17006235811E+04 0.  0.
        4    1    3    3  502    0 -0.53883447277E+03 -0.21057011417E+03  0.42152893589E+03  0.71580068365E+03  0.12699999809E+01 0. -1.
       -4    1    3    3    0  502  0.53883447277E+03  0.21057011417E+03 -0.86683997871E+03  0.10421590683E+04  0.12699999809E+01 0.  1.
</event>
<event>
 5   0  0.5652631E-05  0.1703768E+04  0.7818609E-02  0.8759218E-01
       -2   -1    0    0    0  501  0.00000000000E+00  0.00000000000E+00  0.60535850534E+03  0.60535850535E+03  0.25500000920E-02 0.  1.
        2   -1    0    0  501    0  0.00000000000E+00  0.00000000000E+00 -0.11988039363E+04  0.11988039363E+04  0.25500000920E-02 0. -1.
    10030    2    1    2    0    0  0.00000000000E+00  0.00000000000E+00 -0.59344543097E+03  0.18041624417E+04  0.17037677765E+04 0.  0.
        2    1    3    3  502    0 -0.53404207856E+03  0.26716189055E+03 -0.94008375403E+03  0.11137027799E+04  0.25500000920E-02 0. -1.
       -2    1    3    3    0  502  0.53404207856E+03 -0.26716189055E+03  0.34663832306E+03  0.69045966172E+03  0.25500000920E-02 0.  1.
</event>
<event>
 5   0  0.2987859E-05  0.1694852E+04  0.7818609E-02  0.8764306E-01
       -1   -1    0    0    0  501  0.00000000000E+00  0.00000000000E+00  0.99354707734E+03  0.99354707735E+03  0.50400001928E-02 0.  1.
        1   -1    0    0  501    0  0.00000000000E+00  0.00000000000E+00 -0.72279537380E+03  0.72279537382E+03  0.50400001928E-02 0. -1.
    10030    2    1    2    0    0  0.00000000000E+00  0.00000000000E+00  0.27075170353E+03  0.17163424512E+04  0.16948524787E+04 0.  0.
        5    1    3    3  502    0  0.81270283550E+02  0.83870844608E+03  0.22636174056E+03  0.87252417967E+03  0.46999998093E+01 0.  1.
       -5    1    3    3    0  502 -0.81270283550E+02 -0.83870844608E+03  0.44389962970E+02  0.84381827150E+03  0.46999998093E+01 0. -1.
</event>
<event>
 5   0  0.5671132E-05  0.1698445E+04  0.7818609E-02  0.8762252E-01
       -2   -1    0    0    0  501  0.00000000000E+00  0.00000000000E+00  0.11878577671E+04  0.11878577671E+04  0.25500000920E-02 0.  1.
        2   -1    0    0  501    0  0.00000000000E+00  0.00000000000E+00 -0.60712546105E+03  0.60712546105E+03  0.25500000920E-02 0. -1.
    10030    2    1    2    0    0  0.00000000000E+00  0.00000000000E+00  0.58073230610E+03  0.17949832282E+04  0.16984448116E+04 0.  0.
        3    1    3    3  502    0 -0.19092492373E+03 -0.78269628878E+03  0.65642079691E+01  0.80567295226E+03  0.10100000352E+00 0. -1.
       -3    1    3    3    0  502  0.19092492373E+03  0.78269628878E+03  0.57416809813E+03  0.98931027594E+03  0.10100000352E+00 0.  1.
</event>
<event>
 5   0  0.2967704E-05  0.1701168E+04  0.7818609E-02  0.8760699E-01
       -1   -1    0    0    0  501  0.00000000000E+00  0.00000000000E+00  0.52230696058E+03  0.52230696060E+03  0.50400001928E-02 0. -1.
        1   -1    0    0  501    0  0.00000000000E+00  0.00000000000E+00 -0.13851873137E+04  0.13851873137E+04  0.50400001928E-02 0.  1.
    10030    2    1    2    0    0  0.00000000000E+00  0.00000000000E+00 -0.86288035315E+03  0.19074942743E+04  0.17011678056E+04 0.  0.
        2    1    3    3  502    0 -0.19769266971E+03 -0.39970675537E+03 -0.12436138277E+04  0.13211446682E+04  0.25500000920E-02 0.  1.
       -2    1    3    3    0  502  0.19769266971E+03  0.39970675537E+03  0.38073347454E+03  0.58634960611E+03  0.25500000920E-02 0. -1.
</event>
<event>
 5   0  0.5652631E-05  0.1699644E+04  0.7818609E-02  0.8761567E-01
        2   -1    0    0  501    0  0.00000000000E+00  0.00000000000E+00  0.12759811266E+04  0.12759811266E+04  0.25500000920E-02 0.  1.
       -2   -1    0    0    0  501  0.00000000000E+00  0.00000000000E+00 -0.56599409272E+03  0.56599409273E+03  0.25500000920E-02 0. -1.
    10030    2    1    2    0    0  0.00000000000E+00  0.00000000000E+00  0.70998703387E+03  0.18419752193E+04  0.16996444100E+04 0.  0.
        2    1    3    3  502    0 -0.70899630443E+03  0.41691056218E+03  0.12329676868E+03  0.83168038917E+03  0.25500000920E-02 0. -1.
       -2    1    3    3    0  502  0.70899630443E+03 -0.41691056218E+03  0.58669026519E+03  0.10102948302E+04  0.25500000920E-02 0.  1.
</event>
<event>
 5   0  0.5821584E-05  0.1700598E+04  0.7818609E-02  0.8761023E-01
        2   -1    0    0  501    0  0.00000000000E+00  0.00000000000E+00  0.23739322864E+04  0.23739322864E+04  0.25500000920E-02 0. -1.
       -2   -1    0    0    0  501  0.00000000000E+00  0.00000000000E+00 -0.30456157026E+03  0.30456157027E+03  0.25500000920E-02 0.  1.
    10030    2    1    2    0    0  0.00000000000E+00  0.00000000000E+00  0.20693707162E+04  0.26784938567E+04  0.17005981828E+04 0.  0.
        1    1    3    3  502    0  0.34337743470E+02  0.63112369162E+03  0.13883725958E+03  0.64712593784E+03  0.50400001928E-02 0.  1.
       -1    1    3    3    0  502 -0.34337743470E+02 -0.63112369162E+03  0.19305334566E+04  0.20313679189E+04  0.50400001928E-02 0. -1.
</event>
<event>
 5   0  0.2993769E-05  0.1699561E+04  0.7818609E-02  0.8761615E-01
        1   -1    0    0  501    0  0.00000000000E+00  0.00000000000E+00  0.96684403231E+03  0.96684403232E+03  0.50400001928E-02 0. -1.
       -1   -1    0    0    0  501  0.00000000000E+00  0.00000000000E+00 -0.74689068641E+03  0.74689068643E+03  0.50400001928E-02 0.  1.
    10030    2    1    2    0    0  0.00000000000E+00  0.00000000000E+00  0.21995334590E+03  0.17137347188E+04  0.16995608880E+04 0.  0.
        3    1    3    3  502    0  0.84822360857E+03 -0.13441106258E+02  0.16001754900E+03  0.86328997426E+03  0.10100000352E+00 0.  1.
       -3    1    3    3    0  502 -0.84822360857E+03  0.13441106258E+02  0.59935796901E+02  0.85044474449E+03  0.10100000352E+00 0. -1.
</event>
<event>
 5   0  0.2966258E-05  0.1751256E+04  0.7818609E-02  0.8732659E-01
        1   -1    0    0  501    0  0.00000000000E+00  0.00000000000E+00  0.82447270585E+03  0.82447270586E+03  0.50400001928E-02 0. -1.
       -1   -1    0    0    0  501  0.00000000000E+00  0.00000000000E+00 -0.92995697341E+03  0.92995697343E+03  0.50400001928E-02 0.  1.
    10030    2    1    2    0    0  0.00000000000E+00  0.00000000000E+00 -0.10548426757E+03  0.17544296793E+04  0.17512557120E+04 0.  0.
        4    1    3    3  502    0  0.22599821231E+03  0.59724159100E+03  0.54746792627E+03  0.84112748925E+03  0.12699999809E+01 0. -1.
       -4    1    3    3    0  502 -0.22599821231E+03 -0.59724159100E+03 -0.65295219384E+03  0.91330219003E+03  0.12699999809E+01 0.  1.
</event>
<event>
 5   0  0.5652631E-05  0.1696449E+04  0.7818609E-02  0.8763392E-01
       -2   -1    0    0    0  501  0.00000000000E+00  0.00000000000E+00  0.31657586056E+03  0.31657586057E+03  0.25500000920E-02 0.  1.
        2   -1    0    0  501    0  0.00000000000E+00  0.00000000000E+00 -0.22727092480E+04  0.22727092480E+04  0.25500000920E-02 0. -1.
    10030    2    1    2    0    0  0.00000000000E+00  0.00000000000E+00 -0.19561333874E+04  0.25892851086E+04  0.16964490986E+04 0.  0.
        2    1    3    3  502    0 -0.22707400423E+03  0.28824210663E+03  0.18916512543E+03  0.41283115207E+03  0.25500000920E-02 0.  1.
       -2    1    3    3    0  502  0.22707400423E+03 -0.28824210663E+03 -0.21452985129E+04  0.21764539565E+04  0.25500000920E-02 0. -1.
</event>
<event>
 5   0  0.5755321E-05  0.1698769E+04  0.7818609E-02  0.8762067E-01
        2   -1    0    0  501    0  0.00000000000E+00  0.00000000000E+00  0.23905073992E+04  0.23905073992E+04  0.25500000920E-02 0.  1.
       -2   -1    0    0    0  501  0.00000000000E+00  0.00000000000E+00 -0.30179946117E+03  0.30179946118E+03  0.25500000920E-02 0. -1.
    10030    2    1    2    0    0  0.00000000000E+00  0.00000000000E+00  0.20887079380E+04  0.26923068603E+04  0.16987687836E+04 0.  0.
        4    1    3    3  502    0 -0.60432847114E+03  0.10252806090E+03  0.19762278531E+04  0.20691068229E+04  0.12699999809E+01 0.  1.
       -4    1    3    3    0  502  0.60432847114E+03 -0.10252806090E+03  0.11248008491E+03  0.62320003747E+03  0.12699999809E+01 0. -1.
</event>
<event>
 5   0  0.5671132E-05  0.1701306E+04  0.7818609E-02  0.8760620E-01
        2   -1    0    0  501    0  0.00000000000E+00  0.00000000000E+00  0.12325866949E+04  0.12325866949E+04  0.25500000920E-02 0.  1.
       -2   -1    0    0    0  501  0.00000000000E+00  0.00000000000E+00 -0.58706689848E+03  0.58706689848E+03  0.25500000920E-02 0. -1.
    10030    2    1    2    0    0  0.00000000000E+00  0.00000000000E+00  0.64551979639E+03  0.18196535934E+04  0.17013063781E+04 0.  0.
        3    1    3    3  502    0  0.93084406008E+02  0.31567161780E+03  0.11617344466E+04  0.12074519500E+04  0.10100000352E+00 0.  1.
       -3    1    3    3    0  502 -0.93084406008E+02 -0.31567161780E+03 -0.51621465017E+03  0.61220164340E+03  0.10100000352E+00 0. -1.
</event>
<event>
 5   0  0.5859822E-05  0.1703827E+04  0.7818609E-02  0.8759185E-01
       -2   -1    0    0    0  501  0.00000000000E+00  0.00000000000E+00  0.72000440039E+03  0.72000440039E+03  0.25500000920E-02 0.  1.
        2   -1    0    0  501    0  0.00000000000E+00  0.00000000000E+00 -0.10079889045E+04  0.10079889045E+04  0.25500000920E-02 0. -1.
    10030    2    1    2    0    0  0.00000000000E+00  0.00000000000E+00 -0.28798450411E+03  0.17279933049E+04  0.17038268067E+04 0.  0.
        5    1    3    3  502    0 -0.11462545046E+03 -0.20848159795E+03 -0.97359869190E+03  0.10022574886E+04  0.46999998093E+01 0. -1.
       -5    1    3    3    0  502  0.11462545046E+03  0.20848159795E+03  0.68561418779E+03  0.72573581631E+03  0.46999998093E+01 0.  1.
</event>
<event>
 5   0  0.2966258E-05  0.1699773E+04  0.7818609E-02  0.8761494E-01
        1   -1    0    0  501    0  0.00000000000E+00  0.00000000000E+00  0.69567207182E+03  0.69567207184E+03  0.50400001928E-02 0.  1.
       -1   -1    0    0    0  501  0.00000000000E+00  0.00000000000E+00 -0.10382862744E+04  0.10382862744E+04  0.50400001928E-02 0. -1.
    10030    2    1    2    0    0  0.00000000000E+00  0.00000000000E+00 -0.34261420259E+03  0.17339583463E+04  0.16997726480E+04 0.  0.
        4    1    3    3  502    0  0.10071189550E+03  0.14899707796E+01  0.68956102073E+03  0.69687955927E+03  0.12699999809E+01 0.  1.
       -4    1    3    3    0  502 -0.10071189550E+03 -0.14899707796E+01 -0.10321752233E+04  0.10370787870E+04  0.12699999809E+01 0. -1.
</event>
<event>
 5   0  0.2987859E-05  0.1701417E+04  0.7818609E-02  0.8760557E-01
        1   -1    0    0  501    0  0.00000000000E+00  0.00000000000E+00  0.11067307228E+04  0.11067307228E+04  0.50400001928E-02 0. -1.
       -1   -1    0    0    0  501  0.00000000000E+00  0.00000000000E+00 -0.65391240717E+03  0.65391240719E+03  0.50400001928E-02 0.  1.
    10030    2    1    2    0    0  0.00000000000E+00  0.00000000000E+00  0.45281831563E+03  0.17606431300E+04  0.17014169989E+04 0.  0.
        5    1    3    3  502    0  0.22276939706E+03 -0.68258097435E+03 -0.24569541675E+03  0.75890138926E+03  0.46999998093E+01 0. -1.
       -5    1    3    3    0  502 -0.22276939706E+03  0.68258097435E+03  0.69851373238E+03  0.10017417407E+04  0.46999998093E+01 0.  1.
</event>
<event>
 5   0  0.2911632E-05  0.1699929E+04  0.7818609E-02  0.8761405E-01
        1   -1    0    0  501    0  0.00000000000E+00  0.00000000000E+00  0.11621958069E+04  0.11621958069E+04  0.50400001928E-02 0. -1.
       -1   -1    0    0    0  501  0.00000000000E+00  0.00000000000E+00 -0.62161600837E+03  0.62161600839E+03  0.50400001928E-02 0.  1.
    10030    2    1    2    0    0  0.00000000000E+00  0.00000000000E+00  0.54057979851E+03  0.17838118153E+04  0.16999288437E+04 0.  0.
        1    1    3    3  502    0  0.49559060652E+03  0.56090994339E+03  0.69291612388E+03  0.10199817492E+04  0.50400001928E-02 0. -1.
       -1    1    3    3    0  502 -0.49559060652E+03 -0.56090994339E+03 -0.15233632537E+03  0.76383006613E+03  0.50400001928E-02 0.  1.
</event>
<event>
 5   0  0.5755321E-05  0.1699207E+04  0.7818609E-02  0.8761817E-01
        2   -1    0    0  501    0  0.00000000000E+00  0.00000000000E+00  0.16182108183E+04  0.16182108183E+04  0.25500000920E-02 0.  1.
       -2   -1    0    0    0  501  0.00000000000E+00  0.00000000000E+00 -0.44606425861E+03  0.44606425862E+03  0.25500000920E-02 0. -1.
    10030    2    1    2    0    0  0.00000000000E+00  0.00000000000E+00  0.11721465597E+04  0.20642750770E+04  0.16992068844E+04 0.  0.
        4    1    3    3  502    0 -0.68528078663E+03  0.15890825175E+03  0.11648334788E+04  0.13607719263E+04  0.12699999809E+01 0.  1.
       -4    1    3    3    0  502  0.68528078663E+03 -0.15890825175E+03  0.73130808960E+01  0.70350315070E+03  0.12699999809E+01 0. -1.
</event>
<event>
 5   0  0.5755321E-05  0.1700926E+04  0.7818609E-02  0.8760836E-01
        2   -1    0    0  501    0  0.00000000000E+00  0.00000000000E+00  0.14310701238E+04  0.14310701238E+04  0.25500000920E-02 0.  1.
       -2   -1    0    0    0  501  0.00000000000E+00  0.00000000000E+00 -0.50541702413E+03  0.50541702413E+03  0.25500000920E-02 0. -1.
    10030    2    1    2    0    0  0.00000000000E+00  0.00000000000E+00  0.92565309970E+03  0.19364871480E+04  0.17009258694E+04 0.  0.
        4    1    3    3  502    0 -0.36413423176E+03 -0.67473634826E+03  0.88178888938E+03  0.11685102211E+04  0.12699999809E+01 0.  1.
       -4    1    3    3    0  502  0.36413423176E+03  0.67473634826E+03  0.43864210320E+02  0.76797692690E+03  0.12699999809E+01 0. -1.
</event>
<event>
 5   0  0.2098250E-05  0.1700052E+04  0.7818609E-02  0.8761335E-01
        3   -1    0    0  501    0  0.00000000000E+00  0.00000000000E+00  0.10855324876E+04  0.10855324923E+04  0.10100000352E+00 0. -1.
       -3   -1    0    0    0  501  0.00000000000E+00  0.00000000000E+00 -0.66561288457E+03  0.66561289223E+03  0.10100000352E+00 0.  1.
    10030    2    1    2    0    0  0.00000000000E+00  0.00000000000E+00  0.41991960307E+03  0.17511453846E+04  0.17000522595E+04 0.  0.
        4    1    3    3  502    0 -0.30022969491E+03 -0.99995573205E+02  0.10225971079E+04  0.10704407701E+04  0.12699999809E+01 0. -1.
       -4    1    3    3    0  502  0.30022969491E+03  0.99995573205E+02 -0.60267750484E+03  0.68070461443E+03  0.12699999809E+01 0.  1.
</event>
<event>
 5   0  0.5652631E-05  0.1700112E+04  0.7818609E-02  0.8761301E-01
       -2   -1    0    0    0  501  0.00000000000E+00  0.00000000000E+00  0.33844151633E+03  0.33844151634E+03  0.25500000920E-02 0. -1.
        2   -1    0    0  501    0  0.00000000000E+00  0.00000000000E+00 -0.21350656501E+04  0.21350656501E+04  0.25500000920E-02 0.  1.
    10030    2    1    2    0    0  0.00000000000E+00  0.00000000000E+00 -0.17966241338E+04  0.24735071665E+04  0.17001115918E+04 0.  0.
        2    1    3    3  502    0  0.70598047490E+03 -0.32182023210E+03 -0.14036036920E+04  0.16037705624E+04  0.25500000920E-02 0.  1.
       -2    1    3    3    0  502 -0.70598047490E+03  0.32182023210E+03 -0.39302044181E+03  0.86973660405E+03  0.25500000920E-02 0. -1.
</event>
<event>
 5   0  0.2967704E-05  0.1698782E+04  0.7818609E-02  0.8762059E-01
       -1   -1    0    0    0  501  0.00000000000E+00  0.00000000000E+00  0.63667364786E+03  0.63667364788E+03  0.50400001928E-02 0. -1.
        1   -1    0    0  501    0  0.00000000000E+00  0.00000000000E+00 -0.11331787778E+04  0.11331787778E+04  0.50400001928E-02 0.  1.
    10030    2    1    2    0    0  0.00000000000E+00  0.00000000000E+00 -0.49650512993E+03  0.17698524257E+04  0.16987819944E+04 0.  0.
        2    1    3    3  502    0 -0.38378807273E+02 -0.54569191858E+03 -0.92521556209E+03  0.10748378665E+04  0.25500000920E-02 0.  1.
       -2    1    3    3    0  502  0.38378807273E+02  0.54569191858E+03  0.42871043217E+03  0.69501455920E+03  0.25500000920E-02 0. -1.
</event>
<event>
 5   0  0.2993769E-05  0.1693710E+04  0.7818609E-02  0.8764960E-01
       -1   -1    0    0    0  501  0.00000000000E+00  0.00000000000E+00  0.46189980039E+03  0.46189980042E+03  0.50400001928E-02 0.  1.
        1   -1    0    0  501    0  0.00000000000E+00  0.00000000000E+00 -0.15526387050E+04  0.15526387050E+04  0.50400001928E-02 0. -1.
    10030    2    1    2    0    0  0.00000000000E+00  0.00000000000E+00 -0.10907389046E+04  0.20145385054E+04  0.16937101381E+04 0.  0.
        3    1    3    3  502    0 -0.33727121527E+03  0.44575557512E+03 -0.13020461868E+04  0.14169594871E+04  0.10100000352E+00 0. -1.
       -3    1    3    3    0  502  0.33727121527E+03 -0.44575557512E+03  0.21130728220E+03  0.59757901830E+03  0.10100000352E+00 0.  1.
</event>
<event>
 5   0  0.5859822E-05  0.1700094E+04  0.7818609E-02  0.8761311E-01
        2   -1    0    0  501    0  0.00000000000E+00  0.00000000000E+00  0.18290804566E+04  0.18290804566E+04  0.25500000920E-02 0.  1.
       -2   -1    0    0    0  501  0.00000000000E+00  0.00000000000E+00 -0.39505074330E+03  0.39505074331E+03  0.25500000920E-02 0. -1.
    10030    2    1    2    0    0  0.00000000000E+00  0.00000000000E+00  0.14340297133E+04  0.22241311999E+04  0.17000936374E+04 0.  0.
        5    1    3    3  502    0 -0.62967938557E+03 -0.42560205860E+03  0.12150478456E+04  0.14331770993E+04  0.46999998093E+01 0.  1.
       -5    1    3    3    0  502  0.62967938557E+03  0.42560205860E+03  0.21898186772E+03  0.79095410062E+03  0.46999998093E+01 0. -1.
</event>
<event>
 5   0  0.5821584E-05  0.1700806E+04  0.7818609E-02  0.8760905E-01
        2   -1    0    0  501    0  0.00000000000E+00  0.00000000000E+00  0.50227186340E+03  0.50227186341E+03  0.25500000920E-02 0. -1.
       -2   -1    0    0    0  501  0.00000000000E+00  0.00000000000E+00 -0.14398284610E+04  0.14398284610E+04  0.25500000920E-02 0.  1.
    10030    2    1    2    0    0  0.00000000000E+00  0.00000000000E+00 -0.93755659758E+03  0.19421003244E+04  0.17008060725E+04 0.  0.
        1    1    3    3  502    0 -0.75116765401E+02 -0.84706338736E+03 -0.46290977222E+03  0.96821710783E+03  0.50400001928E-02 0.  1.
       -1    1    3    3    0  502  0.75116765401E+02  0.84706338736E+03 -0.47464682536E+03  0.97388321656E+03  0.50400001928E-02 0. -1.
</event>
<event>
 5   0  0.2966258E-05  0.1701229E+04  0.7818609E-02  0.8760664E-01
       -1   -1    0    0    0  501  0.00000000000E+00  0.00000000000E+00  0.90868995036E+03  0.90868995038E+03  0.50400001928E-02 0. -1.
        1   -1    0    0  501    0  0.00000000000E+00  0.00000000000E+00 -0.79625081794E+03  0.79625081795E+03  0.50400001928E-02 0.  1.
    10030    2    1    2    0    0  0.00000000000E+00  0.00000000000E+00  0.11243913243E+03  0.17049407683E+04  0.17012291042E+04 0.  0.
        4    1    3    3  502    0 -0.13600673726E+03  0.50927803450E+03  0.72526994640E+03  0.89659358522E+03  0.12699999809E+01 0. -1.
       -4    1    3    3    0  502  0.13600673726E+03 -0.50927803450E+03 -0.61283081397E+03  0.80834718312E+03  0.12699999809E+01 0.  1.
</event>
<event>
 5   0  0.2966258E-05  0.1699919E+04  0.7818609E-02  0.8761411E-01
        1   -1    0    0  501    0  0.00000000000E+00  0.00000000000E+00  0.17176453809E+04  0.17176453809E+04  0.50400001928E-02 0. -1.
       -1   -1    0    0    0  501  0.00000000000E+00  0.00000000000E+00 -0.42059380131E+03  0.42059380134E+03  0.50400001928E-02 0.  1.
    10030    2    1    2    0    0  0.00000000000E+00  0.00000000000E+00  0.12970515796E+04  0.21382391823E+04  0.16999188217E+04 0.  0.
        4    1    3    3  502    0 -0.79348075043E+03 -0.98254846423E+02  0.10112653541E+04  0.12891566799E+04  0.12699999809E+01 0. -1.
       -4    1    3    3    0  502  0.79348075043E+03  0.98254846423E+02  0.28578622553E+03  0.84908250233E+03  0.12699999809E+01 0.  1.
</event>
<event>
 5   0  0.2987859E-05  0.1722813E+04  0.7818609E-02  0.8748459E-01
        1   -1    0    0  501    0  0.00000000000E+00  0.00000000000E+00  0.88645922992E+03  0.88645922994E+03  0.50400001928E-02 0. -1.
       -1   -1    0    0    0  501  0.00000000000E+00  0.00000000000E+00 -0.83706137649E+03  0.83706137650E+03  0.50400001928E-02 0.  1.
    10030    2    1    2    0    0  0.00000000000E+00  0.00000000000E+00  0.49397853432E+02  0.17235206064E+04  0.17228125646E+04 0.  0.
        5    1    3    3  502    0 -0.97724497295E+02  0.35781335391E+02 -0.83073629979E+03  0.83724265963E+03  0.46999998093E+01 0.  1.
       -5    1    3    3    0  502  0.97724497295E+02 -0.35781335391E+02  0.88013415322E+03  0.88627794680E+03  0.46999998093E+01 0. -1.
</event>
<event>
 5   0  0.5755321E-05  0.1688553E+04  0.7818609E-02  0.8767920E-01
        2   -1    0    0  501    0  0.00000000000E+00  0.00000000000E+00  0.91267077668E+03  0.91267077668E+03  0.25500000920E-02 0. -1.
       -2   -1    0    0    0  501  0.00000000000E+00  0.00000000000E+00 -0.78100804532E+03  0.78100804532E+03  0.25500000920E-02 0.  1.
    10030    2    1    2    0    0  0.00000000000E+00  0.00000000000E+00  0.13166273136E+03  0.16936788220E+04  0.16885534867E+04 0.  0.
        4    1    3    3  502    0  0.43586345604E+02  0.10593466660E+02  0.91147380878E+03  0.91257772713E+03  0.12699999809E+01 0. -1.
       -4    1    3    3    0  502 -0.43586345604E+02 -0.10593466660E+02 -0.77981107742E+03  0.78110109488E+03  0.12699999809E+01 0.  1.
</event>
<event>
 5   0  0.2987859E-05  0.1696970E+04  0.7818609E-02  0.8763094E-01
       -1   -1    0    0    0  501  0.00000000000E+00  0.00000000000E+00  0.13258516620E+04  0.13258516620E+04  0.50400001928E-02 0.  1.
        1   -1    0    0  501    0  0.00000000000E+00  0.00000000000E+00 -0.54299183338E+03  0.54299183341E+03  0.50400001928E-02 0. -1.
    10030    2    1    2    0    0  0.00000000000E+00  0.00000000000E+00  0.78285982857E+03  0.18688434954E+04  0.16969697991E+04 0.  0.
        5    1    3    3  502    0 -0.10358369046E+03  0.13785774789E+03  0.13063368508E+04  0.13176768941E+04  0.46999998093E+01 0.  1.
       -5    1    3    3    0  502  0.10358369046E+03 -0.13785774789E+03 -0.52347702220E+03  0.55116660127E+03  0.46999998093E+01 0. -1.
</event>
<event>
 5   0  0.5671132E-05  0.1698718E+04  0.7818609E-02  0.8762096E-01
       -2   -1    0    0    0  501  0.00000000000E+00  0.00000000000E+00  0.12189446329E+04  0.12189446329E+04  0.25500000920E-02 0. -1.
        2   -1    0    0  501    0  0.00000000000E+00  0.00000000000E+00 -0.59183233240E+03  0.59183233240E+03  0.25500000920E-02 0.  1.
    10030    2    1    2    0    0  0.00000000000E+00  0.00000000000E+00  0.62711230045E+03  0.18107769653E+04  0.16987181581E+04 0.  0.
        3    1    3    3  502    0  0.57918800636E+03 -0.14525613117E+03 -0.33032015149E+03  0.68239981173E+03  0.10100000352E+00 0.  1.
       -3    1    3    3    0  502 -0.57918800636E+03  0.14525613117E+03  0.95743245195E+03  0.11283771535E+04  0.10100000352E+00 0. -1.
</event>
<event>
 5   0  0.5671132E-05  0.1697787E+04  0.7818609E-02  0.8762628E-01
       -2   -1    0    0    0  501  0.00000000000E+00  0.00000000000E+00  0.10848228956E+04  0.10848228956E+04  0.25500000920E-02 0.  1.
        2   -1    0    0  501    0  0.00000000000E+00  0.00000000000E+00 -0.66427446659E+03  0.66427446659E+03  0.25500000920E-02 0. -1.
    10030    2    1    2    0    0  0.00000000000E+00  0.00000000000E+00  0.42054842903E+03  0.17490973622E+04  0.16977869717E+04 0.  0.
        3    1    3    3  502    0 -0.66145633944E+03 -0.50771019586E+03  0.37422524834E+03  0.91396864205E+03  0.10100000352E+00 0.  1.
       -3    1    3    3    0  502  0.66145633944E+03  0.50771019586E+03  0.46323180690E+02  0.83512872016E+03  0.10100000352E+00 0. -1.
</event>
<event>
 5   0  0.2098250E-05  0.1698780E+04  0.7818609E-02  0.8762061E-01
        3   -1    0    0  501    0  0.00000000000E+00  0.00000000000E+00  0.74150215521E+03  0.74150216209E+03  0.10100000352E+00 0.  1.
       -3   -1    0    0    0  501  0.00000000000E+00  0.00000000000E+00 -0.97297489395E+03  0.97297489919E+03  0.10100000352E+00 0. -1.
    10030    2    1    2    0    0  0.00000000000E+00  0.00000000000E+00 -0.23147273874E+03  0.17144770613E+04  0.16987795516E+04 0.  0.
        1    1    3    3  502    0 -0.10483621500E+03 -0.60568141817E+03 -0.70734618952E+03  0.93711218333E+03  0.50400001928E-02 0. -1.
       -1    1    3    3    0  502  0.10483621500E+03  0.60568141817E+03  0.47587345078E+03  0.77736487795E+03  0.50400001928E-02 0.  1.
</event>
<event>
 5   0  0.2987859E-05  0.1698988E+04  0.7818609E-02  0.8761942E-01
        1   -1    0    0  501    0  0.00000000000E+00  0.00000000000E+00  0.18084847448E+04  0.18084847449E+04  0.50400001928E-02 0.  1.
       -1   -1    0    0    0  501  0.00000000000E+00  0.00000000000E+00 -0.39903029674E+03  0.39903029677E+03  0.50400001928E-02 0. -1.
    10030    2    1    2    0    0  0.00000000000E+00  0.00000000000E+00  0.14094544481E+04  0.22075150416E+04  0.16989881747E+04 0.  0.
        5    1    3    3  502    0  0.64216293355E+03  0.46301324817E+03  0.30454006744E+03  0.84824598076E+03  0.46999998093E+01 0. -1.
       -5    1    3    3    0  502 -0.64216293355E+03 -0.46301324817E+03  0.11049143807E+04  0.13592690609E+04  0.46999998093E+01 0.  1.
</event>
<event>
 5   0  0.5671132E-05  0.1699496E+04  0.7818609E-02  0.8761652E-01
       -2   -1    0    0    0  501  0.00000000000E+00  0.00000000000E+00  0.60102015483E+03  0.60102015483E+03  0.25500000920E-02 0. -1.
        2   -1    0    0  501    0  0.00000000000E+00  0.00000000000E+00 -0.12014098739E+04  0.12014098739E+04  0.25500000920E-02 0.  1.
    10030    2    1    2    0    0  0.00000000000E+00  0.00000000000E+00 -0.60038971910E+03  0.18024300288E+04  0.16994958646E+04 0.  0.
        3    1    3    3  502    0  0.59186607745E+03 -0.47537171614E+03 -0.70514254142E+03  0.10361031493E+04  0.10100000352E+00 0.  1.
       -3    1    3    3    0  502 -0.59186607745E+03  0.47537171614E+03  0.10475282232E+03  0.76632687943E+03  0.10100000352E+00 0. -1.
</event>
<event>
 5   0  0.2098250E-05  0.1703380E+04  0.7818609E-02  0.8759439E-01
        3   -1    0    0  501    0  0.00000000000E+00  0.00000000000E+00  0.49503062698E+03  0.49503063729E+03  0.10100000352E+00 0.  1.
       -3   -1    0    0    0  501  0.00000000000E+00  0.00000000000E+00 -0.14653145043E+04  0.14653145078E+04  0.10100000352E+00 0. -1.
    10030    2    1    2    0    0  0.00000000000E+00  0.00000000000E+00 -0.97028387735E+03  0.19603451451E+04  0.17033796656E+04 0.  0.
        5    1    3    3  502    0 -0.33004947070E+03 -0.72284235456E+03 -0.13244672423E+03  0.80560408850E+03  0.46999998093E+01 0.  1.
       -5    1    3    3    0  502  0.33004947070E+03  0.72284235456E+03 -0.83783715311E+03  0.11547410566E+04  0.46999998093E+01 0. -1.
</event>
<event>
 5   0  0.5652631E-05  0.1702397E+04  0.7818609E-02  0.8759998E-01
        2   -1    0    0  501    0  0.00000000000E+00  0.00000000000E+00  0.19371181584E+04  0.19371181584E+04  0.25500000920E-02 0.  1.
       -2   -1    0    0    0  501  0.00000000000E+00  0.00000000000E+00 -0.37402935672E+03  0.37402935673E+03  0.25500000920E-02 0. -1.
    10030    2    1    2    0    0  0.00000000000E+00  0.00000000000E+00  0.15630888016E+04  0.23111475151E+04  0.17023972024E+04 0.  0.
        2    1    3    3  502    0  0.40995991122E+02  0.53715904637E+03  0.16762310505E+04  0.17606734640E+04  0.25500000920E-02 0.  1.
       -2    1    3    3    0  502 -0.40995991122E+02 -0.53715904637E+03 -0.11314224885E+03  0.55047405104E+03  0.25500000920E-02 0. -1.
</event>
<event>
 5   0  0.5821584E-05  0.1697152E+04  0.7818609E-02  0.8762990E-01
        2   -1    0    0  501    0  0.00000000000E+00  0.00000000000E+00  0.71031195738E+03  0.71031195738E+03  0.25500000920E-02 0.  1.
       -2   -1    0    0    0  501  0.00000000000E+00  0.00000000000E+00 -0.10137537807E+04  0.10137537807E+04  0.25500000920E-02 0. -1.
    10030    2    1    2    0    0  0.00000000000E+00  0.00000000000E+00 -0.30344182330E+03  0.17240657381E+04  0.16971522410E+04 0.  0.
        1    1    3    3  502    0  0.22682512660E+03  0.80005689414E+03  0.19898254913E+02  0.83182727323E+03  0.50400001928E-02 0.  1.
       -1    1    3    3    0  502 -0.22682512660E+03 -0.80005689414E+03 -0.32334007821E+03  0.89223846483E+03  0.50400001928E-02 0. -1.
</event>
<event>
 5   0  0.2911632E-05  0.1679692E+04  0.7818609E-02  0.8773032E-01
        1   -1    0    0  501    0  0.00000000000E+00  0.00000000000E+00  0.58721177209E+03  0.58721177212E+03  0.50400001928E-02 0.  1.
       -1   -1    0    0    0  501  0.00000000000E+00  0.00000000000E+00 -0.12011703430E+04  0.12011703430E+04  0.50400001928E-02 0. -1.
    10030    2    1    2    0    0  0.00000000000E+00  0.00000000000E+00 -0.61395857086E+03  0.17883821151E+04  0.16796920738E+04 0.  0.
        1    1    3    3  502    0  0.37609204809E+03 -0.24212634795E+03  0.44984109384E+03  0.63437166294E+03  0.50400001928E-02 0.  1.
       -1    1    3    3    0  502 -0.37609204809E+03  0.24212634795E+03 -0.10637996647E+04  0.11540104521E+04  0.50400001928E-02 0. -1.
</event>
<event>
 5   0  0.5755321E-05  0.1706066E+04  0.7818609E-02  0.8757912E-01
       -2   -1    0    0    0  501  0.00000000000E+00  0.00000000000E+00  0.45369279130E+03  0.45369279130E+03  0.25500000920E-02 0.  1.
        2   -1    0    0  501    0  0.00000000000E+00  0.00000000000E+00 -0.16038726639E+04  0.16038726639E+04  0.25500000920E-02 0. -1.
    10030    2    1    2    0    0  0.00000000000E+00  0.00000000000E+00 -0.11501798726E+04  0.20575654552E+04  0.17060661954E+04 0.  0.
        4    1    3    3  502    0  0.69129483868E+03 -0.40426717727E+03 -0.22070747101E+03  0.83068279462E+03  0.12699999809E+01 0. -1.
       -4    1    3    3    0  502 -0.69129483868E+03  0.40426717727E+03 -0.92947240155E+03  0.12268826605E+04  0.12699999809E+01 0.  1.
</event>
<event>
 5   0  0.5755321E-05  0.1648726E+04  0.7818609E-02  0.8791161E-01
       -2   -1    0    0    0  501  0.00000000000E+00  0.00000000000E+00  0.98269356306E+03  0.98269356306E+03  0.25500000920E-02 0. -1.
        2   -1    0    0  501    0  0.00000000000E+00  0.00000000000E+00 -0.69154229887E+03  0.69154229888E+03  0.25500000920E-02 0.  1.
    10030    2    1    2    0    0  0.00000000000E+00  0.00000000000E+00  0.29115126419E+03  0.16742358619E+04  0.16487257694E+04 0.  0.
        4    1    3    3  502    0  0.34748294793E+03 -0.48409849462E+03  0.72401792667E+03  0.93770961530E+03  0.12699999809E+01 0. -1.
       -4    1    3    3    0  502 -0.34748294793E+03  0.48409849462E+03 -0.43286666248E+03  0.73652624663E+03  0.12699999809E+01 0.  1.
</event>
<event>
 5   0  0.5859822E-05  0.1701035E+04  0.7818609E-02  0.8760774E-01
        2   -1    0    0  501    0  0.00000000000E+00  0.00000000000E+00  0.19191660437E+04  0.19191660437E+04  0.25500000920E-02 0.  1.
       -2   -1    0    0    0  501  0.00000000000E+00  0.00000000000E+00 -0.37692434717E+03  0.37692434718E+03  0.25500000920E-02 0. -1.
    10030    2    1    2    0    0  0.00000000000E+00  0.00000000000E+00  0.15422416965E+04  0.22960903908E+04  0.17010354589E+04 0.  0.
        5    1    3    3  502    0  0.57732129152E+03  0.48756430043E+03  0.24427704826E+03  0.79417390223E+03  0.46999998093E+01 0. -1.
       -5    1    3    3    0  502 -0.57732129152E+03 -0.48756430043E+03  0.12979646482E+04  0.15019164886E+04  0.46999998093E+01 0.  1.
</event>
<event>
 5   0  0.2966258E-05  0.1698403E+04  0.7818609E-02  0.8762276E-01
        1   -1    0    0  501    0  0.00000000000E+00  0.00000000000E+00  0.14731151989E+04  0.14731151989E+04  0.50400001928E-02 0. -1.
       -1   -1    0    0    0  501  0.00000000000E+00  0.00000000000E+00 -0.48953597403E+03  0.48953597405E+03  0.50400001928E-02 0.  1.
    10030    2    1    2    0    0  0.00000000000E+00  0.00000000000E+00  0.98357922491E+03  0.19626511730E+04  0.16984026423E+04 0.  0.
        4    1    3    3  502    0  0.43247541960E+03  0.21093130191E+03 -0.31680248786E+03  0.57610106049E+03  0.12699999809E+01 0.  1.
       -4    1    3    3    0  502 -0.43247541960E+03 -0.21093130191E+03  0.13003817128E+04  0.13865501125E+04  0.12699999809E+01 0. -1.
</event>
<event>
 5   0  0.2967704E-05  0.1698517E+04  0.7818609E-02  0.8762211E-01
       -1   -1    0    0    0  501  0.00000000000E+00  0.00000000000E+00  0.42849747681E+03  0.42849747684E+03  0.50400001928E-02 0. -1.
        1   -1    0    0  501    0  0.00000000000E+00  0.00000000000E+00 -0.16831828207E+04  0.16831828208E+04  0.50400001928E-02 0.  1.
    10030    2    1    2    0    0  0.00000000000E+00  0.00000000000E+00 -0.12546853439E+04  0.21116802976E+04  0.16985165195E+04 0.  0.
        2    1    3    3  502    0  0.46826999280E+03  0.70047742510E+03 -0.49521743067E+03  0.97733602864E+03  0.25500000920E-02 0.  1.
       -2    1    3    3    0  502 -0.46826999280E+03 -0.70047742510E+03 -0.75946791327E+03  0.11343442690E+04  0.25500000920E-02 0. -1.
</event>
<event>
 5   0  0.5671132E-05  0.1698304E+04  0.7818609E-02  0.8762333E-01
       -2   -1    0    0    0  501  0.00000000000E+00  0.00000000000E+00  0.15152427314E+04  0.15152427314E+04  0.25500000920E-02 0.  1.
        2   -1    0    0  501    0  0.00000000000E+00  0.00000000000E+00 -0.47587009977E+03  0.47587009978E+03  0.25500000920E-02 0. -1.
    10030    2    1    2    0    0  0.00000000000E+00  0.00000000000E+00  0.10393726316E+04  0.19911128312E+04  0.16983035180E+04 0.  0.
        3    1    3    3  502    0 -0.34540073994E+03  0.27910629235E+02  0.14285732453E+04  0.14700007489E+04  0.10100000352E+00 0.  1.
       -3    1    3    3    0  502  0.34540073994E+03 -0.27910629235E+02 -0.38920061369E+03  0.52111208226E+03  0.10100000352E+00 0. -1.
</event>
<event>
 5   0  0.5755321E-05  0.1699617E+04  0.7818609E-02  0.8761583E-01
       -2   -1    0    0    0  501  0.00000000000E+00  0.00000000000E+00  0.61664510762E+03  0.61664510763E+03  0.25500000920E-02 0. -1.
        2   -1    0    0  501    0  0.00000000000E+00  0.00000000000E+00 -0.11711350875E+04  0.11711350875E+04  0.25500000920E-02 0.  1.
    10030    2    1    2    0    0  0.00000000000E+00  0.00000000000E+00 -0.55448997985E+03  0.17877801951E+04  0.16996172770E+04 0.  0.
        4    1    3    3  502    0 -0.21803042505E+03  0.26628183595E+03 -0.10945502630E+04  0.11473818778E+04  0.12699999809E+01 0.  1.
       -4    1    3    3    0  502  0.21803042505E+03 -0.26628183595E+03  0.54006028317E+03  0.64039831727E+03  0.12699999809E+01 0. -1.
</event>
<event>
 5   0  0.5755321E-05  0.1668809E+04  0.7818609E-02  0.8779356E-01
       -2   -1    0    0    0  501  0.00000000000E+00  0.00000000000E+00  0.42773308079E+03  0.42773308080E+03  0.25500000920E-02 0.  1.
        2   -1    0    0  501    0  0.00000000000E+00  0.00000000000E+00 -0.16277226240E+04  0.16277226240E+04  0.25500000920E-02 0. -1.
    10030    2    1    2    0    0  0.00000000000E+00  0.00000000000E+00 -0.11999895432E+04  0.20554557048E+04  0.16688089317E+04 0.  0.
        4    1    3    3  502    0 -0.64070430017E+03 -0.18465929892E+03  0.17852470938E+02  0.66702427284E+03  0.12699999809E+01 0.  1.
       -4    1    3    3    0  502  0.64070430017E+03  0.18465929892E+03 -0.12178420142E+04  0.13884314320E+04  0.12699999809E+01 0. -1.
</event>
<event>
 5   0  0.2993769E-05  0.1701179E+04  0.7818609E-02  0.8760692E-01
        1   -1    0    0  501    0  0.00000000000E+00  0.00000000000E+00  0.11678163087E+04  0.11678163087E+04  0.50400001928E-02 0.  1.
       -1   -1    0    0    0  501  0.00000000000E+00  0.00000000000E+00 -0.61953464762E+03  0.61953464764E+03  0.50400001928E-02 0. -1.
    10030    2    1    2    0    0  0.00000000000E+00  0.00000000000E+00  0.54828166107E+03  0.17873509563E+04  0.17011791973E+04 0.  0.
        3    1    3    3  502    0 -0.81328966681E+02 -0.82351289195E+03  0.67413392967E+02  0.83026047707E+03  0.10100000352E+00 0.  1.
       -3    1    3    3    0  502  0.81328966681E+02  0.82351289195E+03  0.48086826810E+03  0.95709047926E+03  0.10100000352E+00 0. -1.
</event>
<event>
 5   0  0.2911632E-05  0.1700673E+04  0.7818609E-02  0.8760980E-01
       -1   -1    0    0    0  501  0.00000000000E+00  0.00000000000E+00  0.39259048648E+03  0.39259048651E+03  0.50400001928E-02 0. -1.
        1   -1    0    0  501    0  0.00000000000E+00  0.00000000000E+00 -0.18417984274E+04  0.18417984274E+04  0.50400001928E-02 0.  1.
    10030    2    1    2    0    0  0.00000000000E+00  0.00000000000E+00 -0.14492079409E+04  0.22343889139E+04  0.17006734438E+04 0.  0.
        1    1    3    3  502    0 -0.22793952477E+03  0.49769850997E+03 -0.15795123544E+04  0.16716816418E+04  0.50400001928E-02 0.  1.
       -1    1    3    3    0  502  0.22793952477E+03 -0.49769850997E+03  0.13030441356E+03  0.56270727204E+03  0.50400001928E-02 0. -1.
</event>
<event>
 5   0  0.2967704E-05  0.1693553E+04  0.7818609E-02  0.8765050E-01
       -1   -1    0    0    0  501  0.00000000000E+00  0.00000000000E+00  0.46336715949E+03  0.46336715952E+03  0.50400001928E-02 0.  1.
        1   -1    0    0  501    0  0.00000000000E+00  0.00000000000E+00 -0.15474338995E+04  0.15474338995E+04  0.50400001928E-02 0. -1.
    10030    2    1    2    0    0  0.00000000000E+00  0.00000000000E+00 -0.10840667400E+04  0.20108010590E+04  0.16935525389E+04 0.  0.
        2    1    3    3  502    0 -0.92169806828E+02  0.79484280844E+03 -0.87098877676E+03  0.11827475693E+04  0.25500000920E-02 0. -1.
       -2    1    3    3    0  502  0.92169806828E+02 -0.79484280844E+03 -0.21307796324E+03  0.82805348973E+03  0.25500000920E-02 0.  1.
</event>
<event>
 5   0  0.5821584E-05  0.1701797E+04  0.7818609E-02  0.8760340E-01
        2   -1    0    0  501    0  0.00000000000E+00  0.00000000000E+00  0.84333573769E+03  0.84333573769E+03  0.25500000920E-02 0.  1.
       -2   -1    0    0    0  501  0.00000000000E+00  0.00000000000E+00 -0.85852903626E+03  0.85852903627E+03  0.25500000920E-02 0. -1.
    10030    2    1    2    0    0  0.00000000000E+00  0.00000000000E+00 -0.15193298574E+02  0.17018647740E+04  0.17017969540E+04 0.  0.
        1    1    3    3  502    0  0.53985542976E+02  0.60086572921E+03 -0.60768235535E+03  0.85628961714E+03  0.50400001928E-02 0. -1.
       -1    1    3    3    0  502 -0.53985542976E+02 -0.60086572921E+03  0.59248905678E+03  0.84557515682E+03  0.50400001928E-02 0.  1.
</event>
<event>
 5   0  0.5755321E-05  0.1698630E+04  0.7818609E-02  0.8762146E-01
        2   -1    0    0  501    0  0.00000000000E+00  0.00000000000E+00  0.12478169899E+04  0.12478169899E+04  0.25500000920E-02 0. -1.
       -2   -1    0    0    0  501  0.00000000000E+00  0.00000000000E+00 -0.57807855464E+03  0.57807855465E+03  0.25500000920E-02 0.  1.
    10030    2    1    2    0    0  0.00000000000E+00  0.00000000000E+00  0.66973843522E+03  0.18258955445E+04  0.16986303211E+04 0.  0.
        4    1    3    3  502    0 -0.13743332392E+03  0.20450376478E+03 -0.53881508532E+03  0.59248039411E+03  0.12699999809E+01 0.  1.
       -4    1    3    3    0  502  0.13743332392E+03 -0.20450376478E+03  0.12085535205E+04  0.12334151504E+04  0.12699999809E+01 0. -1.
</event>
<event>
 5   0  0.2987859E-05  0.1699311E+04  0.7818609E-02  0.8761757E-01
        1   -1    0    0  501    0  0.00000000000E+00  0.00000000000E+00  0.76730839819E+03  0.76730839821E+03  0.50400001928E-02 0.  1.
       -1   -1    0    0    0  501  0.00000000000E+00  0.00000000000E+00 -0.94083989593E+03  0.94083989595E+03  0.50400001928E-02 0. -1.
    10030    2    1    2    0    0  0.00000000000E+00  0.00000000000E+00 -0.17353149774E+03  0.17081482942E+04  0.16993108645E+04 0.  0.
        5    1    3    3  502    0  0.25806401546E+03  0.23452553346E+03  0.69204937701E+03  0.77495399356E+03  0.46999998093E+01 0.  1.
       -5    1    3    3    0  502 -0.25806401546E+03 -0.23452553346E+03 -0.86558087475E+03  0.93319430059E+03  0.46999998093E+01 0. -1.
</event>
<event>
 5   0  0.5821584E-05  0.1699720E+04  0.7818609E-02  0.8761524E-01
        2   -1    0    0  501    0  0.00000000000E+00  0.00000000000E+00  0.25084370162E+04  0.25084370162E+04  0.25500000920E-02 0.  1.
       -2   -1    0    0    0  501  0.00000000000E+00  0.00000000000E+00 -0.28793315710E+03  0.28793315711E+03  0.25500000920E-02 0. -1.
    10030    2    1    2    0    0  0.00000000000E+00  0.00000000000E+00  0.22205038591E+04  0.27963701733E+04  0.16997201999E+04 0.  0.
        1    1    3    3  502    0  0.29480587879E+03  0.79664988063E+03  0.11537999172E+04  0.14327650845E+04  0.50400001928E-02 0. -1.
       -1    1    3    3    0  502 -0.29480587879E+03 -0.79664988063E+03  0.10667039419E+04  0.13636050888E+04  0.50400001928E-02 0.  1.
</event>
<event>
 5   0  0.2993769E-05  0.1699168E+04  0.7818609E-02  0.8761839E-01
        1   -1    0    0  501    0  0.00000000000E+00  0.00000000000E+00  0.76855215186E+03  0.76855215188E+03  0.50400001928E-02 0. -1.
       -1   -1    0    0    0  501  0.00000000000E+00  0.00000000000E+00 -0.93915958636E+03  0.93915958637E+03  0.50400001928E-02 0.  1.
    10030    2    1    2    0    0  0.00000000000E+00  0.00000000000E+00 -0.17060743450E+03  0.17077117382E+04  0.16991681742E+04 0.  0.
        3    1    3    3  502    0 -0.91631089817E+02 -0.46272058211E+03  0.62485123148E+03  0.78290846554E+03  0.10100000352E+00 0. -1.
       -3    1    3    3    0  502  0.91631089817E+02  0.46272058211E+03 -0.79545866598E+03  0.92480327271E+03  0.10100000352E+00 0.  1.
</event>
<event>
 5   0  0.2098250E-05  0.1700671E+04  0.7818609E-02  0.8760982E-01
       -3   -1    0    0    0  501  0.00000000000E+00  0.00000000000E+00  0.32771268409E+03  0.32771269965E+03  0.10100000352E+00 0. -1.
        3   -1    0    0  501    0  0.00000000000E+00  0.00000000000E+00 -0.22064161681E+04  0.22064161704E+04  0.10100000352E+00 0.  1.
    10030    2    1    2    0    0  0.00000000000E+00  0.00000000000E+00 -0.18787034840E+04  0.25341288700E+04  0.17006711467E+04 0.  0.
        2    1    3    3  502    0  0.23072231107E+03 -0.14125716600E+03 -0.21405822331E+04  0.21576094801E+04  0.25500000920E-02 0.  1.
       -2    1    3    3    0  502 -0.23072231107E+03  0.14125716600E+03  0.26187874912E+03  0.37651938997E+03  0.25500000920E-02 0. -1.
</event>
<event>
 5   0  0.2987859E-05  0.1697829E+04  0.7818609E-02  0.8762604E-01
       -1   -1    0    0    0  501  0.00000000000E+00  0.00000000000E+00  0.10797594041E+04  0.10797594041E+04  0.50400001928E-02 0. -1.
        1   -1    0    0  501    0  0.00000000000E+00  0.00000000000E+00 -0.66742242860E+03  0.66742242862E+03  0.50400001928E-02 0.  1.
    10030    2    1    2    0    0  0.00000000000E+00  0.00000000000E+00  0.41233697553E+03  0.17471818328E+04  0.16978287827E+04 0.  0.
        5    1    3    3  502    0 -0.36861297961E+03 -0.49927381033E+03 -0.38987770384E+03  0.73292331138E+03  0.46999998093E+01 0.  1.
       -5    1    3    3    0  502  0.36861297961E+03  0.49927381033E+03  0.80221467936E+03  0.10142585214E+04  0.46999998093E+01 0. -1.
</event>
<event>
 5   0  0.2098250E-05  0.1692942E+04  0.7818609E-02  0.8765400E-01
       -4   -1    0    0    0  501  0.00000000000E+00  0.00000000000E+00  0.49285958530E+03  0.49286122156E+03  0.12699999809E+01 0.  1.
        4   -1    0    0  501    0  0.00000000000E+00  0.00000000000E+00 -0.14537830446E+04  0.14537835994E+04  0.12699999809E+01 0. -1.
    10030    2    1    2    0    0  0.00000000000E+00  0.00000000000E+00 -0.96092345934E+03  0.19466448209E+04  0.16929418667E+04 0.  0.
        4    1    3    3  502    0  0.79154684176E+03  0.14965173072E+03 -0.18156603728E+03  0.82577834920E+03  0.12699999809E+01 0. -1.
       -4    1    3    3    0  502 -0.79154684176E+03 -0.14965173072E+03 -0.77935742206E+03  0.11208664717E+04  0.12699999809E+01 0.  1.
</event>
<event>
 5   0  0.5859822E-05  0.1689026E+04  0.7818609E-02  0.8767648E-01
       -2   -1    0    0    0  501  0.00000000000E+00  0.00000000000E+00  0.74538524559E+03  0.74538524560E+03  0.25500000920E-02 0.  1.
        2   -1    0    0  501    0  0.00000000000E+00  0.00000000000E+00 -0.95682312597E+03  0.95682312597E+03  0.25500000920E-02 0. -1.
    10030    2    1    2    0    0  0.00000000000E+00  0.00000000000E+00 -0.21143788037E+03  0.17022083716E+04  0.16890255661E+04 0.  0.
        5    1    3    3  502    0 -0.27807595581E+03  0.27366527783E+03 -0.86053784182E+03  0.94486315871E+03  0.46999998093E+01 0. -1.
       -5    1    3    3    0  502  0.27807595581E+03 -0.27366527783E+03  0.64909996145E+03  0.75734521285E+03  0.46999998093E+01 0.  1.
</event>
<event>
 5   0  0.5755321E-05  0.1698057E+04  0.7818609E-02  0.8762473E-01
       -2   -1    0    0    0  501  0.00000000000E+00  0.00000000000E+00  0.47467544402E+03  0.47467544403E+03  0.25500000920E-02 0.  1.
        2   -1    0    0  501    0  0.00000000000E+00  0.00000000000E+00 -0.15186154294E+04  0.15186154294E+04  0.25500000920E-02 0. -1.
    10030    2    1    2    0    0  0.00000000000E+00  0.00000000000E+00 -0.10439399854E+04  0.19932908734E+04  0.16980570700E+04 0.  0.
        4    1    3    3  502    0 -0.73921508519E+03  0.13956765827E+03 -0.98401664687E+03  0.12386316836E+04  0.12699999809E+01 0. -1.
       -4    1    3    3    0  502  0.73921508519E+03 -0.13956765827E+03 -0.59923338524E+02  0.75465918984E+03  0.12699999809E+01 0.  1.
</event>
<event>
 5   0  0.2911632E-05  0.1700023E+04  0.7818609E-02  0.8761351E-01
        1   -1    0    0  501    0  0.00000000000E+00  0.00000000000E+00  0.11202347795E+04  0.11202347795E+04  0.50400001928E-02 0.  1.
       -1   -1    0    0    0  501  0.00000000000E+00  0.00000000000E+00 -0.64497172131E+03  0.64497172133E+03  0.50400001928E-02 0. -1.
    10030    2    1    2    0    0  0.00000000000E+00  0.00000000000E+00  0.47526305816E+03  0.17652065008E+04  0.17000232398E+04 0.  0.
        1    1    3    3  502    0 -0.50269309672E+02 -0.76029828357E+03 -0.15356225394E+03  0.77727848893E+03  0.50400001928E-02 0. -1.
       -1    1    3    3    0  502  0.50269309672E+02  0.76029828357E+03  0.62882531209E+03  0.98792801187E+03  0.50400001928E-02 0.  1.
</event>
<event>
 5   0  0.5859822E-05  0.1707162E+04  0.7818609E-02  0.8757290E-01
       -2   -1    0    0    0  501  0.00000000000E+00  0.00000000000E+00  0.36455239489E+03  0.36455239490E+03  0.25500000920E-02 0.  1.
        2   -1    0    0  501    0  0.00000000000E+00  0.00000000000E+00 -0.19986174845E+04  0.19986174845E+04  0.25500000920E-02 0. -1.
    10030    2    1    2    0    0  0.00000000000E+00  0.00000000000E+00 -0.16340650896E+04  0.23631698794E+04  0.17071623127E+04 0.  0.
        5    1    3    3  502    0  0.32967529302E+03 -0.23673373031E+03 -0.18564785551E+04  0.19003324376E+04  0.46999998093E+01 0. -1.
       -5    1    3    3    0  502 -0.32967529302E+03  0.23673373031E+03  0.22241346548E+03  0.46283744179E+03  0.46999998093E+01 0.  1.
</event>
<event>
 5   0  0.2987859E-05  0.1696247E+04  0.7818609E-02  0.8763508E-01
        1   -1    0    0  501    0  0.00000000000E+00  0.00000000000E+00  0.84709183477E+03  0.84709183478E+03  0.50400001928E-02 0.  1.
       -1   -1    0    0    0  501  0.00000000000E+00  0.00000000000E+00 -0.84915609690E+03  0.84915609691E+03  0.50400001928E-02 0. -1.
    10030    2    1    2    0    0  0.00000000000E+00  0.00000000000E+00 -0.20642621292E+01  0.16962479317E+04  0.16962466756E+04 0.  0.
        5    1    3    3  502    0  0.91909512921E+02 -0.78287657048E+03  0.31193458927E+03  0.84774309856E+03  0.46999998093E+01 0.  1.
       -5    1    3    3    0  502 -0.91909512921E+02  0.78287657048E+03 -0.31399885140E+03  0.84850483313E+03  0.46999998093E+01 0. -1.
</event>
<event>
 5   0  0.5671132E-05  0.1699217E+04  0.7818609E-02  0.8761811E-01
       -2   -1    0    0    0  501  0.00000000000E+00  0.00000000000E+00  0.72989134818E+03  0.72989134819E+03  0.25500000920E-02 0. -1.
        2   -1    0    0  501    0  0.00000000000E+00  0.00000000000E+00 -0.98896210836E+03  0.98896210837E+03  0.25500000920E-02 0.  1.
    10030    2    1    2    0    0  0.00000000000E+00  0.00000000000E+00 -0.25907076018E+03  0.17188534566E+04  0.16992173335E+04 0.  0.
        3    1    3    3  502    0 -0.42936979741E+02 -0.82639692598E+03  0.65197456265E+02  0.83007600978E+03  0.10100000352E+00 0. -1.
       -3    1    3    3    0  502  0.42936979741E+02  0.82639692598E+03 -0.32426821644E+03  0.88877744678E+03  0.10100000352E+00 0.  1.
</event>
<event>
 5   0  0.5859822E-05  0.1700652E+04  0.7818609E-02  0.8760992E-01
        2   -1    0    0  501    0  0.00000000000E+00  0.00000000000E+00  0.52503917801E+03  0.52503917801E+03  0.25500000920E-02 0.  1.
       -2   -1    0    0    0  501  0.00000000000E+00  0.00000000000E+00 -0.13771440420E+04  0.13771440420E+04  0.25500000920E-02 0. -1.
    10030    2    1    2    0    0  0.00000000000E+00  0.00000000000E+00 -0.85210486396E+03  0.19021832200E+04  0.17006523170E+04 0.  0.
        5    1    3    3  502    0  0.42156521760E+03  0.11805914818E+03  0.38928673669E+03  0.58585104636E+03  0.46999998093E+01 0.  1.
       -5    1    3    3    0  502 -0.42156521760E+03 -0.11805914818E+03 -0.12413916007E+04  0.13163321736E+04  0.46999998093E+01 0. -1.
</event>
<event>
 5   0  0.2966258E-05  0.1700450E+04  0.7818609E-02  0.8761108E-01
        1   -1    0    0  501    0  0.00000000000E+00  0.00000000000E+00  0.84727601256E+03  0.84727601258E+03  0.50400001928E-02 0. -1.
       -1   -1    0    0    0  501  0.00000000000E+00  0.00000000000E+00 -0.85318405323E+03  0.85318405324E+03  0.50400001928E-02 0.  1.
    10030    2    1    2    0    0  0.00000000000E+00  0.00000000000E+00 -0.59080406656E+01  0.17004600658E+04  0.17004498024E+04 0.  0.
        4    1    3    3  502    0  0.75022834162E+03  0.34252135479E+03  0.20372893091E+03  0.84951193826E+03  0.12699999809E+01 0. -1.
       -4    1    3    3    0  502 -0.75022834162E+03 -0.34252135479E+03 -0.20963697157E+03  0.85094812756E+03  0.12699999809E+01 0.  1.
</event>
<event>
 5   0  0.5671132E-05  0.1701125E+04  0.7818609E-02  0.8760723E-01
       -2   -1    0    0    0  501  0.00000000000E+00  0.00000000000E+00  0.61490479383E+03  0.61490479384E+03  0.25500000920E-02 0.  1.
        2   -1    0    0  501    0  0.00000000000E+00  0.00000000000E+00 -0.11765349161E+04  0.11765349161E+04  0.25500000920E-02 0. -1.
    10030    2    1    2    0    0  0.00000000000E+00  0.00000000000E+00 -0.56163012230E+03  0.17914397100E+04  0.17011254628E+04 0.  0.
        3    1    3    3  502    0  0.56903240982E+03  0.60630048535E+03 -0.92259476193E+02  0.83660622942E+03  0.10100000352E+00 0.  1.
       -3    1    3    3    0  502 -0.56903240982E+03 -0.60630048535E+03 -0.46937064611E+03  0.95483348055E+03  0.10100000352E+00 0. -1.
</event>
<event>
 5   0  0.5652631E-05  0.1698597E+04  0.7818609E-02  0.8762165E-01
        2   -1    0    0  501    0  0.00000000000E+00  0.00000000000E+00  0.74286078735E+03  0.74286078735E+03  0.25500000920E-02 0.  1.
       -2   -1    0    0    0  501  0.00000000000E+00  0.00000000000E+00 -0.97098701863E+03  0.97098701864E+03  0.25500000920E-02 0. -1.
    10030    2    1    2    0    0  0.00000000000E+00  0.00000000000E+00 -0.22812623129E+03  0.17138478060E+04  0.16985972815E+04 0.  0.
        2    1    3    3  502    0 -0.82729718465E+03 -0.17198705013E+03 -0.27808723880E+02  0.84544278474E+03  0.25500000920E-02 0.  1.
       -2    1    3    3    0  502  0.82729718465E+03  0.17198705013E+03 -0.20031750741E+03  0.86840502124E+03  0.25500000920E-02 0. -1.
</event>
<event>
 5   0  0.5755321E-05  0.1678648E+04  0.7818609E-02  0.8773637E-01
       -2   -1    0    0    0  501  0.00000000000E+00  0.00000000000E+00  0.34747899170E+03  0.34747899171E+03  0.25500000920E-02 0.  1.
        2   -1    0    0  501    0  0.00000000000E+00  0.00000000000E+00 -0.20273583239E+04  0.20273583239E+04  0.25500000920E-02 0. -1.
    10030    2    1    2    0    0  0.00000000000E+00  0.00000000000E+00 -0.16798793322E+04  0.23748373156E+04  0.16786475821E+04 0.  0.
        4    1    3    3  502    0  0.71209170988E+02  0.41503328775E+03  0.18721794707E+03  0.46084221658E+03  0.12699999809E+01 0.  1.
       -4    1    3    3    0  502 -0.71209170988E+02 -0.41503328775E+03 -0.18670972792E+04  0.19139950990E+04  0.12699999809E+01 0. -1.
</event>
<event>
 5   0  0.5859822E-05  0.1701832E+04  0.7818609E-02  0.8760320E-01
       -2   -1    0    0    0  501  0.00000000000E+00  0.00000000000E+00  0.17957852289E+04  0.17957852289E+04  0.25500000920E-02 0. -1.
        2   -1    0    0  501    0  0.00000000000E+00  0.00000000000E+00 -0.40319864924E+03  0.40319864925E+03  0.25500000920E-02 0.  1.
    10030    2    1    2    0    0  0.00000000000E+00  0.00000000000E+00  0.13925865797E+04  0.21989838782E+04  0.17018321640E+04 0.  0.
        5    1    3    3  502    0 -0.97894675450E+02 -0.14977151508E+03 -0.37859918404E+03  0.41877715597E+03  0.46999998093E+01 0.  1.
       -5    1    3    3    0  502  0.97894675450E+02  0.14977151508E+03  0.17711857637E+04  0.17802067222E+04  0.46999998093E+01 0. -1.
</event>
<event>
 5   0  0.5821584E-05  0.1666522E+04  0.7818609E-02  0.8780692E-01
       -2   -1    0    0    0  501  0.00000000000E+00  0.00000000000E+00  0.74567340126E+03  0.74567340126E+03  0.25500000920E-02 0. -1.
        2   -1    0    0  501    0  0.00000000000E+00  0.00000000000E+00 -0.93113705157E+03  0.93113705157E+03  0.25500000920E-02 0.  1.
    10030    2    1    2    0    0  0.00000000000E+00  0.00000000000E+00 -0.18546365031E+03  0.16768104528E+04  0.16665222858E+04 0.  0.
        1    1    3    3  502    0 -0.26811072777E+03 -0.64949040972E+03  0.35792041518E+03  0.78856082727E+03  0.50400001928E-02 0. -1.
       -1    1    3    3    0  502  0.26811072777E+03  0.64949040972E+03 -0.54338406549E+03  0.88824962557E+03  0.50400001928E-02 0.  1.
</event>
<event>
 5   0  0.5821584E-05  0.1700605E+04  0.7818609E-02  0.8761019E-01
        2   -1    0    0  501    0  0.00000000000E+00  0.00000000000E+00  0.56498241570E+03  0.56498241571E+03  0.25500000920E-02 0.  1.
       -2   -1    0    0    0  501  0.00000000000E+00  0.00000000000E+00 -0.12797117127E+04  0.12797117127E+04  0.25500000920E-02 0. -1.
    10030    2    1    2    0    0  0.00000000000E+00  0.00000000000E+00 -0.71472929696E+03  0.18446941284E+04  0.17006053214E+04 0.  0.
        1    1    3    3  502    0  0.43100101239E+03  0.28050427416E+03 -0.10919185945E+04  0.12069510087E+04  0.50400001928E-02 0. -1.
       -1    1    3    3    0  502 -0.43100101239E+03 -0.28050427416E+03  0.37718929749E+03  0.63774311966E+03  0.50400001928E-02 0.  1.
</event>
<event>
 5   0  0.2911632E-05  0.1704503E+04  0.7818609E-02  0.8758800E-01
       -1   -1    0    0    0  501  0.00000000000E+00  0.00000000000E+00  0.92103312818E+03  0.92103312819E+03  0.50400001928E-02 0.  1.
        1   -1    0    0  501    0  0.00000000000E+00  0.00000000000E+00 -0.78860619291E+03  0.78860619293E+03  0.50400001928E-02 0. -1.
    10030    2    1    2    0    0  0.00000000000E+00  0.00000000000E+00  0.13242693526E+03  0.17096393211E+04  0.17045027765E+04 0.  0.
        1    1    3    3  502    0  0.50782956177E+03  0.33089278102E+03  0.66714458163E+03  0.90136717777E+03  0.50400001928E-02 0.  1.
       -1    1    3    3    0  502 -0.50782956177E+03 -0.33089278102E+03 -0.53471764637E+03  0.80827214334E+03  0.50400001928E-02 0. -1.
</event>
<event>
 5   0  0.2967704E-05  0.1696212E+04  0.7818609E-02  0.8763528E-01
        1   -1    0    0  501    0  0.00000000000E+00  0.00000000000E+00  0.92536404748E+03  0.92536404749E+03  0.50400001928E-02 0.  1.
       -1   -1    0    0    0  501  0.00000000000E+00  0.00000000000E+00 -0.77729839046E+03  0.77729839047E+03  0.50400001928E-02 0. -1.
    10030    2    1    2    0    0  0.00000000000E+00  0.00000000000E+00  0.14806565702E+03  0.17026624380E+04  0.16962122328E+04 0.  0.
        2    1    3    3  502    0 -0.79073608259E+03  0.30281654969E+03  0.25656518874E+02  0.84712435454E+03  0.25500000920E-02 0. -1.
       -2    1    3    3    0  502  0.79073608259E+03 -0.30281654969E+03  0.12240913815E+03  0.85553808343E+03  0.25500000920E-02 0.  1.
</event>
<event>
 5   0  0.5821584E-05  0.1696169E+04  0.7818609E-02  0.8763552E-01
       -2   -1    0    0    0  501  0.00000000000E+00  0.00000000000E+00  0.32489497573E+03  0.32489497574E+03  0.25500000920E-02 0. -1.
        2   -1    0    0  501    0  0.00000000000E+00  0.00000000000E+00 -0.22137839681E+04  0.22137839681E+04  0.25500000920E-02 0.  1.
    10030    2    1    2    0    0  0.00000000000E+00  0.00000000000E+00 -0.18888889923E+04  0.25386789438E+04  0.16961689640E+04 0.  0.
        1    1    3    3  502    0  0.32449134427E+02  0.99646882307E+02  0.31516669452E+03  0.33213324561E+03  0.50400001928E-02 0. -1.
       -1    1    3    3    0  502 -0.32449134427E+02 -0.99646882307E+02 -0.22040556869E+04  0.22065456982E+04  0.50400001928E-02 0.  1.
</event>
<event>
 5   0  0.2987859E-05  0.1703926E+04  0.7818609E-02  0.8759128E-01
       -1   -1    0    0    0  501  0.00000000000E+00  0.00000000000E+00  0.64814516482E+03  0.64814516484E+03  0.50400001928E-02 0.  1.
        1   -1    0    0  501    0  0.00000000000E+00  0.00000000000E+00 -0.11198745449E+04  0.11198745449E+04  0.50400001928E-02 0. -1.
    10030    2    1    2    0    0  0.00000000000E+00  0.00000000000E+00 -0.47172938009E+03  0.17680197098E+04  0.17039263734E+04 0.  0.
        5    1    3    3  502    0 -0.54255235099E+03 -0.38133386092E+03  0.31908054705E+03  0.73594364768E+03  0.46999998093E+01 0.  1.
       -5    1    3    3    0  502  0.54255235099E+03  0.38133386092E+03 -0.79080992714E+03  0.10320760621E+04  0.46999998093E+01 0. -1.
</event>
<event>
 5   0  0.5859822E-05  0.1692631E+04  0.7818609E-02  0.8765578E-01
       -2   -1    0    0    0  501  0.00000000000E+00  0.00000000000E+00  0.87652188473E+03  0.87652188474E+03  0.25500000920E-02 0.  1.
        2   -1    0    0  501    0  0.00000000000E+00  0.00000000000E+00 -0.81715002271E+03  0.81715002271E+03  0.25500000920E-02 0. -1.
    10030    2    1    2    0    0  0.00000000000E+00  0.00000000000E+00  0.59371862026E+02  0.16936719074E+04  0.16926309438E+04 0.  0.
        5    1    3    3  502    0 -0.46436789817E+03  0.42293985425E+03 -0.53785961673E+03  0.82694057977E+03  0.46999998093E+01 0. -1.
       -5    1    3    3    0  502  0.46436789817E+03 -0.42293985425E+03  0.59723147875E+03  0.86673132768E+03  0.46999998093E+01 0.  1.
</event>
<event>
 5   0  0.2993769E-05  0.1701652E+04  0.7818609E-02  0.8760422E-01
        1   -1    0    0  501    0  0.00000000000E+00  0.00000000000E+00  0.19669697969E+04  0.19669697969E+04  0.50400001928E-02 0.  1.
       -1   -1    0    0    0  501  0.00000000000E+00  0.00000000000E+00 -0.36803071241E+03  0.36803071245E+03  0.50400001928E-02 0. -1.
    10030    2    1    2    0    0  0.00000000000E+00  0.00000000000E+00  0.15989390845E+04  0.23350005094E+04  0.17016524859E+04 0.  0.
        3    1    3    3  502    0  0.17314206529E+03 -0.76995026811E+03  0.36315506663E+03  0.86872504440E+03  0.10100000352E+00 0. -1.
       -3    1    3    3    0  502 -0.17314206529E+03  0.76995026811E+03  0.12357840179E+04  0.14662754650E+04  0.10100000352E+00 0.  1.
</event>
<event>
 5   0  0.5652631E-05  0.1702188E+04  0.7818609E-02  0.8760117E-01
       -2   -1    0    0    0  501  0.00000000000E+00  0.00000000000E+00  0.36253707917E+03  0.36253707918E+03  0.25500000920E-02 0. -1.
        2   -1    0    0  501    0  0.00000000000E+00  0.00000000000E+00 -0.19980337440E+04  0.19980337440E+04  0.25500000920E-02 0.  1.
    10030    2    1    2    0    0  0.00000000000E+00  0.00000000000E+00 -0.16354966648E+04  0.23605708232E+04  0.17021883769E+04 0.  0.
        2    1    3    3  502    0 -0.50150213533E+03  0.67118052316E+03 -0.61031542623E+03  0.10365677045E+04  0.25500000920E-02 0. -1.
       -2    1    3    3    0  502  0.50150213533E+03 -0.67118052316E+03 -0.10251812386E+04  0.13240031187E+04  0.25500000920E-02 0.  1.
</event>
<event>
 5   0  0.2966258E-05  0.1698842E+04  0.7818609E-02  0.8762025E-01
       -1   -1    0    0    0  501  0.00000000000E+00  0.00000000000E+00  0.10285288847E+04  0.10285288848E+04  0.50400001928E-02 0.  1.
        1   -1    0    0  501    0  0.00000000000E+00  0.00000000000E+00 -0.70150329144E+03  0.70150329146E+03  0.50400001928E-02 0. -1.
    10030    2    1    2    0    0  0.00000000000E+00  0.00000000000E+00  0.32702559330E+03  0.17300321762E+04  0.16988424271E+04 0.  0.
        4    1    3    3  502    0  0.17125216277E+03 -0.93457908605E+02  0.10054029714E+04  0.10241574253E+04  0.12699999809E+01 0.  1.
       -4    1    3    3    0  502 -0.17125216277E+03  0.93457908605E+02 -0.67837737812E+03  0.70587475092E+03  0.12699999809E+01 0. -1.
</event>
<event>
 5   0  0.2987859E-05  0.1700290E+04  0.7818609E-02  0.8761199E-01
        1   -1    0    0  501    0  0.00000000000E+00  0.00000000000E+00  0.21630281298E+04  0.21630281298E+04  0.50400001928E-02 0. -1.
       -1   -1    0    0    0  501  0.00000000000E+00  0.00000000000E+00 -0.33413626268E+03  0.33413626272E+03  0.50400001928E-02 0.  1.
    10030    2    1    2    0    0  0.00000000000E+00  0.00000000000E+00  0.18288918672E+04  0.24971643926E+04  0.17002895464E+04 0.  0.
        5    1    3    3  502    0  0.55138902062E+03 -0.64688869137E+03  0.93668134392E+03  0.12648671318E+04  0.46999998093E+01 0.  1.
       -5    1    3    3    0  502 -0.55138902062E+03  0.64688869137E+03  0.89221052323E+03  0.12322972607E+04  0.46999998093E+01 0. -1.
</event>
<event>
 5   0  0.2911632E-05  0.1700396E+04  0.7818609E-02  0.8761138E-01
        1   -1    0    0  501    0  0.00000000000E+00  0.00000000000E+00  0.24045756229E+04  0.24045756230E+04  0.50400001928E-02 0.  1.
       -1   -1    0    0    0  501  0.00000000000E+00  0.00000000000E+00 -0.30060885339E+03  0.30060885344E+03  0.50400001928E-02 0. -1.
    10030    2    1    2    0    0  0.00000000000E+00  0.00000000000E+00  0.21039667696E+04  0.27051844764E+04  0.17003960962E+04 0.  0.
        1    1    3    3  502    0 -0.55543534296E+03 -0.44231592006E+03  0.17959547375E+04  0.19312185823E+04  0.50400001928E-02 0.  1.
       -1    1    3    3    0  502  0.55543534296E+03  0.44231592006E+03  0.30801203205E+03  0.77396589411E+03  0.50400001928E-02 0. -1.
</event>
<event>
 5   0  0.2967704E-05  0.1700990E+04  0.7818609E-02  0.8760800E-01
       -1   -1    0    0    0  501  0.00000000000E+00  0.00000000000E+00  0.11040668513E+04  0.11040668513E+04  0.50400001928E-02 0.  1.
        1   -1    0    0  501    0  0.00000000000E+00  0.00000000000E+00 -0.65516117848E+03  0.65516117850E+03  0.50400001928E-02 0. -1.
    10030    2    1    2    0    0  0.00000000000E+00  0.00000000000E+00  0.44890567286E+03  0.17592280298E+04  0.17009899935E+04 0.  0.
        2    1    3    3  502    0 -0.10508563505E+03 -0.83695242153E+03  0.33684451628E+03  0.90829322069E+03  0.25500000920E-02 0.  1.
       -2    1    3    3    0  502  0.10508563505E+03  0.83695242153E+03  0.11206115658E+03  0.85093480915E+03  0.25500000920E-02 0. -1.
</event>
<event>
 5   0  0.5671132E-05  0.1693847E+04  0.7818609E-02  0.8764881E-01
        2   -1    0    0  501    0  0.00000000000E+00  0.00000000000E+00  0.72468473054E+03  0.72468473054E+03  0.25500000920E-02 0. -1.
       -2   -1    0    0    0  501  0.00000000000E+00  0.00000000000E+00 -0.98978149695E+03  0.98978149696E+03  0.25500000920E-02 0.  1.
    10030    2    1    2    0    0  0.00000000000E+00  0.00000000000E+00 -0.26509676642E+03  0.17144662275E+04  0.16938471447E+04 0.  0.
        3    1    3    3  502    0  0.81291987222E+02 -0.23807706572E+03 -0.95108935302E+03  0.98379878229E+03  0.10100000352E+00 0.  1.
       -3    1    3    3    0  502 -0.81291987222E+02  0.23807706572E+03  0.68599258660E+03  0.73066744521E+03  0.10100000352E+00 0. -1.
</event>
<event>
 5   0  0.5821584E-05  0.1702800E+04  0.7818609E-02  0.8759769E-01
        2   -1    0    0  501    0  0.00000000000E+00  0.00000000000E+00  0.11092331807E+04  0.11092331807E+04  0.25500000920E-02 0.  1.
       -2   -1    0    0    0  501  0.00000000000E+00  0.00000000000E+00 -0.65349793453E+03  0.65349793453E+03  0.25500000920E-02 0. -1.
    10030    2    1    2    0    0  0.00000000000E+00  0.00000000000E+00  0.45573524620E+03  0.17627311153E+04  0.17027995684E+04 0.  0.
        1    1    3    3  502    0 -0.34952812989E+03 -0.24119091693E+03  0.99176827846E+03  0.10788638886E+04  0.50400001928E-02 0.  1.
       -1    1    3    3    0  502  0.34952812989E+03  0.24119091693E+03 -0.53603303225E+03  0.68386722665E+03  0.50400001928E-02 0. -1.
</event>
<event>
 5   0  0.2967704E-05  0.1699756E+04  0.7818609E-02  0.8761503E-01
       -1   -1    0    0    0  501  0.00000000000E+00  0.00000000000E+00  0.35805785543E+04  0.35805785543E+04  0.50400001928E-02 0. -1.
        1   -1    0    0  501    0  0.00000000000E+00  0.00000000000E+00 -0.20172514130E+03  0.20172514136E+03  0.50400001928E-02 0.  1.
    10030    2    1    2    0    0  0.00000000000E+00  0.00000000000E+00  0.33788534130E+04  0.37823036957E+04  0.16997561177E+04 0.  0.
        2    1    3    3  502    0 -0.58917630192E+03  0.42429759680E+03  0.26723915427E+04  0.27692659177E+04  0.25500000920E-02 0. -1.
       -2    1    3    3    0  502  0.58917630192E+03 -0.42429759680E+03  0.70646187029E+03  0.10130377780E+04  0.25500000920E-02 0.  1.
</event>
<event>
 5   0  0.2966258E-05  0.1700331E+04  0.7818609E-02  0.8761175E-01
        1   -1    0    0  501    0  0.00000000000E+00  0.00000000000E+00  0.49144022238E+03  0.49144022240E+03  0.50400001928E-02 0.  1.
       -1   -1    0    0    0  501  0.00000000000E+00  0.00000000000E+00 -0.14707416348E+04  0.14707416348E+04  0.50400001928E-02 0. -1.
    10030    2    1    2    0    0  0.00000000000E+00  0.00000000000E+00 -0.97930141246E+03  0.19621818572E+04  0.17003312573E+04 0.  0.
        4    1    3    3  502    0  0.15425385962E+03 -0.13988836373E+03 -0.14408552456E+04  0.14558256967E+04  0.12699999809E+01 0. -1.
       -4    1    3    3    0  502 -0.15425385962E+03  0.13988836373E+03  0.46155383315E+03  0.50635616053E+03  0.12699999809E+01 0.  1.
</event>
<event>
 5   0  0.2993769E-05  0.1701879E+04  0.7818609E-02  0.8760294E-01
       -1   -1    0    0    0  501  0.00000000000E+00  0.00000000000E+00  0.67768864027E+03  0.67768864029E+03  0.50400001928E-02 0.  1.
        1   -1    0    0  501    0  0.00000000000E+00  0.00000000000E+00 -0.10684813755E+04  0.10684813755E+04  0.50400001928E-02 0. -1.
    10030    2    1    2    0    0  0.00000000000E+00  0.00000000000E+00 -0.39079273518E+03  0.17461700158E+04  0.17018785979E+04 0.  0.
        3    1    3    3  502    0  0.31876139455E+03  0.92690991620E+02 -0.99930332611E+03  0.10529993326E+04  0.10100000352E+00 0. -1.
       -3    1    3    3    0  502 -0.31876139455E+03 -0.92690991620E+02  0.60851059093E+03  0.69317068321E+03  0.10100000352E+00 0.  1.
</event>
<event>
 5   0  0.2966258E-05  0.1701684E+04  0.7818609E-02  0.8760404E-01
       -1   -1    0    0    0  501  0.00000000000E+00  0.00000000000E+00  0.94849122174E+03  0.94849122176E+03  0.50400001928E-02 0. -1.
        1   -1    0    0  501    0  0.00000000000E+00  0.00000000000E+00 -0.76324638234E+03  0.76324638236E+03  0.50400001928E-02 0.  1.
    10030    2    1    2    0    0  0.00000000000E+00  0.00000000000E+00  0.18524483941E+03  0.17117376041E+04  0.17016844522E+04 0.  0.
        4    1    3    3  502    0  0.48022723806E+03 -0.67589781942E+03 -0.99489684770E+02  0.83507836323E+03  0.12699999809E+01 0.  1.
       -4    1    3    3    0  502 -0.48022723806E+03  0.67589781942E+03  0.28473452418E+03  0.87665924088E+03  0.12699999809E+01 0. -1.
</event>
<event>
 5   0  0.5652631E-05  0.1712311E+04  0.7818609E-02  0.8754374E-01
        2   -1    0    0  501    0  0.00000000000E+00  0.00000000000E+00  0.17091840951E+04  0.17091840951E+04  0.25500000920E-02 0.  1.
       -2   -1    0    0    0  501  0.00000000000E+00  0.00000000000E+00 -0.42886087966E+03  0.42886087967E+03  0.25500000920E-02 0. -1.
    10030    2    1    2    0    0  0.00000000000E+00  0.00000000000E+00  0.12803232154E+04  0.21380449747E+04  0.17123109467E+04 0.  0.
        2    1    3    3  502    0  0.65422678613E+03 -0.55165189487E+03  0.67247423791E+03  0.10883722256E+04  0.25500000920E-02 0.  1.
       -2    1    3    3    0  502 -0.65422678613E+03  0.55165189487E+03  0.60784897748E+03  0.10496727491E+04  0.25500000920E-02 0. -1.
</event>
<event>
 5   0  0.5821584E-05  0.1697140E+04  0.7818609E-02  0.8762997E-01
       -2   -1    0    0    0  501  0.00000000000E+00  0.00000000000E+00  0.64445029769E+03  0.64445029770E+03  0.25500000920E-02 0.  1.
        2   -1    0    0  501    0  0.00000000000E+00  0.00000000000E+00 -0.11173420222E+04  0.11173420222E+04  0.25500000920E-02 0. -1.
    10030    2    1    2    0    0  0.00000000000E+00  0.00000000000E+00 -0.47289172452E+03  0.17617923199E+04  0.16971404171E+04 0.  0.
        1    1    3    3  502    0  0.18879420675E+03 -0.72948502764E+03 -0.64154190493E+03  0.98963006920E+03  0.50400001928E-02 0. -1.
       -1    1    3    3    0  502 -0.18879420675E+03  0.72948502764E+03  0.16865018041E+03  0.77216225071E+03  0.50400001928E-02 0.  1.
</event>
<event>
 5   0  0.2911632E-05  0.1700031E+04  0.7818609E-02  0.8761347E-01
       -1   -1    0    0    0  501  0.00000000000E+00  0.00000000000E+00  0.45563214605E+03  0.45563214607E+03  0.50400001928E-02 0.  1.
        1   -1    0    0  501    0  0.00000000000E+00  0.00000000000E+00 -0.15857666216E+04  0.15857666216E+04  0.50400001928E-02 0. -1.
    10030    2    1    2    0    0  0.00000000000E+00  0.00000000000E+00 -0.11301344756E+04  0.20413987677E+04  0.17000308809E+04 0.  0.
        1    1    3    3  502    0 -0.14021103600E+03 -0.76612076591E+03 -0.15621947547E+03  0.79435803459E+03  0.50400001928E-02 0.  1.
       -1    1    3    3    0  502  0.14021103600E+03  0.76612076591E+03 -0.97391500010E+03  0.12470407331E+04  0.50400001928E-02 0. -1.
</event>
<event>
 5   0  0.5652631E-05  0.1697827E+04  0.7818609E-02  0.8762605E-01
        2   -1    0    0  501    0  0.00000000000E+00  0.00000000000E+00  0.90506852129E+03  0.90506852129E+03  0.25500000920E-02 0. -1.
       -2   -1    0    0    0  501  0.00000000000E+00  0.00000000000E+00 -0.79624273906E+03  0.79624273906E+03  0.25500000920E-02 0.  1.
    10030    2    1    2    0    0  0.00000000000E+00  0.00000000000E+00  0.10882578223E+03  0.17013112604E+04  0.16978271272E+04 0.  0.
        2    1    3    3  502    0 -0.59430020117E+03  0.30016988031E+03  0.58214299883E+03  0.88441232310E+03  0.25500000920E-02 0. -1.
       -2    1    3    3    0  502  0.59430020117E+03 -0.30016988031E+03 -0.47331721660E+03  0.81689893726E+03  0.25500000920E-02 0.  1.
</event>
<event>
 5   0  0.2993769E-05  0.1699212E+04  0.7818609E-02  0.8761814E-01
       -1   -1    0    0    0  501  0.00000000000E+00  0.00000000000E+00  0.43360882366E+03  0.43360882369E+03  0.50400001928E-02 0.  1.
        1   -1    0    0  501    0  0.00000000000E+00  0.00000000000E+00 -0.16647048029E+04  0.16647048029E+04  0.50400001928E-02 0. -1.
    10030    2    1    2    0    0  0.00000000000E+00  0.00000000000E+00 -0.12310959793E+04  0.20983136266E+04  0.16992123956E+04 0.  0.
        3    1    3    3  502    0  0.52048763210E+03  0.60785275382E+03 -0.96794902706E+03  0.12559130840E+04  0.10100000352E+00 0. -1.
       -3    1    3    3    0  502 -0.52048763210E+03 -0.60785275382E+03 -0.26314695221E+03  0.84240054258E+03  0.10100000352E+00 0.  1.
</event>
<event>
 5   0  0.5821584E-05  0.1699666E+04  0.7818609E-02  0.8761555E-01
        2   -1    0    0  501    0  0.00000000000E+00  0.00000000000E+00  0.56852857815E+03  0.56852857815E+03  0.25500000920E-02 0. -1.
       -2   -1    0    0    0  501  0.00000000000E+00  0.00000000000E+00 -0.12703247131E+04  0.12703247131E+04  0.25500000920E-02 0.  1.
    10030    2    1    2    0    0  0.00000000000E+00  0.00000000000E+00 -0.70179613498E+03  0.18388532913E+04  0.16996657353E+04 0.  0.
        1    1    3    3  502    0 -0.32256148969E+03  0.58591270896E+03 -0.91811893413E+03  0.11359058035E+04  0.50400001928E-02 0.  1.
       -1    1    3    3    0  502  0.32256148969E+03 -0.58591270896E+03  0.21632279915E+03  0.70294748780E+03  0.50400001928E-02 0. -1.
</event>
<event>
 5   0  0.2993769E-05  0.1700478E+04  0.7818609E-02  0.8761092E-01
       -1   -1    0    0    0  501  0.00000000000E+00  0.00000000000E+00  0.64562032624E+03  0.64562032626E+03  0.50400001928E-02 0. -1.
        1   -1    0    0  501    0  0.00000000000E+00  0.00000000000E+00 -0.11197082889E+04  0.11197082889E+04  0.50400001928E-02 0.  1.
    10030    2    1    2    0    0  0.00000000000E+00  0.00000000000E+00 -0.47408796269E+03  0.17653286152E+04  0.17004780867E+04 0.  0.
        3    1    3    3  502    0 -0.93926819628E+02 -0.23134734464E+03 -0.10807895500E+04  0.11092564640E+04  0.10100000352E+00 0.  1.
       -3    1    3    3    0  502  0.93926819628E+02  0.23134734464E+03  0.60670158733E+03  0.65607215120E+03  0.10100000352E+00 0. -1.
</event>
<event>
 5   0  0.5859822E-05  0.1709141E+04  0.7818609E-02  0.8756168E-01
        2   -1    0    0  501    0  0.00000000000E+00  0.00000000000E+00  0.90614097976E+03  0.90614097976E+03  0.25500000920E-02 0. -1.
       -2   -1    0    0    0  501  0.00000000000E+00  0.00000000000E+00 -0.80593539620E+03  0.80593539621E+03  0.25500000920E-02 0.  1.
    10030    2    1    2    0    0  0.00000000000E+00  0.00000000000E+00  0.10020558356E+03  0.17120763760E+04  0.17091414096E+04 0.  0.
        5    1    3    3  502    0  0.48510353206E+03 -0.34257925826E+03  0.66563582238E+03  0.89206452851E+03  0.46999998093E+01 0. -1.
       -5    1    3    3    0  502 -0.48510353206E+03  0.34257925826E+03 -0.56543023882E+03  0.82001184746E+03  0.46999998093E+01 0.  1.
</event>
<event>
 5   0  0.5821584E-05  0.1698404E+04  0.7818609E-02  0.8762275E-01
        2   -1    0    0  501    0  0.00000000000E+00  0.00000000000E+00  0.52615536050E+03  0.52615536051E+03  0.25500000920E-02 0. -1.
       -2   -1    0    0    0  501  0.00000000000E+00  0.00000000000E+00 -0.13705920242E+04  0.13705920242E+04  0.25500000920E-02 0.  1.
    10030    2    1    2    0    0  0.00000000000E+00  0.00000000000E+00 -0.84443666370E+03  0.18967473847E+04  0.16984043578E+04 0.  0.
        1    1    3    3  502    0  0.18046662231E+03  0.55673429936E+03 -0.11094005742E+04  0.12543089396E+04  0.50400001928E-02 0.  1.
       -1    1    3    3    0  502 -0.18046662231E+03 -0.55673429936E+03  0.26496391053E+03  0.64243844511E+03  0.50400001928E-02 0. -1.
</event>
<event>
 5   0  0.2967704E-05  0.1705416E+04  0.7818609E-02  0.8758281E-01
        1   -1    0    0  501    0  0.00000000000E+00  0.00000000000E+00  0.15998963380E+04  0.15998963380E+04  0.50400001928E-02 0.  1.
       -1   -1    0    0    0  501  0.00000000000E+00  0.00000000000E+00 -0.45447389267E+03  0.45447389270E+03  0.50400001928E-02 0. -1.
    10030    2    1    2    0    0  0.00000000000E+00  0.00000000000E+00  0.11454224453E+04  0.20543702307E+04  0.17054162150E+04 0.  0.
        2    1    3    3  502    0  0.82447924287E+03 -0.20586845473E+03  0.65757697255E+03  0.10745023580E+04  0.25500000920E-02 0.  1.
       -2    1    3    3    0  502 -0.82447924287E+03  0.20586845473E+03  0.48784547278E+03  0.97986787267E+03  0.25500000920E-02 0. -1.
</event>
<event>
 5   0  0.5652631E-05  0.1701700E+04  0.7818609E-02  0.8760396E-01
        2   -1    0    0  501    0  0.00000000000E+00  0.00000000000E+00  0.62224158863E+03  0.62224158864E+03  0.25500000920E-02 0. -1.
       -2   -1    0    0    0  501  0.00000000000E+00  0.00000000000E+00 -0.11634474011E+04  0.11634474011E+04  0.25500000920E-02 0.  1.
    10030    2    1    2    0    0  0.00000000000E+00  0.00000000000E+00 -0.54120581244E+03  0.17856889897E+04  0.17016995730E+04 0.  0.
        2    1    3    3  502    0 -0.46804234533E+03 -0.61283050659E+03  0.10675773881E+03  0.77847420101E+03  0.25500000920E-02 0.  1.
       -2    1    3    3    0  502  0.46804234533E+03  0.61283050659E+03 -0.64796355125E+03  0.10072147887E+04  0.25500000920E-02 0. -1.
</event>
<event>
 5   0  0.5821584E-05  0.1695122E+04  0.7818609E-02  0.8764151E-01
        2   -1    0    0  501    0  0.00000000000E+00  0.00000000000E+00  0.75199368728E+03  0.75199368728E+03  0.25500000920E-02 0. -1.
       -2   -1    0    0    0  501  0.00000000000E+00  0.00000000000E+00 -0.95527405985E+03  0.95527405985E+03  0.25500000920E-02 0.  1.
    10030    2    1    2    0    0  0.00000000000E+00  0.00000000000E+00 -0.20328037257E+03  0.17072677471E+04  0.16951224884E+04 0.  0.
        1    1    3    3  502    0 -0.66595211703E+03  0.29069171924E+03  0.33779560919E+03  0.80131128247E+03  0.50400001928E-02 0. -1.
       -1    1    3    3    0  502  0.66595211703E+03 -0.29069171924E+03 -0.54107598176E+03  0.90595646467E+03  0.50400001928E-02 0.  1.
</event>
<event>
 5   0  0.2967704E-05  0.1699596E+04  0.7818609E-02  0.8761595E-01
        1   -1    0    0  501    0  0.00000000000E+00  0.00000000000E+00  0.89144347665E+03  0.89144347666E+03  0.50400001928E-02 0. -1.
       -1   -1    0    0    0  501  0.00000000000E+00  0.00000000000E+00 -0.81009763524E+03  0.81009763526E+03  0.50400001928E-02 0.  1.
    10030    2    1    2    0    0  0.00000000000E+00  0.00000000000E+00  0.81345841410E+02  0.17015411119E+04  0.16995955430E+04 0.  0.
        2    1    3    3  502    0 -0.53224905367E+03 -0.24427277766E+03  0.65716838614E+03  0.88024345086E+03  0.25500000920E-02 0. -1.
       -2    1    3    3    0  502  0.53224905367E+03  0.24427277766E+03 -0.57582254473E+03  0.82129766106E+03  0.25500000920E-02 0.  1.
</event>
<event>
 5   0  0.2966258E-05  0.1703483E+04  0.7818609E-02  0.8759380E-01
       -1   -1    0    0    0  501  0.00000000000E+00  0.00000000000E+00  0.69494678734E+03  0.69494678736E+03  0.50400001928E-02 0. -1.
        1   -1    0    0  501    0  0.00000000000E+00  0.00000000000E+00 -0.10439122282E+04  0.10439122282E+04  0.50400001928E-02 0.  1.
    10030    2    1    2    0    0  0.00000000000E+00  0.00000000000E+00 -0.34896544088E+03  0.17388590156E+04  0.17034828432E+04 0.  0.
        4    1    3    3  502    0  0.30672823134E+03 -0.52770730101E+03 -0.78087726770E+03  0.99112467609E+03  0.12699999809E+01 0.  1.
       -4    1    3    3    0  502 -0.30672823134E+03  0.52770730101E+03  0.43191182682E+03  0.74773433951E+03  0.12699999809E+01 0. -1.
</event>
<event>
 5   0  0.5859822E-05  0.1701214E+04  0.7818609E-02  0.8760672E-01
        2   -1    0    0  501    0  0.00000000000E+00  0.00000000000E+00  0.19087613239E+04  0.19087613239E+04  0.25500000920E-02 0. -1.
       -2   -1    0    0    0  501  0.00000000000E+00  0.00000000000E+00 -0.37905865113E+03  0.37905865114E+03  0.25500000920E-02 0.  1.
    10030    2    1    2    0    0  0.00000000000E+00  0.00000000000E+00  0.15297026728E+04  0.22878199750E+04  0.17012142637E+04 0.  0.
        5    1    3    3  502    0  0.39064429456E+03 -0.49710697495E+02 -0.24906875323E+03  0.46597366037E+03  0.46999998093E+01 0.  1.
       -5    1    3    3    0  502 -0.39064429456E+03  0.49710697495E+02  0.17787714260E+04  0.18218463147E+04  0.46999998093E+01 0. -1.
</event>
<event>
 5   0  0.2993769E-05  0.1706236E+04  0.7818609E-02  0.8757815E-01
       -1   -1    0    0    0  501  0.00000000000E+00  0.00000000000E+00  0.37055420106E+03  0.37055420110E+03  0.50400001928E-02 0. -1.
        1   -1    0    0  501    0  0.00000000000E+00  0.00000000000E+00 -0.19641141448E+04  0.19641141448E+04  0.50400001928E-02 0.  1.
    10030    2    1    2    0    0  0.00000000000E+00  0.00000000000E+00 -0.15935599438E+04  0.23346683459E+04  0.17062364992E+04 0.  0.
        3    1    3    3  502    0  0.13258033697E+03 -0.20504049383E+03  0.32172126566E+03  0.40388579182E+03  0.10100000352E+00 0. -1.
       -3    1    3    3    0  502 -0.13258033697E+03  0.20504049383E+03 -0.19152812094E+04  0.19307825541E+04  0.10100000352E+00 0.  1.
</event>
<event>
 5   0  0.2993769E-05  0.1698981E+04  0.7818609E-02  0.8761946E-01
        1   -1    0    0  501    0  0.00000000000E+00  0.00000000000E+00  0.69529573268E+03  0.69529573270E+03  0.50400001928E-02 0.  1.
       -1   -1    0    0    0  501  0.00000000000E+00  0.00000000000E+00 -0.10378811194E+04  0.10378811195E+04  0.50400001928E-02 0. -1.
    10030    2    1    2    0    0  0.00000000000E+00  0.00000000000E+00 -0.34258538676E+03  0.17331768522E+04  0.16989812399E+04 0.  0.
        3    1    3    3  502    0 -0.28621810770E+03 -0.78693071718E+03 -0.25398305780E+02  0.83775046581E+03  0.10100000352E+00 0.  1.
       -3    1    3    3    0  502  0.28621810770E+03  0.78693071718E+03 -0.31718708098E+03  0.89542638635E+03  0.10100000352E+00 0. -1.
</event>
<event>
 5   0  0.5671132E-05  0.1697005E+04  0.7818609E-02  0.8763075E-01
        2   -1    0    0  501    0  0.00000000000E+00  0.00000000000E+00  0.15739415462E+04  0.15739415462E+04  0.25500000920E-02 0. -1.
       -2   -1    0    0    0  501  0.00000000000E+00  0.00000000000E+00 -0.45742237188E+03  0.45742237189E+03  0.25500000920E-02 0.  1.
    10030    2    1    2    0    0  0.00000000000E+00  0.00000000000E+00  0.11165191743E+04  0.20313639181E+04  0.16970045083E+04 0.  0.
        3    1    3    3  502    0 -0.16545755287E+02 -0.44641223639E+03 -0.30526105151E+03  0.54105634326E+03  0.10100000352E+00 0.  1.
       -3    1    3    3    0  502  0.16545755287E+02  0.44641223639E+03  0.14217802258E+04  0.14903075748E+04  0.10100000352E+00 0. -1.
</event>
<event>
 5   0  0.5859822E-05  0.1697417E+04  0.7818609E-02  0.8762839E-01
       -2   -1    0    0    0  501  0.00000000000E+00  0.00000000000E+00  0.44358167520E+03  0.44358167520E+03  0.25500000920E-02 0. -1.
        2   -1    0    0  501    0  0.00000000000E+00  0.00000000000E+00 -0.16238419474E+04  0.16238419474E+04  0.25500000920E-02 0.  1.
    10030    2    1    2    0    0  0.00000000000E+00  0.00000000000E+00 -0.11802602722E+04  0.20674236226E+04  0.16974174870E+04 0.  0.
        5    1    3    3  502    0 -0.29023237010E+03  0.55457225037E+03  0.10795434164E+03  0.63518614549E+03  0.46999998093E+01 0. -1.
       -5    1    3    3    0  502  0.29023237010E+03 -0.55457225037E+03 -0.12882146139E+04  0.14322374771E+04  0.46999998093E+01 0.  1.
</event>
<event>
 5   0  0.2987859E-05  0.1700651E+04  0.7818609E-02  0.8760993E-01
       -1   -1    0    0    0  501  0.00000000000E+00  0.00000000000E+00  0.93292389935E+03  0.93292389936E+03  0.50400001928E-02 0.  1.
        1   -1    0    0  501    0  0.00000000000E+00  0.00000000000E+00 -0.77504029279E+03  0.77504029280E+03  0.50400001928E-02 0. -1.
    10030    2    1    2    0    0  0.00000000000E+00  0.00000000000E+00  0.15788360656E+03  0.17079641922E+04  0.17006511837E+04 0.  0.
        5    1    3    3  502    0  0.47082233638E+03  0.66414731778E+03 -0.16760557224E+03  0.83119134379E+03  0.46999998093E+01 0. -1.
       -5    1    3    3    0  502 -0.47082233638E+03 -0.66414731778E+03  0.32548917880E+03  0.87677284838E+03  0.46999998093E+01 0.  1.
</event>
<event>
 5   0  0.2967704E-05  0.1699775E+04  0.7818609E-02  0.8761493E-01
        1   -1    0    0  501    0  0.00000000000E+00  0.00000000000E+00  0.27971867249E+03  0.27971867253E+03  0.50400001928E-02 0. -1.
       -1   -1    0    0    0  501  0.00000000000E+00  0.00000000000E+00 -0.25822694618E+04  0.25822694619E+04  0.50400001928E-02 0.  1.
    10030    2    1    2    0    0  0.00000000000E+00  0.00000000000E+00 -0.23025507894E+04  0.28619881344E+04  0.16997752627E+04 0.  0.
        2    1    3    3  502    0  0.85804527271E+02  0.29659446972E+03 -0.24844977145E+04  0.25036093125E+04  0.25500000920E-02 0.  1.
       -2    1    3    3    0  502 -0.85804527271E+02 -0.29659446972E+03  0.18194692516E+03  0.35837882185E+03  0.25500000920E-02 0. -1.
</event>
<event>
 5   0  0.5755321E-05  0.1701060E+04  0.7818609E-02  0.8760760E-01
        2   -1    0    0  501    0  0.00000000000E+00  0.00000000000E+00  0.80228425710E+03  0.80228425711E+03  0.25500000920E-02 0.  1.
       -2   -1    0    0    0  501  0.00000000000E+00  0.00000000000E+00 -0.90167722759E+03  0.90167722759E+03  0.25500000920E-02 0. -1.
    10030    2    1    2    0    0  0.00000000000E+00  0.00000000000E+00 -0.99392970486E+02  0.17039614847E+04  0.17010601926E+04 0.  0.
        4    1    3    3  502    0  0.40485416309E+03 -0.72291561337E+03 -0.24208121817E+03  0.86320264511E+03  0.12699999809E+01 0. -1.
       -4    1    3    3    0  502 -0.40485416309E+03  0.72291561337E+03  0.14268824768E+03  0.84075883960E+03  0.12699999809E+01 0.  1.
</event>
<event>
 5   0  0.5859822E-05  0.1688239E+04  0.7818609E-02  0.8768101E-01
        2   -1    0    0  501    0  0.00000000000E+00  0.00000000000E+00  0.16812295060E+04  0.16812295060E+04  0.25500000920E-02 0. -1.
       -2   -1    0    0    0  501  0.00000000000E+00  0.00000000000E+00 -0.42381948307E+03  0.42381948308E+03  0.25500000920E-02 0.  1.
    10030    2    1    2    0    0  0.00000000000E+00  0.00000000000E+00  0.12574100229E+04  0.21050489891E+04  0.16882391065E+04 0.  0.
        5    1    3    3  502    0  0.64407881862E+03 -0.26134848213E+03  0.12258797926E+04  0.14092352215E+04  0.46999998093E+01 0. -1.
       -5    1    3    3    0  502 -0.64407881862E+03  0.26134848213E+03  0.31530230347E+02  0.69581376756E+03  0.46999998093E+01 0.  1.
</event>
<event>
 5   0  0.2911632E-05  0.1703443E+04  0.7818609E-02  0.8759403E-01
        1   -1    0    0  501    0  0.00000000000E+00  0.00000000000E+00  0.12918017276E+04  0.12918017276E+04  0.50400001928E-02 0.  1.
       -1   -1    0    0    0  501  0.00000000000E+00  0.00000000000E+00 -0.56156385514E+03  0.56156385516E+03  0.50400001928E-02 0. -1.
    10030    2    1    2    0    0  0.00000000000E+00  0.00000000000E+00  0.73023787244E+03  0.18533655827E+04  0.17034425828E+04 0.  0.
        1    1    3    3  502    0  0.58393829689E+02  0.31138856150E+03 -0.49506875970E+03  0.58776334730E+03  0.50400001928E-02 0. -1.
       -1    1    3    3    0  502 -0.58393829689E+02 -0.31138856150E+03  0.12253066321E+04  0.12656022354E+04  0.50400001928E-02 0.  1.
</event>
<event>
 5   0  0.5652631E-05  0.1704841E+04  0.7818609E-02  0.8758608E-01
       -2   -1    0    0    0  501  0.00000000000E+00  0.00000000000E+00  0.62322336419E+03  0.62322336420E+03  0.25500000920E-02 0.  1.
        2   -1    0    0  501    0  0.00000000000E+00  0.00000000000E+00 -0.11659069492E+04  0.11659069492E+04  0.25500000920E-02 0. -1.
    10030    2    1    2    0    0  0.00000000000E+00  0.00000000000E+00 -0.54268358496E+03  0.17891303134E+04  0.17048406978E+04 0.  0.
        2    1    3    3  502    0  0.24592975287E+03 -0.35059351059E+03 -0.10448186495E+04  0.11291781362E+04  0.25500000920E-02 0. -1.
       -2    1    3    3    0  502 -0.24592975287E+03  0.35059351059E+03  0.50213506455E+03  0.65995217711E+03  0.25500000920E-02 0.  1.
</event>
<event>
 5   0  0.2967704E-05  0.1696168E+04  0.7818609E-02  0.8763553E-01
       -1   -1    0    0    0  501  0.00000000000E+00  0.00000000000E+00  0.26156815783E+03  0.26156815788E+03  0.50400001928E-02 0.  1.
        1   -1    0    0  501    0  0.00000000000E+00  0.00000000000E+00 -0.27497466370E+04  0.27497466370E+04  0.50400001928E-02 0. -1.
    10030    2    1    2    0    0  0.00000000000E+00  0.00000000000E+00 -0.24881784792E+04  0.30113147949E+04  0.16961676361E+04 0.  0.
        2    1    3    3  502    0 -0.25967851821E+02  0.84133437031E+03 -0.14279770964E+04  0.16575996018E+04  0.25500000920E-02 0. -1.
       -2    1    3    3    0  502  0.25967851821E+02 -0.84133437031E+03 -0.10602013827E+04  0.13537151931E+04  0.25500000920E-02 0.  1.
</event>
<event>
 5   0  0.5821584E-05  0.1701232E+04  0.7818609E-02  0.8760662E-01
        2   -1    0    0  501    0  0.00000000000E+00  0.00000000000E+00  0.44978566521E+03  0.44978566522E+03  0.25500000920E-02 0.  1.
       -2   -1    0    0    0  501  0.00000000000E+00  0.00000000000E+00 -0.16086497921E+04  0.16086497921E+04  0.25500000920E-02 0. -1.
    10030    2    1    2    0    0  0.00000000000E+00  0.00000000000E+00 -0.11588641269E+04  0.20584354574E+04  0.17012320440E+04 0.  0.
        1    1    3    3  502    0 -0.77834441144E+03  0.30205334732E+03 -0.38249570464E+03  0.91834591061E+03  0.50400001928E-02 0.  1.
       -1    1    3    3    0  502  0.77834441144E+03 -0.30205334732E+03 -0.77636842228E+03  0.11400895467E+04  0.50400001928E-02 0. -1.
</event>
<event>
 5   0  0.2993769E-05  0.1700600E+04  0.7818609E-02  0.8761022E-01
        1   -1    0    0  501    0  0.00000000000E+00  0.00000000000E+00  0.96274033071E+03  0.96274033072E+03  0.50400001928E-02 0.  1.
       -1   -1    0    0    0  501  0.00000000000E+00  0.00000000000E+00 -0.75099193601E+03  0.75099193602E+03  0.50400001928E-02 0. -1.
    10030    2    1    2    0    0  0.00000000000E+00  0.00000000000E+00  0.21174839470E+03  0.17137322667E+04  0.17006001586E+04 0.  0.
        3    1    3    3  502    0 -0.12101397334E+03  0.14128511678E+03 -0.73023415367E+03  0.75355676320E+03  0.10100000352E+00 0. -1.
       -3    1    3    3    0  502  0.12101397334E+03 -0.14128511678E+03  0.94198254838E+03  0.96017550355E+03  0.10100000352E+00 0.  1.
</event>
<event>
 5   0  0.2993769E-05  0.1700654E+04  0.7818609E-02  0.8760992E-01
        1   -1    0    0  501    0  0.00000000000E+00  0.00000000000E+00  0.24399071757E+04  0.24399071757E+04  0.50400001928E-02 0. -1.
       -1   -1    0    0    0  501  0.00000000000E+00  0.00000000000E+00 -0.29634558160E+03  0.29634558165E+03  0.50400001928E-02 0.  1.
    10030    2    1    2    0    0  0.00000000000E+00  0.00000000000E+00  0.21435615941E+04  0.27362527574E+04  0.17006536521E+04 0.  0.
        3    1    3    3  502    0 -0.61873225552E+02 -0.53935419022E+02 -0.28995665541E+03  0.30135062250E+03  0.10100000352E+00 0.  1.
       -3    1    3    3    0  502  0.61873225552E+02  0.53935419022E+02  0.24335182495E+04  0.24349021349E+04  0.10100000352E+00 0. -1.
</event>
<event>
 5   0  0.5755321E-05  0.1698189E+04  0.7818609E-02  0.8762398E-01
        2   -1    0    0  501    0  0.00000000000E+00  0.00000000000E+00  0.12193825915E+04  0.12193825915E+04  0.25500000920E-02 0.  1.
       -2   -1    0    0    0  501  0.00000000000E+00  0.00000000000E+00 -0.59125111895E+03  0.59125111896E+03  0.25500000920E-02 0. -1.
    10030    2    1    2    0    0  0.00000000000E+00  0.00000000000E+00  0.62813147250E+03  0.18106337104E+04  0.16981888253E+04 0.  0.
        4    1    3    3  502    0 -0.59677850380E+03  0.55485219277E+03  0.56851862628E+03  0.99358974418E+03  0.12699999809E+01 0.  1.
       -4    1    3    3    0  502  0.59677850380E+03 -0.55485219277E+03  0.59612846227E+02  0.81704396623E+03  0.12699999809E+01 0. -1.
</event>
<event>
 5   0  0.5821584E-05  0.1700320E+04  0.7818609E-02  0.8761182E-01
       -2   -1    0    0    0  501  0.00000000000E+00  0.00000000000E+00  0.78544342871E+03  0.78544342871E+03  0.25500000920E-02 0. -1.
        2   -1    0    0  501    0  0.00000000000E+00  0.00000000000E+00 -0.92020930049E+03  0.92020930050E+03  0.25500000920E-02 0.  1.
    10030    2    1    2    0    0  0.00000000000E+00  0.00000000000E+00 -0.13476587179E+03  0.17056527292E+04  0.17003203794E+04 0.  0.
        1    1    3    3  502    0  0.11367622131E+03 -0.33082009658E+03 -0.84467303349E+03  0.91424108041E+03  0.50400001928E-02 0.  1.
       -1    1    3    3    0  502 -0.11367622131E+03  0.33082009658E+03  0.70990716170E+03  0.79141164880E+03  0.50400001928E-02 0. -1.
</event>
<event>
 5   0  0.2098250E-05  0.1701036E+04  0.7818609E-02  0.8760774E-01
        4   -1    0    0  501    0  0.00000000000E+00  0.00000000000E+00  0.59236488262E+03  0.59236624403E+03  0.12699999809E+01 0.  1.
       -4   -1    0    0    0  501  0.00000000000E+00  0.00000000000E+00 -0.12211715339E+04  0.12211721943E+04  0.12699999809E+01 0. -1.
    10030    2    1    2    0    0  0.00000000000E+00  0.00000000000E+00 -0.62880665127E+03  0.18135384383E+04  0.17010361144E+04 0.  0.
        3    1    3    3  502    0  0.50672939622E+03  0.38242799686E+03  0.28902966921E+03  0.69754140642E+03  0.10100000352E+00 0.  1.
       -3    1    3    3    0  502 -0.50672939622E+03 -0.38242799686E+03 -0.91783632048E+03  0.11159970319E+04  0.10100000352E+00 0. -1.
</event>
<event>
 5   0  0.2966258E-05  0.1699381E+04  0.7818609E-02  0.8761718E-01
        1   -1    0    0  501    0  0.00000000000E+00  0.00000000000E+00  0.69450619588E+03  0.69450619590E+03  0.50400001928E-02 0. -1.
       -1   -1    0    0    0  501  0.00000000000E+00  0.00000000000E+00 -0.10395494767E+04  0.10395494767E+04  0.50400001928E-02 0.  1.
    10030    2    1    2    0    0  0.00000000000E+00  0.00000000000E+00 -0.34504328084E+03  0.17340556726E+04  0.16993805372E+04 0.  0.
        4    1    3    3  502    0 -0.72719029615E+03  0.47978149127E+02  0.27327291485E+03  0.77832340868E+03  0.12699999809E+01 0. -1.
       -4    1    3    3    0  502  0.72719029615E+03 -0.47978149127E+02 -0.61831619568E+03  0.95573226395E+03  0.12699999809E+01 0.  1.
</event>
<event>
 5   0  0.2987859E-05  0.1699109E+04  0.7818609E-02  0.8761873E-01
       -1   -1    0    0    0  501  0.00000000000E+00  0.00000000000E+00  0.12602572571E+04  0.12602572571E+04  0.50400001928E-02 0.  1.
        1   -1    0    0  501    0  0.00000000000E+00  0.00000000000E+00 -0.57269499694E+03  0.57269499696E+03  0.50400001928E-02 0. -1.
    10030    2    1    2    0    0  0.00000000000E+00  0.00000000000E+00  0.68756226020E+03  0.18329522541E+04  0.16991092090E+04 0.  0.
        5    1    3    3  502    0 -0.79208862728E+03  0.27009009280E+03  0.50147347848E+03  0.97562840842E+03  0.46999998093E+01 0.  1.
       -5    1    3    3    0  502  0.79208862728E+03 -0.27009009280E+03  0.18608878172E+03  0.85732384569E+03  0.46999998093E+01 0. -1.
</event>
<event>
 5   0  0.5652631E-05  0.1691271E+04  0.7818609E-02  0.8766359E-01
       -2   -1    0    0    0  501  0.00000000000E+00  0.00000000000E+00  0.10038971667E+04  0.10038971667E+04  0.25500000920E-02 0. -1.
        2   -1    0    0  501    0  0.00000000000E+00  0.00000000000E+00 -0.71232310864E+03  0.71232310864E+03  0.25500000920E-02 0.  1.
    10030    2    1    2    0    0  0.00000000000E+00  0.00000000000E+00  0.29157405804E+03  0.17162202753E+04  0.16912707063E+04 0.  0.
        2    1    3    3  502    0 -0.69452340758E+03 -0.40383480951E+03 -0.12202643896E+03  0.81261046564E+03  0.25500000920E-02 0.  1.
       -2    1    3    3    0  502  0.69452340758E+03  0.40383480951E+03  0.41360049700E+03  0.90360980969E+03  0.25500000920E-02 0. -1.
</event>
<event>
 5   0  0.2966258E-05  0.1696449E+04  0.7818609E-02  0.8763392E-01
        1   -1    0    0  501    0  0.00000000000E+00  0.00000000000E+00  0.14190062899E+04  0.14190062900E+04  0.50400001928E-02 0.  1.
       -1   -1    0    0    0  501  0.00000000000E+00  0.00000000000E+00 -0.50703396271E+03  0.50703396273E+03  0.50400001928E-02 0. -1.
    10030    2    1    2    0    0  0.00000000000E+00  0.00000000000E+00  0.91197232724E+03  0.19260402527E+04  0.16964485048E+04 0.  0.
        4    1    3    3  502    0  0.32585353725E+03  0.65744134040E+03  0.93910244874E+03  0.11917737478E+04  0.12699999809E+01 0.  1.
       -4    1    3    3    0  502 -0.32585353725E+03 -0.65744134040E+03 -0.27130121503E+02  0.73426650489E+03  0.12699999809E+01 0. -1.
</event>
<event>
 5   0  0.5859822E-05  0.1700568E+04  0.7818609E-02  0.8761041E-01
        2   -1    0    0  501    0  0.00000000000E+00  0.00000000000E+00  0.57953621983E+03  0.57953621983E+03  0.25500000920E-02 0.  1.
       -2   -1    0    0    0  501  0.00000000000E+00  0.00000000000E+00 -0.12475193725E+04  0.12475193725E+04  0.25500000920E-02 0. -1.
    10030    2    1    2    0    0  0.00000000000E+00  0.00000000000E+00 -0.66798315270E+03  0.18270555924E+04  0.17005677420E+04 0.  0.
        5    1    3    3  502    0  0.44156985400E+03  0.24014951413E+03  0.40280492033E+03  0.64415030772E+03  0.46999998093E+01 0.  1.
       -5    1    3    3    0  502 -0.44156985400E+03 -0.24014951413E+03 -0.10707880730E+04  0.11829052846E+04  0.46999998093E+01 0. -1.
</event>
<event>
 5   0  0.2987859E-05  0.1697615E+04  0.7818609E-02  0.8762726E-01
        1   -1    0    0  501    0  0.00000000000E+00  0.00000000000E+00  0.21984539915E+04  0.21984539915E+04  0.50400001928E-02 0. -1.
       -1   -1    0    0    0  501  0.00000000000E+00  0.00000000000E+00 -0.32771845984E+03  0.32771845988E+03  0.50400001928E-02 0.  1.
    10030    2    1    2    0    0  0.00000000000E+00  0.00000000000E+00  0.18707355317E+04  0.25261724514E+04  0.16976147457E+04 0.  0.
        5    1    3    3  502    0  0.42920722404E+03 -0.39100494560E+03  0.14026451634E+02  0.58079474860E+03  0.46999998093E+01 0.  1.
       -5    1    3    3    0  502 -0.42920722404E+03  0.39100494560E+03  0.18567090800E+04  0.19453777028E+04  0.46999998093E+01 0. -1.
</event>
<event>
 5   0  0.2911632E-05  0.1698759E+04  0.7818609E-02  0.8762073E-01
       -1   -1    0    0    0  501  0.00000000000E+00  0.00000000000E+00  0.40488967289E+03  0.40488967292E+03  0.50400001928E-02 0.  1.
        1   -1    0    0  501    0  0.00000000000E+00  0.00000000000E+00 -0.17818314515E+04  0.17818314515E+04  0.50400001928E-02 0. -1.
    10030    2    1    2    0    0  0.00000000000E+00  0.00000000000E+00 -0.13769417786E+04  0.21867211244E+04  0.16987585509E+04 0.  0.
        1    1    3    3  502    0 -0.22513262643E+02 -0.74236000795E+03 -0.12189663101E+04  0.14274046706E+04  0.50400001928E-02 0. -1.
       -1    1    3    3    0  502  0.22513262643E+02  0.74236000795E+03 -0.15797546849E+03  0.75931645384E+03  0.50400001928E-02 0.  1.
</event>
<event>
 5   0  0.5652631E-05  0.1701270E+04  0.7818609E-02  0.8760640E-01
        2   -1    0    0  501    0  0.00000000000E+00  0.00000000000E+00  0.12773750210E+04  0.12773750210E+04  0.25500000920E-02 0. -1.
       -2   -1    0    0    0  501  0.00000000000E+00  0.00000000000E+00 -0.56645843154E+03  0.56645843155E+03  0.25500000920E-02 0.  1.
    10030    2    1    2    0    0  0.00000000000E+00  0.00000000000E+00  0.71091658943E+03  0.18438334525E+04  0.17012699385E+04 0.  0.
        2    1    3    3  502    0  0.56083939223E+02 -0.84593408475E+03  0.43078006850E+03  0.95095812285E+03  0.25500000920E-02 0.  1.
       -2    1    3    3    0  502 -0.56083939223E+02  0.84593408475E+03  0.28013652093E+03  0.89287532968E+03  0.25500000920E-02 0. -1.
</event>
<event>
 5   0  0.2987859E-05  0.1700765E+04  0.7818609E-02  0.8760928E-01
        1   -1    0    0  501    0  0.00000000000E+00  0.00000000000E+00  0.81768393049E+03  0.81768393051E+03  0.50400001928E-02 0.  1.
       -1   -1    0    0    0  501  0.00000000000E+00  0.00000000000E+00 -0.88438891276E+03  0.88438891277E+03  0.50400001928E-02 0. -1.
    10030    2    1    2    0    0  0.00000000000E+00  0.00000000000E+00 -0.66704982266E+02  0.17020728433E+04  0.17007652422E+04 0.  0.
        5    1    3    3  502    0  0.79973987111E+02 -0.52031972439E+03 -0.70169829913E+03  0.87722918739E+03  0.46999998093E+01 0.  1.
       -5    1    3    3    0  502 -0.79973987111E+02  0.52031972439E+03  0.63499331687E+03  0.82484365589E+03  0.46999998093E+01 0. -1.
</event>
<event>
 5   0  0.5821584E-05  0.1693337E+04  0.7818609E-02  0.8765173E-01
        2   -1    0    0  501    0  0.00000000000E+00  0.00000000000E+00  0.13893480224E+04  0.13893480224E+04  0.25500000920E-02 0.  1.
       -2   -1    0    0    0  501  0.00000000000E+00  0.00000000000E+00 -0.51595996408E+03  0.51595996409E+03  0.25500000920E-02 0. -1.
    10030    2    1    2    0    0  0.00000000000E+00  0.00000000000E+00  0.87338805836E+03  0.19053079865E+04  0.16933374806E+04 0.  0.
        1    1    3    3  502    0  0.25324854882E+03 -0.38577281451E+03  0.12354067443E+04  0.13187817545E+04  0.50400001928E-02 0.  1.
       -1    1    3    3    0  502 -0.25324854882E+03  0.38577281451E+03 -0.36201868598E+03  0.58652623208E+03  0.50400001928E-02 0. -1.
</event>
<event>
 5   0  0.2911632E-05  0.1692982E+04  0.7818609E-02  0.8765377E-01
       -1   -1    0    0    0  501  0.00000000000E+00  0.00000000000E+00  0.74044152980E+03  0.74044152981E+03  0.50400001928E-02 0. -1.
        1   -1    0    0  501    0  0.00000000000E+00  0.00000000000E+00 -0.96772920590E+03  0.96772920591E+03  0.50400001928E-02 0.  1.
    10030    2    1    2    0    0  0.00000000000E+00  0.00000000000E+00 -0.22728767610E+03  0.17081707357E+04  0.16929818589E+04 0.  0.
        1    1    3    3  502    0 -0.18006996002E+03  0.45852951903E+02  0.71960991120E+03  0.74321336642E+03  0.50400001928E-02 0. -1.
       -1    1    3    3    0  502  0.18006996002E+03 -0.45852951903E+02 -0.94689758731E+03  0.96495736931E+03  0.50400001928E-02 0.  1.
</event>
<event>
 5   0  0.2967704E-05  0.1695504E+04  0.7818609E-02  0.8763933E-01
        1   -1    0    0  501    0  0.00000000000E+00  0.00000000000E+00  0.96640441505E+03  0.96640441506E+03  0.50400001928E-02 0.  1.
       -1   -1    0    0    0  501  0.00000000000E+00  0.00000000000E+00 -0.74366703801E+03  0.74366703803E+03  0.50400001928E-02 0. -1.
    10030    2    1    2    0    0  0.00000000000E+00  0.00000000000E+00  0.22273737704E+03  0.17100714531E+04  0.16955035935E+04 0.  0.
        2    1    3    3  502    0 -0.68749862915E+03  0.31348651511E+03  0.49906043929E+03  0.90553270637E+03  0.25500000920E-02 0. -1.
       -2    1    3    3    0  502  0.68749862915E+03 -0.31348651511E+03 -0.27632306225E+03  0.80453874672E+03  0.25500000920E-02 0.  1.
</event>
<event>
 5   0  0.5755321E-05  0.1700971E+04  0.7818609E-02  0.8760811E-01
        2   -1    0    0  501    0  0.00000000000E+00  0.00000000000E+00  0.12732990906E+04  0.12732990906E+04  0.25500000920E-02 0.  1.
       -2   -1    0    0    0  501  0.00000000000E+00  0.00000000000E+00 -0.56807187959E+03  0.56807187960E+03  0.25500000920E-02 0. -1.
    10030    2    1    2    0    0  0.00000000000E+00  0.00000000000E+00  0.70522721096E+03  0.18413709702E+04  0.17009707906E+04 0.  0.
        4    1    3    3  502    0 -0.50998762671E+03  0.27249720082E+03  0.10277771991E+04  0.11792665889E+04  0.12699999809E+01 0.  1.
       -4    1    3    3    0  502  0.50998762671E+03 -0.27249720082E+03 -0.32254998817E+03  0.66210438121E+03  0.12699999809E+01 0. -1.
</event>
<event>
 5   0  0.5652631E-05  0.1700813E+04  0.7818609E-02  0.8760901E-01
       -2   -1    0    0    0  501  0.00000000000E+00  0.00000000000E+00  0.84463981190E+03  0.84463981190E+03  0.25500000920E-02 0. -1.
        2   -1    0    0  501    0  0.00000000000E+00  0.00000000000E+00 -0.85621290535E+03  0.85621290535E+03  0.25500000920E-02 0.  1.
    10030    2    1    2    0    0  0.00000000000E+00  0.00000000000E+00 -0.11573093450E+02  0.17008527173E+04  0.17008133435E+04 0.  0.
        2    1    3    3  502    0  0.39016744951E+03  0.71482219343E+03  0.23914788942E+03  0.84875975393E+03  0.25500000920E-02 0. -1.
       -2    1    3    3    0  502 -0.39016744951E+03 -0.71482219343E+03 -0.25072098287E+03  0.85209296332E+03  0.25500000920E-02 0.  1.
</event>
<event>
 5   0  0.5755321E-05  0.1700119E+04  0.7818609E-02  0.8761297E-01
        2   -1    0    0  501    0  0.00000000000E+00  0.00000000000E+00  0.99002626154E+03  0.99002626155E+03  0.25500000920E-02 0. -1.
       -2   -1    0    0    0  501  0.00000000000E+00  0.00000000000E+00 -0.72988043071E+03  0.72988043071E+03  0.25500000920E-02 0.  1.
    10030    2    1    2    0    0  0.00000000000E+00  0.00000000000E+00  0.26014583083E+03  0.17199066923E+04  0.17001185773E+04 0.  0.
        4    1    3    3  502    0 -0.63030044671E+03 -0.33524488411E+02  0.70608278657E+03  0.94707816934E+03  0.12699999809E+01 0. -1.
       -4    1    3    3    0  502  0.63030044671E+03  0.33524488411E+02 -0.44593695574E+03  0.77282852292E+03  0.12699999809E+01 0.  1.
</event>
<event>
 5   0  0.2967704E-05  0.1701669E+04  0.7818609E-02  0.8760413E-01
       -1   -1    0    0    0  501  0.00000000000E+00  0.00000000000E+00  0.10552948730E+04  0.10552948730E+04  0.50400001928E-02 0. -1.
        1   -1    0    0  501    0  0.00000000000E+00  0.00000000000E+00 -0.68598756499E+03  0.68598756501E+03  0.50400001928E-02 0.  1.
    10030    2    1    2    0    0  0.00000000000E+00  0.00000000000E+00  0.36930730805E+03  0.17412824380E+04  0.17016687813E+04 0.  0.
        2    1    3    3  502    0 -0.57116748337E+03 -0.53707593888E+03 -0.15354952341E+03  0.79891195656E+03  0.25500000920E-02 0.  1.
       -2    1    3    3    0  502  0.57116748337E+03  0.53707593888E+03  0.52285683146E+03  0.94237048149E+03  0.25500000920E-02 0. -1.
</event>
<event>
 5   0  0.5821584E-05  0.1696592E+04  0.7818609E-02  0.8763311E-01
        2   -1    0    0  501    0  0.00000000000E+00  0.00000000000E+00  0.24825134823E+04  0.24825134823E+04  0.25500000920E-02 0. -1.
       -2   -1    0    0    0  501  0.00000000000E+00  0.00000000000E+00 -0.28986991919E+03  0.28986991920E+03  0.25500000920E-02 0.  1.
    10030    2    1    2    0    0  0.00000000000E+00  0.00000000000E+00  0.21926435631E+04  0.27723834015E+04  0.16965918572E+04 0.  0.
        1    1    3    3  502    0  0.57264531232E+03  0.22333748991E+03  0.20516756973E+04  0.21417692347E+04  0.50400001928E-02 0. -1.
       -1    1    3    3    0  502 -0.57264531232E+03 -0.22333748991E+03  0.14096786589E+03  0.63061416680E+03  0.50400001928E-02 0.  1.
</event>
<event>
 5   0  0.2966258E-05  0.1698123E+04  0.7818609E-02  0.8762436E-01
        1   -1    0    0  501    0  0.00000000000E+00  0.00000000000E+00  0.12562530271E+04  0.12562530271E+04  0.50400001928E-02 0.  1.
       -1   -1    0    0    0  501  0.00000000000E+00  0.00000000000E+00 -0.57385364226E+03  0.57385364228E+03  0.50400001928E-02 0. -1.
    10030    2    1    2    0    0  0.00000000000E+00  0.00000000000E+00  0.68239938482E+03  0.18301066694E+04  0.16981229346E+04 0.  0.
        4    1    3    3  502    0 -0.80051130032E+03  0.17745338315E+03  0.10362166388E+03  0.82646664014E+03  0.12699999809E+01 0. -1.
       -4    1    3    3    0  502  0.80051130032E+03 -0.17745338315E+03  0.57877772094E+03  0.10036400292E+04  0.12699999809E+01 0.  1.
</event>
<event>
 5   0  0.2967704E-05  0.1701060E+04  0.7818609E-02  0.8760760E-01
       -1   -1    0    0    0  501  0.00000000000E+00  0.00000000000E+00  0.52110812691E+03  0.52110812693E+03  0.50400001928E-02 0.  1.
        1   -1    0    0  501    0  0.00000000000E+00  0.00000000000E+00 -0.13881985006E+04  0.13881985006E+04  0.50400001928E-02 0. -1.
    10030    2    1    2    0    0  0.00000000000E+00  0.00000000000E+00 -0.86709037370E+03  0.19093066276E+04  0.17010602817E+04 0.  0.
        2    1    3    3  502    0 -0.41835049356E+02 -0.56285227653E+03 -0.11477163841E+04  0.12789862215E+04  0.25500000920E-02 0. -1.
       -2    1    3    3    0  502  0.41835049356E+02  0.56285227653E+03  0.28062601038E+03  0.63032040603E+03  0.25500000920E-02 0.  1.
</event>
<event>
 5   0  0.2911632E-05  0.1700227E+04  0.7818609E-02  0.8761235E-01
        1   -1    0    0  501    0  0.00000000000E+00  0.00000000000E+00  0.97692388472E+03  0.97692388474E+03  0.50400001928E-02 0.  1.
       -1   -1    0    0    0  501  0.00000000000E+00  0.00000000000E+00 -0.73976398661E+03  0.73976398663E+03  0.50400001928E-02 0. -1.
    10030    2    1    2    0    0  0.00000000000E+00  0.00000000000E+00  0.23715989811E+03  0.17166878714E+04  0.17002271702E+04 0.  0.
        1    1    3    3  502    0  0.26323429734E+03  0.41761332607E+03 -0.58021878276E+03  0.76180510716E+03  0.50400001928E-02 0. -1.
       -1    1    3    3    0  502 -0.26323429734E+03 -0.41761332607E+03  0.81737868087E+03  0.95488276420E+03  0.50400001928E-02 0.  1.
</event>
<event>
 5   0  0.5821584E-05  0.1688007E+04  0.7818609E-02  0.8768234E-01
       -2   -1    0    0    0  501  0.00000000000E+00  0.00000000000E+00  0.65088302540E+03  0.65088302540E+03  0.25500000920E-02 0. -1.
        2   -1    0    0  501    0  0.00000000000E+00  0.00000000000E+00 -0.10944243176E+04  0.10944243176E+04  0.25500000920E-02 0.  1.
    10030    2    1    2    0    0  0.00000000000E+00  0.00000000000E+00 -0.44354129217E+03  0.17453073430E+04  0.16880073589E+04 0.  0.
        1    1    3    3  502    0 -0.32387504933E+03  0.66771073993E+03  0.19388249359E+03  0.76702222989E+03  0.50400001928E-02 0. -1.
       -1    1    3    3    0  502  0.32387504933E+03 -0.66771073993E+03 -0.63742378576E+03  0.97828511308E+03  0.50400001928E-02 0.  1.
</event>
<event>
 5   0  0.2993769E-05  0.1699636E+04  0.7818609E-02  0.8761572E-01
        1   -1    0    0  501    0  0.00000000000E+00  0.00000000000E+00  0.14712121382E+04  0.14712121382E+04  0.50400001928E-02 0. -1.
       -1   -1    0    0    0  501  0.00000000000E+00  0.00000000000E+00 -0.49088112810E+03  0.49088112812E+03  0.50400001928E-02 0.  1.
    10030    2    1    2    0    0  0.00000000000E+00  0.00000000000E+00  0.98033101012E+03  0.19620932663E+04  0.16996355775E+04 0.  0.
        3    1    3    3  502    0  0.58147141858E+03 -0.50487435695E+02 -0.22290007503E+03  0.62477391546E+03  0.10100000352E+00 0.  1.
       -3    1    3    3    0  502 -0.58147141858E+03  0.50487435695E+02  0.12032310852E+04  0.13373193509E+04  0.10100000352E+00 0. -1.
</event>
<event>
 5   0  0.2987859E-05  0.1702883E+04  0.7818609E-02  0.8759722E-01
        1   -1    0    0  501    0  0.00000000000E+00  0.00000000000E+00  0.55605518342E+03  0.55605518344E+03  0.50400001928E-02 0.  1.
       -1   -1    0    0    0  501  0.00000000000E+00  0.00000000000E+00 -0.13037429259E+04  0.13037429259E+04  0.50400001928E-02 0. -1.
    10030    2    1    2    0    0  0.00000000000E+00  0.00000000000E+00 -0.74768774244E+03  0.18597981093E+04  0.17028834509E+04 0.  0.
        5    1    3    3  502    0 -0.54387101361E+03  0.57622567967E+03 -0.33522892345E+02  0.79308107257E+03  0.46999998093E+01 0.  1.
       -5    1    3    3    0  502  0.54387101361E+03 -0.57622567967E+03 -0.71416485010E+03  0.10667170367E+04  0.46999998093E+01 0. -1.
</event>
<event>
 5   0  0.2993769E-05  0.1700747E+04  0.7818609E-02  0.8760938E-01
        1   -1    0    0  501    0  0.00000000000E+00  0.00000000000E+00  0.65020832454E+03  0.65020832456E+03  0.50400001928E-02 0.  1.
       -1   -1    0    0    0  501  0.00000000000E+00  0.00000000000E+00 -0.11121592648E+04  0.11121592648E+04  0.50400001928E-02 0. -1.
    10030    2    1    2    0    0  0.00000000000E+00  0.00000000000E+00 -0.46195094021E+03  0.17623675893E+04  0.17007471443E+04 0.  0.
        3    1    3    3  502    0  0.76037043755E+03  0.17454587526E+03  0.11967172589E+03  0.78927232122E+03  0.10100000352E+00 0.  1.
       -3    1    3    3    0  502 -0.76037043755E+03 -0.17454587526E+03 -0.58162266610E+03  0.97309526810E+03  0.10100000352E+00 0. -1.
</event>
<event>
 5   0  0.5652631E-05  0.1700300E+04  0.7818609E-02  0.8761193E-01
        2   -1    0    0  501    0  0.00000000000E+00  0.00000000000E+00  0.12904836597E+04  0.12904836597E+04  0.25500000920E-02 0.  1.
       -2   -1    0    0    0  501  0.00000000000E+00  0.00000000000E+00 -0.56006549917E+03  0.56006549918E+03  0.25500000920E-02 0. -1.
    10030    2    1    2    0    0  0.00000000000E+00  0.00000000000E+00  0.73041816049E+03  0.18505491588E+04  0.17003004147E+04 0.  0.
        2    1    3    3  502    0 -0.14186833238E+03  0.95763041320E+01 -0.54703190569E+03  0.56520990365E+03  0.25500000920E-02 0. -1.
       -2    1    3    3    0  502  0.14186833238E+03 -0.95763041320E+01  0.12774500662E+04  0.12853392552E+04  0.25500000920E-02 0.  1.
</event>
<event>
 5   0  0.5652631E-05  0.1698554E+04  0.7818609E-02  0.8762190E-01
       -2   -1    0    0    0  501  0.00000000000E+00  0.00000000000E+00  0.63045325620E+03  0.63045325621E+03  0.25500000920E-02 0.  1.
        2   -1    0    0  501    0  0.00000000000E+00  0.00000000000E+00 -0.11440516776E+04  0.11440516776E+04  0.25500000920E-02 0. -1.
    10030    2    1    2    0    0  0.00000000000E+00  0.00000000000E+00 -0.51359842143E+03  0.17745049338E+04  0.16985536264E+04 0.  0.
        2    1    3    3  502    0  0.66331835545E+03  0.52243109044E+03 -0.35223851484E+03  0.91487565072E+03  0.25500000920E-02 0. -1.
       -2    1    3    3    0  502 -0.66331835545E+03 -0.52243109044E+03 -0.16135990658E+03  0.85962928312E+03  0.25500000920E-02 0.  1.
</event>
<event>
 5   0  0.5755321E-05  0.1698698E+04  0.7818609E-02  0.8762107E-01
       -2   -1    0    0    0  501  0.00000000000E+00  0.00000000000E+00  0.33117322369E+03  0.33117322370E+03  0.25500000920E-02 0. -1.
        2   -1    0    0  501    0  0.00000000000E+00  0.00000000000E+00 -0.21782971082E+04  0.21782971082E+04  0.25500000920E-02 0.  1.
    10030    2    1    2    0    0  0.00000000000E+00  0.00000000000E+00 -0.18471238845E+04  0.25094703319E+04  0.16986979431E+04 0.  0.
        4    1    3    3  502    0 -0.12696373574E+03  0.63012000855E+03 -0.10340483910E+03  0.65104929845E+03  0.12699999809E+01 0. -1.
       -4    1    3    3    0  502  0.12696373574E+03 -0.63012000855E+03 -0.17437190454E+04  0.18584210334E+04  0.12699999809E+01 0.  1.
</event>
<event>
 5   0  0.2098250E-05  0.1706096E+04  0.7818609E-02  0.8757895E-01
        3   -1    0    0  501    0  0.00000000000E+00  0.00000000000E+00  0.82650490012E+03  0.82650490629E+03  0.10100000352E+00 0. -1.
       -3   -1    0    0    0  501  0.00000000000E+00  0.00000000000E+00 -0.88044381772E+03  0.88044382351E+03  0.10100000352E+00 0.  1.
    10030    2    1    2    0    0  0.00000000000E+00  0.00000000000E+00 -0.53938917598E+02  0.17069487298E+04  0.17060962925E+04 0.  0.
        1    1    3    3  502    0 -0.15681692667E+03  0.20042480907E+03 -0.84158108865E+03  0.87921577635E+03  0.50400001928E-02 0.  1.
       -1    1    3    3    0  502  0.15681692667E+03 -0.20042480907E+03  0.78764217106E+03  0.82773295345E+03  0.50400001928E-02 0. -1.
</event>
<event>
 5   0  0.2993769E-05  0.1700666E+04  0.7818609E-02  0.8760984E-01
        1   -1    0    0  501    0  0.00000000000E+00  0.00000000000E+00  0.49753765026E+03  0.49753765028E+03  0.50400001928E-02 0. -1.
       -1   -1    0    0    0  501  0.00000000000E+00  0.00000000000E+00 -0.14532899023E+04  0.14532899023E+04  0.50400001928E-02 0.  1.
    10030    2    1    2    0    0  0.00000000000E+00  0.00000000000E+00 -0.95575225204E+03  0.19508275526E+04  0.17006662732E+04 0.  0.
        3    1    3    3  502    0 -0.73512016663E+03  0.21656675351E+03 -0.55215805366E+02  0.76834342158E+03  0.10100000352E+00 0. -1.
       -3    1    3    3    0  502  0.73512016663E+03 -0.21656675351E+03 -0.90053644668E+03  0.11824841310E+04  0.10100000352E+00 0.  1.
</event>
<event>
 5   0  0.2966258E-05  0.1699250E+04  0.7818609E-02  0.8761792E-01
       -1   -1    0    0    0  501  0.00000000000E+00  0.00000000000E+00  0.14640933265E+04  0.14640933265E+04  0.50400001928E-02 0.  1.
        1   -1    0    0  501    0  0.00000000000E+00  0.00000000000E+00 -0.49304405673E+03  0.49304405675E+03  0.50400001928E-02 0. -1.
    10030    2    1    2    0    0  0.00000000000E+00  0.00000000000E+00  0.97104926980E+03  0.19571373833E+04  0.16992498500E+04 0.  0.
        4    1    3    3  502    0  0.16283938337E+03  0.27043729718E+03  0.13940390741E+04  0.14293353523E+04  0.12699999809E+01 0.  1.
       -4    1    3    3    0  502 -0.16283938337E+03 -0.27043729718E+03 -0.42298980426E+03  0.52780203096E+03  0.12699999809E+01 0. -1.
</event>
<event>
 5   0  0.5859822E-05  0.1701877E+04  0.7818609E-02  0.8760294E-01
       -2   -1    0    0    0  501  0.00000000000E+00  0.00000000000E+00  0.21139493069E+03  0.21139493070E+03  0.25500000920E-02 0.  1.
        2   -1    0    0  501    0  0.00000000000E+00  0.00000000000E+00 -0.34253260339E+04  0.34253260339E+04  0.25500000920E-02 0. -1.
    10030    2    1    2    0    0  0.00000000000E+00  0.00000000000E+00 -0.32139311032E+04  0.36367209646E+04  0.17018772689E+04 0.  0.
        5    1    3    3  502    0 -0.16147449562E+03 -0.23108405282E+03  0.10867815312E+03  0.30217028836E+03  0.46999998093E+01 0.  1.
       -5    1    3    3    0  502  0.16147449562E+03  0.23108405282E+03 -0.33226092564E+04  0.33345506763E+04  0.46999998093E+01 0. -1.
</event>
<event>
 5   0  0.2987859E-05  0.1693135E+04  0.7818609E-02  0.8765289E-01
       -1   -1    0    0    0  501  0.00000000000E+00  0.00000000000E+00  0.34698186248E+04  0.34698186248E+04  0.50400001928E-02 0.  1.
        1   -1    0    0  501    0  0.00000000000E+00  0.00000000000E+00 -0.20654588959E+03  0.20654588965E+03  0.50400001928E-02 0. -1.
    10030    2    1    2    0    0  0.00000000000E+00  0.00000000000E+00  0.32632727352E+04  0.36763645144E+04  0.16931352866E+04 0.  0.
        5    1    3    3  502    0  0.60310517748E+03  0.20139958634E+03  0.41810068370E+03  0.76100454676E+03  0.46999998093E+01 0. -1.
       -5    1    3    3    0  502 -0.60310517748E+03 -0.20139958634E+03  0.28451720515E+04  0.29153599677E+04  0.46999998093E+01 0.  1.
</event>
<event>
 5   0  0.2967704E-05  0.1698052E+04  0.7818609E-02  0.8762476E-01
       -1   -1    0    0    0  501  0.00000000000E+00  0.00000000000E+00  0.48549610476E+03  0.48549610479E+03  0.50400001928E-02 0. -1.
        1   -1    0    0  501    0  0.00000000000E+00  0.00000000000E+00 -0.14847600618E+04  0.14847600619E+04  0.50400001928E-02 0.  1.
    10030    2    1    2    0    0  0.00000000000E+00  0.00000000000E+00 -0.99926395709E+03  0.19702561666E+04  0.16980520917E+04 0.  0.
        2    1    3    3  502    0  0.53633919186E+03 -0.65813908729E+03 -0.49243813208E+03  0.98147954685E+03  0.25500000920E-02 0.  1.
       -2    1    3    3    0  502 -0.53633919186E+03  0.65813908729E+03 -0.50682582500E+03  0.98877661979E+03  0.25500000920E-02 0. -1.
</event>
<event>
 5   0  0.5671132E-05  0.1699805E+04  0.7818609E-02  0.8761476E-01
        2   -1    0    0  501    0  0.00000000000E+00  0.00000000000E+00  0.10642407367E+04  0.10642407367E+04  0.25500000920E-02 0. -1.
       -2   -1    0    0    0  501  0.00000000000E+00  0.00000000000E+00 -0.67873204430E+03  0.67873204431E+03  0.25500000920E-02 0.  1.
    10030    2    1    2    0    0  0.00000000000E+00  0.00000000000E+00  0.38550869235E+03  0.17429727810E+04  0.16998050369E+04 0.  0.
        3    1    3    3  502    0  0.42526216692E+03  0.56114914422E+03  0.68086640499E+03  0.97944644790E+03  0.10100000352E+00 0. -1.
       -3    1    3    3    0  502 -0.42526216692E+03 -0.56114914422E+03 -0.29535771264E+03  0.76352633306E+03  0.10100000352E+00 0.  1.
</event>
<event>
 5   0  0.2993769E-05  0.1700143E+04  0.7818609E-02  0.8761283E-01
       -1   -1    0    0    0  501  0.00000000000E+00  0.00000000000E+00  0.81193232862E+03  0.81193232864E+03  0.50400001928E-02 0.  1.
        1   -1    0    0  501    0  0.00000000000E+00  0.00000000000E+00 -0.89000189653E+03  0.89000189655E+03  0.50400001928E-02 0. -1.
    10030    2    1    2    0    0  0.00000000000E+00  0.00000000000E+00 -0.78069567914E+02  0.17019342252E+04  0.17001427144E+04 0.  0.
        3    1    3    3  502    0 -0.66132985204E+02  0.23909367224E+03 -0.85296100862E+03  0.88830279087E+03  0.10100000352E+00 0. -1.
       -3    1    3    3    0  502  0.66132985204E+02 -0.23909367224E+03  0.77489144070E+03  0.81363143432E+03  0.10100000352E+00 0.  1.
</event>
<event>
 5   0  0.2993769E-05  0.1700113E+04  0.7818609E-02  0.8761300E-01
        1   -1    0    0  501    0  0.00000000000E+00  0.00000000000E+00  0.16964931838E+04  0.16964931838E+04  0.50400001928E-02 0.  1.
       -1   -1    0    0    0  501  0.00000000000E+00  0.00000000000E+00 -0.42593535907E+03  0.42593535910E+03  0.50400001928E-02 0. -1.
    10030    2    1    2    0    0  0.00000000000E+00  0.00000000000E+00  0.12705578247E+04  0.21224285429E+04  0.17001134473E+04 0.  0.
        3    1    3    3  502    0 -0.35701302524E+03  0.44088483837E+03  0.14255873980E+04  0.15343197777E+04  0.10100000352E+00 0.  1.
       -3    1    3    3    0  502  0.35701302524E+03 -0.44088483837E+03 -0.15502957323E+03  0.58810876517E+03  0.10100000352E+00 0. -1.
</event>
<event>
 5   0  0.2993769E-05  0.1698670E+04  0.7818609E-02  0.8762123E-01
       -1   -1    0    0    0  501  0.00000000000E+00  0.00000000000E+00  0.11022089573E+04  0.11022089573E+04  0.50400001928E-02 0.  1.
        1   -1    0    0  501    0  0.00000000000E+00  0.00000000000E+00 -0.65447674223E+03  0.65447674225E+03  0.50400001928E-02 0. -1.
    10030    2    1    2    0    0  0.00000000000E+00  0.00000000000E+00  0.44773221510E+03  0.17566856996E+04  0.16986702183E+04 0.  0.
        3    1    3    3  502    0  0.57561696506E+03  0.62210213712E+03  0.16699558330E+03  0.86384807375E+03  0.10100000352E+00 0.  1.
       -3    1    3    3    0  502 -0.57561696506E+03 -0.62210213712E+03  0.28073663181E+03  0.89283762584E+03  0.10100000352E+00 0. -1.
</event>
<event>
 5   0  0.2098250E-05  0.1698946E+04  0.7818609E-02  0.8761966E-01
        4   -1    0    0  501    0  0.00000000000E+00  0.00000000000E+00  0.70641916310E+03  0.70642030470E+03  0.12699999809E+01 0.  1.
       -4   -1    0    0    0  501  0.00000000000E+00  0.00000000000E+00 -0.10214932674E+04  0.10214940568E+04  0.12699999809E+01 0. -1.
    10030    2    1    2    0    0  0.00000000000E+00  0.00000000000E+00 -0.31507410427E+03  0.17279143615E+04  0.16989456582E+04 0.  0.
        5    1    3    3  502    0 -0.64718321978E+03  0.30768095350E+03  0.30638572385E+03  0.77936383729E+03  0.46999998093E+01 0.  1.
       -5    1    3    3    0  502  0.64718321978E+03 -0.30768095350E+03 -0.62145982811E+03  0.94855052425E+03  0.46999998093E+01 0. -1.
</event>
<event>
 5   0  0.2966258E-05  0.1704031E+04  0.7818609E-02  0.8759069E-01
       -1   -1    0    0    0  501  0.00000000000E+00  0.00000000000E+00  0.95696155883E+03  0.95696155884E+03  0.50400001928E-02 0.  1.
        1   -1    0    0  501    0  0.00000000000E+00  0.00000000000E+00 -0.75857833102E+03  0.75857833103E+03  0.50400001928E-02 0. -1.
    10030    2    1    2    0    0  0.00000000000E+00  0.00000000000E+00  0.19838322781E+03  0.17155398899E+04  0.17040308708E+04 0.  0.
        4    1    3    3  502    0  0.31850745753E+03  0.24073235445E+03 -0.65857361616E+03  0.77014277104E+03  0.12699999809E+01 0. -1.
       -4    1    3    3    0  502 -0.31850745753E+03 -0.24073235445E+03  0.85695684397E+03  0.94539711884E+03  0.12699999809E+01 0.  1.
</event>
<event>
 5   0  0.2966258E-05  0.1698949E+04  0.7818609E-02  0.8761964E-01
       -1   -1    0    0    0  501  0.00000000000E+00  0.00000000000E+00  0.99854411467E+03  0.99854411469E+03  0.50400001928E-02 0.  1.
        1   -1    0    0  501    0  0.00000000000E+00  0.00000000000E+00 -0.72265892893E+03  0.72265892895E+03  0.50400001928E-02 0. -1.
    10030    2    1    2    0    0  0.00000000000E+00  0.00000000000E+00  0.27588518574E+03  0.17212030436E+04  0.16989488755E+04 0.  0.
        4    1    3    3  502    0  0.23188411416E+03  0.63800131759E+03 -0.37942195538E+03  0.77767509718E+03  0.12699999809E+01 0. -1.
       -4    1    3    3    0  502 -0.23188411416E+03 -0.63800131759E+03  0.65530714112E+03  0.94352794646E+03  0.12699999809E+01 0.  1.
</event>
<event>
 5   0  0.5671132E-05  0.1702757E+04  0.7818609E-02  0.8759793E-01
       -2   -1    0    0    0  501  0.00000000000E+00  0.00000000000E+00  0.67182496504E+03  0.67182496505E+03  0.25500000920E-02 0.  1.
        2   -1    0    0  501    0  0.00000000000E+00  0.00000000000E+00 -0.10789201880E+04  0.10789201880E+04  0.25500000920E-02 0. -1.
    10030    2    1    2    0    0  0.00000000000E+00  0.00000000000E+00 -0.40709522298E+03  0.17507451531E+04  0.17027571966E+04 0.  0.
        3    1    3    3  502    0  0.79931038470E+03 -0.90456754902E+02  0.83177061337E+02  0.80870139689E+03  0.10100000352E+00 0.  1.
       -3    1    3    3    0  502 -0.79931038470E+03  0.90456754902E+02 -0.49027228432E+03  0.94204375618E+03  0.10100000352E+00 0. -1.
</event>
<event>
 5   0  0.5755321E-05  0.1702412E+04  0.7818609E-02  0.8759990E-01
       -2   -1    0    0    0  501  0.00000000000E+00  0.00000000000E+00  0.71713939562E+03  0.71713939563E+03  0.25500000920E-02 0.  1.
        2   -1    0    0  501    0  0.00000000000E+00  0.00000000000E+00 -0.10103357947E+04  0.10103357947E+04  0.25500000920E-02 0. -1.
    10030    2    1    2    0    0  0.00000000000E+00  0.00000000000E+00 -0.29319639903E+03  0.17274751903E+04  0.17024119374E+04 0.  0.
        4    1    3    3  502    0  0.32317062685E+03  0.78701116393E+03 -0.17390463702E+03  0.86837219088E+03  0.12699999809E+01 0.  1.
       -4    1    3    3    0  502 -0.32317062685E+03 -0.78701116393E+03 -0.11929176201E+03  0.85910299941E+03  0.12699999809E+01 0. -1.
</event>
<event>
 5   0  0.5755321E-05  0.1699346E+04  0.7818609E-02  0.8761738E-01
       -2   -1    0    0    0  501  0.00000000000E+00  0.00000000000E+00  0.55929805732E+03  0.55929805732E+03  0.25500000920E-02 0. -1.
        2   -1    0    0  501    0  0.00000000000E+00  0.00000000000E+00 -0.12908034859E+04  0.12908034859E+04  0.25500000920E-02 0.  1.
    10030    2    1    2    0    0  0.00000000000E+00  0.00000000000E+00 -0.73150542860E+03  0.18501015432E+04  0.16993456177E+04 0.  0.
        4    1    3    3  502    0 -0.21773220749E+03 -0.79098988884E+03 -0.60642983108E+03  0.10202112876E+04  0.12699999809E+01 0.  1.
       -4    1    3    3    0  502  0.21773220749E+03  0.79098988884E+03 -0.12507559752E+03  0.82989025565E+03  0.12699999809E+01 0. -1.
</event>
<event>
 5   0  0.2987859E-05  0.1695410E+04  0.7818609E-02  0.8763987E-01
       -1   -1    0    0    0  501  0.00000000000E+00  0.00000000000E+00  0.66889583347E+03  0.66889583348E+03  0.50400001928E-02 0.  1.
        1   -1    0    0  501    0  0.00000000000E+00  0.00000000000E+00 -0.10743130266E+04  0.10743130266E+04  0.50400001928E-02 0. -1.
    10030    2    1    2    0    0  0.00000000000E+00  0.00000000000E+00 -0.40541719316E+03  0.17432088601E+04  0.16954096937E+04 0.  0.
        5    1    3    3  502    0 -0.81837218553E+03 -0.11954233934E+03 -0.39384752237E+03  0.91605751229E+03  0.46999998093E+01 0. -1.
       -5    1    3    3    0  502  0.81837218553E+03  0.11954233934E+03 -0.11569670793E+02  0.82715134783E+03  0.46999998093E+01 0.  1.
</event>
<event>
 5   0  0.2993769E-05  0.1698163E+04  0.7818609E-02  0.8762413E-01
        1   -1    0    0  501    0  0.00000000000E+00  0.00000000000E+00  0.13679281455E+04  0.13679281455E+04  0.50400001928E-02 0.  1.
       -1   -1    0    0    0  501  0.00000000000E+00  0.00000000000E+00 -0.52703021982E+03  0.52703021984E+03  0.50400001928E-02 0. -1.
    10030    2    1    2    0    0  0.00000000000E+00  0.00000000000E+00  0.84089792566E+03  0.18949583653E+04  0.16981630914E+04 0.  0.
        3    1    3    3  502    0 -0.72468451979E+03 -0.31404529807E+03  0.76825392452E+03  0.11018194976E+04  0.10100000352E+00 0.  1.
       -3    1    3    3    0  502  0.72468451979E+03  0.31404529807E+03  0.72644001139E+02  0.79313886777E+03  0.10100000352E+00 0. -1.
</event>
<event>
 5   0  0.5755321E-05  0.1724477E+04  0.7818609E-02  0.8747526E-01
       -2   -1    0    0    0  501  0.00000000000E+00  0.00000000000E+00  0.10696673472E+04  0.10696673472E+04  0.25500000920E-02 0. -1.
        2   -1    0    0  501    0  0.00000000000E+00  0.00000000000E+00 -0.69503368557E+03  0.69503368557E+03  0.25500000920E-02 0.  1.
    10030    2    1    2    0    0  0.00000000000E+00  0.00000000000E+00  0.37463366166E+03  0.17647010328E+04  0.17244765451E+04 0.  0.
        4    1    3    3  502    0  0.18972004097E+03 -0.13066199643E+03 -0.66295960326E+03  0.70184278846E+03  0.12699999809E+01 0.  1.
       -4    1    3    3    0  502 -0.18972004097E+03  0.13066199643E+03  0.10375932649E+04  0.10628582443E+04  0.12699999809E+01 0. -1.
</event>
<event>
 5   0  0.5859822E-05  0.1700906E+04  0.7818609E-02  0.8760848E-01
        2   -1    0    0  501    0  0.00000000000E+00  0.00000000000E+00  0.10340933241E+04  0.10340933241E+04  0.25500000920E-02 0.  1.
       -2   -1    0    0    0  501  0.00000000000E+00  0.00000000000E+00 -0.69942426082E+03  0.69942426083E+03  0.25500000920E-02 0. -1.
    10030    2    1    2    0    0  0.00000000000E+00  0.00000000000E+00  0.33466906332E+03  0.17335175850E+04  0.17009055928E+04 0.  0.
        5    1    3    3  502    0  0.45738217797E+03  0.52952641823E+03  0.65997721370E+03  0.96186729694E+03  0.46999998093E+01 0.  1.
       -5    1    3    3    0  502 -0.45738217797E+03 -0.52952641823E+03 -0.32530815037E+03  0.77165028803E+03  0.46999998093E+01 0. -1.
</event>
<event>
 5   0  0.2987859E-05  0.1697881E+04  0.7818609E-02  0.8762574E-01
       -1   -1    0    0    0  501  0.00000000000E+00  0.00000000000E+00  0.57120591866E+03  0.57120591868E+03  0.50400001928E-02 0.  1.
        1   -1    0    0  501    0  0.00000000000E+00  0.00000000000E+00 -0.12617167109E+04  0.12617167109E+04  0.50400001928E-02 0. -1.
    10030    2    1    2    0    0  0.00000000000E+00  0.00000000000E+00 -0.69051079223E+03  0.18329226296E+04  0.16978810947E+04 0.  0.
        5    1    3    3  502    0 -0.66019041916E+03  0.16353741840E+03  0.20316776891E+03  0.70985569596E+03  0.46999998093E+01 0. -1.
       -5    1    3    3    0  502  0.66019041916E+03 -0.16353741840E+03 -0.89367856114E+03  0.11230669336E+04  0.46999998093E+01 0.  1.
</event>
<event>
 5   0  0.2993769E-05  0.1700624E+04  0.7818609E-02  0.8761009E-01
       -1   -1    0    0    0  501  0.00000000000E+00  0.00000000000E+00  0.96247515092E+03  0.96247515094E+03  0.50400001928E-02 0.  1.
        1   -1    0    0  501    0  0.00000000000E+00  0.00000000000E+00 -0.75121965488E+03  0.75121965490E+03  0.50400001928E-02 0. -1.
    10030    2    1    2    0    0  0.00000000000E+00  0.00000000000E+00  0.21125549604E+03  0.17136948058E+04  0.17006237100E+04 0.  0.
        3    1    3    3  502    0  0.30302869889E+03  0.39913828247E+03  0.79785194924E+03  0.94218124796E+03  0.10100000352E+00 0.  1.
       -3    1    3    3    0  502 -0.30302869889E+03 -0.39913828247E+03 -0.58659645320E+03  0.77151355788E+03  0.10100000352E+00 0. -1.
</event>
<event>
 5   0  0.5652631E-05  0.1699299E+04  0.7818609E-02  0.8761764E-01
        2   -1    0    0  501    0  0.00000000000E+00  0.00000000000E+00  0.15210281292E+04  0.15210281292E+04  0.25500000920E-02 0.  1.
       -2   -1    0    0    0  501  0.00000000000E+00  0.00000000000E+00 -0.47461618523E+03  0.47461618524E+03  0.25500000920E-02 0. -1.
    10030    2    1    2    0    0  0.00000000000E+00  0.00000000000E+00  0.10464119439E+04  0.19956443144E+04  0.16992993477E+04 0.  0.
        2    1    3    3  502    0 -0.58038317678E+03 -0.61298742707E+03  0.40991300393E+03  0.93841722514E+03  0.25500000920E-02 0.  1.
       -2    1    3    3    0  502  0.58038317678E+03  0.61298742707E+03  0.63649893999E+03  0.10572270893E+04  0.25500000920E-02 0. -1.
</event>
<event>
 5   0  0.5859822E-05  0.1699450E+04  0.7818609E-02  0.8761678E-01
       -2   -1    0    0    0  501  0.00000000000E+00  0.00000000000E+00  0.11700807973E+04  0.11700807973E+04  0.25500000920E-02 0.  1.
        2   -1    0    0  501    0  0.00000000000E+00  0.00000000000E+00 -0.61707960558E+03  0.61707960558E+03  0.25500000920E-02 0. -1.
    10030    2    1    2    0    0  0.00000000000E+00  0.00000000000E+00  0.55300119176E+03  0.17871604029E+04  0.16994504958E+04 0.  0.
        5    1    3    3  502    0  0.14058190854E+02  0.78461559201E+03  0.61918961894E+03  0.99961849430E+03  0.46999998093E+01 0. -1.
       -5    1    3    3    0  502 -0.14058190854E+02 -0.78461559201E+03 -0.66188427176E+02  0.78754190862E+03  0.46999998093E+01 0.  1.
</event>
<event>
 5   0  0.5821584E-05  0.1701211E+04  0.7818609E-02  0.8760674E-01
        2   -1    0    0  501    0  0.00000000000E+00  0.00000000000E+00  0.10297013364E+04  0.10297013364E+04  0.25500000920E-02 0. -1.
       -2   -1    0    0    0  501  0.00000000000E+00  0.00000000000E+00 -0.70265992577E+03  0.70265992577E+03  0.25500000920E-02 0.  1.
    10030    2    1    2    0    0  0.00000000000E+00  0.00000000000E+00  0.32704141060E+03  0.17323612621E+04  0.17012111739E+04 0.  0.
        1    1    3    3  502    0 -0.72339461398E+03 -0.33312874407E+03 -0.14070599986E+03  0.80874761581E+03  0.50400001928E-02 0.  1.
       -1    1    3    3    0  502  0.72339461398E+03  0.33312874407E+03  0.46774741046E+03  0.92361364632E+03  0.50400001928E-02 0. -1.
</event>
<event>
 5   0  0.5755321E-05  0.1698120E+04  0.7818609E-02  0.8762437E-01
        2   -1    0    0  501    0  0.00000000000E+00  0.00000000000E+00  0.13097530185E+04  0.13097530185E+04  0.25500000920E-02 0.  1.
       -2   -1    0    0    0  501  0.00000000000E+00  0.00000000000E+00 -0.55041159866E+03  0.55041159867E+03  0.25500000920E-02 0. -1.
    10030    2    1    2    0    0  0.00000000000E+00  0.00000000000E+00  0.75934141979E+03  0.18601646171E+04  0.16981204348E+04 0.  0.
        4    1    3    3  502    0 -0.58401653087E+02 -0.84682177102E+03  0.40113028733E+03  0.93884236444E+03  0.12699999809E+01 0.  1.
       -4    1    3    3    0  502  0.58401653087E+02  0.84682177102E+03  0.35821113247E+03  0.92132225268E+03  0.12699999809E+01 0. -1.
</event>
<event>
 5   0  0.5859822E-05  0.1698809E+04  0.7818609E-02  0.8762044E-01
        2   -1    0    0  501    0  0.00000000000E+00  0.00000000000E+00  0.12012719069E+04  0.12012719069E+04  0.25500000920E-02 0. -1.
       -2   -1    0    0    0  501  0.00000000000E+00  0.00000000000E+00 -0.60060354221E+03  0.60060354222E+03  0.25500000920E-02 0.  1.
    10030    2    1    2    0    0  0.00000000000E+00  0.00000000000E+00  0.60066836469E+03  0.18018754491E+04  0.16988091858E+04 0.  0.
        5    1    3    3  502    0  0.13061993195E+03  0.20331683097E+03  0.11640259891E+04  0.11888557077E+04  0.46999998093E+01 0. -1.
       -5    1    3    3    0  502 -0.13061993195E+03 -0.20331683097E+03 -0.56335762443E+03  0.61301974143E+03  0.46999998093E+01 0.  1.
</event>
<event>
 5   0  0.5671132E-05  0.1699034E+04  0.7818609E-02  0.8761915E-01
        2   -1    0    0  501    0  0.00000000000E+00  0.00000000000E+00  0.13404211432E+04  0.13404211432E+04  0.25500000920E-02 0. -1.
       -2   -1    0    0    0  501  0.00000000000E+00  0.00000000000E+00 -0.53839747934E+03  0.53839747934E+03  0.25500000920E-02 0.  1.
    10030    2    1    2    0    0  0.00000000000E+00  0.00000000000E+00  0.80202366383E+03  0.18788186225E+04  0.16990342724E+04 0.  0.
        3    1    3    3  502    0 -0.76718695648E+03 -0.36253017468E+03  0.44627470060E+03  0.95873096974E+03  0.10100000352E+00 0.  1.
       -3    1    3    3    0  502  0.76718695648E+03  0.36253017468E+03  0.35574896323E+03  0.92008765277E+03  0.10100000352E+00 0. -1.
</event>
<event>
 5   0  0.2966258E-05  0.1699387E+04  0.7818609E-02  0.8761714E-01
        1   -1    0    0  501    0  0.00000000000E+00  0.00000000000E+00  0.11306949336E+04  0.11306949336E+04  0.50400001928E-02 0.  1.
       -1   -1    0    0    0  501  0.00000000000E+00  0.00000000000E+00 -0.63852666437E+03  0.63852666439E+03  0.50400001928E-02 0. -1.
    10030    2    1    2    0    0  0.00000000000E+00  0.00000000000E+00  0.49216826922E+03  0.17692215980E+04  0.16993867887E+04 0.  0.
        4    1    3    3  502    0 -0.32933235863E+03 -0.77314155489E+03  0.37682162052E+03  0.92097981136E+03  0.12699999809E+01 0.  1.
       -4    1    3    3    0  502  0.32933235863E+03  0.77314155489E+03  0.11534664870E+03  0.84824178664E+03  0.12699999809E+01 0. -1.
</event>
<event>
 5   0  0.5859822E-05  0.1710298E+04  0.7818609E-02  0.8755513E-01
       -2   -1    0    0    0  501  0.00000000000E+00  0.00000000000E+00  0.70494268387E+03  0.70494268387E+03  0.25500000920E-02 0.  1.
        2   -1    0    0  501    0  0.00000000000E+00  0.00000000000E+00 -0.10373604631E+04  0.10373604631E+04  0.25500000920E-02 0. -1.
    10030    2    1    2    0    0  0.00000000000E+00  0.00000000000E+00 -0.33241777925E+03  0.17423031470E+04  0.17102978326E+04 0.  0.
        5    1    3    3  502    0 -0.78218449195E+03  0.85277576882E+02 -0.50739836742E+03  0.93624785063E+03  0.46999998093E+01 0. -1.
       -5    1    3    3    0  502  0.78218449195E+03 -0.85277576882E+02  0.17498058816E+03  0.80605529636E+03  0.46999998093E+01 0.  1.
</event>
<event>
 5   0  0.2987859E-05  0.1700235E+04  0.7818609E-02  0.8761230E-01
        1   -1    0    0  501    0  0.00000000000E+00  0.00000000000E+00  0.65437835151E+03  0.65437835153E+03  0.50400001928E-02 0.  1.
       -1   -1    0    0    0  501  0.00000000000E+00  0.00000000000E+00 -0.11044067484E+04  0.11044067484E+04  0.50400001928E-02 0. -1.
    10030    2    1    2    0    0  0.00000000000E+00  0.00000000000E+00 -0.45002839686E+03  0.17587850999E+04  0.17002351219E+04 0.  0.
        5    1    3    3  502    0  0.13335801689E+03 -0.58793746897E+03  0.39497743893E+03  0.72075245081E+03  0.46999998093E+01 0.  1.
       -5    1    3    3    0  502 -0.13335801689E+03  0.58793746897E+03 -0.84500583579E+03  0.10380326491E+04  0.46999998093E+01 0. -1.
</event>
<event>
 5   0  0.2987859E-05  0.1693560E+04  0.7818609E-02  0.8765046E-01
        1   -1    0    0  501    0  0.00000000000E+00  0.00000000000E+00  0.54847841379E+03  0.54847841381E+03  0.50400001928E-02 0.  1.
       -1   -1    0    0    0  501  0.00000000000E+00  0.00000000000E+00 -0.13073192008E+04  0.13073192008E+04  0.50400001928E-02 0. -1.
    10030    2    1    2    0    0  0.00000000000E+00  0.00000000000E+00 -0.75884078696E+03  0.18557976146E+04  0.16935599919E+04 0.  0.
        5    1    3    3  502    0 -0.59055681930E+03 -0.42663582248E+03 -0.85231580162E+03  0.11212670501E+04  0.46999998093E+01 0. -1.
       -5    1    3    3    0  502  0.59055681930E+03  0.42663582248E+03  0.93475014659E+02  0.73453056452E+03  0.46999998093E+01 0.  1.
</event>
<event>
 5   0  0.2987859E-05  0.1702421E+04  0.7818609E-02  0.8759985E-01
       -1   -1    0    0    0  501  0.00000000000E+00  0.00000000000E+00  0.94877792255E+03  0.94877792257E+03  0.50400001928E-02 0. -1.
        1   -1    0    0  501    0  0.00000000000E+00  0.00000000000E+00 -0.76367621859E+03  0.76367621861E+03  0.50400001928E-02 0.  1.
    10030    2    1    2    0    0  0.00000000000E+00  0.00000000000E+00  0.18510170396E+03  0.17124541412E+04  0.17024207896E+04 0.  0.
        5    1    3    3  502    0  0.61456026935E+03 -0.37714414186E+03  0.54756069203E+03  0.90540975799E+03  0.46999998093E+01 0. -1.
       -5    1    3    3    0  502 -0.61456026935E+03  0.37714414186E+03 -0.36245898806E+03  0.80704438319E+03  0.46999998093E+01 0.  1.
</event>
<event>
 5   0  0.2911632E-05  0.1700593E+04  0.7818609E-02  0.8761026E-01
       -1   -1    0    0    0  501  0.00000000000E+00  0.00000000000E+00  0.13739893542E+04  0.13739893542E+04  0.50400001928E-02 0.  1.
        1   -1    0    0  501    0  0.00000000000E+00  0.00000000000E+00 -0.52620796738E+03  0.52620796740E+03  0.50400001928E-02 0. -1.
    10030    2    1    2    0    0  0.00000000000E+00  0.00000000000E+00  0.84778138683E+03  0.19001973216E+04  0.17005930087E+04 0.  0.
        1    1    3    3  502    0  0.31400625658E+03 -0.26401084779E+02 -0.45855642777E+03  0.55639099914E+03  0.50400001928E-02 0. -1.
       -1    1    3    3    0  502 -0.31400625658E+03  0.26401084779E+02  0.13063378146E+04  0.13438063225E+04  0.50400001928E-02 0.  1.
</event>
<event>
 5   0  0.5671132E-05  0.1701709E+04  0.7818609E-02  0.8760391E-01
        2   -1    0    0  501    0  0.00000000000E+00  0.00000000000E+00  0.60662081901E+03  0.60662081902E+03  0.25500000920E-02 0.  1.
       -2   -1    0    0    0  501  0.00000000000E+00  0.00000000000E+00 -0.11934192785E+04  0.11934192785E+04  0.25500000920E-02 0. -1.
    10030    2    1    2    0    0  0.00000000000E+00  0.00000000000E+00 -0.58679845946E+03  0.18000400975E+04  0.17017085299E+04 0.  0.
        3    1    3    3  502    0 -0.57931681259E+03 -0.44396589602E+03  0.16917939219E+03  0.74922317311E+03  0.10100000352E+00 0.  1.
       -3    1    3    3    0  502  0.57931681259E+03  0.44396589602E+03 -0.75597785165E+03  0.10508169244E+04  0.10100000352E+00 0. -1.
</event>
<event>
 5   0  0.2098250E-05  0.1704179E+04  0.7818609E-02  0.8758985E-01
        4   -1    0    0  501    0  0.00000000000E+00  0.00000000000E+00  0.34911889336E+03  0.34912120331E+03  0.12699999809E+01 0. -1.
       -4   -1    0    0    0  501  0.00000000000E+00  0.00000000000E+00 -0.20796732263E+04  0.20796736141E+04  0.12699999809E+01 0.  1.
    10030    2    1    2    0    0  0.00000000000E+00  0.00000000000E+00 -0.17305543330E+04  0.24287948174E+04  0.17041789712E+04 0.  0.
        1    1    3    3  502    0 -0.37935887907E+03  0.73495713876E+03 -0.11572912218E+04  0.14224619949E+04  0.50400001928E-02 0.  1.
       -1    1    3    3    0  502  0.37935887907E+03 -0.73495713876E+03 -0.57326311117E+03  0.10063328225E+04  0.50400001928E-02 0. -1.
</event>
<event>
 5   0  0.2966258E-05  0.1694574E+04  0.7818609E-02  0.8764465E-01
        1   -1    0    0  501    0  0.00000000000E+00  0.00000000000E+00  0.86704578378E+03  0.86704578380E+03  0.50400001928E-02 0. -1.
       -1   -1    0    0    0  501  0.00000000000E+00  0.00000000000E+00 -0.82797891591E+03  0.82797891593E+03  0.50400001928E-02 0.  1.
    10030    2    1    2    0    0  0.00000000000E+00  0.00000000000E+00  0.39066867871E+02  0.16950246997E+04  0.16945744340E+04 0.  0.
        4    1    3    3  502    0  0.25219423039E+03  0.16894201411E+03  0.81078766747E+03  0.86574914877E+03  0.12699999809E+01 0. -1.
       -4    1    3    3    0  502 -0.25219423039E+03 -0.16894201411E+03 -0.77172079960E+03  0.82927555096E+03  0.12699999809E+01 0.  1.
</event>
<event>
 5   0  0.5652631E-05  0.1697608E+04  0.7818609E-02  0.8762730E-01
       -2   -1    0    0    0  501  0.00000000000E+00  0.00000000000E+00  0.35535705341E+03  0.35535705342E+03  0.25500000920E-02 0. -1.
        2   -1    0    0  501    0  0.00000000000E+00  0.00000000000E+00 -0.20274492533E+04  0.20274492533E+04  0.25500000920E-02 0.  1.
    10030    2    1    2    0    0  0.00000000000E+00  0.00000000000E+00 -0.16720921999E+04  0.23828063068E+04  0.16976081911E+04 0.  0.
        2    1    3    3  502    0 -0.80392903990E+03 -0.15720366672E+03 -0.52390583875E+03  0.97236424343E+03  0.25500000920E-02 0.  1.
       -2    1    3    3    0  502  0.80392903990E+03  0.15720366672E+03 -0.11481863612E+04  0.14104420633E+04  0.25500000920E-02 0. -1.
</event>
<event>
 5   0  0.5652631E-05  0.1700383E+04  0.7818609E-02  0.8761146E-01
        2   -1    0    0  501    0  0.00000000000E+00  0.00000000000E+00  0.52957929082E+03  0.52957929083E+03  0.25500000920E-02 0. -1.
       -2   -1    0    0    0  501  0.00000000000E+00  0.00000000000E+00 -0.13649052287E+04  0.13649052287E+04  0.25500000920E-02 0.  1.
    10030    2    1    2    0    0  0.00000000000E+00  0.00000000000E+00 -0.83532593784E+03  0.18944845195E+04  0.17003829487E+04 0.  0.
        2    1    3    3  502    0 -0.12799846312E+03 -0.31305465895E+03 -0.12867289308E+04  0.13304353300E+04  0.25500000920E-02 0.  1.
       -2    1    3    3    0  502  0.12799846312E+03  0.31305465895E+03  0.45140299296E+03  0.56404918945E+03  0.25500000920E-02 0. -1.
</event>
<event>
 5   0  0.2911632E-05  0.1700030E+04  0.7818609E-02  0.8761347E-01
       -1   -1    0    0    0  501  0.00000000000E+00  0.00000000000E+00  0.62499118524E+03  0.62499118526E+03  0.50400001928E-02 0.  1.
        1   -1    0    0  501    0  0.00000000000E+00  0.00000000000E+00 -0.11560574545E+04  0.11560574545E+04  0.50400001928E-02 0. -1.
    10030    2    1    2    0    0  0.00000000000E+00  0.00000000000E+00 -0.53106626922E+03  0.17810486397E+04  0.17000302570E+04 0.  0.
        1    1    3    3  502    0 -0.20997754194E+03 -0.61020732104E+03  0.31407990740E+03  0.71769752056E+03  0.50400001928E-02 0.  1.
       -1    1    3    3    0  502  0.20997754194E+03  0.61020732104E+03 -0.84514617662E+03  0.10633511192E+04  0.50400001928E-02 0. -1.
</event>
<event>
 5   0  0.5859822E-05  0.1699869E+04  0.7818609E-02  0.8761439E-01
        2   -1    0    0  501    0  0.00000000000E+00  0.00000000000E+00  0.64967400255E+03  0.64967400255E+03  0.25500000920E-02 0. -1.
       -2   -1    0    0    0  501  0.00000000000E+00  0.00000000000E+00 -0.11119242533E+04  0.11119242533E+04  0.25500000920E-02 0.  1.
    10030    2    1    2    0    0  0.00000000000E+00  0.00000000000E+00 -0.46225025079E+03  0.17615982559E+04  0.16998685599E+04 0.  0.
        5    1    3    3  502    0 -0.35985928266E+03 -0.73938480447E+03 -0.45381844983E+03  0.93923472455E+03  0.46999998093E+01 0.  1.
       -5    1    3    3    0  502  0.35985928266E+03  0.73938480447E+03 -0.84318009563E+01  0.82236353133E+03  0.46999998093E+01 0. -1.
</event>
<event>
 5   0  0.2993769E-05  0.1698950E+04  0.7818609E-02  0.8761963E-01
       -1   -1    0    0    0  501  0.00000000000E+00  0.00000000000E+00  0.35510567188E+03  0.35510567191E+03  0.50400001928E-02 0.  1.
        1   -1    0    0  501    0  0.00000000000E+00  0.00000000000E+00 -0.20320933965E+04  0.20320933965E+04  0.50400001928E-02 0. -1.
    10030    2    1    2    0    0  0.00000000000E+00  0.00000000000E+00 -0.16769877247E+04  0.23871990685E+04  0.16989501358E+04 0.  0.
        3    1    3    3  502    0  0.45799061640E+03 -0.26425762875E+03  0.95683096701E+02  0.53734789872E+03  0.10100000352E+00 0.  1.
       -3    1    3    3    0  502 -0.45799061640E+03  0.26425762875E+03 -0.17726708214E+04  0.18498511697E+04  0.10100000352E+00 0. -1.
</event>
<event>
 5   0  0.5755321E-05  0.1701612E+04  0.7818609E-02  0.8760445E-01
        2   -1    0    0  501    0  0.00000000000E+00  0.00000000000E+00  0.74234367136E+03  0.74234367137E+03  0.25500000920E-02 0. -1.
       -2   -1    0    0    0  501  0.00000000000E+00  0.00000000000E+00 -0.97511574888E+03  0.97511574888E+03  0.25500000920E-02 0.  1.
    10030    2    1    2    0    0  0.00000000000E+00  0.00000000000E+00 -0.23277207752E+03  0.17174594202E+04  0.17016121826E+04 0.  0.
        4    1    3    3  502    0 -0.84248324720E+03 -0.11701635989E+03 -0.96236604366E+02  0.85599880094E+03  0.12699999809E+01 0. -1.
       -4    1    3    3    0  502  0.84248324720E+03  0.11701635989E+03 -0.13653547315E+03  0.86146061931E+03  0.12699999809E+01 0.  1.
</event>
<event>
 5   0  0.2098250E-05  0.1704914E+04  0.7818609E-02  0.8758567E-01
        4   -1    0    0  501    0  0.00000000000E+00  0.00000000000E+00  0.72535297922E+03  0.72535409102E+03  0.12699999809E+01 0.  1.
       -4   -1    0    0    0  501  0.00000000000E+00  0.00000000000E+00 -0.10018314023E+04  0.10018322073E+04  0.12699999809E+01 0. -1.
    10030    2    1    2    0    0  0.00000000000E+00  0.00000000000E+00 -0.27647842313E+03  0.17271862983E+04  0.17049141300E+04 0.  0.
        1    1    3    3  502    0 -0.68047226906E+03 -0.51196467671E+03 -0.98577956139E+02  0.85724439492E+03  0.50400001928E-02 0.  1.
       -1    1    3    3    0  502  0.68047226906E+03  0.51196467671E+03 -0.17790046699E+03  0.86994190342E+03  0.50400001928E-02 0. -1.
</event>
<event>
 5   0  0.2911632E-05  0.1703133E+04  0.7818609E-02  0.8759580E-01
        1   -1    0    0  501    0  0.00000000000E+00  0.00000000000E+00  0.80749110820E+03  0.80749110822E+03  0.50400001928E-02 0.  1.
       -1   -1    0    0    0  501  0.00000000000E+00  0.00000000000E+00 -0.89804718147E+03  0.89804718149E+03  0.50400001928E-02 0. -1.
    10030    2    1    2    0    0  0.00000000000E+00  0.00000000000E+00 -0.90556073272E+02  0.17055382897E+04  0.17031325419E+04 0.  0.
        1    1    3    3  502    0 -0.19226559145E+03 -0.38896974670E+03 -0.77904874785E+03  0.89172892353E+03  0.50400001928E-02 0. -1.
       -1    1    3    3    0  502  0.19226559145E+03  0.38896974670E+03  0.68849267458E+03  0.81380936618E+03  0.50400001928E-02 0.  1.
</event>
<event>
 5   0  0.2911632E-05  0.1700874E+04  0.7818609E-02  0.8760866E-01
       -1   -1    0    0    0  501  0.00000000000E+00  0.00000000000E+00  0.52052435534E+03  0.52052435537E+03  0.50400001928E-02 0. -1.
        1   -1    0    0  501    0  0.00000000000E+00  0.00000000000E+00 -0.13894509232E+04  0.13894509232E+04  0.50400001928E-02 0.  1.
    10030    2    1    2    0    0  0.00000000000E+00  0.00000000000E+00 -0.86892656782E+03  0.19099752785E+04  0.17008739472E+04 0.  0.
        1    1    3    3  502    0  0.45170249798E+03  0.43195436970E+03 -0.10821007506E+04  0.12496246471E+04  0.50400001928E-02 0.  1.
       -1    1    3    3    0  502 -0.45170249798E+03 -0.43195436970E+03  0.21317418280E+03  0.66035063142E+03  0.50400001928E-02 0. -1.
</event>
<event>
 5   0  0.2993769E-05  0.1701209E+04  0.7818609E-02  0.8760675E-01
        1   -1    0    0  501    0  0.00000000000E+00  0.00000000000E+00  0.94486147192E+03  0.94486147193E+03  0.50400001928E-02 0.  1.
       -1   -1    0    0    0  501  0.00000000000E+00  0.00000000000E+00 -0.76575035057E+03  0.76575035058E+03  0.50400001928E-02 0. -1.
    10030    2    1    2    0    0  0.00000000000E+00  0.00000000000E+00  0.17911112135E+03  0.17106118225E+04  0.17012089858E+04 0.  0.
        3    1    3    3  502    0 -0.60232178371E+03 -0.56395494366E+03 -0.11820514300E+03  0.83355214333E+03  0.10100000352E+00 0.  1.
       -3    1    3    3    0  502  0.60232178371E+03  0.56395494366E+03  0.29731626435E+03  0.87705967919E+03  0.10100000352E+00 0. -1.
</event>
<event>
 5   0  0.5755321E-05  0.1708113E+04  0.7818609E-02  0.8756751E-01
       -2   -1    0    0    0  501  0.00000000000E+00  0.00000000000E+00  0.88432492414E+03  0.88432492414E+03  0.25500000920E-02 0. -1.
        2   -1    0    0  501    0  0.00000000000E+00  0.00000000000E+00 -0.82482420405E+03  0.82482420405E+03  0.25500000920E-02 0.  1.
    10030    2    1    2    0    0  0.00000000000E+00  0.00000000000E+00  0.59500720090E+02  0.17091491282E+04  0.17081131130E+04 0.  0.
        4    1    3    3  502    0 -0.11136418847E+03 -0.56088879341E+03 -0.60499452058E+03  0.83247714916E+03  0.12699999809E+01 0.  1.
       -4    1    3    3    0  502  0.11136418847E+03  0.56088879341E+03  0.66449524067E+03  0.87667197903E+03  0.12699999809E+01 0. -1.
</event>
<event>
 5   0  0.5821584E-05  0.1715187E+04  0.7818609E-02  0.8752750E-01
        2   -1    0    0  501    0  0.00000000000E+00  0.00000000000E+00  0.19688602112E+04  0.19688602112E+04  0.25500000920E-02 0.  1.
       -2   -1    0    0    0  501  0.00000000000E+00  0.00000000000E+00 -0.37354937703E+03  0.37354937704E+03  0.25500000920E-02 0. -1.
    10030    2    1    2    0    0  0.00000000000E+00  0.00000000000E+00  0.15953108341E+04  0.23424095882E+04  0.17151868765E+04 0.  0.
        1    1    3    3  502    0  0.26152599949E+03  0.21643598262E+03  0.18731950508E+04  0.19037069316E+04  0.50400001928E-02 0.  1.
       -1    1    3    3    0  502 -0.26152599949E+03 -0.21643598262E+03 -0.27788421671E+03  0.43870265659E+03  0.50400001928E-02 0. -1.
</event>
<event>
 5   0  0.2098250E-05  0.1701634E+04  0.7818609E-02  0.8760433E-01
        4   -1    0    0  501    0  0.00000000000E+00  0.00000000000E+00  0.20646425556E+04  0.20646429462E+04  0.12699999809E+01 0. -1.
       -4   -1    0    0    0  501  0.00000000000E+00  0.00000000000E+00 -0.35061098893E+03  0.35061328905E+03  0.12699999809E+01 0.  1.
    10030    2    1    2    0    0  0.00000000000E+00  0.00000000000E+00  0.17140315667E+04  0.24152562353E+04  0.17016340589E+04 0.  0.
        1    1    3    3  502    0  0.26742046665E+03 -0.56246758834E+02 -0.28662697213E+03  0.39602073815E+03  0.50400001928E-02 0.  1.
       -1    1    3    3    0  502 -0.26742046665E+03  0.56246758834E+02  0.20006585388E+04  0.20192354971E+04  0.50400001928E-02 0. -1.
</event>
<event>
 5   0  0.2967704E-05  0.1698106E+04  0.7818609E-02  0.8762446E-01
        1   -1    0    0  501    0  0.00000000000E+00  0.00000000000E+00  0.18546611106E+04  0.18546611106E+04  0.50400001928E-02 0.  1.
       -1   -1    0    0    0  501  0.00000000000E+00  0.00000000000E+00 -0.38869130973E+03  0.38869130977E+03  0.50400001928E-02 0. -1.
    10030    2    1    2    0    0  0.00000000000E+00  0.00000000000E+00  0.14659698009E+04  0.22433524204E+04  0.16981055989E+04 0.  0.
        2    1    3    3  502    0 -0.13233624232E+02 -0.56537973612E+03 -0.10365424182E+03  0.57495528233E+03  0.25500000920E-02 0. -1.
       -2    1    3    3    0  502  0.13233624232E+02  0.56537973612E+03  0.15696240427E+04  0.16683971380E+04  0.25500000920E-02 0.  1.
</event>
<event>
 5   0  0.2098250E-05  0.1698496E+04  0.7818609E-02  0.8762223E-01
       -3   -1    0    0    0  501  0.00000000000E+00  0.00000000000E+00  0.82930928927E+03  0.82930929542E+03  0.10100000352E+00 0. -1.
        3   -1    0    0  501    0  0.00000000000E+00  0.00000000000E+00 -0.86966603860E+03  0.86966604446E+03  0.10100000352E+00 0.  1.
    10030    2    1    2    0    0  0.00000000000E+00  0.00000000000E+00 -0.40356749326E+02  0.16989753399E+04  0.16984959636E+04 0.  0.
        2    1    3    3  502    0 -0.13506399203E+03 -0.16606201846E+03 -0.84223953928E+03  0.86901456687E+03  0.25500000920E-02 0.  1.
       -2    1    3    3    0  502  0.13506399203E+03  0.16606201846E+03  0.80188278995E+03  0.82996077301E+03  0.25500000920E-02 0. -1.
</event>
<event>
 5   0  0.5755321E-05  0.1696943E+04  0.7818609E-02  0.8763110E-01
        2   -1    0    0  501    0  0.00000000000E+00  0.00000000000E+00  0.20766725935E+04  0.20766725935E+04  0.25500000920E-02 0. -1.
       -2   -1    0    0    0  501  0.00000000000E+00  0.00000000000E+00 -0.34666204804E+03  0.34666204804E+03  0.25500000920E-02 0.  1.
    10030    2    1    2    0    0  0.00000000000E+00  0.00000000000E+00  0.17300105455E+04  0.24233346416E+04  0.16969426324E+04 0.  0.
        4    1    3    3  502    0  0.32355740602E+03  0.67533339446E+03  0.14346870426E+04  0.16183612427E+04  0.12699999809E+01 0. -1.
       -4    1    3    3    0  502 -0.32355740602E+03 -0.67533339446E+03  0.29532350288E+03  0.80497339889E+03  0.12699999809E+01 0.  1.
</event>
<event>
 5   0  0.2993769E-05  0.1698688E+04  0.7818609E-02  0.8762113E-01
       -1   -1    0    0    0  501  0.00000000000E+00  0.00000000000E+00  0.10871350707E+04  0.10871350707E+04  0.50400001928E-02 0. -1.
        1   -1    0    0  501    0  0.00000000000E+00  0.00000000000E+00 -0.66356552083E+03  0.66356552085E+03  0.50400001928E-02 0.  1.
    10030    2    1    2    0    0  0.00000000000E+00  0.00000000000E+00  0.42356954984E+03  0.17507005915E+04  0.16986881402E+04 0.  0.
        3    1    3    3  502    0 -0.68802662856E+03 -0.49787467054E+03  0.22333093250E+03  0.87814380643E+03  0.10100000352E+00 0.  1.
       -3    1    3    3    0  502  0.68802662856E+03  0.49787467054E+03  0.20023861734E+03  0.87255678511E+03  0.10100000352E+00 0. -1.
</event>
<event>
 5   0  0.5755321E-05  0.1698299E+04  0.7818609E-02  0.8762335E-01
        2   -1    0    0  501    0  0.00000000000E+00  0.00000000000E+00  0.92027152985E+03  0.92027152986E+03  0.25500000920E-02 0. -1.
       -2   -1    0    0    0  501  0.00000000000E+00  0.00000000000E+00 -0.78352384036E+03  0.78352384036E+03  0.25500000920E-02 0.  1.
    10030    2    1    2    0    0  0.00000000000E+00  0.00000000000E+00  0.13674768949E+03  0.17037953702E+04  0.16982987761E+04 0.  0.
        4    1    3    3  502    0 -0.38078347750E+03 -0.68448186568E+03  0.39737056011E+03  0.87830316869E+03  0.12699999809E+01 0. -1.
       -4    1    3    3    0  502  0.38078347750E+03  0.68448186568E+03 -0.26062287062E+03  0.82549220153E+03  0.12699999809E+01 0.  1.
</event>
<event>
 5   0  0.2993769E-05  0.1700558E+04  0.7818609E-02  0.8761046E-01
       -1   -1    0    0    0  501  0.00000000000E+00  0.00000000000E+00  0.43397165237E+03  0.43397165240E+03  0.50400001928E-02 0.  1.
        1   -1    0    0  501    0  0.00000000000E+00  0.00000000000E+00 -0.16659493004E+04  0.16659493004E+04  0.50400001928E-02 0. -1.
    10030    2    1    2    0    0  0.00000000000E+00  0.00000000000E+00 -0.12319776481E+04  0.20999209529E+04  0.17005584621E+04 0.  0.
        3    1    3    3  502    0 -0.27961867773E+03 -0.71731555847E+02  0.37160898428E+03  0.47055846442E+03  0.10100000352E+00 0.  1.
       -3    1    3    3    0  502  0.27961867773E+03  0.71731555847E+02 -0.16035866323E+04  0.16293624884E+04  0.10100000352E+00 0. -1.
</event>
<event>
 5   0  0.2993769E-05  0.1699046E+04  0.7818609E-02  0.8761909E-01
       -1   -1    0    0    0  501  0.00000000000E+00  0.00000000000E+00  0.58048721309E+03  0.58048721311E+03  0.50400001928E-02 0. -1.
        1   -1    0    0  501    0  0.00000000000E+00  0.00000000000E+00 -0.12432469852E+04  0.12432469852E+04  0.50400001928E-02 0.  1.
    10030    2    1    2    0    0  0.00000000000E+00  0.00000000000E+00 -0.66275977213E+03  0.18237341983E+04  0.16990455882E+04 0.  0.
        3    1    3    3  502    0 -0.98346064759E+02 -0.27576026405E+03 -0.11873841939E+04  0.12229459946E+04  0.10100000352E+00 0.  1.
       -3    1    3    3    0  502  0.98346064759E+02  0.27576026405E+03  0.52462442173E+03  0.60078820374E+03  0.10100000352E+00 0. -1.
</event>
<event>
 5   0  0.5755321E-05  0.1702440E+04  0.7818609E-02  0.8759974E-01
       -2   -1    0    0    0  501  0.00000000000E+00  0.00000000000E+00  0.40458415342E+03  0.40458415342E+03  0.25500000920E-02 0.  1.
        2   -1    0    0  501    0  0.00000000000E+00  0.00000000000E+00 -0.17909145407E+04  0.17909145407E+04  0.25500000920E-02 0. -1.
    10030    2    1    2    0    0  0.00000000000E+00  0.00000000000E+00 -0.13863303873E+04  0.21954986942E+04  0.17024401820E+04 0.  0.
        4    1    3    3  502    0 -0.61024202817E+03  0.15975988057E+02 -0.14582074693E+04  0.15808292765E+04  0.12699999809E+01 0.  1.
       -4    1    3    3    0  502  0.61024202817E+03 -0.15975988057E+02  0.71877081983E+02  0.61466941762E+03  0.12699999809E+01 0. -1.
</event>
<event>
 5   0  0.5821584E-05  0.1700416E+04  0.7818609E-02  0.8761127E-01
        2   -1    0    0  501    0  0.00000000000E+00  0.00000000000E+00  0.89527198060E+03  0.89527198060E+03  0.25500000920E-02 0. -1.
       -2   -1    0    0    0  501  0.00000000000E+00  0.00000000000E+00 -0.80741251171E+03  0.80741251171E+03  0.25500000920E-02 0.  1.
    10030    2    1    2    0    0  0.00000000000E+00  0.00000000000E+00  0.87859468890E+02  0.17026844923E+04  0.17004161826E+04 0.  0.
        1    1    3    3  502    0  0.57207546907E+03 -0.53828432238E+03 -0.28182476017E+03  0.83453313266E+03  0.50400001928E-02 0.  1.
       -1    1    3    3    0  502 -0.57207546907E+03  0.53828432238E+03  0.36968422906E+03  0.86815135966E+03  0.50400001928E-02 0. -1.
</event>
<event>
 5   0  0.5652631E-05  0.1710271E+04  0.7818609E-02  0.8755528E-01
       -2   -1    0    0    0  501  0.00000000000E+00  0.00000000000E+00  0.81891736605E+03  0.81891736605E+03  0.25500000920E-02 0. -1.
        2   -1    0    0  501    0  0.00000000000E+00  0.00000000000E+00 -0.89295542648E+03  0.89295542649E+03  0.25500000920E-02 0.  1.
    10030    2    1    2    0    0  0.00000000000E+00  0.00000000000E+00 -0.74038060435E+02  0.17118727925E+04  0.17102709795E+04 0.  0.
        2    1    3    3  502    0 -0.83667821035E+03 -0.70707618924E+02 -0.19911733637E+03  0.86294710655E+03  0.25500000920E-02 0.  1.
       -2    1    3    3    0  502  0.83667821035E+03  0.70707618924E+02  0.12507927593E+03  0.84892568599E+03  0.25500000920E-02 0. -1.
</event>
<event>
 5   0  0.5755321E-05  0.1716430E+04  0.7818609E-02  0.8752049E-01
        2   -1    0    0  501    0  0.00000000000E+00  0.00000000000E+00  0.16946382797E+04  0.16946382797E+04  0.25500000920E-02 0. -1.
       -2   -1    0    0    0  501  0.00000000000E+00  0.00000000000E+00 -0.43462562953E+03  0.43462562954E+03  0.25500000920E-02 0.  1.
    10030    2    1    2    0    0  0.00000000000E+00  0.00000000000E+00  0.12600126502E+04  0.21292639092E+04  0.17164302831E+04 0.  0.
        4    1    3    3  502    0  0.31504414266E+02  0.66118325545E+03 -0.47611959444E+02  0.66364473703E+03  0.12699999809E+01 0.  1.
       -4    1    3    3    0  502 -0.31504414266E+02 -0.66118325545E+03  0.13076246096E+04  0.14656191722E+04  0.12699999809E+01 0. -1.
</event>
<event>
 5   0  0.2911632E-05  0.1701545E+04  0.7818609E-02  0.8760484E-01
       -1   -1    0    0    0  501  0.00000000000E+00  0.00000000000E+00  0.73108077801E+03  0.73108077803E+03  0.50400001928E-02 0. -1.
        1   -1    0    0  501    0  0.00000000000E+00  0.00000000000E+00 -0.99005995377E+03  0.99005995378E+03  0.50400001928E-02 0.  1.
    10030    2    1    2    0    0  0.00000000000E+00  0.00000000000E+00 -0.25897917575E+03  0.17211407318E+04  0.17015449466E+04 0.  0.
        1    1    3    3  502    0 -0.72582348171E+03 -0.23701498084E+03 -0.50906843478E+03  0.91768540309E+03  0.50400001928E-02 0.  1.
       -1    1    3    3    0  502  0.72582348171E+03  0.23701498084E+03  0.25008925903E+03  0.80345532872E+03  0.50400001928E-02 0. -1.
</event>
<event>
 5   0  0.2993769E-05  0.1693790E+04  0.7818609E-02  0.8764914E-01
        1   -1    0    0  501    0  0.00000000000E+00  0.00000000000E+00  0.10900562149E+04  0.10900562149E+04  0.50400001928E-02 0.  1.
       -1   -1    0    0    0  501  0.00000000000E+00  0.00000000000E+00 -0.65797631853E+03  0.65797631855E+03  0.50400001928E-02 0. -1.
    10030    2    1    2    0    0  0.00000000000E+00  0.00000000000E+00  0.43207989639E+03  0.17480325335E+04  0.16937900405E+04 0.  0.
        3    1    3    3  502    0  0.51453740363E+03 -0.18127018409E+03 -0.45248845107E+03  0.70876895243E+03  0.10100000352E+00 0. -1.
       -3    1    3    3    0  502 -0.51453740363E+03  0.18127018409E+03  0.88456834746E+03  0.10392635811E+04  0.10100000352E+00 0.  1.
</event>
<event>
 5   0  0.5652631E-05  0.1700551E+04  0.7818609E-02  0.8761050E-01
       -2   -1    0    0    0  501  0.00000000000E+00  0.00000000000E+00  0.72521412880E+03  0.72521412881E+03  0.25500000920E-02 0.  1.
        2   -1    0    0  501    0  0.00000000000E+00  0.00000000000E+00 -0.99690395461E+03  0.99690395461E+03  0.25500000920E-02 0. -1.
    10030    2    1    2    0    0  0.00000000000E+00  0.00000000000E+00 -0.27168982580E+03  0.17221180834E+04  0.17005514787E+04 0.  0.
        2    1    3    3  502    0 -0.48512490518E+03  0.20862304810E+03  0.53901414618E+03  0.75458995462E+03  0.25500000920E-02 0.  1.
       -2    1    3    3    0  502  0.48512490518E+03 -0.20862304810E+03 -0.81070397198E+03  0.96752812880E+03  0.25500000920E-02 0. -1.
</event>
<event>
 5   0  0.2967704E-05  0.1699106E+04  0.7818609E-02  0.8761874E-01
       -1   -1    0    0    0  501  0.00000000000E+00  0.00000000000E+00  0.43527063846E+03  0.43527063848E+03  0.50400001928E-02 0. -1.
        1   -1    0    0  501    0  0.00000000000E+00  0.00000000000E+00 -0.16581418407E+04  0.16581418407E+04  0.50400001928E-02 0.  1.
    10030    2    1    2    0    0  0.00000000000E+00  0.00000000000E+00 -0.12228712023E+04  0.20934124792E+04  0.16991061859E+04 0.  0.
        2    1    3    3  502    0 -0.47060102006E+03 -0.56220026710E+03 -0.11402291772E+04  0.13556020939E+04  0.25500000920E-02 0. -1.
       -2    1    3    3    0  502  0.47060102006E+03  0.56220026710E+03 -0.82642025096E+02  0.73781038535E+03  0.25500000920E-02 0.  1.
</event>
<event>
 5   0  0.2966258E-05  0.1705500E+04  0.7818609E-02  0.8758234E-01
        1   -1    0    0  501    0  0.00000000000E+00  0.00000000000E+00  0.11018135813E+04  0.11018135814E+04  0.50400001928E-02 0. -1.
       -1   -1    0    0    0  501  0.00000000000E+00  0.00000000000E+00 -0.65998678435E+03  0.65998678437E+03  0.50400001928E-02 0.  1.
    10030    2    1    2    0    0  0.00000000000E+00  0.00000000000E+00  0.44182679699E+03  0.17618003657E+04  0.17054998124E+04 0.  0.
        4    1    3    3  502    0 -0.70149317539E+03  0.26186394940E+03  0.64244700552E+03  0.98661297929E+03  0.12699999809E+01 0. -1.
       -4    1    3    3    0  502  0.70149317539E+03 -0.26186394940E+03 -0.20062020853E+03  0.77518738643E+03  0.12699999809E+01 0.  1.
</event>
<event>
 5   0  0.2966258E-05  0.1696563E+04  0.7818609E-02  0.8763327E-01
       -1   -1    0    0    0  501  0.00000000000E+00  0.00000000000E+00  0.66854219138E+03  0.66854219140E+03  0.50400001928E-02 0. -1.
        1   -1    0    0  501    0  0.00000000000E+00  0.00000000000E+00 -0.10763446872E+04  0.10763446872E+04  0.50400001928E-02 0.  1.
    10030    2    1    2    0    0  0.00000000000E+00  0.00000000000E+00 -0.40780249580E+03  0.17448868786E+04  0.16965633921E+04 0.  0.
        4    1    3    3  502    0  0.64921429154E+03  0.39337319700E+03  0.18551044840E+03  0.78143291959E+03  0.12699999809E+01 0. -1.
       -4    1    3    3    0  502 -0.64921429154E+03 -0.39337319700E+03 -0.59331294420E+03  0.96345395900E+03  0.12699999809E+01 0.  1.
</event>
<event>
 5   0  0.5652631E-05  0.1699182E+04  0.7818609E-02  0.8761831E-01
        2   -1    0    0  501    0  0.00000000000E+00  0.00000000000E+00  0.14921785973E+04  0.14921785973E+04  0.25500000920E-02 0.  1.
       -2   -1    0    0    0  501  0.00000000000E+00  0.00000000000E+00 -0.48372549715E+03  0.48372549716E+03  0.25500000920E-02 0. -1.
    10030    2    1    2    0    0  0.00000000000E+00  0.00000000000E+00  0.10084531001E+04  0.19759040945E+04  0.16991819606E+04 0.  0.
        2    1    3    3  502    0 -0.33003088562E+03  0.74596579113E+03  0.78043727536E+03  0.11289232426E+04  0.25500000920E-02 0.  1.
       -2    1    3    3    0  502  0.33003088562E+03 -0.74596579113E+03  0.22801582478E+03  0.84698085182E+03  0.25500000920E-02 0. -1.
</event>
<event>
 5   0  0.2911632E-05  0.1713358E+04  0.7818609E-02  0.8753782E-01
       -1   -1    0    0    0  501  0.00000000000E+00  0.00000000000E+00  0.11061259421E+04  0.11061259422E+04  0.50400001928E-02 0.  1.
        1   -1    0    0  501    0  0.00000000000E+00  0.00000000000E+00 -0.66348555137E+03  0.66348555139E+03  0.50400001928E-02 0. -1.
    10030    2    1    2    0    0  0.00000000000E+00  0.00000000000E+00  0.44264039077E+03  0.17696114935E+04  0.17133576167E+04 0.  0.
        1    1    3    3  502    0 -0.59340308167E+03  0.52836176064E+03 -0.10951722380E+03  0.80205198695E+03  0.50400001928E-02 0. -1.
       -1    1    3    3    0  502  0.59340308167E+03 -0.52836176064E+03  0.55215761457E+03  0.96755950659E+03  0.50400001928E-02 0.  1.
</event>
<event>
 5   0  0.5652631E-05  0.1705338E+04  0.7818609E-02  0.8758325E-01
       -2   -1    0    0    0  501  0.00000000000E+00  0.00000000000E+00  0.53427105873E+03  0.53427105873E+03  0.25500000920E-02 0.  1.
        2   -1    0    0  501    0  0.00000000000E+00  0.00000000000E+00 -0.13608163662E+04  0.13608163662E+04  0.25500000920E-02 0. -1.
    10030    2    1    2    0    0  0.00000000000E+00  0.00000000000E+00 -0.82654530750E+03  0.18950874250E+04  0.17053384423E+04 0.  0.
        2    1    3    3  502    0  0.82743054499E+03  0.10583702869E+03 -0.21697730715E+03  0.86192919387E+03  0.25500000920E-02 0.  1.
       -2    1    3    3    0  502 -0.82743054499E+03 -0.10583702869E+03 -0.60956800034E+03  0.10331582311E+04  0.25500000920E-02 0. -1.
</event>
<event>
 5   0  0.5652631E-05  0.1704136E+04  0.7818609E-02  0.8759009E-01
       -2   -1    0    0    0  501  0.00000000000E+00  0.00000000000E+00  0.36396339046E+03  0.36396339047E+03  0.25500000920E-02 0. -1.
        2   -1    0    0  501    0  0.00000000000E+00  0.00000000000E+00 -0.19947609518E+04  0.19947609518E+04  0.25500000920E-02 0.  1.
    10030    2    1    2    0    0  0.00000000000E+00  0.00000000000E+00 -0.16307975614E+04  0.23587243423E+04  0.17041360969E+04 0.  0.
        2    1    3    3  502    0 -0.28067403511E+03 -0.65554029937E+03 -0.16987612326E+03  0.73305449685E+03  0.25500000920E-02 0. -1.
       -2    1    3    3    0  502  0.28067403511E+03  0.65554029937E+03 -0.14609214381E+04  0.16256698454E+04  0.25500000920E-02 0.  1.
</event>
<event>
 5   0  0.5652631E-05  0.1727028E+04  0.7818609E-02  0.8746098E-01
       -2   -1    0    0    0  501  0.00000000000E+00  0.00000000000E+00  0.27995017813E+03  0.27995017814E+03  0.25500000920E-02 0.  1.
        2   -1    0    0  501    0  0.00000000000E+00  0.00000000000E+00 -0.26635314042E+04  0.26635314042E+04  0.25500000920E-02 0. -1.
    10030    2    1    2    0    0  0.00000000000E+00  0.00000000000E+00 -0.23835812260E+04  0.29434815823E+04  0.17270276096E+04 0.  0.
        2    1    3    3  502    0  0.11260495511E+03  0.67651406333E+03 -0.29751982974E+03  0.74757554996E+03  0.25500000920E-02 0.  1.
       -2    1    3    3    0  502 -0.11260495511E+03 -0.67651406333E+03 -0.20860613963E+04  0.21959060323E+04  0.25500000920E-02 0. -1.
</event>
<event>
 5   0  0.5821584E-05  0.1697460E+04  0.7818609E-02  0.8762814E-01
       -2   -1    0    0    0  501  0.00000000000E+00  0.00000000000E+00  0.11062176508E+04  0.11062176508E+04  0.25500000920E-02 0.  1.
        2   -1    0    0  501    0  0.00000000000E+00  0.00000000000E+00 -0.65117621143E+03  0.65117621143E+03  0.25500000920E-02 0. -1.
    10030    2    1    2    0    0  0.00000000000E+00  0.00000000000E+00  0.45504143938E+03  0.17573938622E+04  0.16974600070E+04 0.  0.
        1    1    3    3  502    0  0.45473276388E+03 -0.45083839162E+03 -0.34919830080E+03  0.72936725674E+03  0.50400001928E-02 0. -1.
       -1    1    3    3    0  502 -0.45473276388E+03  0.45083839162E+03  0.80423974017E+03  0.10280266055E+04  0.50400001928E-02 0.  1.
</event>
<event>
 5   0  0.2967704E-05  0.1715671E+04  0.7818609E-02  0.8752477E-01
       -1   -1    0    0    0  501  0.00000000000E+00  0.00000000000E+00  0.92379858412E+03  0.92379858413E+03  0.50400001928E-02 0.  1.
        1   -1    0    0  501    0  0.00000000000E+00  0.00000000000E+00 -0.79658254406E+03  0.79658254408E+03  0.50400001928E-02 0. -1.
    10030    2    1    2    0    0  0.00000000000E+00  0.00000000000E+00  0.12721604005E+03  0.17203811282E+04  0.17156710948E+04 0.  0.
        2    1    3    3  502    0 -0.14660003832E+03 -0.21313737792E+03 -0.75653877349E+03  0.79954363790E+03  0.25500000920E-02 0. -1.
       -2    1    3    3    0  502  0.14660003832E+03  0.21313737792E+03  0.88375481354E+03  0.92083749031E+03  0.25500000920E-02 0.  1.
</event>
<event>
 5   0  0.5755321E-05  0.1705992E+04  0.7818609E-02  0.8757954E-01
       -2   -1    0    0    0  501  0.00000000000E+00  0.00000000000E+00  0.42719546243E+03  0.42719546244E+03  0.25500000920E-02 0.  1.
        2   -1    0    0  501    0  0.00000000000E+00  0.00000000000E+00 -0.17032064607E+04  0.17032064607E+04  0.25500000920E-02 0. -1.
    10030    2    1    2    0    0  0.00000000000E+00  0.00000000000E+00 -0.12760109983E+04  0.21304019232E+04  0.17059918776E+04 0.  0.
        4    1    3    3  502    0  0.53759063882E+03 -0.35892037561E+03 -0.13330399255E+04  0.14814940388E+04  0.12699999809E+01 0.  1.
       -4    1    3    3    0  502 -0.53759063882E+03  0.35892037561E+03  0.57028927236E+02  0.64890788439E+03  0.12699999809E+01 0. -1.
</event>
<event>
 5   0  0.5859822E-05  0.1702201E+04  0.7818609E-02  0.8760110E-01
        2   -1    0    0  501    0  0.00000000000E+00  0.00000000000E+00  0.14692853809E+04  0.14692853809E+04  0.25500000920E-02 0. -1.
       -2   -1    0    0    0  501  0.00000000000E+00  0.00000000000E+00 -0.49300974714E+03  0.49300974715E+03  0.25500000920E-02 0.  1.
    10030    2    1    2    0    0  0.00000000000E+00  0.00000000000E+00  0.97627563372E+03  0.19622951280E+04  0.17022009448E+04 0.  0.
        5    1    3    3  502    0 -0.99829954429E+02 -0.80070257670E+03  0.80015955013E+03  0.11363837520E+04  0.46999998093E+01 0. -1.
       -5    1    3    3    0  502  0.99829954429E+02  0.80070257670E+03  0.17611608359E+03  0.82591137602E+03  0.46999998093E+01 0.  1.
</event>
<event>
 5   0  0.2993769E-05  0.1702048E+04  0.7818609E-02  0.8760197E-01
        1   -1    0    0  501    0  0.00000000000E+00  0.00000000000E+00  0.11143879941E+04  0.11143879941E+04  0.50400001928E-02 0.  1.
       -1   -1    0    0    0  501  0.00000000000E+00  0.00000000000E+00 -0.64990112254E+03  0.64990112256E+03  0.50400001928E-02 0. -1.
    10030    2    1    2    0    0  0.00000000000E+00  0.00000000000E+00  0.46448687155E+03  0.17642891167E+04  0.17020481877E+04 0.  0.
        3    1    3    3  502    0  0.79454324101E+03 -0.29304635162E+03  0.31938222464E+03  0.90508570956E+03  0.10100000352E+00 0. -1.
       -3    1    3    3    0  502 -0.79454324101E+03  0.29304635162E+03  0.14510464691E+03  0.85920340711E+03  0.10100000352E+00 0.  1.
</event>
<event>
 5   0  0.5859822E-05  0.1708381E+04  0.7818609E-02  0.8756598E-01
        2   -1    0    0  501    0  0.00000000000E+00  0.00000000000E+00  0.73553233025E+03  0.73553233026E+03  0.25500000920E-02 0.  1.
       -2   -1    0    0    0  501  0.00000000000E+00  0.00000000000E+00 -0.99199152337E+03  0.99199152337E+03  0.25500000920E-02 0. -1.
    10030    2    1    2    0    0  0.00000000000E+00  0.00000000000E+00 -0.25645919311E+03  0.17275238536E+04  0.17083814993E+04 0.  0.
        5    1    3    3  502    0  0.39968908476E+03  0.70124147654E+03 -0.41087680308E+03  0.90572225886E+03  0.46999998093E+01 0. -1.
       -5    1    3    3    0  502 -0.39968908476E+03 -0.70124147654E+03  0.15441760996E+03  0.82180159476E+03  0.46999998093E+01 0.  1.
</event>
<event>
 5   0  0.2987859E-05  0.1696891E+04  0.7818609E-02  0.8763139E-01
       -1   -1    0    0    0  501  0.00000000000E+00  0.00000000000E+00  0.10655073760E+04  0.10655073760E+04  0.50400001928E-02 0.  1.
        1   -1    0    0  501    0  0.00000000000E+00  0.00000000000E+00 -0.67560282870E+03  0.67560282872E+03  0.50400001928E-02 0. -1.
    10030    2    1    2    0    0  0.00000000000E+00  0.00000000000E+00  0.38990454727E+03  0.17411102047E+04  0.16968910363E+04 0.  0.
        5    1    3    3  502    0 -0.19598303057E+03 -0.22883001925E+03 -0.61885230552E+03  0.68831155157E+03  0.46999998093E+01 0. -1.
       -5    1    3    3    0  502  0.19598303057E+03  0.22883001925E+03  0.10087568528E+04  0.10527986531E+04  0.46999998093E+01 0.  1.
</event>
<event>
 5   0  0.5859822E-05  0.1700080E+04  0.7818609E-02  0.8761319E-01
       -2   -1    0    0    0  501  0.00000000000E+00  0.00000000000E+00  0.46078459668E+03  0.46078459669E+03  0.25500000920E-02 0. -1.
        2   -1    0    0  501    0  0.00000000000E+00  0.00000000000E+00 -0.15681250965E+04  0.15681250965E+04  0.25500000920E-02 0.  1.
    10030    2    1    2    0    0  0.00000000000E+00  0.00000000000E+00 -0.11073404998E+04  0.20289096932E+04  0.17000798689E+04 0.  0.
        5    1    3    3  502    0 -0.39878252942E+03  0.74826520758E+03 -0.62544902995E+03  0.10536303459E+04  0.46999998093E+01 0. -1.
       -5    1    3    3    0  502  0.39878252942E+03 -0.74826520758E+03 -0.48189146990E+03  0.97527934737E+03  0.46999998093E+01 0.  1.
</event>
<event>
 5   0  0.5652631E-05  0.1702510E+04  0.7818609E-02  0.8759934E-01
       -2   -1    0    0    0  501  0.00000000000E+00  0.00000000000E+00  0.90489496967E+03  0.90489496968E+03  0.25500000920E-02 0.  1.
        2   -1    0    0  501    0  0.00000000000E+00  0.00000000000E+00 -0.80079490869E+03  0.80079490869E+03  0.25500000920E-02 0. -1.
    10030    2    1    2    0    0  0.00000000000E+00  0.00000000000E+00  0.10410006098E+03  0.17056898784E+04  0.17025102462E+04 0.  0.
        2    1    3    3  502    0 -0.58645700603E+03  0.61294566649E+03 -0.18800320432E+02  0.84852086718E+03  0.25500000920E-02 0. -1.
       -2    1    3    3    0  502  0.58645700603E+03 -0.61294566649E+03  0.12290038141E+03  0.85716901119E+03  0.25500000920E-02 0.  1.
</event>
<event>
 5   0  0.2911632E-05  0.1700591E+04  0.7818609E-02  0.8761027E-01
        1   -1    0    0  501    0  0.00000000000E+00  0.00000000000E+00  0.65405963885E+03  0.65405963887E+03  0.50400001928E-02 0.  1.
       -1   -1    0    0    0  501  0.00000000000E+00  0.00000000000E+00 -0.11054076316E+04  0.11054076316E+04  0.50400001928E-02 0. -1.
    10030    2    1    2    0    0  0.00000000000E+00  0.00000000000E+00 -0.45134799270E+03  0.17594672704E+04  0.17005910929E+04 0.  0.
        1    1    3    3  502    0 -0.32309290925E+03 -0.66635643590E+03 -0.65797053358E+03  0.99062866442E+03  0.50400001928E-02 0. -1.
       -1    1    3    3    0  502  0.32309290925E+03  0.66635643590E+03  0.20662254087E+03  0.76883860602E+03  0.50400001928E-02 0.  1.
</event>
<event>
 5   0  0.2993769E-05  0.1701872E+04  0.7818609E-02  0.8760297E-01
       -1   -1    0    0    0  501  0.00000000000E+00  0.00000000000E+00  0.70666502030E+03  0.70666502031E+03  0.50400001928E-02 0. -1.
        1   -1    0    0  501    0  0.00000000000E+00  0.00000000000E+00 -0.10246609464E+04  0.10246609464E+04  0.50400001928E-02 0.  1.
    10030    2    1    2    0    0  0.00000000000E+00  0.00000000000E+00 -0.31799592606E+03  0.17313259667E+04  0.17018719675E+04 0.  0.
        3    1    3    3  502    0  0.79614652797E+03  0.26725970228E+03 -0.19456259409E+02  0.84003309381E+03  0.10100000352E+00 0.  1.
       -3    1    3    3    0  502 -0.79614652797E+03 -0.26725970228E+03 -0.29853966665E+03  0.89129287287E+03  0.10100000352E+00 0. -1.
</event>
<event>
 5   0  0.5755321E-05  0.1700390E+04  0.7818609E-02  0.8761142E-01
       -2   -1    0    0    0  501  0.00000000000E+00  0.00000000000E+00  0.86717264547E+03  0.86717264547E+03  0.25500000920E-02 0. -1.
        2   -1    0    0  501    0  0.00000000000E+00  0.00000000000E+00 -0.83354954219E+03  0.83354954220E+03  0.25500000920E-02 0.  1.
    10030    2    1    2    0    0  0.00000000000E+00  0.00000000000E+00  0.33623103276E+02  0.17007221877E+04  0.17003897925E+04 0.  0.
        4    1    3    3  502    0  0.11212806890E+03  0.44615485586E+03 -0.69831275272E+03  0.83622315966E+03  0.12699999809E+01 0.  1.
       -4    1    3    3    0  502 -0.11212806890E+03 -0.44615485586E+03  0.73193585600E+03  0.86449902801E+03  0.12699999809E+01 0. -1.
</event>
<event>
 5   0  0.5755321E-05  0.1701193E+04  0.7818609E-02  0.8760684E-01
       -2   -1    0    0    0  501  0.00000000000E+00  0.00000000000E+00  0.37475672806E+03  0.37475672807E+03  0.25500000920E-02 0.  1.
        2   -1    0    0  501    0  0.00000000000E+00  0.00000000000E+00 -0.19306242296E+04  0.19306242296E+04  0.25500000920E-02 0. -1.
    10030    2    1    2    0    0  0.00000000000E+00  0.00000000000E+00 -0.15558675016E+04  0.23053809577E+04  0.17011930160E+04 0.  0.
        4    1    3    3  502    0  0.16520396331E+03  0.85781568648E+02  0.34681421957E+03  0.39361471366E+03  0.12699999809E+01 0.  1.
       -4    1    3    3    0  502 -0.16520396331E+03 -0.85781568648E+02 -0.19026817211E+04  0.19117662440E+04  0.12699999809E+01 0. -1.
</event>
<event>
 5   0  0.5821584E-05  0.1696697E+04  0.7818609E-02  0.8763250E-01
        2   -1    0    0  501    0  0.00000000000E+00  0.00000000000E+00  0.20051965677E+04  0.20051965677E+04  0.25500000920E-02 0.  1.
       -2   -1    0    0    0  501  0.00000000000E+00  0.00000000000E+00 -0.35891521184E+03  0.35891521185E+03  0.25500000920E-02 0. -1.
    10030    2    1    2    0    0  0.00000000000E+00  0.00000000000E+00  0.16462813558E+04  0.23641117795E+04  0.16966974402E+04 0.  0.
        1    1    3    3  502    0  0.25699471894E+03 -0.46805355035E+03 -0.95395024172E+02  0.54242107464E+03  0.50400001928E-02 0. -1.
       -1    1    3    3    0  502 -0.25699471894E+03  0.46805355035E+03  0.17416763800E+04  0.18216907049E+04  0.50400001928E-02 0.  1.
</event>
<event>
 5   0  0.2098250E-05  0.1693889E+04  0.7818609E-02  0.8764857E-01
       -4   -1    0    0    0  501  0.00000000000E+00  0.00000000000E+00  0.59276141552E+03  0.59276277601E+03  0.12699999809E+01 0.  1.
        4   -1    0    0  501    0  0.00000000000E+00  0.00000000000E+00 -0.12101211978E+04  0.12101218643E+04  0.12699999809E+01 0. -1.
    10030    2    1    2    0    0  0.00000000000E+00  0.00000000000E+00 -0.61735978232E+03  0.18028846403E+04  0.16938889944E+04 0.  0.
        2    1    3    3  502    0 -0.16610319387E+03 -0.60653441200E+03  0.29513453693E+03  0.69467881705E+03  0.25500000920E-02 0.  1.
       -2    1    3    3    0  502  0.16610319387E+03  0.60653441200E+03 -0.91249431925E+03  0.11082058232E+04  0.25500000920E-02 0. -1.
</event>
<event>
 5   0  0.2993769E-05  0.1697261E+04  0.7818609E-02  0.8762928E-01
        1   -1    0    0  501    0  0.00000000000E+00  0.00000000000E+00  0.20255355143E+04  0.20255355143E+04  0.50400001928E-02 0.  1.
       -1   -1    0    0    0  501  0.00000000000E+00  0.00000000000E+00 -0.35554748634E+03  0.35554748638E+03  0.50400001928E-02 0. -1.
    10030    2    1    2    0    0  0.00000000000E+00  0.00000000000E+00  0.16699880280E+04  0.23810830007E+04  0.16972613949E+04 0.  0.
        3    1    3    3  502    0  0.31220216223E+03 -0.16178863949E+02 -0.27182161405E+03  0.41426917071E+03  0.10100000352E+00 0. -1.
       -3    1    3    3    0  502 -0.31220216223E+03  0.16178863949E+02  0.19418096420E+04  0.19668138300E+04  0.10100000352E+00 0.  1.
</event>
<event>
 5   0  0.2911632E-05  0.1700600E+04  0.7818609E-02  0.8761022E-01
        1   -1    0    0  501    0  0.00000000000E+00  0.00000000000E+00  0.10668395145E+04  0.10668395145E+04  0.50400001928E-02 0. -1.
       -1   -1    0    0    0  501  0.00000000000E+00  0.00000000000E+00 -0.67771189028E+03  0.67771189030E+03  0.50400001928E-02 0.  1.
    10030    2    1    2    0    0  0.00000000000E+00  0.00000000000E+00  0.38912762419E+03  0.17445514048E+04  0.17005996872E+04 0.  0.
        1    1    3    3  502    0 -0.56911375841E+03 -0.26228188921E+03 -0.39503158407E+03  0.74076461299E+03  0.50400001928E-02 0.  1.
       -1    1    3    3    0  502  0.56911375841E+03  0.26228188921E+03  0.78415920826E+03  0.10037867918E+04  0.50400001928E-02 0. -1.
</event>
<event>
 5   0  0.5652631E-05  0.1689966E+04  0.7818609E-02  0.8767108E-01
       -2   -1    0    0    0  501  0.00000000000E+00  0.00000000000E+00  0.42397898167E+03  0.42397898168E+03  0.25500000920E-02 0. -1.
        2   -1    0    0  501    0  0.00000000000E+00  0.00000000000E+00 -0.16840370459E+04  0.16840370459E+04  0.25500000920E-02 0.  1.
    10030    2    1    2    0    0  0.00000000000E+00  0.00000000000E+00 -0.12600580643E+04  0.21080160276E+04  0.16899660492E+04 0.  0.
        2    1    3    3  502    0  0.62703638188E+03 -0.56428980790E+03 -0.69112097342E+03  0.10905254749E+04  0.25500000920E-02 0.  1.
       -2    1    3    3    0  502 -0.62703638188E+03  0.56428980790E+03 -0.56893709085E+03  0.10174905527E+04  0.25500000920E-02 0. -1.
</event>
<event>
 5   0  0.2987859E-05  0.1700177E+04  0.7818609E-02  0.8761263E-01
       -1   -1    0    0    0  501  0.00000000000E+00  0.00000000000E+00  0.43424270455E+03  0.43424270458E+03  0.50400001928E-02 0. -1.
        1   -1    0    0  501    0  0.00000000000E+00  0.00000000000E+00 -0.16641623119E+04  0.16641623119E+04  0.50400001928E-02 0.  1.
    10030    2    1    2    0    0  0.00000000000E+00  0.00000000000E+00 -0.12299196073E+04  0.20984050165E+04  0.17001768651E+04 0.  0.
        5    1    3    3  502    0  0.33898915068E+03 -0.50883369962E+03  0.11396921781E+03  0.62196177596E+03  0.46999998093E+01 0. -1.
       -5    1    3    3    0  502 -0.33898915068E+03  0.50883369962E+03 -0.13438888252E+04  0.14764432405E+04  0.46999998093E+01 0.  1.
</event>
<event>
 5   0  0.2993769E-05  0.1700253E+04  0.7818609E-02  0.8761220E-01
        1   -1    0    0  501    0  0.00000000000E+00  0.00000000000E+00  0.49317760179E+03  0.49317760182E+03  0.50400001928E-02 0. -1.
       -1   -1    0    0    0  501  0.00000000000E+00  0.00000000000E+00 -0.14654248819E+04  0.14654248819E+04  0.50400001928E-02 0.  1.
    10030    2    1    2    0    0  0.00000000000E+00  0.00000000000E+00 -0.97224728014E+03  0.19586024838E+04  0.17002526035E+04 0.  0.
        3    1    3    3  502    0 -0.58441268693E+03 -0.13603494131E+03  0.20760445329E+03  0.63493567637E+03  0.10100000352E+00 0. -1.
       -3    1    3    3    0  502  0.58441268693E+03  0.13603494131E+03 -0.11798517334E+04  0.13236668074E+04  0.10100000352E+00 0.  1.
</event>
<event>
 5   0  0.2967704E-05  0.1695421E+04  0.7818609E-02  0.8763980E-01
        1   -1    0    0  501    0  0.00000000000E+00  0.00000000000E+00  0.76975181739E+03  0.76975181741E+03  0.50400001928E-02 0.  1.
       -1   -1    0    0    0  501  0.00000000000E+00  0.00000000000E+00 -0.93356441863E+03  0.93356441864E+03  0.50400001928E-02 0. -1.
    10030    2    1    2    0    0  0.00000000000E+00  0.00000000000E+00 -0.16381260124E+03  0.17033162360E+04  0.16954207831E+04 0.  0.
        2    1    3    3  502    0 -0.44542791777E+03  0.20444516618E+03  0.61298596480E+03  0.78482842007E+03  0.25500000920E-02 0.  1.
       -2    1    3    3    0  502  0.44542791777E+03 -0.20444516618E+03 -0.77679856604E+03  0.91848781598E+03  0.25500000920E-02 0. -1.
</event>
<event>
 5   0  0.5652631E-05  0.1699071E+04  0.7818609E-02  0.8761894E-01
       -2   -1    0    0    0  501  0.00000000000E+00  0.00000000000E+00  0.42945288196E+03  0.42945288197E+03  0.25500000920E-02 0.  1.
        2   -1    0    0  501    0  0.00000000000E+00  0.00000000000E+00 -0.16805355169E+04  0.16805355169E+04  0.25500000920E-02 0. -1.
    10030    2    1    2    0    0  0.00000000000E+00  0.00000000000E+00 -0.12510826350E+04  0.21099883989E+04  0.16990713005E+04 0.  0.
        2    1    3    3  502    0 -0.41438590923E+03  0.32811558364E+03 -0.14514732634E+04  0.15447168518E+04  0.25500000920E-02 0. -1.
       -2    1    3    3    0  502  0.41438590923E+03 -0.32811558364E+03  0.20039062840E+03  0.56527154710E+03  0.25500000920E-02 0.  1.
</event>
<event>
 5   0  0.5671132E-05  0.1708417E+04  0.7818609E-02  0.8756578E-01
        2   -1    0    0  501    0  0.00000000000E+00  0.00000000000E+00  0.15859831601E+04  0.15859831601E+04  0.25500000920E-02 0.  1.
       -2   -1    0    0    0  501  0.00000000000E+00  0.00000000000E+00 -0.46007568002E+03  0.46007568003E+03  0.25500000920E-02 0. -1.
    10030    2    1    2    0    0  0.00000000000E+00  0.00000000000E+00  0.11259074801E+04  0.20460588402E+04  0.17084171398E+04 0.  0.
        3    1    3    3  502    0 -0.60694454944E+02  0.17053530955E+03 -0.43684215967E+03  0.47286064684E+03  0.10100000352E+00 0. -1.
       -3    1    3    3    0  502  0.60694454944E+02 -0.17053530955E+03  0.15627496398E+04  0.15731981933E+04  0.10100000352E+00 0.  1.
</event>
<event>
 5   0  0.2987859E-05  0.1702738E+04  0.7818609E-02  0.8759804E-01
        1   -1    0    0  501    0  0.00000000000E+00  0.00000000000E+00  0.86179189917E+03  0.86179189919E+03  0.50400001928E-02 0. -1.
       -1   -1    0    0    0  501  0.00000000000E+00  0.00000000000E+00 -0.84107235599E+03  0.84107235600E+03  0.50400001928E-02 0.  1.
    10030    2    1    2    0    0  0.00000000000E+00  0.00000000000E+00  0.20719543183E+02  0.17028642552E+04  0.17027381984E+04 0.  0.
        5    1    3    3  502    0 -0.36453703126E+03 -0.14786626767E+03 -0.74471637053E+03  0.84224476419E+03  0.46999998093E+01 0.  1.
       -5    1    3    3    0  502  0.36453703126E+03  0.14786626767E+03  0.76543591371E+03  0.86061949099E+03  0.46999998093E+01 0. -1.
</event>
<event>
 5   0  0.2911632E-05  0.1698523E+04  0.7818609E-02  0.8762207E-01
       -1   -1    0    0    0  501  0.00000000000E+00  0.00000000000E+00  0.65390536325E+03  0.65390536327E+03  0.50400001928E-02 0. -1.
        1   -1    0    0  501    0  0.00000000000E+00  0.00000000000E+00 -0.11029814177E+04  0.11029814177E+04  0.50400001928E-02 0.  1.
    10030    2    1    2    0    0  0.00000000000E+00  0.00000000000E+00 -0.44907605440E+03  0.17568867809E+04  0.16985234347E+04 0.  0.
        1    1    3    3  502    0 -0.41638489825E+03  0.21194707412E+03  0.50901846807E+03  0.69093975611E+03  0.50400001928E-02 0. -1.
       -1    1    3    3    0  502  0.41638489825E+03 -0.21194707412E+03 -0.95809452247E+03  0.10659470248E+04  0.50400001928E-02 0.  1.
</event>
<event>
 5   0  0.2987859E-05  0.1699145E+04  0.7818609E-02  0.8761852E-01
        1   -1    0    0  501    0  0.00000000000E+00  0.00000000000E+00  0.19933059752E+04  0.19933059753E+04  0.50400001928E-02 0. -1.
       -1   -1    0    0    0  501  0.00000000000E+00  0.00000000000E+00 -0.36209847306E+03  0.36209847310E+03  0.50400001928E-02 0.  1.
    10030    2    1    2    0    0  0.00000000000E+00  0.00000000000E+00  0.16312075022E+04  0.23554044484E+04  0.16991445495E+04 0.  0.
        5    1    3    3  502    0 -0.58776037714E+03  0.59255649493E+03  0.10355101876E+04  0.13299958267E+04  0.46999998093E+01 0.  1.
       -5    1    3    3    0  502  0.58776037714E+03 -0.59255649493E+03  0.59569731463E+03  0.10254086216E+04  0.46999998093E+01 0. -1.
</event>
<event>
 5   0  0.5859822E-05  0.1699561E+04  0.7818609E-02  0.8761615E-01
        2   -1    0    0  501    0  0.00000000000E+00  0.00000000000E+00  0.67094899781E+03  0.67094899782E+03  0.25500000920E-02 0. -1.
       -2   -1    0    0    0  501  0.00000000000E+00  0.00000000000E+00 -0.10762769507E+04  0.10762769507E+04  0.25500000920E-02 0.  1.
    10030    2    1    2    0    0  0.00000000000E+00  0.00000000000E+00 -0.40532795286E+03  0.17472259485E+04  0.16995610509E+04 0.  0.
        5    1    3    3  502    0 -0.13431351555E+03  0.83519136782E+03 -0.28567576394E+03  0.89287035646E+03  0.46999998093E+01 0. -1.
       -5    1    3    3    0  502  0.13431351555E+03 -0.83519136782E+03 -0.11965218892E+03  0.85435559204E+03  0.46999998093E+01 0.  1.
</event>
<event>
 5   0  0.2098250E-05  0.1698060E+04  0.7818609E-02  0.8762472E-01
       -3   -1    0    0    0  501  0.00000000000E+00  0.00000000000E+00  0.97323183362E+03  0.97323183886E+03  0.10100000352E+00 0. -1.
        3   -1    0    0  501    0  0.00000000000E+00  0.00000000000E+00 -0.74067865404E+03  0.74067866093E+03  0.10100000352E+00 0.  1.
    10030    2    1    2    0    0  0.00000000000E+00  0.00000000000E+00  0.23255317958E+03  0.17139104998E+04  0.16980601344E+04 0.  0.
        3    1    3    3  502    0  0.10023644046E+03 -0.78239578814E+03 -0.20075971656E+03  0.81393795052E+03  0.10100000352E+00 0.  1.
       -3    1    3    3    0  502 -0.10023644046E+03  0.78239578814E+03  0.43331289613E+03  0.89997254928E+03  0.10100000352E+00 0. -1.
</event>
<event>
 5   0  0.5652631E-05  0.1702348E+04  0.7818609E-02  0.8760026E-01
        2   -1    0    0  501    0  0.00000000000E+00  0.00000000000E+00  0.13769431128E+04  0.13769431128E+04  0.25500000920E-02 0.  1.
       -2   -1    0    0    0  501  0.00000000000E+00  0.00000000000E+00 -0.52616375153E+03  0.52616375154E+03  0.25500000920E-02 0. -1.
    10030    2    1    2    0    0  0.00000000000E+00  0.00000000000E+00  0.85077936128E+03  0.19031068643E+04  0.17023484413E+04 0.  0.
        2    1    3    3  502    0 -0.81867971671E+03  0.15437015798E+03  0.62040661648E+03  0.10387352858E+04  0.25500000920E-02 0.  1.
       -2    1    3    3    0  502  0.81867971671E+03 -0.15437015798E+03  0.23037274480E+03  0.86437157853E+03  0.25500000920E-02 0. -1.
</event>
<event>
 5   0  0.5652631E-05  0.1703801E+04  0.7818609E-02  0.8759200E-01
       -2   -1    0    0    0  501  0.00000000000E+00  0.00000000000E+00  0.60290670083E+03  0.60290670083E+03  0.25500000920E-02 0.  1.
        2   -1    0    0  501    0  0.00000000000E+00  0.00000000000E+00 -0.12037259035E+04  0.12037259035E+04  0.25500000920E-02 0. -1.
    10030    2    1    2    0    0  0.00000000000E+00  0.00000000000E+00 -0.60081920270E+03  0.18066326044E+04  0.17038009428E+04 0.  0.
        2    1    3    3  502    0  0.59728403073E+03 -0.14029387015E+03  0.32628025197E+03  0.69490242927E+03  0.25500000920E-02 0.  1.
       -2    1    3    3    0  502 -0.59728403073E+03  0.14029387015E+03 -0.92709945466E+03  0.11117301751E+04  0.25500000920E-02 0. -1.
</event>
<event>
 5   0  0.5859822E-05  0.1697519E+04  0.7818609E-02  0.8762780E-01
       -2   -1    0    0    0  501  0.00000000000E+00  0.00000000000E+00  0.29382326326E+03  0.29382326327E+03  0.25500000920E-02 0.  1.
        2   -1    0    0  501    0  0.00000000000E+00  0.00000000000E+00 -0.24517901250E+04  0.24517901250E+04  0.25500000920E-02 0. -1.
    10030    2    1    2    0    0  0.00000000000E+00  0.00000000000E+00 -0.21579668617E+04  0.27456133882E+04  0.16975193376E+04 0.  0.
        5    1    3    3  502    0 -0.28658109267E+03  0.32676437793E+03  0.10014982604E+03  0.44604457066E+03  0.46999998093E+01 0.  1.
       -5    1    3    3    0  502  0.28658109267E+03 -0.32676437793E+03 -0.22581166877E+04  0.22995688176E+04  0.46999998093E+01 0. -1.
</event>
<event>
 5   0  0.5821584E-05  0.1698766E+04  0.7818609E-02  0.8762068E-01
       -2   -1    0    0    0  501  0.00000000000E+00  0.00000000000E+00  0.84765150767E+03  0.84765150767E+03  0.25500000920E-02 0. -1.
        2   -1    0    0  501    0  0.00000000000E+00  0.00000000000E+00 -0.85111850103E+03  0.85111850104E+03  0.25500000920E-02 0.  1.
    10030    2    1    2    0    0  0.00000000000E+00  0.00000000000E+00 -0.34669933658E+01  0.16987700087E+04  0.16987664708E+04 0.  0.
        1    1    3    3  502    0  0.28526582156E+02  0.29947670573E+03 -0.79605990659E+03  0.85100613281E+03  0.50400001928E-02 0.  1.
       -1    1    3    3    0  502 -0.28526582156E+02 -0.29947670573E+03  0.79259291322E+03  0.84776387590E+03  0.50400001928E-02 0. -1.
</event>
<event>
 5   0  0.5652631E-05  0.1700330E+04  0.7818609E-02  0.8761176E-01
        2   -1    0    0  501    0  0.00000000000E+00  0.00000000000E+00  0.43152764835E+03  0.43152764836E+03  0.25500000920E-02 0.  1.
       -2   -1    0    0    0  501  0.00000000000E+00  0.00000000000E+00 -0.16749338635E+04  0.16749338635E+04  0.25500000920E-02 0. -1.
    10030    2    1    2    0    0  0.00000000000E+00  0.00000000000E+00 -0.12434062151E+04  0.21064615118E+04  0.17003296989E+04 0.  0.
        2    1    3    3  502    0 -0.55399374207E+03 -0.98738491378E+02 -0.14111966837E+04  0.15192545659E+04  0.25500000920E-02 0. -1.
       -2    1    3    3    0  502  0.55399374207E+03  0.98738491378E+02  0.16779046862E+03  0.58720694589E+03  0.25500000920E-02 0.  1.
</event>
<event>
 5   0  0.5821584E-05  0.1710874E+04  0.7818609E-02  0.8755187E-01
        2   -1    0    0  501    0  0.00000000000E+00  0.00000000000E+00  0.23005854437E+04  0.23005854437E+04  0.25500000920E-02 0. -1.
       -2   -1    0    0    0  501  0.00000000000E+00  0.00000000000E+00 -0.31808100798E+03  0.31808100799E+03  0.25500000920E-02 0.  1.
    10030    2    1    2    0    0  0.00000000000E+00  0.00000000000E+00  0.19825044357E+04  0.26186664516E+04  0.17108740887E+04 0.  0.
        1    1    3    3  502    0 -0.61972495002E+03  0.29247397300E+03  0.20754165226E+03  0.71601227364E+03  0.50400001928E-02 0.  1.
       -1    1    3    3    0  502  0.61972495002E+03 -0.29247397300E+03  0.17749627834E+04  0.19026541780E+04  0.50400001928E-02 0. -1.
</event>
<event>
 5   0  0.2966258E-05  0.1702094E+04  0.7818609E-02  0.8760171E-01
       -1   -1    0    0    0  501  0.00000000000E+00  0.00000000000E+00  0.52224212316E+03  0.52224212319E+03  0.50400001928E-02 0.  1.
        1   -1    0    0  501    0  0.00000000000E+00  0.00000000000E+00 -0.13868683805E+04  0.13868683805E+04  0.50400001928E-02 0. -1.
    10030    2    1    2    0    0  0.00000000000E+00  0.00000000000E+00 -0.86462625734E+03  0.19091105037E+04  0.17020941074E+04 0.  0.
        4    1    3    3  502    0  0.28042840491E+03  0.53155578880E+03  0.24354157991E+03  0.64846415547E+03  0.12699999809E+01 0.  1.
       -4    1    3    3    0  502 -0.28042840491E+03 -0.53155578880E+03 -0.11081678373E+04  0.12606463482E+04  0.12699999809E+01 0. -1.
</event>
<event>
 5   0  0.2966258E-05  0.1697701E+04  0.7818609E-02  0.8762677E-01
        1   -1    0    0  501    0  0.00000000000E+00  0.00000000000E+00  0.54646930057E+03  0.54646930059E+03  0.50400001928E-02 0.  1.
       -1   -1    0    0    0  501  0.00000000000E+00  0.00000000000E+00 -0.13185503700E+04  0.13185503700E+04  0.50400001928E-02 0. -1.
    10030    2    1    2    0    0  0.00000000000E+00  0.00000000000E+00 -0.77208106945E+03  0.18650196706E+04  0.16977011498E+04 0.  0.
        4    1    3    3  502    0  0.68437827623E+03  0.23729729063E+03  0.10013973364E+03  0.73124086885E+03  0.12699999809E+01 0.  1.
       -4    1    3    3    0  502 -0.68437827623E+03 -0.23729729063E+03 -0.87222080310E+03  0.11337788018E+04  0.12699999809E+01 0. -1.
</event>
<event>
 5   0  0.2966258E-05  0.1700231E+04  0.7818609E-02  0.8761233E-01
       -1   -1    0    0    0  501  0.00000000000E+00  0.00000000000E+00  0.36215839765E+03  0.36215839769E+03  0.50400001928E-02 0.  1.
        1   -1    0    0  501    0  0.00000000000E+00  0.00000000000E+00 -0.19955253035E+04  0.19955253035E+04  0.50400001928E-02 0. -1.
    10030    2    1    2    0    0  0.00000000000E+00  0.00000000000E+00 -0.16333669059E+04  0.23576837012E+04  0.17002308625E+04 0.  0.
        4    1    3    3  502    0 -0.46861129425E+03 -0.72877573097E+02  0.16167814683E+03  0.50104802347E+03  0.12699999809E+01 0.  1.
       -4    1    3    3    0  502  0.46861129425E+03  0.72877573097E+02 -0.17950450527E+04  0.18566356777E+04  0.12699999809E+01 0. -1.
</event>
<event>
 5   0  0.5755321E-05  0.1699636E+04  0.7818609E-02  0.8761572E-01
        2   -1    0    0  501    0  0.00000000000E+00  0.00000000000E+00  0.16216638541E+04  0.16216638541E+04  0.25500000920E-02 0. -1.
       -2   -1    0    0    0  501  0.00000000000E+00  0.00000000000E+00 -0.44533938466E+03  0.44533938467E+03  0.25500000920E-02 0.  1.
    10030    2    1    2    0    0  0.00000000000E+00  0.00000000000E+00  0.11763244695E+04  0.20670032388E+04  0.16996361763E+04 0.  0.
        4    1    3    3  502    0 -0.31207675247E+03  0.71529621988E+03  0.17908080894E+03  0.80069477995E+03  0.12699999809E+01 0.  1.
       -4    1    3    3    0  502  0.31207675247E+03 -0.71529621988E+03  0.99724366053E+03  0.12663084589E+04  0.12699999809E+01 0. -1.
</event>
<event>
 5   0  0.2987859E-05  0.1710178E+04  0.7818609E-02  0.8755581E-01
        1   -1    0    0  501    0  0.00000000000E+00  0.00000000000E+00  0.14404114762E+04  0.14404114762E+04  0.50400001928E-02 0. -1.
       -1   -1    0    0    0  501  0.00000000000E+00  0.00000000000E+00 -0.50761664191E+03  0.50761664194E+03  0.50400001928E-02 0.  1.
    10030    2    1    2    0    0  0.00000000000E+00  0.00000000000E+00  0.93279483429E+03  0.19480281182E+04  0.17101775774E+04 0.  0.
        5    1    3    3  502    0 -0.11443021745E+03 -0.64421565983E+03 -0.16066209609E+03  0.67375254371E+03  0.46999998093E+01 0.  1.
       -5    1    3    3    0  502  0.11443021745E+03  0.64421565983E+03  0.10934569304E+04  0.12742755745E+04  0.46999998093E+01 0. -1.
</event>
<event>
 5   0  0.2967704E-05  0.1700116E+04  0.7818609E-02  0.8761298E-01
       -1   -1    0    0    0  501  0.00000000000E+00  0.00000000000E+00  0.98287425635E+03  0.98287425636E+03  0.50400001928E-02 0.  1.
        1   -1    0    0  501    0  0.00000000000E+00  0.00000000000E+00 -0.73518887187E+03  0.73518887188E+03  0.50400001928E-02 0. -1.
    10030    2    1    2    0    0  0.00000000000E+00  0.00000000000E+00  0.24768538448E+03  0.17180631282E+04  0.17001155440E+04 0.  0.
        2    1    3    3  502    0 -0.49917944367E+03 -0.66140519997E+03  0.31547914816E+03  0.88665892454E+03  0.25500000920E-02 0. -1.
       -2    1    3    3    0  502  0.49917944367E+03  0.66140519997E+03 -0.67793763676E+02  0.83140420370E+03  0.25500000920E-02 0.  1.
</event>
<event>
 5   0  0.2966258E-05  0.1720782E+04  0.7818609E-02  0.8749600E-01
        1   -1    0    0  501    0  0.00000000000E+00  0.00000000000E+00  0.10736150019E+04  0.10736150019E+04  0.50400001928E-02 0. -1.
       -1   -1    0    0    0  501  0.00000000000E+00  0.00000000000E+00 -0.68951374083E+03  0.68951374085E+03  0.50400001928E-02 0.  1.
    10030    2    1    2    0    0  0.00000000000E+00  0.00000000000E+00  0.38410126107E+03  0.17631287428E+04  0.17207815622E+04 0.  0.
        4    1    3    3  502    0 -0.21978194671E+03  0.61573457400E+02 -0.65792763015E+03  0.69639484071E+03  0.12699999809E+01 0.  1.
       -4    1    3    3    0  502  0.21978194671E+03 -0.61573457400E+02  0.10420288912E+04  0.10667339021E+04  0.12699999809E+01 0. -1.
</event>
<event>
 5   0  0.2966258E-05  0.1707852E+04  0.7818609E-02  0.8756899E-01
        1   -1    0    0  501    0  0.00000000000E+00  0.00000000000E+00  0.80594812175E+03  0.80594812176E+03  0.50400001928E-02 0.  1.
       -1   -1    0    0    0  501  0.00000000000E+00  0.00000000000E+00 -0.90476023472E+03  0.90476023473E+03  0.50400001928E-02 0. -1.
    10030    2    1    2    0    0  0.00000000000E+00  0.00000000000E+00 -0.98812112973E+02  0.17107083565E+04  0.17078522323E+04 0.  0.
        4    1    3    3  502    0  0.42072276298E+03  0.46870883740E+03  0.52817995291E+03  0.82199227071E+03  0.12699999809E+01 0.  1.
       -4    1    3    3    0  502 -0.42072276298E+03 -0.46870883740E+03 -0.62699206589E+03  0.88871608578E+03  0.12699999809E+01 0. -1.
</event>
<event>
 5   0  0.5671132E-05  0.1700522E+04  0.7818609E-02  0.8761067E-01
        2   -1    0    0  501    0  0.00000000000E+00  0.00000000000E+00  0.22474542566E+04  0.22474542566E+04  0.25500000920E-02 0. -1.
       -2   -1    0    0    0  501  0.00000000000E+00  0.00000000000E+00 -0.32167225726E+03  0.32167225727E+03  0.25500000920E-02 0.  1.
    10030    2    1    2    0    0  0.00000000000E+00  0.00000000000E+00  0.19257819994E+04  0.25691265139E+04  0.17005219009E+04 0.  0.
        3    1    3    3  502    0 -0.57083538479E+03 -0.25985925557E+03  0.95583672496E+02  0.63444157956E+03  0.10100000352E+00 0.  1.
       -3    1    3    3    0  502  0.57083538479E+03  0.25985925557E+03  0.18301983269E+04  0.19346849343E+04  0.10100000352E+00 0. -1.
</event>
<event>
 5   0  0.2967704E-05  0.1697456E+04  0.7818609E-02  0.8762816E-01
        1   -1    0    0  501    0  0.00000000000E+00  0.00000000000E+00  0.12534898706E+04  0.12534898706E+04  0.50400001928E-02 0. -1.
       -1   -1    0    0    0  501  0.00000000000E+00  0.00000000000E+00 -0.57466714901E+03  0.57466714903E+03  0.50400001928E-02 0.  1.
    10030    2    1    2    0    0  0.00000000000E+00  0.00000000000E+00  0.67882272157E+03  0.18281570196E+04  0.16974562737E+04 0.  0.
        2    1    3    3  502    0 -0.78279083464E+03 -0.10279149787E+03  0.39617201460E+01  0.78952091680E+03  0.25500000920E-02 0. -1.
       -2    1    3    3    0  502  0.78279083464E+03  0.10279149787E+03  0.67486100142E+03  0.10386361028E+04  0.25500000920E-02 0.  1.
</event>
<event>
 5   0  0.5671132E-05  0.1700133E+04  0.7818609E-02  0.8761288E-01
       -2   -1    0    0    0  501  0.00000000000E+00  0.00000000000E+00  0.56631537680E+03  0.56631537681E+03  0.25500000920E-02 0.  1.
        2   -1    0    0  501    0  0.00000000000E+00  0.00000000000E+00 -0.12759912172E+04  0.12759912172E+04  0.25500000920E-02 0. -1.
    10030    2    1    2    0    0  0.00000000000E+00  0.00000000000E+00 -0.70967584038E+03  0.18423065940E+04  0.17001334618E+04 0.  0.
        3    1    3    3  502    0  0.17983538979E+03  0.64398949218E+03  0.21398784442E+03  0.70203564099E+03  0.10100000352E+00 0.  1.
       -3    1    3    3    0  502 -0.17983538979E+03 -0.64398949218E+03 -0.92366368480E+03  0.11402709530E+04  0.10100000352E+00 0. -1.
</event>
<event>
 5   0  0.2987859E-05  0.1689281E+04  0.7818609E-02  0.8767501E-01
       -1   -1    0    0    0  501  0.00000000000E+00  0.00000000000E+00  0.10170616379E+04  0.10170616379E+04  0.50400001928E-02 0. -1.
        1   -1    0    0  501    0  0.00000000000E+00  0.00000000000E+00 -0.70144976155E+03  0.70144976156E+03  0.50400001928E-02 0.  1.
    10030    2    1    2    0    0  0.00000000000E+00  0.00000000000E+00  0.31561187637E+03  0.17185113995E+04  0.16892810819E+04 0.  0.
        5    1    3    3  502    0  0.67327689665E+03  0.23726697634E+03 -0.30144560436E+03  0.77491221438E+03  0.46999998093E+01 0.  1.
       -5    1    3    3    0  502 -0.67327689665E+03 -0.23726697634E+03  0.61705748073E+03  0.94359918511E+03  0.46999998093E+01 0. -1.
</event>
<event>
 5   0  0.5671132E-05  0.1703589E+04  0.7818609E-02  0.8759320E-01
       -2   -1    0    0    0  501  0.00000000000E+00  0.00000000000E+00  0.41299961952E+03  0.41299961953E+03  0.25500000920E-02 0.  1.
        2   -1    0    0  501    0  0.00000000000E+00  0.00000000000E+00 -0.17567915870E+04  0.17567915870E+04  0.25500000920E-02 0. -1.
    10030    2    1    2    0    0  0.00000000000E+00  0.00000000000E+00 -0.13437919675E+04  0.21697912065E+04  0.17035894541E+04 0.  0.
        3    1    3    3  502    0 -0.74593838625E+02  0.45171244782E+03  0.24296492783E+03  0.51830526009E+03  0.10100000352E+00 0.  1.
       -3    1    3    3    0  502  0.74593838625E+02 -0.45171244782E+03 -0.15867568953E+04  0.16514859465E+04  0.10100000352E+00 0. -1.
</event>
<event>
 5   0  0.2993769E-05  0.1698673E+04  0.7818609E-02  0.8762121E-01
       -1   -1    0    0    0  501  0.00000000000E+00  0.00000000000E+00  0.29955158946E+03  0.29955158950E+03  0.50400001928E-02 0.  1.
        1   -1    0    0  501    0  0.00000000000E+00  0.00000000000E+00 -0.24081756150E+04  0.24081756150E+04  0.50400001928E-02 0. -1.
    10030    2    1    2    0    0  0.00000000000E+00  0.00000000000E+00 -0.21086240256E+04  0.27077272045E+04  0.16986734039E+04 0.  0.
        3    1    3    3  502    0 -0.57034877995E+03  0.60752974035E+03 -0.13161530898E+04  0.15577705486E+04  0.10100000352E+00 0. -1.
       -3    1    3    3    0  502  0.57034877995E+03 -0.60752974035E+03 -0.79247093578E+03  0.11499566559E+04  0.10100000352E+00 0.  1.
</event>
<event>
 5   0  0.2987859E-05  0.1700423E+04  0.7818609E-02  0.8761123E-01
        1   -1    0    0  501    0  0.00000000000E+00  0.00000000000E+00  0.98205869029E+03  0.98205869031E+03  0.50400001928E-02 0. -1.
       -1   -1    0    0    0  501  0.00000000000E+00  0.00000000000E+00 -0.73606523710E+03  0.73606523711E+03  0.50400001928E-02 0.  1.
    10030    2    1    2    0    0  0.00000000000E+00  0.00000000000E+00  0.24599345320E+03  0.17181239274E+04  0.17004226095E+04 0.  0.
        5    1    3    3  502    0 -0.68040623959E+03 -0.20956101616E+03 -0.34656536085E+03  0.79183212217E+03  0.46999998093E+01 0. -1.
       -5    1    3    3    0  502  0.68040623959E+03  0.20956101616E+03  0.59255881405E+03  0.92629180525E+03  0.46999998093E+01 0.  1.
</event>
<event>
 5   0  0.5859822E-05  0.1698294E+04  0.7818609E-02  0.8762338E-01
        2   -1    0    0  501    0  0.00000000000E+00  0.00000000000E+00  0.99598470295E+03  0.99598470296E+03  0.25500000920E-02 0. -1.
       -2   -1    0    0    0  501  0.00000000000E+00  0.00000000000E+00 -0.72395784953E+03  0.72395784954E+03  0.25500000920E-02 0.  1.
    10030    2    1    2    0    0  0.00000000000E+00  0.00000000000E+00  0.27202685342E+03  0.17199425525E+04  0.16982943723E+04 0.  0.
        5    1    3    3  502    0 -0.64272705637E+03 -0.45852517974E+02  0.69608022595E+03  0.94855168196E+03  0.46999998093E+01 0. -1.
       -5    1    3    3    0  502  0.64272705637E+03  0.45852517974E+02 -0.42405337253E+03  0.77139087053E+03  0.46999998093E+01 0.  1.
</event>
<event>
 5   0  0.2993769E-05  0.1694131E+04  0.7818609E-02  0.8764719E-01
       -1   -1    0    0    0  501  0.00000000000E+00  0.00000000000E+00  0.98176733447E+03  0.98176733448E+03  0.50400001928E-02 0.  1.
        1   -1    0    0  501    0  0.00000000000E+00  0.00000000000E+00 -0.73084522531E+03  0.73084522533E+03  0.50400001928E-02 0. -1.
    10030    2    1    2    0    0  0.00000000000E+00  0.00000000000E+00  0.25092210916E+03  0.17126125598E+04  0.16941310088E+04 0.  0.
        3    1    3    3  502    0 -0.47559125259E+03 -0.39637739815E+03  0.70988361314E+03  0.94193250061E+03  0.10100000352E+00 0.  1.
       -3    1    3    3    0  502  0.47559125259E+03  0.39637739815E+03 -0.45896150398E+03  0.77068005919E+03  0.10100000352E+00 0. -1.
</event>
<event>
 5   0  0.2967704E-05  0.1695406E+04  0.7818609E-02  0.8763989E-01
       -1   -1    0    0    0  501  0.00000000000E+00  0.00000000000E+00  0.24376827258E+03  0.24376827263E+03  0.50400001928E-02 0. -1.
        1   -1    0    0  501    0  0.00000000000E+00  0.00000000000E+00 -0.29478813889E+04  0.29478813889E+04  0.50400001928E-02 0.  1.
    10030    2    1    2    0    0  0.00000000000E+00  0.00000000000E+00 -0.27041131163E+04  0.31916496615E+04  0.16954055020E+04 0.  0.
        2    1    3    3  502    0  0.12326245827E+03  0.37763284664E+02 -0.29293194072E+04  0.29321548201E+04  0.25500000920E-02 0.  1.
       -2    1    3    3    0  502 -0.12326245827E+03 -0.37763284664E+02  0.22520629090E+03  0.25949484148E+03  0.25500000920E-02 0. -1.
</event>
<event>
 5   0  0.5652631E-05  0.1696890E+04  0.7818609E-02  0.8763140E-01
        2   -1    0    0  501    0  0.00000000000E+00  0.00000000000E+00  0.11484194325E+04  0.11484194325E+04  0.25500000920E-02 0. -1.
       -2   -1    0    0    0  501  0.00000000000E+00  0.00000000000E+00 -0.62682611918E+03  0.62682611918E+03  0.25500000920E-02 0.  1.
    10030    2    1    2    0    0  0.00000000000E+00  0.00000000000E+00  0.52159331332E+03  0.17752455517E+04  0.16968904456E+04 0.  0.
        2    1    3    3  502    0  0.20121591344E+03 -0.82228806936E+03  0.20148870588E+03  0.87019722560E+03  0.25500000920E-02 0. -1.
       -2    1    3    3    0  502 -0.20121591344E+03  0.82228806936E+03  0.32010460744E+03  0.90504832608E+03  0.25500000920E-02 0.  1.
</event>
<event>
 5   0  0.5652631E-05  0.1699706E+04  0.7818609E-02  0.8761532E-01
        2   -1    0    0  501    0  0.00000000000E+00  0.00000000000E+00  0.16216527848E+04  0.16216527848E+04  0.25500000920E-02 0. -1.
       -2   -1    0    0    0  501  0.00000000000E+00  0.00000000000E+00 -0.44537881523E+03  0.44537881524E+03  0.25500000920E-02 0.  1.
    10030    2    1    2    0    0  0.00000000000E+00  0.00000000000E+00  0.11762739696E+04  0.20670316001E+04  0.16997056169E+04 0.  0.
        2    1    3    3  502    0 -0.47637310079E+03 -0.21387019895E+03 -0.22727282756E+03  0.56949515477E+03  0.25500000920E-02 0.  1.
       -2    1    3    3    0  502  0.47637310079E+03  0.21387019895E+03  0.14035467972E+04  0.14975364453E+04  0.25500000920E-02 0. -1.
</event>
<event>
 5   0  0.5755321E-05  0.1699593E+04  0.7818609E-02  0.8761597E-01
       -2   -1    0    0    0  501  0.00000000000E+00  0.00000000000E+00  0.45422646700E+03  0.45422646701E+03  0.25500000920E-02 0. -1.
        2   -1    0    0  501    0  0.00000000000E+00  0.00000000000E+00 -0.15898541880E+04  0.15898541880E+04  0.25500000920E-02 0.  1.
    10030    2    1    2    0    0  0.00000000000E+00  0.00000000000E+00 -0.11356277210E+04  0.20440806550E+04  0.16995927170E+04 0.  0.
        4    1    3    3  502    0  0.82301848163E+03 -0.72425767969E+02 -0.32864109608E+03  0.88916336851E+03  0.12699999809E+01 0. -1.
       -4    1    3    3    0  502 -0.82301848163E+03  0.72425767969E+02 -0.80698662496E+03  0.11549172865E+04  0.12699999809E+01 0.  1.
</event>
<event>
 5   0  0.5821584E-05  0.1698502E+04  0.7818609E-02  0.8762219E-01
        2   -1    0    0  501    0  0.00000000000E+00  0.00000000000E+00  0.13470989120E+04  0.13470989120E+04  0.25500000920E-02 0.  1.
       -2   -1    0    0    0  501  0.00000000000E+00  0.00000000000E+00 -0.53539326350E+03  0.53539326350E+03  0.25500000920E-02 0. -1.
    10030    2    1    2    0    0  0.00000000000E+00  0.00000000000E+00  0.81170564847E+03  0.18824921755E+04  0.16985024966E+04 0.  0.
        1    1    3    3  502    0 -0.12237587662E+03  0.63591688226E+03 -0.20308210504E+03  0.67868142580E+03  0.50400001928E-02 0. -1.
       -1    1    3    3    0  502  0.12237587662E+03 -0.63591688226E+03  0.10147877535E+04  0.12038107497E+04  0.50400001928E-02 0.  1.
</event>
<event>
 5   0  0.2098250E-05  0.1699898E+04  0.7818609E-02  0.8761422E-01
       -4   -1    0    0    0  501  0.00000000000E+00  0.00000000000E+00  0.83580400785E+03  0.83580497273E+03  0.12699999809E+01 0.  1.
        4   -1    0    0  501    0  0.00000000000E+00  0.00000000000E+00 -0.86433187279E+03  0.86433280582E+03  0.12699999809E+01 0. -1.
    10030    2    1    2    0    0  0.00000000000E+00  0.00000000000E+00 -0.28527864940E+02  0.17001377785E+04  0.16998984167E+04 0.  0.
        3    1    3    3  502    0  0.68831134599E+03  0.41951101631E+03  0.25531371171E+03  0.84554544728E+03  0.10100000352E+00 0.  1.
       -3    1    3    3    0  502 -0.68831134599E+03 -0.41951101631E+03 -0.28384157665E+03  0.85459233127E+03  0.10100000352E+00 0. -1.
</event>
<event>
 5   0  0.5652631E-05  0.1731171E+04  0.7818609E-02  0.8743783E-01
       -2   -1    0    0    0  501  0.00000000000E+00  0.00000000000E+00  0.34853260487E+03  0.34853260488E+03  0.25500000920E-02 0. -1.
        2   -1    0    0  501    0  0.00000000000E+00  0.00000000000E+00 -0.21496941169E+04  0.21496941169E+04  0.25500000920E-02 0.  1.
    10030    2    1    2    0    0  0.00000000000E+00  0.00000000000E+00 -0.18011615120E+04  0.24982267218E+04  0.17311712685E+04 0.  0.
        2    1    3    3  502    0  0.84194837745E+02  0.13355230711E+03  0.32757968265E+03  0.36363915896E+03  0.25500000920E-02 0. -1.
       -2    1    3    3    0  502 -0.84194837745E+02 -0.13355230711E+03 -0.21287411946E+04  0.21345875628E+04  0.25500000920E-02 0.  1.
</event>
<event>
 5   0  0.5671132E-05  0.1699741E+04  0.7818609E-02  0.8761512E-01
        2   -1    0    0  501    0  0.00000000000E+00  0.00000000000E+00  0.22357028828E+04  0.22357028828E+04  0.25500000920E-02 0.  1.
       -2   -1    0    0    0  501  0.00000000000E+00  0.00000000000E+00 -0.32306601705E+03  0.32306601706E+03  0.25500000920E-02 0. -1.
    10030    2    1    2    0    0  0.00000000000E+00  0.00000000000E+00  0.19126368657E+04  0.25587688998E+04  0.16997407163E+04 0.  0.
        3    1    3    3  502    0  0.79106371166E+03 -0.25964281492E+03  0.12130452193E+04  0.14712834198E+04  0.10100000352E+00 0.  1.
       -3    1    3    3    0  502 -0.79106371166E+03  0.25964281492E+03  0.69959164642E+03  0.10874854800E+04  0.10100000352E+00 0. -1.
</event>
<event>
 5   0  0.2098250E-05  0.1692246E+04  0.7818609E-02  0.8765799E-01
        3   -1    0    0  501    0  0.00000000000E+00  0.00000000000E+00  0.79636544523E+03  0.79636545163E+03  0.10100000352E+00 0. -1.
       -3   -1    0    0    0  501  0.00000000000E+00  0.00000000000E+00 -0.89898955324E+03  0.89898955891E+03  0.10100000352E+00 0.  1.
    10030    2    1    2    0    0  0.00000000000E+00  0.00000000000E+00 -0.10262410801E+03  0.16953550105E+04  0.16922461122E+04 0.  0.
        5    1    3    3  502    0  0.22441238749E+03 -0.30965325426E+03  0.70483018176E+03  0.80190631164E+03  0.46999998093E+01 0. -1.
       -5    1    3    3    0  502 -0.22441238749E+03  0.30965325426E+03 -0.80745428976E+03  0.89344869891E+03  0.46999998093E+01 0.  1.
</event>
<event>
 5   0  0.2098250E-05  0.1737617E+04  0.7818609E-02  0.8740196E-01
       -3   -1    0    0    0  501  0.00000000000E+00  0.00000000000E+00  0.10556096736E+04  0.10556096785E+04  0.10100000352E+00 0.  1.
        3   -1    0    0  501    0  0.00000000000E+00  0.00000000000E+00 -0.71506349078E+03  0.71506349791E+03  0.10100000352E+00 0. -1.
    10030    2    1    2    0    0  0.00000000000E+00  0.00000000000E+00  0.34054618286E+03  0.17706731764E+04  0.17376166997E+04 0.  0.
        3    1    3    3  502    0  0.12925905694E+03 -0.45893803378E+03  0.91037918040E+03  0.10276781038E+04  0.10100000352E+00 0.  1.
       -3    1    3    3    0  502 -0.12925905694E+03  0.45893803378E+03 -0.56983299754E+03  0.74299507262E+03  0.10100000352E+00 0. -1.
</event>
<event>
 5   0  0.2993769E-05  0.1690861E+04  0.7818609E-02  0.8766594E-01
        1   -1    0    0  501    0  0.00000000000E+00  0.00000000000E+00  0.81630650932E+03  0.81630650934E+03  0.50400001928E-02 0.  1.
       -1   -1    0    0    0  501  0.00000000000E+00  0.00000000000E+00 -0.87559358416E+03  0.87559358418E+03  0.50400001928E-02 0. -1.
    10030    2    1    2    0    0  0.00000000000E+00  0.00000000000E+00 -0.59287074838E+02  0.16919000935E+04  0.16908610142E+04 0.  0.
        3    1    3    3  502    0 -0.10386024006E+03  0.83902236920E+03 -0.26949928567E+02  0.84585565809E+03  0.10100000352E+00 0.  1.
       -3    1    3    3    0  502  0.10386024006E+03 -0.83902236920E+03 -0.32337146271E+02  0.84604443542E+03  0.10100000352E+00 0. -1.
</event>
<event>
 5   0  0.5859822E-05  0.1703240E+04  0.7818609E-02  0.8759518E-01
       -2   -1    0    0    0  501  0.00000000000E+00  0.00000000000E+00  0.66946475441E+03  0.66946475442E+03  0.25500000920E-02 0.  1.
        2   -1    0    0  501    0  0.00000000000E+00  0.00000000000E+00 -0.10833385518E+04  0.10833385518E+04  0.25500000920E-02 0. -1.
    10030    2    1    2    0    0  0.00000000000E+00  0.00000000000E+00 -0.41387379741E+03  0.17528033062E+04  0.17032404147E+04 0.  0.
        5    1    3    3  502    0  0.67464103628E+03 -0.19476957830E+02  0.32751643031E+03  0.75020595961E+03  0.46999998093E+01 0.  1.
       -5    1    3    3    0  502 -0.67464103628E+03  0.19476957830E+02 -0.74139022771E+03  0.10025973466E+04  0.46999998093E+01 0. -1.
</event>
<event>
 5   0  0.2966258E-05  0.1707730E+04  0.7818609E-02  0.8756968E-01
        1   -1    0    0  501    0  0.00000000000E+00  0.00000000000E+00  0.80265394656E+03  0.80265394657E+03  0.50400001928E-02 0.  1.
       -1   -1    0    0    0  501  0.00000000000E+00  0.00000000000E+00 -0.90834308126E+03  0.90834308127E+03  0.50400001928E-02 0. -1.
    10030    2    1    2    0    0  0.00000000000E+00  0.00000000000E+00 -0.10568913470E+03  0.17109970278E+04  0.17077296730E+04 0.  0.
        4    1    3    3  502    0 -0.36576084846E+03  0.76873148552E+03  0.13269950618E+02  0.85141458737E+03  0.12699999809E+01 0. -1.
       -4    1    3    3    0  502  0.36576084846E+03 -0.76873148552E+03 -0.11895908532E+03  0.85958244047E+03  0.12699999809E+01 0.  1.
</event>
<event>
 5   0  0.5821584E-05  0.1698600E+04  0.7818609E-02  0.8762163E-01
       -2   -1    0    0    0  501  0.00000000000E+00  0.00000000000E+00  0.64686989310E+03  0.64686989310E+03  0.25500000920E-02 0.  1.
        2   -1    0    0  501    0  0.00000000000E+00  0.00000000000E+00 -0.11150785994E+04  0.11150785994E+04  0.25500000920E-02 0. -1.
    10030    2    1    2    0    0  0.00000000000E+00  0.00000000000E+00 -0.46820870629E+03  0.17619484925E+04  0.16986003348E+04 0.  0.
        1    1    3    3  502    0  0.43482948783E+03 -0.70576024935E+03 -0.42453000592E+02  0.83004606519E+03  0.50400001928E-02 0.  1.
       -1    1    3    3    0  502 -0.43482948783E+03  0.70576024935E+03 -0.42575570569E+03  0.93190242730E+03  0.50400001928E-02 0. -1.
</event>
<event>
 5   0  0.5652631E-05  0.1699448E+04  0.7818609E-02  0.8761679E-01
       -2   -1    0    0    0  501  0.00000000000E+00  0.00000000000E+00  0.80112494757E+03  0.80112494757E+03  0.25500000920E-02 0.  1.
        2   -1    0    0  501    0  0.00000000000E+00  0.00000000000E+00 -0.90127100018E+03  0.90127100018E+03  0.25500000920E-02 0. -1.
    10030    2    1    2    0    0  0.00000000000E+00  0.00000000000E+00 -0.10014605261E+03  0.17023959478E+04  0.16994477724E+04 0.  0.
        2    1    3    3  502    0  0.51688060482E+03  0.32428860390E+02  0.62475242887E+03  0.81150033149E+03  0.25500000920E-02 0.  1.
       -2    1    3    3    0  502 -0.51688060482E+03 -0.32428860390E+02 -0.72489848148E+03  0.89089561627E+03  0.25500000920E-02 0. -1.
</event>
<event>
 5   0  0.2987859E-05  0.1690803E+04  0.7818609E-02  0.8766627E-01
       -1   -1    0    0    0  501  0.00000000000E+00  0.00000000000E+00  0.33978968908E+03  0.33978968912E+03  0.50400001928E-02 0. -1.
        1   -1    0    0  501    0  0.00000000000E+00  0.00000000000E+00 -0.21033713145E+04  0.21033713145E+04  0.50400001928E-02 0.  1.
    10030    2    1    2    0    0  0.00000000000E+00  0.00000000000E+00 -0.17635816254E+04  0.24431610036E+04  0.16908032234E+04 0.  0.
        5    1    3    3  502    0  0.54974763700E+03 -0.10102635489E+03  0.34658964470E+02  0.56004653608E+03  0.46999998093E+01 0. -1.
       -5    1    3    3    0  502 -0.54974763700E+03  0.10102635489E+03 -0.17982405899E+04  0.18831144675E+04  0.46999998093E+01 0.  1.
</event>
<event>
 5   0  0.5755321E-05  0.1691834E+04  0.7818609E-02  0.8766036E-01
        2   -1    0    0  501    0  0.00000000000E+00  0.00000000000E+00  0.14402659551E+04  0.14402659551E+04  0.25500000920E-02 0. -1.
       -2   -1    0    0    0  501  0.00000000000E+00  0.00000000000E+00 -0.49683557858E+03  0.49683557859E+03  0.25500000920E-02 0.  1.
    10030    2    1    2    0    0  0.00000000000E+00  0.00000000000E+00  0.94343037649E+03  0.19371015337E+04  0.16918337615E+04 0.  0.
        4    1    3    3  502    0 -0.81400086373E+03  0.71129808367E+02  0.72234865213E+03  0.10906172766E+04  0.12699999809E+01 0. -1.
       -4    1    3    3    0  502  0.81400086373E+03 -0.71129808367E+02  0.22108172436E+03  0.84648425711E+03  0.12699999809E+01 0.  1.
</event>
<event>
 5   0  0.5859822E-05  0.1697593E+04  0.7818609E-02  0.8762738E-01
        2   -1    0    0  501    0  0.00000000000E+00  0.00000000000E+00  0.10387007723E+04  0.10387007724E+04  0.25500000920E-02 0.  1.
       -2   -1    0    0    0  501  0.00000000000E+00  0.00000000000E+00 -0.69361196096E+03  0.69361196097E+03  0.25500000920E-02 0. -1.
    10030    2    1    2    0    0  0.00000000000E+00  0.00000000000E+00  0.34508881138E+03  0.17323127333E+04  0.16975927422E+04 0.  0.
        5    1    3    3  502    0  0.72210576925E+03 -0.16473761795E+03 -0.25049187979E+03  0.78188458009E+03  0.46999998093E+01 0. -1.
       -5    1    3    3    0  502 -0.72210576925E+03  0.16473761795E+03  0.59558069118E+03  0.95042815323E+03  0.46999998093E+01 0.  1.
</event>
<event>
 5   0  0.2966258E-05  0.1699722E+04  0.7818609E-02  0.8761523E-01
       -1   -1    0    0    0  501  0.00000000000E+00  0.00000000000E+00  0.63484250387E+03  0.63484250389E+03  0.50400001928E-02 0.  1.
        1   -1    0    0  501    0  0.00000000000E+00  0.00000000000E+00 -0.11377059101E+04  0.11377059101E+04  0.50400001928E-02 0. -1.
    10030    2    1    2    0    0  0.00000000000E+00  0.00000000000E+00 -0.50286340619E+03  0.17725484140E+04  0.16997224110E+04 0.  0.
        4    1    3    3  502    0  0.52041905295E+03 -0.18628668171E+03  0.42176847929E+03  0.69529057341E+03  0.12699999809E+01 0.  1.
       -4    1    3    3    0  502 -0.52041905295E+03  0.18628668171E+03 -0.92463188548E+03  0.10772578405E+04  0.12699999809E+01 0. -1.
</event>
<event>
 5   0  0.5671132E-05  0.1700470E+04  0.7818609E-02  0.8761096E-01
        2   -1    0    0  501    0  0.00000000000E+00  0.00000000000E+00  0.59774589061E+03  0.59774589062E+03  0.25500000920E-02 0.  1.
       -2   -1    0    0    0  501  0.00000000000E+00  0.00000000000E+00 -0.12093757355E+04  0.12093757355E+04  0.25500000920E-02 0. -1.
    10030    2    1    2    0    0  0.00000000000E+00  0.00000000000E+00 -0.61162984486E+03  0.18071216261E+04  0.17004697893E+04 0.  0.
        3    1    3    3  502    0  0.29991676633E+03 -0.75391652569E+03 -0.57583585732E+03  0.99495082251E+03  0.10100000352E+00 0. -1.
       -3    1    3    3    0  502 -0.29991676633E+03  0.75391652569E+03 -0.35793987535E+02  0.81217080358E+03  0.10100000352E+00 0.  1.
</event>
<event>
 5   0  0.2098250E-05  0.1696122E+04  0.7818609E-02  0.8763579E-01
        3   -1    0    0  501    0  0.00000000000E+00  0.00000000000E+00  0.56166007810E+03  0.56166008718E+03  0.10100000352E+00 0.  1.
       -3   -1    0    0    0  501  0.00000000000E+00  0.00000000000E+00 -0.12805035323E+04  0.12805035363E+04  0.10100000352E+00 0. -1.
    10030    2    1    2    0    0  0.00000000000E+00  0.00000000000E+00 -0.71884345425E+03  0.18421636235E+04  0.16961223140E+04 0.  0.
        2    1    3    3  502    0  0.11534597510E+03  0.24209230899E+03 -0.12332416479E+04  0.12620611483E+04  0.25500000920E-02 0. -1.
       -2    1    3    3    0  502 -0.11534597510E+03 -0.24209230899E+03  0.51439819365E+03  0.58010247516E+03  0.25500000920E-02 0.  1.
</event>
<event>
 5   0  0.2993769E-05  0.1698750E+04  0.7818609E-02  0.8762078E-01
        1   -1    0    0  501    0  0.00000000000E+00  0.00000000000E+00  0.83792733337E+03  0.83792733339E+03  0.50400001928E-02 0. -1.
       -1   -1    0    0    0  501  0.00000000000E+00  0.00000000000E+00 -0.86097893110E+03  0.86097893112E+03  0.50400001928E-02 0.  1.
    10030    2    1    2    0    0  0.00000000000E+00  0.00000000000E+00 -0.23051597731E+02  0.16989062645E+04  0.16987498696E+04 0.  0.
        3    1    3    3  502    0 -0.81906824966E+03 -0.22386082481E+03  0.97200539634E+01  0.84916485805E+03  0.10100000352E+00 0.  1.
       -3    1    3    3    0  502  0.81906824966E+03  0.22386082481E+03 -0.32771651695E+02  0.84974140646E+03  0.10100000352E+00 0. -1.
</event>
<event>
 5   0  0.2993769E-05  0.1701548E+04  0.7818609E-02  0.8760482E-01
       -1   -1    0    0    0  501  0.00000000000E+00  0.00000000000E+00  0.35288149951E+03  0.35288149954E+03  0.50400001928E-02 0.  1.
        1   -1    0    0  501    0  0.00000000000E+00  0.00000000000E+00 -0.20511589304E+04  0.20511589304E+04  0.50400001928E-02 0. -1.
    10030    2    1    2    0    0  0.00000000000E+00  0.00000000000E+00 -0.16982774308E+04  0.24040404299E+04  0.17015475769E+04 0.  0.
        3    1    3    3  502    0 -0.24007005290E+03 -0.30350177281E+03 -0.19196216429E+04  0.19582375286E+04  0.10100000352E+00 0. -1.
       -3    1    3    3    0  502  0.24007005290E+03  0.30350177281E+03  0.22134421205E+03  0.44580290129E+03  0.10100000352E+00 0.  1.
</event>
<event>
 5   0  0.2911632E-05  0.1700330E+04  0.7818609E-02  0.8761176E-01
       -1   -1    0    0    0  501  0.00000000000E+00  0.00000000000E+00  0.29431209265E+03  0.29431209269E+03  0.50400001928E-02 0. -1.
        1   -1    0    0  501    0  0.00000000000E+00  0.00000000000E+00 -0.24558297796E+04  0.24558297796E+04  0.50400001928E-02 0.  1.
    10030    2    1    2    0    0  0.00000000000E+00  0.00000000000E+00 -0.21615176870E+04  0.27501418723E+04  0.17003298523E+04 0.  0.
        1    1    3    3  502    0 -0.34850438706E+03 -0.65427039824E+03 -0.40752609550E+03  0.84593296446E+03  0.50400001928E-02 0. -1.
       -1    1    3    3    0  502  0.34850438706E+03  0.65427039824E+03 -0.17539915915E+04  0.19042089078E+04  0.50400001928E-02 0.  1.
</event>
<event>
 5   0  0.5671132E-05  0.1692834E+04  0.7818609E-02  0.8765462E-01
        2   -1    0    0  501    0  0.00000000000E+00  0.00000000000E+00  0.79771511568E+03  0.79771511568E+03  0.25500000920E-02 0.  1.
       -2   -1    0    0    0  501  0.00000000000E+00  0.00000000000E+00 -0.89809205274E+03  0.89809205274E+03  0.25500000920E-02 0. -1.
    10030    2    1    2    0    0  0.00000000000E+00  0.00000000000E+00 -0.10037693706E+03  0.16958071684E+04  0.16928338439E+04 0.  0.
        3    1    3    3  502    0 -0.33123413972E+03 -0.76532468008E+03 -0.19530032622E+03  0.85649293569E+03  0.10100000352E+00 0.  1.
       -3    1    3    3    0  502  0.33123413972E+03  0.76532468008E+03  0.94923389164E+02  0.83931423274E+03  0.10100000352E+00 0. -1.
</event>
<event>
 5   0  0.2098250E-05  0.1702390E+04  0.7818609E-02  0.8760003E-01
       -3   -1    0    0    0  501  0.00000000000E+00  0.00000000000E+00  0.89431852506E+03  0.89431853076E+03  0.10100000352E+00 0. -1.
        3   -1    0    0  501    0  0.00000000000E+00  0.00000000000E+00 -0.81015065556E+03  0.81015066185E+03  0.10100000352E+00 0.  1.
    10030    2    1    2    0    0  0.00000000000E+00  0.00000000000E+00  0.84167869506E+02  0.17044691926E+04  0.17023897904E+04 0.  0.
        1    1    3    3  502    0 -0.62919603031E+03 -0.41584182441E+02 -0.53038001894E+03  0.82396592970E+03  0.50400001928E-02 0.  1.
       -1    1    3    3    0  502  0.62919603031E+03  0.41584182441E+02  0.61454788844E+03  0.88050326292E+03  0.50400001928E-02 0. -1.
</event>
<event>
 5   0  0.5671132E-05  0.1699063E+04  0.7818609E-02  0.8761899E-01
       -2   -1    0    0    0  501  0.00000000000E+00  0.00000000000E+00  0.59280026208E+03  0.59280026209E+03  0.25500000920E-02 0. -1.
        2   -1    0    0  501    0  0.00000000000E+00  0.00000000000E+00 -0.12174490326E+04  0.12174490326E+04  0.25500000920E-02 0.  1.
    10030    2    1    2    0    0  0.00000000000E+00  0.00000000000E+00 -0.62464877047E+03  0.18102492946E+04  0.16990633956E+04 0.  0.
        3    1    3    3  502    0  0.45205926703E+03  0.61269859245E+03  0.89088985974E+02  0.76661202946E+03  0.10100000352E+00 0. -1.
       -3    1    3    3    0  502 -0.45205926703E+03 -0.61269859245E+03 -0.71373775645E+03  0.10436372652E+04  0.10100000352E+00 0.  1.
</event>
<event>
 5   0  0.5859822E-05  0.1703490E+04  0.7818609E-02  0.8759376E-01
        2   -1    0    0  501    0  0.00000000000E+00  0.00000000000E+00  0.22290094653E+04  0.22290094653E+04  0.25500000920E-02 0.  1.
       -2   -1    0    0    0  501  0.00000000000E+00  0.00000000000E+00 -0.32546718183E+03  0.32546718184E+03  0.25500000920E-02 0. -1.
    10030    2    1    2    0    0  0.00000000000E+00  0.00000000000E+00  0.19035422835E+04  0.25544766472E+04  0.17034898637E+04 0.  0.
        5    1    3    3  502    0 -0.66705553953E+03  0.45979956695E+03  0.13458677737E+04  0.15709108469E+04  0.46999998093E+01 0. -1.
       -5    1    3    3    0  502  0.66705553953E+03 -0.45979956695E+03  0.55767450976E+03  0.98356580025E+03  0.46999998093E+01 0.  1.
</event>
<event>
 5   0  0.2967704E-05  0.1699744E+04  0.7818609E-02  0.8761510E-01
        1   -1    0    0  501    0  0.00000000000E+00  0.00000000000E+00  0.10474908529E+04  0.10474908529E+04  0.50400001928E-02 0.  1.
       -1   -1    0    0    0  501  0.00000000000E+00  0.00000000000E+00 -0.68953609024E+03  0.68953609026E+03  0.50400001928E-02 0. -1.
    10030    2    1    2    0    0  0.00000000000E+00  0.00000000000E+00  0.35795476265E+03  0.17370269432E+04  0.16997443894E+04 0.  0.
        2    1    3    3  502    0 -0.21089951872E+02 -0.38013440056E+03  0.95546973298E+03  0.10285277630E+04  0.25500000920E-02 0.  1.
       -2    1    3    3    0  502  0.21089951872E+02  0.38013440056E+03 -0.59751497033E+03  0.70849918019E+03  0.25500000920E-02 0. -1.
</event>
<event>
 5   0  0.2966258E-05  0.1696186E+04  0.7818609E-02  0.8763542E-01
        1   -1    0    0  501    0  0.00000000000E+00  0.00000000000E+00  0.15098377250E+04  0.15098377250E+04  0.50400001928E-02 0. -1.
       -1   -1    0    0    0  501  0.00000000000E+00  0.00000000000E+00 -0.47638372041E+03  0.47638372043E+03  0.50400001928E-02 0.  1.
    10030    2    1    2    0    0  0.00000000000E+00  0.00000000000E+00  0.10334540046E+04  0.19862214455E+04  0.16961864434E+04 0.  0.
        4    1    3    3  502    0  0.60236516128E+03  0.39366930752E+03  0.10422941574E+04  0.12665693959E+04  0.12699999809E+01 0. -1.
       -4    1    3    3    0  502 -0.60236516128E+03 -0.39366930752E+03 -0.88401528015E+01  0.71965204954E+03  0.12699999809E+01 0.  1.
</event>
<event>
 5   0  0.5652631E-05  0.1684767E+04  0.7818609E-02  0.8770100E-01
        2   -1    0    0  501    0  0.00000000000E+00  0.00000000000E+00  0.10912589882E+04  0.10912589882E+04  0.25500000920E-02 0.  1.
       -2   -1    0    0    0  501  0.00000000000E+00  0.00000000000E+00 -0.65026710107E+03  0.65026710107E+03  0.25500000920E-02 0. -1.
    10030    2    1    2    0    0  0.00000000000E+00  0.00000000000E+00  0.44099188714E+03  0.17415260893E+04  0.16847668311E+04 0.  0.
        2    1    3    3  502    0  0.67250047927E+03  0.13041554761E+03  0.72726193741E+03  0.99908710096E+03  0.25500000920E-02 0. -1.
       -2    1    3    3    0  502 -0.67250047927E+03 -0.13041554761E+03 -0.28627005028E+03  0.74243898832E+03  0.25500000920E-02 0.  1.
</event>
<event>
 5   0  0.5671132E-05  0.1700718E+04  0.7818609E-02  0.8760955E-01
       -2   -1    0    0    0  501  0.00000000000E+00  0.00000000000E+00  0.62971122891E+03  0.62971122891E+03  0.25500000920E-02 0.  1.
        2   -1    0    0  501    0  0.00000000000E+00  0.00000000000E+00 -0.11483202388E+04  0.11483202388E+04  0.25500000920E-02 0. -1.
    10030    2    1    2    0    0  0.00000000000E+00  0.00000000000E+00 -0.51860900991E+03  0.17780314677E+04  0.17007176706E+04 0.  0.
        3    1    3    3  502    0 -0.46902047075E+03  0.67936911555E+03 -0.47250531089E+03  0.95120128057E+03  0.10100000352E+00 0. -1.
       -3    1    3    3    0  502  0.46902047075E+03 -0.67936911555E+03 -0.46103699020E+02  0.82683018716E+03  0.10100000352E+00 0.  1.
</event>
<event>
 5   0  0.2911632E-05  0.1712812E+04  0.7818609E-02  0.8754091E-01
       -1   -1    0    0    0  501  0.00000000000E+00  0.00000000000E+00  0.11990181813E+04  0.11990181813E+04  0.50400001928E-02 0.  1.
        1   -1    0    0  501    0  0.00000000000E+00  0.00000000000E+00 -0.61169291030E+03  0.61169291032E+03  0.50400001928E-02 0. -1.
    10030    2    1    2    0    0  0.00000000000E+00  0.00000000000E+00  0.58732527098E+03  0.18107110916E+04  0.17128116310E+04 0.  0.
        1    1    3    3  502    0 -0.45694800244E+03 -0.35194774956E+03 -0.37557899448E+03  0.68827921403E+03  0.50400001928E-02 0. -1.
       -1    1    3    3    0  502  0.45694800244E+03  0.35194774956E+03  0.96290426546E+03  0.11224318776E+04  0.50400001928E-02 0.  1.
</event>
<event>
 5   0  0.5859822E-05  0.1697455E+04  0.7818609E-02  0.8762817E-01
        2   -1    0    0  501    0  0.00000000000E+00  0.00000000000E+00  0.71699295769E+03  0.71699295769E+03  0.25500000920E-02 0. -1.
       -2   -1    0    0    0  501  0.00000000000E+00  0.00000000000E+00 -0.10046657765E+04  0.10046657765E+04  0.25500000920E-02 0.  1.
    10030    2    1    2    0    0  0.00000000000E+00  0.00000000000E+00 -0.28767281881E+03  0.17216587342E+04  0.16974549026E+04 0.  0.
        5    1    3    3  502    0  0.17704451121E+03  0.22249128489E+03 -0.95490689028E+03  0.99635153932E+03  0.46999998093E+01 0.  1.
       -5    1    3    3    0  502 -0.17704451121E+03 -0.22249128489E+03  0.66723407147E+03  0.72530719487E+03  0.46999998093E+01 0. -1.
</event>
<event>
 5   0  0.2966258E-05  0.1700320E+04  0.7818609E-02  0.8761182E-01
       -1   -1    0    0    0  501  0.00000000000E+00  0.00000000000E+00  0.11009945886E+04  0.11009945886E+04  0.50400001928E-02 0.  1.
        1   -1    0    0  501    0  0.00000000000E+00  0.00000000000E+00 -0.65647168447E+03  0.65647168449E+03  0.50400001928E-02 0. -1.
    10030    2    1    2    0    0  0.00000000000E+00  0.00000000000E+00  0.44452290411E+03  0.17574662731E+04  0.17003197019E+04 0.  0.
        4    1    3    3  502    0  0.12961937659E+03  0.75395372209E+03  0.60556576367E+03  0.97568381398E+03  0.12699999809E+01 0. -1.
       -4    1    3    3    0  502 -0.12961937659E+03 -0.75395372209E+03 -0.16104285956E+03  0.78178245910E+03  0.12699999809E+01 0.  1.
</event>
<event>
 5   0  0.2987859E-05  0.1695235E+04  0.7818609E-02  0.8764087E-01
        1   -1    0    0  501    0  0.00000000000E+00  0.00000000000E+00  0.31094147700E+04  0.31094147700E+04  0.50400001928E-02 0. -1.
       -1   -1    0    0    0  501  0.00000000000E+00  0.00000000000E+00 -0.23105805971E+03  0.23105805976E+03  0.50400001928E-02 0.  1.
    10030    2    1    2    0    0  0.00000000000E+00  0.00000000000E+00  0.28783567103E+04  0.33404728298E+04  0.16952349025E+04 0.  0.
        5    1    3    3  502    0  0.28914825270E+03 -0.13442123812E+03  0.29866947842E+04  0.30036716873E+04  0.46999998093E+01 0. -1.
       -5    1    3    3    0  502 -0.28914825270E+03  0.13442123812E+03 -0.10833807391E+03  0.33680114244E+03  0.46999998093E+01 0.  1.
</event>
<event>
 5   0  0.5652631E-05  0.1700165E+04  0.7818609E-02  0.8761270E-01
       -2   -1    0    0    0  501  0.00000000000E+00  0.00000000000E+00  0.54409046529E+03  0.54409046530E+03  0.25500000920E-02 0. -1.
        2   -1    0    0  501    0  0.00000000000E+00  0.00000000000E+00 -0.13281623082E+04  0.13281623082E+04  0.25500000920E-02 0.  1.
    10030    2    1    2    0    0  0.00000000000E+00  0.00000000000E+00 -0.78407184291E+03  0.18722527735E+04  0.17001652252E+04 0.  0.
        2    1    3    3  502    0  0.15411371143E+03 -0.83582489283E+03 -0.41066444206E+03  0.94392773638E+03  0.25500000920E-02 0. -1.
       -2    1    3    3    0  502 -0.15411371143E+03  0.83582489283E+03 -0.37340740085E+03  0.92832503712E+03  0.25500000920E-02 0.  1.
</event>
<event>
 5   0  0.2911632E-05  0.1699855E+04  0.7818609E-02  0.8761447E-01
        1   -1    0    0  501    0  0.00000000000E+00  0.00000000000E+00  0.91022534533E+03  0.91022534534E+03  0.50400001928E-02 0. -1.
       -1   -1    0    0    0  501  0.00000000000E+00  0.00000000000E+00 -0.79362419095E+03  0.79362419097E+03  0.50400001928E-02 0.  1.
    10030    2    1    2    0    0  0.00000000000E+00  0.00000000000E+00  0.11660115438E+03  0.17038495363E+04  0.16998551153E+04 0.  0.
        1    1    3    3  502    0 -0.58994981195E+02  0.53535648484E+03 -0.60073197719E+03  0.80682456712E+03  0.50400001928E-02 0.  1.
       -1    1    3    3    0  502  0.58994981195E+02 -0.53535648484E+03  0.71733313157E+03  0.89702496918E+03  0.50400001928E-02 0. -1.
</event>
<event>
 5   0  0.2967704E-05  0.1699900E+04  0.7818609E-02  0.8761421E-01
        1   -1    0    0  501    0  0.00000000000E+00  0.00000000000E+00  0.99393068623E+03  0.99393068624E+03  0.50400001928E-02 0. -1.
       -1   -1    0    0    0  501  0.00000000000E+00  0.00000000000E+00 -0.72682667586E+03  0.72682667587E+03  0.50400001928E-02 0.  1.
    10030    2    1    2    0    0  0.00000000000E+00  0.00000000000E+00  0.26710401037E+03  0.17207573621E+04  0.16999003932E+04 0.  0.
        2    1    3    3  502    0  0.75371220741E+02 -0.26359755338E+03  0.94794208575E+03  0.98679212046E+03  0.25500000920E-02 0. -1.
       -2    1    3    3    0  502 -0.75371220741E+02  0.26359755338E+03 -0.68083807538E+03  0.73396524165E+03  0.25500000920E-02 0.  1.
</event>
<event>
 5   0  0.5859822E-05  0.1698877E+04  0.7818609E-02  0.8762005E-01
        2   -1    0    0  501    0  0.00000000000E+00  0.00000000000E+00  0.84053115502E+03  0.84053115502E+03  0.25500000920E-02 0. -1.
       -2   -1    0    0    0  501  0.00000000000E+00  0.00000000000E+00 -0.85844003364E+03  0.85844003365E+03  0.25500000920E-02 0.  1.
    10030    2    1    2    0    0  0.00000000000E+00  0.00000000000E+00 -0.17908878625E+02  0.16989711887E+04  0.16988767972E+04 0.  0.
        5    1    3    3  502    0  0.27965777221E+03 -0.49956214163E+03 -0.63648647514E+03  0.85610041814E+03  0.46999998093E+01 0.  1.
       -5    1    3    3    0  502 -0.27965777221E+03  0.49956214163E+03  0.61857759652E+03  0.84287077053E+03  0.46999998093E+01 0. -1.
</event>
<event>
 5   0  0.5755321E-05  0.1699464E+04  0.7818609E-02  0.8761670E-01
        2   -1    0    0  501    0  0.00000000000E+00  0.00000000000E+00  0.92342417702E+03  0.92342417703E+03  0.25500000920E-02 0.  1.
       -2   -1    0    0    0  501  0.00000000000E+00  0.00000000000E+00 -0.78192112036E+03  0.78192112037E+03  0.25500000920E-02 0. -1.
    10030    2    1    2    0    0  0.00000000000E+00  0.00000000000E+00  0.14150305666E+03  0.17053452974E+04  0.16994644652E+04 0.  0.
        4    1    3    3  502    0  0.14175578401E+03 -0.40627134819E+03 -0.66451325325E+03  0.79166317794E+03  0.12699999809E+01 0. -1.
       -4    1    3    3    0  502 -0.14175578401E+03  0.40627134819E+03  0.80601630991E+03  0.91368211945E+03  0.12699999809E+01 0.  1.
</event>
<event>
 5   0  0.2967704E-05  0.1697431E+04  0.7818609E-02  0.8762831E-01
        1   -1    0    0  501    0  0.00000000000E+00  0.00000000000E+00  0.20854094845E+04  0.20854094845E+04  0.50400001928E-02 0. -1.
       -1   -1    0    0    0  501  0.00000000000E+00  0.00000000000E+00 -0.34540835188E+03  0.34540835192E+03  0.50400001928E-02 0.  1.
    10030    2    1    2    0    0  0.00000000000E+00  0.00000000000E+00  0.17400011326E+04  0.24308178364E+04  0.16974308270E+04 0.  0.
        2    1    3    3  502    0 -0.73291546385E+03 -0.40485460090E+03  0.10686673428E+04  0.13576163724E+04  0.25500000920E-02 0. -1.
       -2    1    3    3    0  502  0.73291546385E+03  0.40485460090E+03  0.67133378980E+03  0.10732014640E+04  0.25500000920E-02 0.  1.
</event>
<event>
 5   0  0.2993769E-05  0.1699641E+04  0.7818609E-02  0.8761569E-01
       -1   -1    0    0    0  501  0.00000000000E+00  0.00000000000E+00  0.82852514903E+03  0.82852514904E+03  0.50400001928E-02 0. -1.
        1   -1    0    0  501    0  0.00000000000E+00  0.00000000000E+00 -0.87166350105E+03  0.87166350107E+03  0.50400001928E-02 0.  1.
    10030    2    1    2    0    0  0.00000000000E+00  0.00000000000E+00 -0.43138352024E+02  0.17001886501E+04  0.16996412941E+04 0.  0.
        3    1    3    3  502    0  0.77944068479E+03  0.92173476309E+02  0.30437527541E+03  0.84182423898E+03  0.10100000352E+00 0. -1.
       -3    1    3    3    0  502 -0.77944068479E+03 -0.92173476309E+02 -0.34751362744E+03  0.85836441113E+03  0.10100000352E+00 0.  1.
</event>
<event>
 5   0  0.2967704E-05  0.1725117E+04  0.7818609E-02  0.8747168E-01
       -1   -1    0    0    0  501  0.00000000000E+00  0.00000000000E+00  0.36791798929E+03  0.36791798933E+03  0.50400001928E-02 0.  1.
        1   -1    0    0  501    0  0.00000000000E+00  0.00000000000E+00 -0.20222087673E+04  0.20222087673E+04  0.50400001928E-02 0. -1.
    10030    2    1    2    0    0  0.00000000000E+00  0.00000000000E+00 -0.16542907780E+04  0.23901267566E+04  0.17251167887E+04 0.  0.
        2    1    3    3  502    0 -0.74711069260E+03 -0.43067556570E+03 -0.80118261562E+03  0.11770936299E+04  0.25500000920E-02 0.  1.
       -2    1    3    3    0  502  0.74711069260E+03  0.43067556570E+03 -0.85310816236E+03  0.12130331267E+04  0.25500000920E-02 0. -1.
</event>
<event>
 5   0  0.5671132E-05  0.1742783E+04  0.7818609E-02  0.8737333E-01
        2   -1    0    0  501    0  0.00000000000E+00  0.00000000000E+00  0.12017360568E+04  0.12017360568E+04  0.25500000920E-02 0. -1.
       -2   -1    0    0    0  501  0.00000000000E+00  0.00000000000E+00 -0.63185483366E+03  0.63185483366E+03  0.25500000920E-02 0.  1.
    10030    2    1    2    0    0  0.00000000000E+00  0.00000000000E+00  0.56988122311E+03  0.18335908904E+04  0.17427825295E+04 0.  0.
        3    1    3    3  502    0 -0.69873379474E+03  0.49451068636E+03  0.45638211672E+03  0.97007957482E+03  0.10100000352E+00 0. -1.
       -3    1    3    3    0  502  0.69873379474E+03 -0.49451068636E+03  0.11349910639E+03  0.86351131561E+03  0.10100000352E+00 0.  1.
</event>
<event>
 5   0  0.2098250E-05  0.1703236E+04  0.7818609E-02  0.8759521E-01
       -3   -1    0    0    0  501  0.00000000000E+00  0.00000000000E+00  0.17771559245E+04  0.17771559274E+04  0.10100000352E+00 0. -1.
        3   -1    0    0  501    0  0.00000000000E+00  0.00000000000E+00 -0.40809774854E+03  0.40809776104E+03  0.10100000352E+00 0.  1.
    10030    2    1    2    0    0  0.00000000000E+00  0.00000000000E+00  0.13690581759E+04  0.21852536884E+04  0.17032361532E+04 0.  0.
        2    1    3    3  502    0 -0.49396419390E+03  0.40963608406E+03  0.14028389454E+04  0.15426468983E+04  0.25500000920E-02 0. -1.
       -2    1    3    3    0  502  0.49396419390E+03 -0.40963608406E+03 -0.33780769465E+02  0.64260679005E+03  0.25500000920E-02 0.  1.
</event>
<event>
 5   0  0.2966258E-05  0.1693951E+04  0.7818609E-02  0.8764822E-01
       -1   -1    0    0    0  501  0.00000000000E+00  0.00000000000E+00  0.45583050647E+03  0.45583050649E+03  0.50400001928E-02 0.  1.
        1   -1    0    0  501    0  0.00000000000E+00  0.00000000000E+00 -0.15737596457E+04  0.15737596457E+04  0.50400001928E-02 0. -1.
    10030    2    1    2    0    0  0.00000000000E+00  0.00000000000E+00 -0.11179291393E+04  0.20295901522E+04  0.16939511875E+04 0.  0.
        4    1    3    3  502    0 -0.35723893848E+03 -0.68787990733E+02  0.35744751272E+03  0.51002135650E+03  0.12699999809E+01 0.  1.
       -4    1    3    3    0  502  0.35723893848E+03  0.68787990733E+02 -0.14753766520E+04  0.15195687957E+04  0.12699999809E+01 0. -1.
</event>
<event>
 5   0  0.2993769E-05  0.1698464E+04  0.7818609E-02  0.8762241E-01
        1   -1    0    0  501    0  0.00000000000E+00  0.00000000000E+00  0.21618967138E+04  0.21618967139E+04  0.50400001928E-02 0. -1.
       -1   -1    0    0    0  501  0.00000000000E+00  0.00000000000E+00 -0.33359359646E+03  0.33359359650E+03  0.50400001928E-02 0.  1.
    10030    2    1    2    0    0  0.00000000000E+00  0.00000000000E+00  0.18283031174E+04  0.24954903103E+04  0.16984638942E+04 0.  0.
        3    1    3    3  502    0 -0.63303519559E+03  0.46619805156E+03  0.44233572519E+03  0.90207266122E+03  0.10100000352E+00 0.  1.
       -3    1    3    3    0  502  0.63303519559E+03 -0.46619805156E+03  0.13859673922E+04  0.15934176491E+04  0.10100000352E+00 0. -1.
</event>
<event>
 5   0  0.5821584E-05  0.1701102E+04  0.7818609E-02  0.8760736E-01
       -2   -1    0    0    0  501  0.00000000000E+00  0.00000000000E+00  0.81424846884E+03  0.81424846884E+03  0.25500000920E-02 0. -1.
        2   -1    0    0  501    0  0.00000000000E+00  0.00000000000E+00 -0.88847239072E+03  0.88847239073E+03  0.25500000920E-02 0.  1.
    10030    2    1    2    0    0  0.00000000000E+00  0.00000000000E+00 -0.74223921886E+02  0.17027208596E+04  0.17011023294E+04 0.  0.
        1    1    3    3  502    0 -0.31947035927E+03 -0.39407138850E+03 -0.72046476562E+03  0.88114870947E+03  0.50400001928E-02 0.  1.
       -1    1    3    3    0  502  0.31947035927E+03  0.39407138850E+03  0.64624084373E+03  0.82157215010E+03  0.50400001928E-02 0. -1.
</event>
<event>
 5   0  0.2911632E-05  0.1711195E+04  0.7818609E-02  0.8755005E-01
       -1   -1    0    0    0  501  0.00000000000E+00  0.00000000000E+00  0.51903428316E+03  0.51903428319E+03  0.50400001928E-02 0.  1.
        1   -1    0    0  501    0  0.00000000000E+00  0.00000000000E+00 -0.14104023749E+04  0.14104023749E+04  0.50400001928E-02 0. -1.
    10030    2    1    2    0    0  0.00000000000E+00  0.00000000000E+00 -0.89136809175E+03  0.19294366581E+04  0.17111951211E+04 0.  0.
        1    1    3    3  502    0  0.10865176151E+03  0.76074762143E+03 -0.21536516475E+02  0.76876912683E+03  0.50400001928E-02 0.  1.
       -1    1    3    3    0  502 -0.10865176151E+03 -0.76074762143E+03 -0.86983157527E+03  0.11606675313E+04  0.50400001928E-02 0. -1.
</event>
<event>
 5   0  0.5671132E-05  0.1698143E+04  0.7818609E-02  0.8762424E-01
       -2   -1    0    0    0  501  0.00000000000E+00  0.00000000000E+00  0.65887836576E+03  0.65887836576E+03  0.25500000920E-02 0. -1.
        2   -1    0    0  501    0  0.00000000000E+00  0.00000000000E+00 -0.10941665259E+04  0.10941665259E+04  0.25500000920E-02 0.  1.
    10030    2    1    2    0    0  0.00000000000E+00  0.00000000000E+00 -0.43528816017E+03  0.17530448917E+04  0.16981432831E+04 0.  0.
        3    1    3    3  502    0  0.34947524418E+03 -0.25742731035E+03  0.53568897631E+03  0.68946679104E+03  0.10100000352E+00 0. -1.
       -3    1    3    3    0  502 -0.34947524418E+03  0.25742731035E+03 -0.97097713648E+03  0.10635781006E+04  0.10100000352E+00 0.  1.
</event>
<event>
 5   0  0.5671132E-05  0.1700391E+04  0.7818609E-02  0.8761142E-01
        2   -1    0    0  501    0  0.00000000000E+00  0.00000000000E+00  0.11095966704E+04  0.11095966704E+04  0.25500000920E-02 0.  1.
       -2   -1    0    0    0  501  0.00000000000E+00  0.00000000000E+00 -0.65143674336E+03  0.65143674337E+03  0.25500000920E-02 0. -1.
    10030    2    1    2    0    0  0.00000000000E+00  0.00000000000E+00  0.45815992699E+03  0.17610334137E+04  0.17003905921E+04 0.  0.
        3    1    3    3  502    0  0.23344263248E+03  0.79942390454E+03  0.40622995743E+03  0.92660500232E+03  0.10100000352E+00 0.  1.
       -3    1    3    3    0  502 -0.23344263248E+03 -0.79942390454E+03  0.51929969553E+02  0.83442841140E+03  0.10100000352E+00 0. -1.
</event>
<event>
 5   0  0.5755321E-05  0.1707533E+04  0.7818609E-02  0.8757079E-01
       -2   -1    0    0    0  501  0.00000000000E+00  0.00000000000E+00  0.35184415114E+03  0.35184415115E+03  0.25500000920E-02 0.  1.
        2   -1    0    0  501    0  0.00000000000E+00  0.00000000000E+00 -0.20717055227E+04  0.20717055227E+04  0.25500000920E-02 0. -1.
    10030    2    1    2    0    0  0.00000000000E+00  0.00000000000E+00 -0.17198613715E+04  0.24235496738E+04  0.17075332747E+04 0.  0.
        4    1    3    3  502    0  0.44537458902E+03 -0.21841987174E+03  0.12632361455E+03  0.51188380850E+03  0.12699999809E+01 0.  1.
       -4    1    3    3    0  502 -0.44537458902E+03  0.21841987174E+03 -0.18461849861E+04  0.19116658653E+04  0.12699999809E+01 0. -1.
</event>
<event>
 5   0  0.2993769E-05  0.1698460E+04  0.7818609E-02  0.8762243E-01
        1   -1    0    0  501    0  0.00000000000E+00  0.00000000000E+00  0.11504345441E+04  0.11504345441E+04  0.50400001928E-02 0.  1.
       -1   -1    0    0    0  501  0.00000000000E+00  0.00000000000E+00 -0.62688618931E+03  0.62688618933E+03  0.50400001928E-02 0. -1.
    10030    2    1    2    0    0  0.00000000000E+00  0.00000000000E+00  0.52354835482E+03  0.17773207335E+04  0.16984599229E+04 0.  0.
        3    1    3    3  502    0 -0.52736015401E+03  0.36228491931E+03  0.84612160672E+03  0.10607925708E+04  0.10100000352E+00 0.  1.
       -3    1    3    3    0  502  0.52736015401E+03 -0.36228491931E+03 -0.32257325190E+03  0.71652816263E+03  0.10100000352E+00 0. -1.
</event>
<event>
 5   0  0.5755321E-05  0.1701347E+04  0.7818609E-02  0.8760597E-01
        2   -1    0    0  501    0  0.00000000000E+00  0.00000000000E+00  0.14758649854E+04  0.14758649854E+04  0.25500000920E-02 0.  1.
       -2   -1    0    0    0  501  0.00000000000E+00  0.00000000000E+00 -0.49031946140E+03  0.49031946140E+03  0.25500000920E-02 0. -1.
    10030    2    1    2    0    0  0.00000000000E+00  0.00000000000E+00  0.98554552404E+03  0.19661844469E+04  0.17013469073E+04 0.  0.
        4    1    3    3  502    0 -0.33873637711E+03  0.77008001555E+03  0.63839620938E+03  0.10560856483E+04  0.12699999809E+01 0.  1.
       -4    1    3    3    0  502  0.33873637711E+03 -0.77008001555E+03  0.34714931467E+03  0.91009879854E+03  0.12699999809E+01 0. -1.
</event>
<event>
 5   0  0.2987859E-05  0.1690753E+04  0.7818609E-02  0.8766656E-01
        1   -1    0    0  501    0  0.00000000000E+00  0.00000000000E+00  0.11143918051E+04  0.11143918051E+04  0.50400001928E-02 0.  1.
       -1   -1    0    0    0  501  0.00000000000E+00  0.00000000000E+00 -0.64130154210E+03  0.64130154212E+03  0.50400001928E-02 0. -1.
    10030    2    1    2    0    0  0.00000000000E+00  0.00000000000E+00  0.47309026302E+03  0.17556933472E+04  0.16907527118E+04 0.  0.
        5    1    3    3  502    0  0.17097664515E+03  0.72232676575E+03  0.65662003804E+03  0.99104032918E+03  0.46999998093E+01 0.  1.
       -5    1    3    3    0  502 -0.17097664515E+03 -0.72232676575E+03 -0.18352977502E+03  0.76465301806E+03  0.46999998093E+01 0. -1.
</event>
<event>
 5   0  0.5821584E-05  0.1702232E+04  0.7818609E-02  0.8760092E-01
       -2   -1    0    0    0  501  0.00000000000E+00  0.00000000000E+00  0.35381641530E+03  0.35381641531E+03  0.25500000920E-02 0. -1.
        2   -1    0    0  501    0  0.00000000000E+00  0.00000000000E+00 -0.20473862292E+04  0.20473862292E+04  0.25500000920E-02 0.  1.
    10030    2    1    2    0    0  0.00000000000E+00  0.00000000000E+00 -0.16935698139E+04  0.24012026445E+04  0.17022324828E+04 0.  0.
        1    1    3    3  502    0  0.31490916267E+03  0.75040426162E+03 -0.49519090178E+03  0.95262183778E+03  0.50400001928E-02 0. -1.
       -1    1    3    3    0  502 -0.31490916267E+03 -0.75040426162E+03 -0.11983789121E+04  0.14485808067E+04  0.50400001928E-02 0.  1.
</event>
<event>
 5   0  0.2967704E-05  0.1704491E+04  0.7818609E-02  0.8758807E-01
       -1   -1    0    0    0  501  0.00000000000E+00  0.00000000000E+00  0.41877736260E+03  0.41877736263E+03  0.50400001928E-02 0. -1.
        1   -1    0    0  501    0  0.00000000000E+00  0.00000000000E+00 -0.17343873991E+04  0.17343873991E+04  0.50400001928E-02 0.  1.
    10030    2    1    2    0    0  0.00000000000E+00  0.00000000000E+00 -0.13156100365E+04  0.21531647618E+04  0.17044907518E+04 0.  0.
        2    1    3    3  502    0 -0.47479433041E+03  0.29114120127E+03  0.15708083002E+03  0.57867714871E+03  0.25500000920E-02 0. -1.
       -2    1    3    3    0  502  0.47479433041E+03 -0.29114120127E+03 -0.14726908666E+04  0.15744876131E+04  0.25500000920E-02 0.  1.
</event>
<event>
 5   0  0.5859822E-05  0.1699976E+04  0.7818609E-02  0.8761378E-01
       -2   -1    0    0    0  501  0.00000000000E+00  0.00000000000E+00  0.68454146504E+03  0.68454146505E+03  0.25500000920E-02 0.  1.
        2   -1    0    0  501    0  0.00000000000E+00  0.00000000000E+00 -0.10554210978E+04  0.10554210978E+04  0.25500000920E-02 0. -1.
    10030    2    1    2    0    0  0.00000000000E+00  0.00000000000E+00 -0.37087963280E+03  0.17399625629E+04  0.16999758875E+04 0.  0.
        5    1    3    3  502    0 -0.24329992507E+01 -0.62280389967E+03 -0.77746279335E+03  0.99617322890E+03  0.46999998093E+01 0. -1.
       -5    1    3    3    0  502  0.24329992507E+01  0.62280389967E+03  0.40658316055E+03  0.74378933400E+03  0.46999998093E+01 0.  1.
</event>
<event>
 5   0  0.2993769E-05  0.1699243E+04  0.7818609E-02  0.8761796E-01
       -1   -1    0    0    0  501  0.00000000000E+00  0.00000000000E+00  0.60958231804E+03  0.60958231806E+03  0.50400001928E-02 0.  1.
        1   -1    0    0  501    0  0.00000000000E+00  0.00000000000E+00 -0.11841825992E+04  0.11841825993E+04  0.50400001928E-02 0. -1.
    10030    2    1    2    0    0  0.00000000000E+00  0.00000000000E+00 -0.57460028120E+03  0.17937649173E+04  0.16992430949E+04 0.  0.
        3    1    3    3  502    0  0.39295914118E+03 -0.58742258769E+03  0.21049721235E+03  0.73742204318E+03  0.10100000352E+00 0.  1.
       -3    1    3    3    0  502 -0.39295914118E+03  0.58742258769E+03 -0.78509749355E+03  0.10563428741E+04  0.10100000352E+00 0. -1.
</event>
<event>
 5   0  0.2993769E-05  0.1714002E+04  0.7818609E-02  0.8753418E-01
       -1   -1    0    0    0  501  0.00000000000E+00  0.00000000000E+00  0.86491258972E+03  0.86491258974E+03  0.50400001928E-02 0.  1.
        1   -1    0    0  501    0  0.00000000000E+00  0.00000000000E+00 -0.84916212272E+03  0.84916212274E+03  0.50400001928E-02 0. -1.
    10030    2    1    2    0    0  0.00000000000E+00  0.00000000000E+00  0.15750466999E+02  0.17140747125E+04  0.17140023462E+04 0.  0.
        3    1    3    3  502    0 -0.20867473717E+03  0.78417353818E+02  0.83541036636E+03  0.86464149666E+03  0.10100000352E+00 0.  1.
       -3    1    3    3    0  502  0.20867473717E+03 -0.78417353818E+02 -0.81965989936E+03  0.84943321582E+03  0.10100000352E+00 0. -1.
</event>
<event>
 5   0  0.2098250E-05  0.1702154E+04  0.7818609E-02  0.8760137E-01
        3   -1    0    0  501    0  0.00000000000E+00  0.00000000000E+00  0.13725572467E+04  0.13725572504E+04  0.10100000352E+00 0.  1.
       -3   -1    0    0    0  501  0.00000000000E+00  0.00000000000E+00 -0.52772447742E+03  0.52772448708E+03  0.10100000352E+00 0. -1.
    10030    2    1    2    0    0  0.00000000000E+00  0.00000000000E+00  0.84483276924E+03  0.19002817375E+04  0.17021540100E+04 0.  0.
        3    1    3    3  502    0  0.35829024888E+03  0.52432847824E+03 -0.21013903678E+03  0.66891754388E+03  0.10100000352E+00 0. -1.
       -3    1    3    3    0  502 -0.35829024888E+03 -0.52432847824E+03  0.10549718060E+04  0.12313641936E+04  0.10100000352E+00 0.  1.
</event>
<event>
 5   0  0.2993769E-05  0.1693882E+04  0.7818609E-02  0.8764861E-01
        1   -1    0    0  501    0  0.00000000000E+00  0.00000000000E+00  0.92893862770E+03  0.92893862772E+03  0.50400001928E-02 0.  1.
       -1   -1    0    0    0  501  0.00000000000E+00  0.00000000000E+00 -0.77218168650E+03  0.77218168652E+03  0.50400001928E-02 0. -1.
    10030    2    1    2    0    0  0.00000000000E+00  0.00000000000E+00  0.15675694121E+03  0.17011203142E+04  0.16938824000E+04 0.  0.
        3    1    3    3  502    0  0.46277403355E+03 -0.28637114769E+03  0.73010531885E+03  0.91061628976E+03  0.10100000352E+00 0.  1.
       -3    1    3    3    0  502 -0.46277403355E+03  0.28637114769E+03 -0.57334837764E+03  0.79050402447E+03  0.10100000352E+00 0. -1.
</event>
<event>
 5   0  0.2967704E-05  0.1699194E+04  0.7818609E-02  0.8761824E-01
       -1   -1    0    0    0  501  0.00000000000E+00  0.00000000000E+00  0.13434833875E+04  0.13434833875E+04  0.50400001928E-02 0. -1.
        1   -1    0    0  501    0  0.00000000000E+00  0.00000000000E+00 -0.53727110656E+03  0.53727110659E+03  0.50400001928E-02 0.  1.
    10030    2    1    2    0    0  0.00000000000E+00  0.00000000000E+00  0.80621228098E+03  0.18807544941E+04  0.16991936986E+04 0.  0.
        2    1    3    3  502    0  0.28017689240E+03  0.37788180664E+03  0.11861757964E+04  0.12760512414E+04  0.25500000920E-02 0. -1.
       -2    1    3    3    0  502 -0.28017689240E+03 -0.37788180664E+03 -0.37996351538E+03  0.60470325272E+03  0.25500000920E-02 0.  1.
</event>
<event>
 5   0  0.2987859E-05  0.1694313E+04  0.7818609E-02  0.8764614E-01
        1   -1    0    0  501    0  0.00000000000E+00  0.00000000000E+00  0.13628079641E+04  0.13628079641E+04  0.50400001928E-02 0.  1.
       -1   -1    0    0    0  501  0.00000000000E+00  0.00000000000E+00 -0.52661449072E+03  0.52661449074E+03  0.50400001928E-02 0. -1.
    10030    2    1    2    0    0  0.00000000000E+00  0.00000000000E+00  0.83619347342E+03  0.18894224549E+04  0.16943133382E+04 0.  0.
        5    1    3    3  502    0  0.46001799383E+03 -0.63122010973E+03  0.78388968076E+03  0.11065986188E+04  0.46999998093E+01 0.  1.
       -5    1    3    3    0  502 -0.46001799383E+03  0.63122010973E+03  0.52303792654E+02  0.78282383606E+03  0.46999998093E+01 0. -1.
</event>
<event>
 5   0  0.5859822E-05  0.1699689E+04  0.7818609E-02  0.8761542E-01
       -2   -1    0    0    0  501  0.00000000000E+00  0.00000000000E+00  0.40367205312E+03  0.40367205313E+03  0.25500000920E-02 0. -1.
        2   -1    0    0  501    0  0.00000000000E+00  0.00000000000E+00 -0.17891641335E+04  0.17891641335E+04  0.25500000920E-02 0.  1.
    10030    2    1    2    0    0  0.00000000000E+00  0.00000000000E+00 -0.13854920804E+04  0.21928361866E+04  0.16996888646E+04 0.  0.
        5    1    3    3  502    0  0.73983870786E+02  0.62212558664E+03 -0.14335375175E+04  0.15644698025E+04  0.46999998093E+01 0.  1.
       -5    1    3    3    0  502 -0.73983870786E+02 -0.62212558664E+03  0.48045437161E+02  0.62836638415E+03  0.46999998093E+01 0. -1.
</event>
<event>
 5   0  0.2098250E-05  0.1698466E+04  0.7818609E-02  0.8762240E-01
       -3   -1    0    0    0  501  0.00000000000E+00  0.00000000000E+00  0.62693664475E+03  0.62693665289E+03  0.10100000352E+00 0. -1.
        3   -1    0    0  501    0  0.00000000000E+00  0.00000000000E+00 -0.11503498329E+04  0.11503498374E+04  0.10100000352E+00 0.  1.
    10030    2    1    2    0    0  0.00000000000E+00  0.00000000000E+00 -0.52341318818E+03  0.17772864903E+04  0.16984657497E+04 0.  0.
        2    1    3    3  502    0  0.35985275423E+03 -0.40650889550E+03  0.42163243680E+03  0.68739900976E+03  0.25500000920E-02 0.  1.
       -2    1    3    3    0  502 -0.35985275423E+03  0.40650889550E+03 -0.94504562498E+03  0.10898874805E+04  0.25500000920E-02 0. -1.
</event>
<event>
 5   0  0.5821584E-05  0.1694506E+04  0.7818609E-02  0.8764504E-01
       -2   -1    0    0    0  501  0.00000000000E+00  0.00000000000E+00  0.44470200554E+03  0.44470200555E+03  0.25500000920E-02 0.  1.
        2   -1    0    0  501    0  0.00000000000E+00  0.00000000000E+00 -0.16141997670E+04  0.16141997670E+04  0.25500000920E-02 0. -1.
    10030    2    1    2    0    0  0.00000000000E+00  0.00000000000E+00 -0.11694977615E+04  0.20589017726E+04  0.16945062688E+04 0.  0.
        1    1    3    3  502    0 -0.31317568261E+03  0.33126878091E+03 -0.14524816362E+04  0.15223406048E+04  0.50400001928E-02 0. -1.
       -1    1    3    3    0  502  0.31317568261E+03 -0.33126878091E+03  0.28298387474E+03  0.53656116779E+03  0.50400001928E-02 0.  1.
</event>
<event>
 5   0  0.2911632E-05  0.1722058E+04  0.7818609E-02  0.8748883E-01
       -1   -1    0    0    0  501  0.00000000000E+00  0.00000000000E+00  0.54246486005E+03  0.54246486008E+03  0.50400001928E-02 0.  1.
        1   -1    0    0  501    0  0.00000000000E+00  0.00000000000E+00 -0.13666704928E+04  0.13666704928E+04  0.50400001928E-02 0. -1.
    10030    2    1    2    0    0  0.00000000000E+00  0.00000000000E+00 -0.82420563273E+03  0.19091353529E+04  0.17220577431E+04 0.  0.
        1    1    3    3  502    0 -0.90871785626E+02 -0.81883504174E+03 -0.68953267924E+03  0.10743387840E+04  0.50400001928E-02 0. -1.
       -1    1    3    3    0  502  0.90871785626E+02  0.81883504174E+03 -0.13467295349E+03  0.83479656889E+03  0.50400001928E-02 0.  1.
</event>
<event>
 5   0  0.5755321E-05  0.1699680E+04  0.7818609E-02  0.8761547E-01
       -2   -1    0    0    0  501  0.00000000000E+00  0.00000000000E+00  0.44041043252E+03  0.44041043253E+03  0.25500000920E-02 0.  1.
        2   -1    0    0  501    0  0.00000000000E+00  0.00000000000E+00 -0.16398969503E+04  0.16398969503E+04  0.25500000920E-02 0. -1.
    10030    2    1    2    0    0  0.00000000000E+00  0.00000000000E+00 -0.11994865178E+04  0.20803073828E+04  0.16996796465E+04 0.  0.
        4    1    3    3  502    0 -0.28835727646E+03 -0.22019441245E+03 -0.15403405137E+04  0.15824936048E+04  0.12699999809E+01 0. -1.
       -4    1    3    3    0  502  0.28835727646E+03  0.22019441245E+03  0.34085399592E+03  0.49781377803E+03  0.12699999809E+01 0.  1.
</event>
<event>
 5   0  0.5671132E-05  0.1698867E+04  0.7818609E-02  0.8762011E-01
       -2   -1    0    0    0  501  0.00000000000E+00  0.00000000000E+00  0.47449913033E+03  0.47449913033E+03  0.25500000920E-02 0.  1.
        2   -1    0    0  501    0  0.00000000000E+00  0.00000000000E+00 -0.15206300998E+04  0.15206300999E+04  0.25500000920E-02 0. -1.
    10030    2    1    2    0    0  0.00000000000E+00  0.00000000000E+00 -0.10461309695E+04  0.19951292302E+04  0.16988674580E+04 0.  0.
        3    1    3    3  502    0 -0.33745904227E+02  0.70339622643E+03  0.34778134333E+02  0.70506351930E+03  0.10100000352E+00 0. -1.
       -3    1    3    3    0  502  0.33745904227E+02 -0.70339622643E+03 -0.10809091039E+04  0.12900657109E+04  0.10100000352E+00 0.  1.
</event>
<event>
 5   0  0.2993769E-05  0.1702266E+04  0.7818609E-02  0.8760073E-01
        1   -1    0    0  501    0  0.00000000000E+00  0.00000000000E+00  0.14129062362E+04  0.14129062363E+04  0.50400001928E-02 0. -1.
       -1   -1    0    0    0  501  0.00000000000E+00  0.00000000000E+00 -0.51272161474E+03  0.51272161477E+03  0.50400001928E-02 0.  1.
    10030    2    1    2    0    0  0.00000000000E+00  0.00000000000E+00  0.90018462150E+03  0.19256278510E+04  0.17022662153E+04 0.  0.
        3    1    3    3  502    0 -0.26340695137E+03  0.65820859253E+03 -0.82667323112E+02  0.71376163376E+03  0.10100000352E+00 0.  1.
       -3    1    3    3    0  502  0.26340695137E+03 -0.65820859253E+03  0.98285194462E+03  0.12118662173E+04  0.10100000352E+00 0. -1.
</event>
<event>
 5   0  0.2987859E-05  0.1699773E+04  0.7818609E-02  0.8761494E-01
        1   -1    0    0  501    0  0.00000000000E+00  0.00000000000E+00  0.15420938247E+04  0.15420938247E+04  0.50400001928E-02 0.  1.
       -1   -1    0    0    0  501  0.00000000000E+00  0.00000000000E+00 -0.46839397708E+03  0.46839397711E+03  0.50400001928E-02 0. -1.
    10030    2    1    2    0    0  0.00000000000E+00  0.00000000000E+00  0.10736998476E+04  0.20104878018E+04  0.16997734668E+04 0.  0.
        5    1    3    3  502    0 -0.90527383535E+02  0.84489722375E+03  0.51857029633E+03  0.99548167643E+03  0.46999998093E+01 0.  1.
       -5    1    3    3    0  502  0.90527383535E+02 -0.84489722375E+03  0.55512955130E+03  0.10150061254E+04  0.46999998093E+01 0. -1.
</event>
<event>
 5   0  0.2966258E-05  0.1699119E+04  0.7818609E-02  0.8761867E-01
       -1   -1    0    0    0  501  0.00000000000E+00  0.00000000000E+00  0.47671936118E+03  0.47671936121E+03  0.50400001928E-02 0.  1.
        1   -1    0    0  501    0  0.00000000000E+00  0.00000000000E+00 -0.15139966554E+04  0.15139966554E+04  0.50400001928E-02 0. -1.
    10030    2    1    2    0    0  0.00000000000E+00  0.00000000000E+00 -0.10372772942E+04  0.19907160166E+04  0.16991192053E+04 0.  0.
        4    1    3    3  502    0 -0.60495306874E+03  0.50416395294E+03 -0.89208925270E+03  0.11899472066E+04  0.12699999809E+01 0. -1.
       -4    1    3    3    0  502  0.60495306874E+03 -0.50416395294E+03 -0.14518804154E+03  0.80076881004E+03  0.12699999809E+01 0.  1.
</event>
<event>
 5   0  0.5859822E-05  0.1702370E+04  0.7818609E-02  0.8760014E-01
        2   -1    0    0  501    0  0.00000000000E+00  0.00000000000E+00  0.53687279999E+03  0.53687280000E+03  0.25500000920E-02 0. -1.
       -2   -1    0    0    0  501  0.00000000000E+00  0.00000000000E+00 -0.13495106860E+04  0.13495106860E+04  0.25500000920E-02 0.  1.
    10030    2    1    2    0    0  0.00000000000E+00  0.00000000000E+00 -0.81263788599E+03  0.18863834860E+04  0.17023696198E+04 0.  0.
        5    1    3    3  502    0 -0.26812832559E+03  0.65429972248E+03 -0.93134046462E+03  0.11693665280E+04  0.46999998093E+01 0.  1.
       -5    1    3    3    0  502  0.26812832559E+03 -0.65429972248E+03  0.11870257863E+03  0.71701695796E+03  0.46999998093E+01 0. -1.
</event>
<event>
 5   0  0.5652631E-05  0.1704054E+04  0.7818609E-02  0.8759056E-01
       -2   -1    0    0    0  501  0.00000000000E+00  0.00000000000E+00  0.66548517871E+03  0.66548517871E+03  0.25500000920E-02 0. -1.
        2   -1    0    0  501    0  0.00000000000E+00  0.00000000000E+00 -0.10908583284E+04  0.10908583284E+04  0.25500000920E-02 0.  1.
    10030    2    1    2    0    0  0.00000000000E+00  0.00000000000E+00 -0.42537314966E+03  0.17563435071E+04  0.17040540480E+04 0.  0.
        2    1    3    3  502    0  0.12249912207E+03 -0.83983768384E+03 -0.13544236846E+03  0.85946378940E+03  0.25500000920E-02 0. -1.
       -2    1    3    3    0  502 -0.12249912207E+03  0.83983768384E+03 -0.28993078120E+03  0.89687971769E+03  0.25500000920E-02 0.  1.
</event>
<event>
 5   0  0.5671132E-05  0.1699293E+04  0.7818609E-02  0.8761768E-01
        2   -1    0    0  501    0  0.00000000000E+00  0.00000000000E+00  0.91895292353E+03  0.91895292353E+03  0.25500000920E-02 0. -1.
       -2   -1    0    0    0  501  0.00000000000E+00  0.00000000000E+00 -0.78556714861E+03  0.78556714861E+03  0.25500000920E-02 0.  1.
    10030    2    1    2    0    0  0.00000000000E+00  0.00000000000E+00  0.13338577492E+03  0.17045200721E+04  0.16992930622E+04 0.  0.
        3    1    3    3  502    0 -0.21431889388E+03 -0.58980430611E+03  0.64125277477E+03  0.89722173354E+03  0.10100000352E+00 0. -1.
       -3    1    3    3    0  502  0.21431889388E+03  0.58980430611E+03 -0.50786699985E+03  0.80729833861E+03  0.10100000352E+00 0.  1.
</event>
<event>
 5   0  0.5652631E-05  0.1701768E+04  0.7818609E-02  0.8760357E-01
        2   -1    0    0  501    0  0.00000000000E+00  0.00000000000E+00  0.19152599758E+04  0.19152599758E+04  0.25500000920E-02 0. -1.
       -2   -1    0    0    0  501  0.00000000000E+00  0.00000000000E+00 -0.37801822403E+03  0.37801822403E+03  0.25500000920E-02 0.  1.
    10030    2    1    2    0    0  0.00000000000E+00  0.00000000000E+00  0.15372417518E+04  0.22932781998E+04  0.17017675219E+04 0.  0.
        2    1    3    3  502    0  0.48870600172E+03 -0.69622058989E+03  0.79709638374E+03  0.11657269453E+04  0.25500000920E-02 0.  1.
       -2    1    3    3    0  502 -0.48870600172E+03  0.69622058989E+03  0.74014536805E+03  0.11275512546E+04  0.25500000920E-02 0. -1.
</event>
<event>
 5   0  0.5671132E-05  0.1702290E+04  0.7818609E-02  0.8760060E-01
        2   -1    0    0  501    0  0.00000000000E+00  0.00000000000E+00  0.93558256052E+03  0.93558256052E+03  0.25500000920E-02 0.  1.
       -2   -1    0    0    0  501  0.00000000000E+00  0.00000000000E+00 -0.77432768234E+03  0.77432768234E+03  0.25500000920E-02 0. -1.
    10030    2    1    2    0    0  0.00000000000E+00  0.00000000000E+00  0.16125487818E+03  0.17099102429E+04  0.17022896061E+04 0.  0.
        3    1    3    3  502    0  0.58676218280E+03  0.30605483996E+03 -0.45701447125E+03  0.80425223740E+03  0.10100000352E+00 0.  1.
       -3    1    3    3    0  502 -0.58676218280E+03 -0.30605483996E+03  0.61826934943E+03  0.90565800547E+03  0.10100000352E+00 0. -1.
</event>
<event>
 5   0  0.5859822E-05  0.1696944E+04  0.7818609E-02  0.8763109E-01
       -2   -1    0    0    0  501  0.00000000000E+00  0.00000000000E+00  0.56772585078E+03  0.56772585079E+03  0.25500000920E-02 0.  1.
        2   -1    0    0  501    0  0.00000000000E+00  0.00000000000E+00 -0.12680497401E+04  0.12680497401E+04  0.25500000920E-02 0. -1.
    10030    2    1    2    0    0  0.00000000000E+00  0.00000000000E+00 -0.70032388934E+03  0.18357755909E+04  0.16969438618E+04 0.  0.
        5    1    3    3  502    0  0.81458579664E+03  0.21019620302E+03 -0.23091661099E+03  0.87239729199E+03  0.46999998093E+01 0.  1.
       -5    1    3    3    0  502 -0.81458579664E+03 -0.21019620302E+03 -0.46940727835E+03  0.96337829892E+03  0.46999998093E+01 0. -1.
</event>
<event>
 5   0  0.5755321E-05  0.1702240E+04  0.7818609E-02  0.8760088E-01
       -2   -1    0    0    0  501  0.00000000000E+00  0.00000000000E+00  0.45073448918E+03  0.45073448919E+03  0.25500000920E-02 0. -1.
        2   -1    0    0  501    0  0.00000000000E+00  0.00000000000E+00 -0.16071661203E+04  0.16071661203E+04  0.25500000920E-02 0.  1.
    10030    2    1    2    0    0  0.00000000000E+00  0.00000000000E+00 -0.11564316311E+04  0.20579006095E+04  0.17022399364E+04 0.  0.
        4    1    3    3  502    0 -0.29638532814E+02 -0.96795694571E+02 -0.15998609841E+04  0.16030610189E+04  0.12699999809E+01 0.  1.
       -4    1    3    3    0  502  0.29638532814E+02  0.96795694571E+02  0.44342935300E+03  0.45483959053E+03  0.12699999809E+01 0. -1.
</event>
<event>
 5   0  0.5755321E-05  0.1700306E+04  0.7818609E-02  0.8761190E-01
        2   -1    0    0  501    0  0.00000000000E+00  0.00000000000E+00  0.13591182569E+04  0.13591182569E+04  0.25500000920E-02 0. -1.
       -2   -1    0    0    0  501  0.00000000000E+00  0.00000000000E+00 -0.53178626688E+03  0.53178626689E+03  0.25500000920E-02 0.  1.
    10030    2    1    2    0    0  0.00000000000E+00  0.00000000000E+00  0.82733199003E+03  0.18909045238E+04  0.17003063537E+04 0.  0.
        4    1    3    3  502    0 -0.78969440471E+03  0.27742124017E+03  0.57928628455E+03  0.10179165043E+04  0.12699999809E+01 0.  1.
       -4    1    3    3    0  502  0.78969440471E+03 -0.27742124017E+03  0.24804570548E+03  0.87298801952E+03  0.12699999809E+01 0. -1.
</event>
<event>
 5   0  0.2911632E-05  0.1701536E+04  0.7818609E-02  0.8760489E-01
       -1   -1    0    0    0  501  0.00000000000E+00  0.00000000000E+00  0.68092788419E+03  0.68092788420E+03  0.50400001928E-02 0.  1.
        1   -1    0    0  501    0  0.00000000000E+00  0.00000000000E+00 -0.10629700367E+04  0.10629700367E+04  0.50400001928E-02 0. -1.
    10030    2    1    2    0    0  0.00000000000E+00  0.00000000000E+00 -0.38204215253E+03  0.17438979209E+04  0.17015357041E+04 0.  0.
        1    1    3    3  502    0 -0.65098423819E+03 -0.72136853656E+02 -0.74751412199E+03  0.99386194546E+03  0.50400001928E-02 0. -1.
       -1    1    3    3    0  502  0.65098423819E+03  0.72136853656E+02  0.36547196946E+03  0.75003597548E+03  0.50400001928E-02 0.  1.
</event>
<event>
 5   0  0.5652631E-05  0.1705864E+04  0.7818609E-02  0.8758027E-01
       -2   -1    0    0    0  501  0.00000000000E+00  0.00000000000E+00  0.83068207985E+03  0.83068207985E+03  0.25500000920E-02 0. -1.
        2   -1    0    0  501    0  0.00000000000E+00  0.00000000000E+00 -0.87577748503E+03  0.87577748504E+03  0.25500000920E-02 0.  1.
    10030    2    1    2    0    0  0.00000000000E+00  0.00000000000E+00 -0.45095405187E+02  0.17064595649E+04  0.17058636086E+04 0.  0.
        2    1    3    3  502    0  0.78081886885E+03  0.18204844251E+03  0.26854007449E+03  0.84553741075E+03  0.25500000920E-02 0.  1.
       -2    1    3    3    0  502 -0.78081886885E+03 -0.18204844251E+03 -0.31363547967E+03  0.86092215414E+03  0.25500000920E-02 0. -1.
</event>
<event>
 5   0  0.2987859E-05  0.1696157E+04  0.7818609E-02  0.8763559E-01
       -1   -1    0    0    0  501  0.00000000000E+00  0.00000000000E+00  0.57712930830E+03  0.57712930832E+03  0.50400001928E-02 0.  1.
        1   -1    0    0  501    0  0.00000000000E+00  0.00000000000E+00 -0.12462320310E+04  0.12462320310E+04  0.50400001928E-02 0. -1.
    10030    2    1    2    0    0  0.00000000000E+00  0.00000000000E+00 -0.66910272269E+03  0.18233613393E+04  0.16961568678E+04 0.  0.
        5    1    3    3  502    0 -0.84231607857E+03  0.76217569142E+02 -0.40176607245E+03  0.93634585546E+03  0.46999998093E+01 0.  1.
       -5    1    3    3    0  502  0.84231607857E+03 -0.76217569142E+02 -0.26733665024E+03  0.88701548387E+03  0.46999998093E+01 0. -1.
</event>
<event>
 5   0  0.2966258E-05  0.1699912E+04  0.7818609E-02  0.8761414E-01
        1   -1    0    0  501    0  0.00000000000E+00  0.00000000000E+00  0.10104208818E+04  0.10104208818E+04  0.50400001928E-02 0.  1.
       -1   -1    0    0    0  501  0.00000000000E+00  0.00000000000E+00 -0.71497480721E+03  0.71497480723E+03  0.50400001928E-02 0. -1.
    10030    2    1    2    0    0  0.00000000000E+00  0.00000000000E+00  0.29544607454E+03  0.17253956890E+04  0.16999123215E+04 0.  0.
        4    1    3    3  502    0  0.53347448709E+03 -0.62157703236E+03  0.37799589929E+03  0.90212834359E+03  0.12699999809E+01 0.  1.
       -4    1    3    3    0  502 -0.53347448709E+03  0.62157703236E+03 -0.82549824752E+02  0.82326734540E+03  0.12699999809E+01 0. -1.
</event>
<event>
 5   0  0.2987859E-05  0.1701954E+04  0.7818609E-02  0.8760251E-01
        1   -1    0    0  501    0  0.00000000000E+00  0.00000000000E+00  0.15383172524E+04  0.15383172524E+04  0.50400001928E-02 0.  1.
       -1   -1    0    0    0  501  0.00000000000E+00  0.00000000000E+00 -0.47074944654E+03  0.47074944657E+03  0.50400001928E-02 0. -1.
    10030    2    1    2    0    0  0.00000000000E+00  0.00000000000E+00  0.10675678059E+04  0.20090666990E+04  0.17019541653E+04 0.  0.
        5    1    3    3  502    0  0.63317960884E+03 -0.17424461925E+03  0.11726034993E+04  0.13439861089E+04  0.46999998093E+01 0.  1.
       -5    1    3    3    0  502 -0.63317960884E+03  0.17424461925E+03 -0.10503569344E+03  0.66508059007E+03  0.46999998093E+01 0. -1.
</event>
<event>
 5   0  0.5821584E-05  0.1700748E+04  0.7818609E-02  0.8760938E-01
        2   -1    0    0  501    0  0.00000000000E+00  0.00000000000E+00  0.55853296644E+03  0.55853296645E+03  0.25500000920E-02 0.  1.
       -2   -1    0    0    0  501  0.00000000000E+00  0.00000000000E+00 -0.12947054356E+04  0.12947054356E+04  0.25500000920E-02 0. -1.
    10030    2    1    2    0    0  0.00000000000E+00  0.00000000000E+00 -0.73617246915E+03  0.18532384020E+04  0.17007476798E+04 0.  0.
        1    1    3    3  502    0 -0.76333648628E+02  0.60172149458E+02  0.55246008903E+03  0.56094533021E+03  0.50400001928E-02 0.  1.
       -1    1    3    3    0  502  0.76333648628E+02 -0.60172149458E+02 -0.12886325582E+04  0.12922930718E+04  0.50400001928E-02 0. -1.
</event>
<event>
 5   0  0.5671132E-05  0.1702129E+04  0.7818609E-02  0.8760151E-01
       -2   -1    0    0    0  501  0.00000000000E+00  0.00000000000E+00  0.14385167164E+04  0.14385167164E+04  0.25500000920E-02 0.  1.
        2   -1    0    0  501    0  0.00000000000E+00  0.00000000000E+00 -0.50351231551E+03  0.50351231552E+03  0.25500000920E-02 0. -1.
    10030    2    1    2    0    0  0.00000000000E+00  0.00000000000E+00  0.93500440085E+03  0.19420290319E+04  0.17021291170E+04 0.  0.
        3    1    3    3  502    0 -0.59313828423E+02 -0.34542467183E+03  0.13523566535E+04  0.13970343097E+04  0.10100000352E+00 0.  1.
       -3    1    3    3    0  502  0.59313828423E+02  0.34542467183E+03 -0.41735225265E+03  0.54499472213E+03  0.10100000352E+00 0. -1.
</event>
<event>
 5   0  0.5859822E-05  0.1699932E+04  0.7818609E-02  0.8761403E-01
        2   -1    0    0  501    0  0.00000000000E+00  0.00000000000E+00  0.11982727434E+04  0.11982727434E+04  0.25500000920E-02 0.  1.
       -2   -1    0    0    0  501  0.00000000000E+00  0.00000000000E+00 -0.60290321535E+03  0.60290321536E+03  0.25500000920E-02 0. -1.
    10030    2    1    2    0    0  0.00000000000E+00  0.00000000000E+00  0.59536952806E+03  0.18011759588E+04  0.16999323397E+04 0.  0.
        5    1    3    3  502    0  0.57655246240E+02  0.83082812572E+03  0.47756285076E+03  0.96004576366E+03  0.46999998093E+01 0.  1.
       -5    1    3    3    0  502 -0.57655246240E+02 -0.83082812572E+03  0.11780667730E+03  0.84113019511E+03  0.46999998093E+01 0. -1.
</event>
<event>
 5   0  0.2987859E-05  0.1690833E+04  0.7818609E-02  0.8766610E-01
       -1   -1    0    0    0  501  0.00000000000E+00  0.00000000000E+00  0.71325673554E+03  0.71325673556E+03  0.50400001928E-02 0.  1.
        1   -1    0    0  501    0  0.00000000000E+00  0.00000000000E+00 -0.10020638504E+04  0.10020638504E+04  0.50400001928E-02 0. -1.
    10030    2    1    2    0    0  0.00000000000E+00  0.00000000000E+00 -0.28880711487E+03  0.17153205860E+04  0.16908326833E+04 0.  0.
        5    1    3    3  502    0  0.39015258917E+03 -0.45849856363E+03  0.45771287068E+03  0.75628244570E+03  0.46999998093E+01 0.  1.
       -5    1    3    3    0  502 -0.39015258917E+03  0.45849856363E+03 -0.74651998555E+03  0.95903814028E+03  0.46999998093E+01 0. -1.
</event>
<event>
 5   0  0.5671132E-05  0.1699472E+04  0.7818609E-02  0.8761666E-01
       -2   -1    0    0    0  501  0.00000000000E+00  0.00000000000E+00  0.54126363845E+03  0.54126363846E+03  0.25500000920E-02 0.  1.
        2   -1    0    0  501    0  0.00000000000E+00  0.00000000000E+00 -0.13340097796E+04  0.13340097796E+04  0.25500000920E-02 0. -1.
    10030    2    1    2    0    0  0.00000000000E+00  0.00000000000E+00 -0.79274614117E+03  0.18752734181E+04  0.16994716674E+04 0.  0.
        3    1    3    3  502    0  0.46552031212E+03 -0.55192203061E+03 -0.89074089721E+03  0.11466239336E+04  0.10100000352E+00 0. -1.
       -3    1    3    3    0  502 -0.46552031212E+03  0.55192203061E+03  0.97994756042E+02  0.72864948451E+03  0.10100000352E+00 0.  1.
</event>
<event>
 5   0  0.5755321E-05  0.1700625E+04  0.7818609E-02  0.8761008E-01
       -2   -1    0    0    0  501  0.00000000000E+00  0.00000000000E+00  0.89767021315E+03  0.89767021316E+03  0.25500000920E-02 0. -1.
        2   -1    0    0  501    0  0.00000000000E+00  0.00000000000E+00 -0.80545304580E+03  0.80545304580E+03  0.25500000920E-02 0.  1.
    10030    2    1    2    0    0  0.00000000000E+00  0.00000000000E+00  0.92217167351E+02  0.17031232590E+04  0.17006248350E+04 0.  0.
        4    1    3    3  502    0  0.64015950347E+03 -0.18219695636E+03 -0.48384714379E+03  0.82286669166E+03  0.12699999809E+01 0.  1.
       -4    1    3    3    0  502 -0.64015950347E+03  0.18219695636E+03  0.57606431115E+03  0.88025656730E+03  0.12699999809E+01 0. -1.
</event>
<event>
 5   0  0.5859822E-05  0.1699748E+04  0.7818609E-02  0.8761508E-01
        2   -1    0    0  501    0  0.00000000000E+00  0.00000000000E+00  0.87345516790E+03  0.87345516790E+03  0.25500000920E-02 0. -1.
       -2   -1    0    0    0  501  0.00000000000E+00  0.00000000000E+00 -0.82692924750E+03  0.82692924750E+03  0.25500000920E-02 0.  1.
    10030    2    1    2    0    0  0.00000000000E+00  0.00000000000E+00  0.46525920401E+02  0.17003844154E+04  0.16997477751E+04 0.  0.
        5    1    3    3  502    0 -0.48569983273E+03  0.69514782218E+03  0.79218805988E+02  0.85172327162E+03  0.46999998093E+01 0. -1.
       -5    1    3    3    0  502  0.48569983273E+03 -0.69514782218E+03 -0.32692885586E+02  0.84866114378E+03  0.46999998093E+01 0.  1.
</event>
<event>
 5   0  0.2987859E-05  0.1694781E+04  0.7818609E-02  0.8764347E-01
        1   -1    0    0  501    0  0.00000000000E+00  0.00000000000E+00  0.78533467812E+03  0.78533467814E+03  0.50400001928E-02 0. -1.
       -1   -1    0    0    0  501  0.00000000000E+00  0.00000000000E+00 -0.91434987108E+03  0.91434987110E+03  0.50400001928E-02 0.  1.
    10030    2    1    2    0    0  0.00000000000E+00  0.00000000000E+00 -0.12901519296E+03  0.16996845492E+04  0.16947810026E+04 0.  0.
        5    1    3    3  502    0  0.32851799266E+03 -0.71869718668E+03 -0.37133207531E+03  0.87313190172E+03  0.46999998093E+01 0. -1.
       -5    1    3    3    0  502 -0.32851799266E+03  0.71869718668E+03  0.24231688235E+03  0.82655264752E+03  0.46999998093E+01 0.  1.
</event>
<event>
 5   0  0.5671132E-05  0.1700101E+04  0.7818609E-02  0.8761307E-01
        2   -1    0    0  501    0  0.00000000000E+00  0.00000000000E+00  0.86572720436E+03  0.86572720436E+03  0.25500000920E-02 0.  1.
       -2   -1    0    0    0  501  0.00000000000E+00  0.00000000000E+00 -0.83465748631E+03  0.83465748631E+03  0.25500000920E-02 0. -1.
    10030    2    1    2    0    0  0.00000000000E+00  0.00000000000E+00  0.31069718048E+02  0.17003846907E+04  0.17001008114E+04 0.  0.
        3    1    3    3  502    0 -0.40578140000E+03 -0.87062912696E+02 -0.72644289917E+03  0.83663480164E+03  0.10100000352E+00 0. -1.
       -3    1    3    3    0  502  0.40578140000E+03  0.87062912696E+02  0.75751261722E+03  0.86374988904E+03  0.10100000352E+00 0.  1.
</event>
<event>
 5   0  0.5821584E-05  0.1692732E+04  0.7818609E-02  0.8765521E-01
        2   -1    0    0  501    0  0.00000000000E+00  0.00000000000E+00  0.24681708858E+04  0.24681708858E+04  0.25500000920E-02 0. -1.
       -2   -1    0    0    0  501  0.00000000000E+00  0.00000000000E+00 -0.29022919315E+03  0.29022919316E+03  0.25500000920E-02 0.  1.
    10030    2    1    2    0    0  0.00000000000E+00  0.00000000000E+00  0.21779416926E+04  0.27584000790E+04  0.16927318095E+04 0.  0.
        1    1    3    3  502    0  0.47605409916E+03  0.68418507055E+03  0.13284574277E+04  0.15682907426E+04  0.50400001928E-02 0. -1.
       -1    1    3    3    0  502 -0.47605409916E+03 -0.68418507055E+03  0.84948426493E+03  0.11901093364E+04  0.50400001928E-02 0.  1.
</event>
<event>
 5   0  0.5755321E-05  0.1702037E+04  0.7818609E-02  0.8760204E-01
       -2   -1    0    0    0  501  0.00000000000E+00  0.00000000000E+00  0.54955241125E+03  0.54955241125E+03  0.25500000920E-02 0. -1.
        2   -1    0    0  501    0  0.00000000000E+00  0.00000000000E+00 -0.13178582146E+04  0.13178582146E+04  0.25500000920E-02 0.  1.
    10030    2    1    2    0    0  0.00000000000E+00  0.00000000000E+00 -0.76830580340E+03  0.18674106259E+04  0.17020366148E+04 0.  0.
        4    1    3    3  502    0  0.59682308523E+03  0.57829619685E+02 -0.10467231849E+04  0.12063055577E+04  0.12699999809E+01 0.  1.
       -4    1    3    3    0  502 -0.59682308523E+03 -0.57829619685E+02  0.27841738145E+03  0.66110506818E+03  0.12699999809E+01 0. -1.
</event>
<event>
 5   0  0.5821584E-05  0.1701274E+04  0.7818609E-02  0.8760638E-01
       -2   -1    0    0    0  501  0.00000000000E+00  0.00000000000E+00  0.39735500982E+03  0.39735500983E+03  0.25500000920E-02 0.  1.
        2   -1    0    0  501    0  0.00000000000E+00  0.00000000000E+00 -0.18210000672E+04  0.18210000673E+04  0.25500000920E-02 0. -1.
    10030    2    1    2    0    0  0.00000000000E+00  0.00000000000E+00 -0.14236450574E+04  0.22183550771E+04  0.17012742279E+04 0.  0.
        1    1    3    3  502    0  0.36386995012E+03 -0.75121237812E+03 -0.49811151857E+03  0.97202698656E+03  0.50400001928E-02 0.  1.
       -1    1    3    3    0  502 -0.36386995012E+03  0.75121237812E+03 -0.92553353886E+03  0.12463280905E+04  0.50400001928E-02 0. -1.
</event>
<event>
 5   0  0.5671132E-05  0.1700155E+04  0.7818609E-02  0.8761276E-01
       -2   -1    0    0    0  501  0.00000000000E+00  0.00000000000E+00  0.52583396679E+03  0.52583396680E+03  0.25500000920E-02 0. -1.
        2   -1    0    0  501    0  0.00000000000E+00  0.00000000000E+00 -0.13742577702E+04  0.13742577702E+04  0.25500000920E-02 0.  1.
    10030    2    1    2    0    0  0.00000000000E+00  0.00000000000E+00 -0.84842380343E+03  0.19000917370E+04  0.17001545985E+04 0.  0.
        3    1    3    3  502    0  0.62633324531E+03 -0.53882486812E+03 -0.64774807262E+03  0.10498586326E+04  0.10100000352E+00 0. -1.
       -3    1    3    3    0  502 -0.62633324531E+03  0.53882486812E+03 -0.20067573080E+03  0.85023310440E+03  0.10100000352E+00 0.  1.
</event>
<event>
 5   0  0.5652631E-05  0.1672739E+04  0.7818609E-02  0.8777067E-01
        2   -1    0    0  501    0  0.00000000000E+00  0.00000000000E+00  0.23885593194E+04  0.23885593194E+04  0.25500000920E-02 0. -1.
       -2   -1    0    0    0  501  0.00000000000E+00  0.00000000000E+00 -0.29286024579E+03  0.29286024580E+03  0.25500000920E-02 0.  1.
    10030    2    1    2    0    0  0.00000000000E+00  0.00000000000E+00  0.20956990737E+04  0.26814195652E+04  0.16727391541E+04 0.  0.
        2    1    3    3  502    0 -0.64726376034E+02  0.79830816193E+03  0.14340010698E+04  0.16425116418E+04  0.25500000920E-02 0.  1.
       -2    1    3    3    0  502  0.64726376034E+02 -0.79830816193E+03  0.66169800384E+03  0.10389079235E+04  0.25500000920E-02 0. -1.
</event>
<event>
 5   0  0.5821584E-05  0.1703975E+04  0.7818609E-02  0.8759100E-01
       -2   -1    0    0    0  501  0.00000000000E+00  0.00000000000E+00  0.87729543860E+03  0.87729543860E+03  0.25500000920E-02 0. -1.
        2   -1    0    0  501    0  0.00000000000E+00  0.00000000000E+00 -0.82741009916E+03  0.82741009917E+03  0.25500000920E-02 0.  1.
    10030    2    1    2    0    0  0.00000000000E+00  0.00000000000E+00  0.49885339436E+02  0.17047055378E+04  0.17039754762E+04 0.  0.
        1    1    3    3  502    0  0.78141011872E+03  0.33942719775E+03  0.33343267567E+02  0.85259859825E+03  0.50400001928E-02 0. -1.
       -1    1    3    3    0  502 -0.78141011872E+03 -0.33942719775E+03  0.16542071869E+02  0.85210693952E+03  0.50400001928E-02 0.  1.
</event>
<event>
 5   0  0.5652631E-05  0.1725813E+04  0.7818609E-02  0.8746778E-01
       -2   -1    0    0    0  501  0.00000000000E+00  0.00000000000E+00  0.10769037118E+04  0.10769037118E+04  0.25500000920E-02 0. -1.
        2   -1    0    0  501    0  0.00000000000E+00  0.00000000000E+00 -0.69143376421E+03  0.69143376422E+03  0.25500000920E-02 0.  1.
    10030    2    1    2    0    0  0.00000000000E+00  0.00000000000E+00  0.38546994757E+03  0.17683374760E+04  0.17258129529E+04 0.  0.
        2    1    3    3  502    0  0.77308318929E+01 -0.92003967304E+02 -0.68635807811E+03  0.69254018450E+03  0.25500000920E-02 0.  1.
       -2    1    3    3    0  502 -0.77308318929E+01  0.92003967304E+02  0.10718280257E+04  0.10757972915E+04  0.25500000920E-02 0. -1.
</event>
<event>
 5   0  0.2911632E-05  0.1699482E+04  0.7818609E-02  0.8761660E-01
        1   -1    0    0  501    0  0.00000000000E+00  0.00000000000E+00  0.27753468958E+03  0.27753468962E+03  0.50400001928E-02 0.  1.
       -1   -1    0    0    0  501  0.00000000000E+00  0.00000000000E+00 -0.26016922435E+04  0.26016922436E+04  0.50400001928E-02 0. -1.
    10030    2    1    2    0    0  0.00000000000E+00  0.00000000000E+00 -0.23241575540E+04  0.28792269332E+04  0.16994820967E+04 0.  0.
        1    1    3    3  502    0 -0.54435912725E+03  0.62260528598E+03 -0.14927504428E+04  0.17065368692E+04  0.50400001928E-02 0. -1.
       -1    1    3    3    0  502  0.54435912725E+03 -0.62260528598E+03 -0.83140711117E+03  0.11726900639E+04  0.50400001928E-02 0.  1.
</event>
<event>
 5   0  0.2967704E-05  0.1694650E+04  0.7818609E-02  0.8764422E-01
       -1   -1    0    0    0  501  0.00000000000E+00  0.00000000000E+00  0.52497395002E+03  0.52497395005E+03  0.50400001928E-02 0.  1.
        1   -1    0    0  501    0  0.00000000000E+00  0.00000000000E+00 -0.13676096728E+04  0.13676096728E+04  0.50400001928E-02 0. -1.
    10030    2    1    2    0    0  0.00000000000E+00  0.00000000000E+00 -0.84263572281E+03  0.18925836229E+04  0.16946497598E+04 0.  0.
        2    1    3    3  502    0  0.64693285740E+02  0.53114544265E+03  0.31242754856E+03  0.61960606482E+03  0.25500000920E-02 0.  1.
       -2    1    3    3    0  502 -0.64693285740E+02 -0.53114544265E+03 -0.11550632714E+04  0.12729775581E+04  0.25500000920E-02 0. -1.
</event>
<event>
 5   0  0.2966258E-05  0.1698783E+04  0.7818609E-02  0.8762059E-01
        1   -1    0    0  501    0  0.00000000000E+00  0.00000000000E+00  0.74799852575E+03  0.74799852576E+03  0.50400001928E-02 0.  1.
       -1   -1    0    0    0  501  0.00000000000E+00  0.00000000000E+00 -0.96452838757E+03  0.96452838759E+03  0.50400001928E-02 0. -1.
    10030    2    1    2    0    0  0.00000000000E+00  0.00000000000E+00 -0.21652986183E+03  0.17125269133E+04  0.16987828725E+04 0.  0.
        4    1    3    3  502    0 -0.73274447635E+03  0.40373748719E+03  0.39707418916E+02  0.83755400912E+03  0.12699999809E+01 0.  1.
       -4    1    3    3    0  502  0.73274447635E+03 -0.40373748719E+03 -0.25623728074E+03  0.87497290422E+03  0.12699999809E+01 0. -1.
</event>
<event>
 5   0  0.2987859E-05  0.1697709E+04  0.7818609E-02  0.8762672E-01
       -1   -1    0    0    0  501  0.00000000000E+00  0.00000000000E+00  0.10903638733E+04  0.10903638733E+04  0.50400001928E-02 0. -1.
        1   -1    0    0  501    0  0.00000000000E+00  0.00000000000E+00 -0.66083832465E+03  0.66083832467E+03  0.50400001928E-02 0.  1.
    10030    2    1    2    0    0  0.00000000000E+00  0.00000000000E+00  0.42952554861E+03  0.17512021979E+04  0.16977093217E+04 0.  0.
        5    1    3    3  502    0 -0.16960751858E+03 -0.15975450559E+03  0.10567191577E+04  0.10821116766E+04  0.46999998093E+01 0. -1.
       -5    1    3    3    0  502  0.16960751858E+03  0.15975450559E+03 -0.62719360910E+03  0.66909052131E+03  0.46999998093E+01 0.  1.
</event>
<event>
 5   0  0.5671132E-05  0.1702121E+04  0.7818609E-02  0.8760156E-01
        2   -1    0    0  501    0  0.00000000000E+00  0.00000000000E+00  0.90256866429E+03  0.90256866429E+03  0.25500000920E-02 0.  1.
       -2   -1    0    0    0  501  0.00000000000E+00  0.00000000000E+00 -0.80249154007E+03  0.80249154007E+03  0.25500000920E-02 0. -1.
    10030    2    1    2    0    0  0.00000000000E+00  0.00000000000E+00  0.10007712422E+03  0.17050602044E+04  0.17021206978E+04 0.  0.
        3    1    3    3  502    0  0.65611605938E+03  0.17634532423E+03  0.56348373336E+03  0.88266634960E+03  0.10100000352E+00 0.  1.
       -3    1    3    3    0  502 -0.65611605938E+03 -0.17634532423E+03 -0.46340660914E+03  0.82239385476E+03  0.10100000352E+00 0. -1.
</event>
<event>
 5   0  0.5671132E-05  0.1705750E+04  0.7818609E-02  0.8758091E-01
       -2   -1    0    0    0  501  0.00000000000E+00  0.00000000000E+00  0.53126535495E+03  0.53126535496E+03  0.25500000920E-02 0.  1.
        2   -1    0    0  501    0  0.00000000000E+00  0.00000000000E+00 -0.13691766321E+04  0.13691766321E+04  0.25500000920E-02 0. -1.
    10030    2    1    2    0    0  0.00000000000E+00  0.00000000000E+00 -0.83791127712E+03  0.19004419870E+04  0.17057504031E+04 0.  0.
        3    1    3    3  502    0 -0.61483856366E+03  0.29309975952E+03  0.15291561627E+03  0.69808102989E+03  0.10100000352E+00 0.  1.
       -3    1    3    3    0  502  0.61483856366E+03 -0.29309975952E+03 -0.99082689338E+03  0.12023609571E+04  0.10100000352E+00 0. -1.
</event>
<event>
 5   0  0.2993769E-05  0.1699488E+04  0.7818609E-02  0.8761656E-01
        1   -1    0    0  501    0  0.00000000000E+00  0.00000000000E+00  0.42986456248E+03  0.42986456251E+03  0.50400001928E-02 0. -1.
       -1   -1    0    0    0  501  0.00000000000E+00  0.00000000000E+00 -0.16797506021E+04  0.16797506021E+04  0.50400001928E-02 0.  1.
    10030    2    1    2    0    0  0.00000000000E+00  0.00000000000E+00 -0.12498860397E+04  0.21096151647E+04  0.16994884615E+04 0.  0.
        3    1    3    3  502    0  0.66668197420E+03  0.48722746211E+03 -0.37602809541E+03  0.90733268060E+03  0.10100000352E+00 0. -1.
       -3    1    3    3    0  502 -0.66668197420E+03 -0.48722746211E+03 -0.87385794424E+03  0.12022824841E+04  0.10100000352E+00 0.  1.
</event>
<event>
 5   0  0.2966258E-05  0.1699047E+04  0.7818609E-02  0.8761908E-01
        1   -1    0    0  501    0  0.00000000000E+00  0.00000000000E+00  0.18735088471E+04  0.18735088471E+04  0.50400001928E-02 0.  1.
       -1   -1    0    0    0  501  0.00000000000E+00  0.00000000000E+00 -0.38520785986E+03  0.38520785990E+03  0.50400001928E-02 0. -1.
    10030    2    1    2    0    0  0.00000000000E+00  0.00000000000E+00  0.14883009872E+04  0.22587167070E+04  0.16990471841E+04 0.  0.
        4    1    3    3  502    0 -0.24200195814E+03  0.45687886460E+03 -0.15197440636E+03  0.53888874339E+03  0.12699999809E+01 0. -1.
       -4    1    3    3    0  502  0.24200195814E+03 -0.45687886460E+03  0.16402753936E+04  0.17198279636E+04  0.12699999809E+01 0.  1.
</event>
<event>
 5   0  0.2987859E-05  0.1698922E+04  0.7818609E-02  0.8761979E-01
       -1   -1    0    0    0  501  0.00000000000E+00  0.00000000000E+00  0.11610093772E+04  0.11610093772E+04  0.50400001928E-02 0.  1.
        1   -1    0    0  501    0  0.00000000000E+00  0.00000000000E+00 -0.62151453585E+03  0.62151453587E+03  0.50400001928E-02 0. -1.
    10030    2    1    2    0    0  0.00000000000E+00  0.00000000000E+00  0.53949484132E+03  0.17825239131E+04  0.16989222515E+04 0.  0.
        5    1    3    3  502    0 -0.73968167689E+03 -0.96619919162E+02 -0.15656933390E+03  0.76223384747E+03  0.46999998093E+01 0. -1.
       -5    1    3    3    0  502  0.73968167689E+03  0.96619919162E+02  0.69606417523E+03  0.10202900656E+04  0.46999998093E+01 0.  1.
</event>
<event>
 5   0  0.5755321E-05  0.1698525E+04  0.7818609E-02  0.8762206E-01
        2   -1    0    0  501    0  0.00000000000E+00  0.00000000000E+00  0.18974212632E+04  0.18974212632E+04  0.25500000920E-02 0. -1.
       -2   -1    0    0    0  501  0.00000000000E+00  0.00000000000E+00 -0.38011959655E+03  0.38011959656E+03  0.25500000920E-02 0.  1.
    10030    2    1    2    0    0  0.00000000000E+00  0.00000000000E+00  0.15173016666E+04  0.22775408597E+04  0.16985252486E+04 0.  0.
        4    1    3    3  502    0 -0.63988849719E+03 -0.55200017530E+03  0.87150839959E+03  0.12139563360E+04  0.12699999809E+01 0. -1.
       -4    1    3    3    0  502  0.63988849719E+03  0.55200017530E+03  0.64579326701E+03  0.10635845237E+04  0.12699999809E+01 0.  1.
</event>
<event>
 5   0  0.5755321E-05  0.1699164E+04  0.7818609E-02  0.8761841E-01
        2   -1    0    0  501    0  0.00000000000E+00  0.00000000000E+00  0.17816565775E+04  0.17816565776E+04  0.25500000920E-02 0. -1.
       -2   -1    0    0    0  501  0.00000000000E+00  0.00000000000E+00 -0.40512288795E+03  0.40512288796E+03  0.25500000920E-02 0.  1.
    10030    2    1    2    0    0  0.00000000000E+00  0.00000000000E+00  0.13765336896E+04  0.21867794655E+04  0.16991643335E+04 0.  0.
        4    1    3    3  502    0  0.21461414592E+03  0.68127648743E+03  0.96271120653E+02  0.72074033155E+03  0.12699999809E+01 0.  1.
       -4    1    3    3    0  502 -0.21461414592E+03 -0.68127648743E+03  0.12802625689E+04  0.14660391340E+04  0.12699999809E+01 0. -1.
</event>
<event>
 5   0  0.5671132E-05  0.1700914E+04  0.7818609E-02  0.8760843E-01
        2   -1    0    0  501    0  0.00000000000E+00  0.00000000000E+00  0.17482241708E+04  0.17482241708E+04  0.25500000920E-02 0.  1.
       -2   -1    0    0    0  501  0.00000000000E+00  0.00000000000E+00 -0.41372122411E+03  0.41372122412E+03  0.25500000920E-02 0. -1.
    10030    2    1    2    0    0  0.00000000000E+00  0.00000000000E+00  0.13345029467E+04  0.21619453949E+04  0.17009143941E+04 0.  0.
        3    1    3    3  502    0 -0.20120391731E+03 -0.88326308102E+02  0.17115192099E+04  0.17255673180E+04  0.10100000352E+00 0.  1.
       -3    1    3    3    0  502  0.20120391731E+03  0.88326308102E+02 -0.37701626322E+03  0.43637807687E+03  0.10100000352E+00 0. -1.
</event>
<event>
 5   0  0.2911632E-05  0.1699784E+04  0.7818609E-02  0.8761487E-01
        1   -1    0    0  501    0  0.00000000000E+00  0.00000000000E+00  0.58837140190E+03  0.58837140192E+03  0.50400001928E-02 0.  1.
       -1   -1    0    0    0  501  0.00000000000E+00  0.00000000000E+00 -0.12276543166E+04  0.12276543166E+04  0.50400001928E-02 0. -1.
    10030    2    1    2    0    0  0.00000000000E+00  0.00000000000E+00 -0.63928291472E+03  0.18160257185E+04  0.16997843291E+04 0.  0.
        1    1    3    3  502    0  0.71403419936E+03  0.31571755229E+03  0.39174470451E+02  0.78170138150E+03  0.50400001928E-02 0. -1.
       -1    1    3    3    0  502 -0.71403419936E+03 -0.31571755229E+03 -0.67845738517E+03  0.10343243370E+04  0.50400001928E-02 0.  1.
</event>
<event>
 5   0  0.5755321E-05  0.1698386E+04  0.7818609E-02  0.8762285E-01
       -2   -1    0    0    0  501  0.00000000000E+00  0.00000000000E+00  0.46185039886E+03  0.46185039887E+03  0.25500000920E-02 0.  1.
        2   -1    0    0  501    0  0.00000000000E+00  0.00000000000E+00 -0.15613909466E+04  0.15613909466E+04  0.25500000920E-02 0. -1.
    10030    2    1    2    0    0  0.00000000000E+00  0.00000000000E+00 -0.10995405478E+04  0.20232413455E+04  0.16983863300E+04 0.  0.
        4    1    3    3  502    0  0.44483622084E+03 -0.25609612489E+03 -0.13556756893E+04  0.14495939693E+04  0.12699999809E+01 0. -1.
       -4    1    3    3    0  502 -0.44483622084E+03  0.25609612489E+03  0.25613514152E+03  0.57364737616E+03  0.12699999809E+01 0.  1.
</event>
<event>
 5   0  0.2966258E-05  0.1704471E+04  0.7818609E-02  0.8758819E-01
        1   -1    0    0  501    0  0.00000000000E+00  0.00000000000E+00  0.88771392360E+03  0.88771392361E+03  0.50400001928E-02 0. -1.
       -1   -1    0    0    0  501  0.00000000000E+00  0.00000000000E+00 -0.81817498388E+03  0.81817498389E+03  0.50400001928E-02 0.  1.
    10030    2    1    2    0    0  0.00000000000E+00  0.00000000000E+00  0.69538939718E+02  0.17058889075E+04  0.17044709738E+04 0.  0.
        4    1    3    3  502    0 -0.40568581361E+03  0.16182787945E+03  0.76718045647E+03  0.88280049140E+03  0.12699999809E+01 0. -1.
       -4    1    3    3    0  502  0.40568581361E+03 -0.16182787945E+03 -0.69764151675E+03  0.82308841610E+03  0.12699999809E+01 0.  1.
</event>
<event>
 5   0  0.5821584E-05  0.1704164E+04  0.7818609E-02  0.8758993E-01
       -2   -1    0    0    0  501  0.00000000000E+00  0.00000000000E+00  0.26997564829E+03  0.26997564830E+03  0.25500000920E-02 0.  1.
        2   -1    0    0  501    0  0.00000000000E+00  0.00000000000E+00 -0.26892942040E+04  0.26892942040E+04  0.25500000920E-02 0. -1.
    10030    2    1    2    0    0  0.00000000000E+00  0.00000000000E+00 -0.24193185557E+04  0.29592698523E+04  0.17041642482E+04 0.  0.
        1    1    3    3  502    0 -0.24890697436E+02  0.83465899045E+03 -0.15041921411E+04  0.17204270326E+04  0.50400001928E-02 0.  1.
       -1    1    3    3    0  502  0.24890697436E+02 -0.83465899045E+03 -0.91512641459E+03  0.12388428197E+04  0.50400001928E-02 0. -1.
</event>
<event>
 5   0  0.5859822E-05  0.1697612E+04  0.7818609E-02  0.8762727E-01
       -2   -1    0    0    0  501  0.00000000000E+00  0.00000000000E+00  0.43433057134E+03  0.43433057135E+03  0.25500000920E-02 0.  1.
        2   -1    0    0  501    0  0.00000000000E+00  0.00000000000E+00 -0.16588101413E+04  0.16588101413E+04  0.25500000920E-02 0. -1.
    10030    2    1    2    0    0  0.00000000000E+00  0.00000000000E+00 -0.12244795699E+04  0.20931407126E+04  0.16976123897E+04 0.  0.
        5    1    3    3  502    0  0.78537006856E+03  0.25051009419E+03 -0.36291811665E+03  0.90071810311E+03  0.46999998093E+01 0.  1.
       -5    1    3    3    0  502 -0.78537006856E+03 -0.25051009419E+03 -0.86156145329E+03  0.11924226095E+04  0.46999998093E+01 0. -1.
</event>
<event>
 5   0  0.2911632E-05  0.1702666E+04  0.7818609E-02  0.8759845E-01
       -1   -1    0    0    0  501  0.00000000000E+00  0.00000000000E+00  0.34270014519E+03  0.34270014523E+03  0.50400001928E-02 0.  1.
        1   -1    0    0  501    0  0.00000000000E+00  0.00000000000E+00 -0.21148754450E+04  0.21148754451E+04  0.50400001928E-02 0. -1.
    10030    2    1    2    0    0  0.00000000000E+00  0.00000000000E+00 -0.17721752999E+04  0.24575755903E+04  0.17026662881E+04 0.  0.
        1    1    3    3  502    0 -0.13255772321E+02  0.45205151424E+03  0.15498247500E+03  0.47806469710E+03  0.50400001928E-02 0.  1.
       -1    1    3    3    0  502  0.13255772321E+02 -0.45205151424E+03 -0.19271577749E+04  0.19795108932E+04  0.50400001928E-02 0. -1.
</event>
<event>
 5   0  0.2911632E-05  0.1706447E+04  0.7818609E-02  0.8757696E-01
       -1   -1    0    0    0  501  0.00000000000E+00  0.00000000000E+00  0.10994249840E+04  0.10994249841E+04  0.50400001928E-02 0. -1.
        1   -1    0    0  501    0  0.00000000000E+00  0.00000000000E+00 -0.66215588467E+03  0.66215588468E+03  0.50400001928E-02 0.  1.
    10030    2    1    2    0    0  0.00000000000E+00  0.00000000000E+00  0.43726909938E+03  0.17615808687E+04  0.17064474477E+04 0.  0.
        1    1    3    3  502    0  0.47824920528E+03 -0.11444050178E+03 -0.50115335682E+03  0.70212080006E+03  0.50400001928E-02 0.  1.
       -1    1    3    3    0  502 -0.47824920528E+03  0.11444050178E+03  0.93842245621E+03  0.10594600687E+04  0.50400001928E-02 0. -1.
</event>
<event>
 5   0  0.2966258E-05  0.1700167E+04  0.7818609E-02  0.8761269E-01
       -1   -1    0    0    0  501  0.00000000000E+00  0.00000000000E+00  0.10411149397E+04  0.10411149397E+04  0.50400001928E-02 0.  1.
        1   -1    0    0  501    0  0.00000000000E+00  0.00000000000E+00 -0.69410382947E+03  0.69410382949E+03  0.50400001928E-02 0. -1.
    10030    2    1    2    0    0  0.00000000000E+00  0.00000000000E+00  0.34701111024E+03  0.17352187692E+04  0.17001668937E+04 0.  0.
        4    1    3    3  502    0 -0.38717857027E+03 -0.51878713098E+03  0.73585788905E+03  0.98006927221E+03  0.12699999809E+01 0.  1.
       -4    1    3    3    0  502  0.38717857027E+03  0.51878713098E+03 -0.38884677881E+03  0.75514949701E+03  0.12699999809E+01 0. -1.
</event>
<event>
 5   0  0.5755321E-05  0.1698350E+04  0.7818609E-02  0.8762306E-01
       -2   -1    0    0    0  501  0.00000000000E+00  0.00000000000E+00  0.90422266926E+03  0.90422266927E+03  0.25500000920E-02 0.  1.
        2   -1    0    0  501    0  0.00000000000E+00  0.00000000000E+00 -0.79747812394E+03  0.79747812395E+03  0.25500000920E-02 0. -1.
    10030    2    1    2    0    0  0.00000000000E+00  0.00000000000E+00  0.10674454532E+03  0.17017007932E+04  0.16983495493E+04 0.  0.
        4    1    3    3  502    0 -0.16703533027E+03 -0.83011879772E+03  0.11751550598E+03  0.85487398307E+03  0.12699999809E+01 0.  1.
       -4    1    3    3    0  502  0.16703533027E+03  0.83011879772E+03 -0.10770960658E+02  0.84682681014E+03  0.12699999809E+01 0. -1.
</event>
<event>
 5   0  0.2911632E-05  0.1706483E+04  0.7818609E-02  0.8757675E-01
        1   -1    0    0  501    0  0.00000000000E+00  0.00000000000E+00  0.90383640860E+03  0.90383640861E+03  0.50400001928E-02 0.  1.
       -1   -1    0    0    0  501  0.00000000000E+00  0.00000000000E+00 -0.80547888654E+03  0.80547888655E+03  0.50400001928E-02 0. -1.
    10030    2    1    2    0    0  0.00000000000E+00  0.00000000000E+00  0.98357522056E+02  0.17093152952E+04  0.17064831016E+04 0.  0.
        1    1    3    3  502    0  0.11378576148E+03 -0.37372293777E+03 -0.71063480615E+03  0.81093641025E+03  0.50400001928E-02 0. -1.
       -1    1    3    3    0  502 -0.11378576148E+03  0.37372293777E+03  0.80899232821E+03  0.89837888491E+03  0.50400001928E-02 0.  1.
</event>
<event>
 5   0  0.5821584E-05  0.1698393E+04  0.7818609E-02  0.8762281E-01
       -2   -1    0    0    0  501  0.00000000000E+00  0.00000000000E+00  0.61024691410E+03  0.61024691411E+03  0.25500000920E-02 0. -1.
        2   -1    0    0  501    0  0.00000000000E+00  0.00000000000E+00 -0.11817101815E+04  0.11817101815E+04  0.25500000920E-02 0.  1.
    10030    2    1    2    0    0  0.00000000000E+00  0.00000000000E+00 -0.57146326738E+03  0.17919570956E+04  0.16983933486E+04 0.  0.
        1    1    3    3  502    0 -0.82432709283E+03 -0.20391153764E+03 -0.29239796570E+03  0.89810447139E+03  0.50400001928E-02 0. -1.
       -1    1    3    3    0  502  0.82432709283E+03  0.20391153764E+03 -0.27906530168E+03  0.89385262420E+03  0.50400001928E-02 0.  1.
</event>
<event>
 5   0  0.2098250E-05  0.1706649E+04  0.7818609E-02  0.8757581E-01
       -3   -1    0    0    0  501  0.00000000000E+00  0.00000000000E+00  0.27632093251E+03  0.27632095097E+03  0.10100000352E+00 0. -1.
        3   -1    0    0  501    0  0.00000000000E+00  0.00000000000E+00 -0.26352054402E+04  0.26352054421E+04  0.10100000352E+00 0.  1.
    10030    2    1    2    0    0  0.00000000000E+00  0.00000000000E+00 -0.23588845077E+04  0.29115263931E+04  0.17066487093E+04 0.  0.
        5    1    3    3  502    0 -0.64358736763E+02 -0.31260290450E+03 -0.25295240548E+04  0.25495836242E+04  0.46999998093E+01 0.  1.
       -5    1    3    3    0  502  0.64358736763E+02  0.31260290450E+03  0.17063954714E+03  0.36194276888E+03  0.46999998093E+01 0. -1.
</event>
<event>
 5   0  0.2987859E-05  0.1719460E+04  0.7818609E-02  0.8750343E-01
       -1   -1    0    0    0  501  0.00000000000E+00  0.00000000000E+00  0.48235854306E+03  0.48235854308E+03  0.50400001928E-02 0.  1.
        1   -1    0    0  501    0  0.00000000000E+00  0.00000000000E+00 -0.15323362235E+04  0.15323362235E+04  0.50400001928E-02 0. -1.
    10030    2    1    2    0    0  0.00000000000E+00  0.00000000000E+00 -0.10499776804E+04  0.20146947666E+04  0.17194597620E+04 0.  0.
        5    1    3    3  502    0 -0.86268088500E+02 -0.84937794148E+03 -0.64348905392E+03  0.10691049168E+04  0.46999998093E+01 0. -1.
       -5    1    3    3    0  502  0.86268088500E+02  0.84937794148E+03 -0.40648862650E+03  0.94558984979E+03  0.46999998093E+01 0.  1.
</event>
<event>
 5   0  0.5671132E-05  0.1700071E+04  0.7818609E-02  0.8761324E-01
       -2   -1    0    0    0  501  0.00000000000E+00  0.00000000000E+00  0.49276975029E+03  0.49276975030E+03  0.25500000920E-02 0. -1.
        2   -1    0    0  501    0  0.00000000000E+00  0.00000000000E+00 -0.14663252957E+04  0.14663252957E+04  0.25500000920E-02 0.  1.
    10030    2    1    2    0    0  0.00000000000E+00  0.00000000000E+00 -0.97355554537E+03  0.19590950460E+04  0.17000714689E+04 0.  0.
        3    1    3    3  502    0 -0.27390032571E+03 -0.24605776353E+03  0.39610999929E+03  0.54080398774E+03  0.10100000352E+00 0. -1.
       -3    1    3    3    0  502  0.27390032571E+03  0.24605776353E+03 -0.13696655447E+04  0.14182910582E+04  0.10100000352E+00 0.  1.
</event>
<event>
 5   0  0.2911632E-05  0.1701158E+04  0.7818609E-02  0.8760704E-01
       -1   -1    0    0    0  501  0.00000000000E+00  0.00000000000E+00  0.74418112765E+03  0.74418112767E+03  0.50400001928E-02 0.  1.
        1   -1    0    0  501    0  0.00000000000E+00  0.00000000000E+00 -0.97218839836E+03  0.97218839838E+03  0.50400001928E-02 0. -1.
    10030    2    1    2    0    0  0.00000000000E+00  0.00000000000E+00 -0.22800727071E+03  0.17163695260E+04  0.17011575572E+04 0.  0.
        1    1    3    3  502    0 -0.14336323078E+03 -0.26363127015E+03 -0.91700355250E+03  0.96485749096E+03  0.50400001928E-02 0. -1.
       -1    1    3    3    0  502  0.14336323078E+03  0.26363127015E+03  0.68899628178E+03  0.75151203508E+03  0.50400001928E-02 0.  1.
</event>
<event>
 5   0  0.2987859E-05  0.1699432E+04  0.7818609E-02  0.8761688E-01
        1   -1    0    0  501    0  0.00000000000E+00  0.00000000000E+00  0.79653780251E+03  0.79653780253E+03  0.50400001928E-02 0.  1.
       -1   -1    0    0    0  501  0.00000000000E+00  0.00000000000E+00 -0.90644460763E+03  0.90644460764E+03  0.50400001928E-02 0. -1.
    10030    2    1    2    0    0  0.00000000000E+00  0.00000000000E+00 -0.10990680511E+03  0.17029824102E+04  0.16994321356E+04 0.  0.
        5    1    3    3  502    0 -0.12717153039E+03 -0.84010976610E+03 -0.61154111605E+02  0.85189138545E+03  0.46999998093E+01 0. -1.
       -5    1    3    3    0  502  0.12717153039E+03  0.84010976610E+03 -0.48752693509E+02  0.85109102472E+03  0.46999998093E+01 0.  1.
</event>
<event>
 5   0  0.5859822E-05  0.1705270E+04  0.7818609E-02  0.8758364E-01
        2   -1    0    0  501    0  0.00000000000E+00  0.00000000000E+00  0.42534291763E+03  0.42534291764E+03  0.25500000920E-02 0. -1.
       -2   -1    0    0    0  501  0.00000000000E+00  0.00000000000E+00 -0.17091776113E+04  0.17091776114E+04  0.25500000920E-02 0.  1.
    10030    2    1    2    0    0  0.00000000000E+00  0.00000000000E+00 -0.12838346937E+04  0.21345205290E+04  0.17052701745E+04 0.  0.
        5    1    3    3  502    0  0.24071465435E+02 -0.15600105291E+03 -0.16907127407E+04  0.16980716785E+04  0.46999998093E+01 0.  1.
       -5    1    3    3    0  502 -0.24071465435E+02  0.15600105291E+03  0.40687804697E+03  0.43644885045E+03  0.46999998093E+01 0. -1.
</event>
<event>
 5   0  0.2911632E-05  0.1695567E+04  0.7818609E-02  0.8763896E-01
       -1   -1    0    0    0  501  0.00000000000E+00  0.00000000000E+00  0.44109941195E+03  0.44109941198E+03  0.50400001928E-02 0. -1.
        1   -1    0    0  501    0  0.00000000000E+00  0.00000000000E+00 -0.16294221980E+04  0.16294221981E+04  0.50400001928E-02 0.  1.
    10030    2    1    2    0    0  0.00000000000E+00  0.00000000000E+00 -0.11883227861E+04  0.20705216100E+04  0.16955673663E+04 0.  0.
        1    1    3    3  502    0 -0.41436601672E+03 -0.18366570088E+03 -0.14690493092E+04  0.15373802908E+04  0.50400001928E-02 0.  1.
       -1    1    3    3    0  502  0.41436601672E+03  0.18366570088E+03  0.28072652313E+03  0.53314131926E+03  0.50400001928E-02 0. -1.
</event>
<event>
 5   0  0.2987859E-05  0.1701557E+04  0.7818609E-02  0.8760477E-01
        1   -1    0    0  501    0  0.00000000000E+00  0.00000000000E+00  0.56052978461E+03  0.56052978463E+03  0.50400001928E-02 0.  1.
       -1   -1    0    0    0  501  0.00000000000E+00  0.00000000000E+00 -0.12913208904E+04  0.12913208904E+04  0.50400001928E-02 0. -1.
    10030    2    1    2    0    0  0.00000000000E+00  0.00000000000E+00 -0.73079110578E+03  0.18518506750E+04  0.17015567232E+04 0.  0.
        5    1    3    3  502    0 -0.56840629049E+03 -0.62952032049E+03 -0.43775242519E+03  0.95447934537E+03  0.46999998093E+01 0. -1.
       -5    1    3    3    0  502  0.56840629049E+03  0.62952032049E+03 -0.29303868059E+03  0.89737132966E+03  0.46999998093E+01 0.  1.
</event>
<event>
 5   0  0.2993769E-05  0.1698831E+04  0.7818609E-02  0.8762032E-01
       -1   -1    0    0    0  501  0.00000000000E+00  0.00000000000E+00  0.34914439738E+03  0.34914439741E+03  0.50400001928E-02 0.  1.
        1   -1    0    0  501    0  0.00000000000E+00  0.00000000000E+00 -0.20664985203E+04  0.20664985203E+04  0.50400001928E-02 0. -1.
    10030    2    1    2    0    0  0.00000000000E+00  0.00000000000E+00 -0.17173541229E+04  0.24156429177E+04  0.16988306338E+04 0.  0.
        3    1    3    3  502    0  0.29167977588E+03 -0.13438636058E+03  0.25949004760E+03  0.41288240526E+03  0.10100000352E+00 0.  1.
       -3    1    3    3    0  502 -0.29167977588E+03  0.13438636058E+03 -0.19768441705E+04  0.20027605124E+04  0.10100000352E+00 0. -1.
</event>
<event>
 5   0  0.5755321E-05  0.1699411E+04  0.7818609E-02  0.8761701E-01
       -2   -1    0    0    0  501  0.00000000000E+00  0.00000000000E+00  0.35884528656E+03  0.35884528657E+03  0.25500000920E-02 0.  1.
        2   -1    0    0  501    0  0.00000000000E+00  0.00000000000E+00 -0.20120065268E+04  0.20120065268E+04  0.25500000920E-02 0. -1.
    10030    2    1    2    0    0  0.00000000000E+00  0.00000000000E+00 -0.16531612402E+04  0.23708518133E+04  0.16994105551E+04 0.  0.
        4    1    3    3  502    0  0.25332407823E+03 -0.66440978283E+03 -0.14755417252E+04  0.16379372527E+04  0.12699999809E+01 0. -1.
       -4    1    3    3    0  502 -0.25332407823E+03  0.66440978283E+03 -0.17761951498E+03  0.73291456060E+03  0.12699999809E+01 0.  1.
</event>
<event>
 5   0  0.2967704E-05  0.1695723E+04  0.7818609E-02  0.8763807E-01
       -1   -1    0    0    0  501  0.00000000000E+00  0.00000000000E+00  0.56945022706E+03  0.56945022708E+03  0.50400001928E-02 0.  1.
        1   -1    0    0  501    0  0.00000000000E+00  0.00000000000E+00 -0.12623915151E+04  0.12623915151E+04  0.50400001928E-02 0. -1.
    10030    2    1    2    0    0  0.00000000000E+00  0.00000000000E+00 -0.69294128807E+03  0.18318417422E+04  0.16957230139E+04 0.  0.
        2    1    3    3  502    0 -0.58540417017E+03  0.18913406696E+03  0.28380050555E+03  0.67750458648E+03  0.25500000920E-02 0.  1.
       -2    1    3    3    0  502  0.58540417017E+03 -0.18913406696E+03 -0.97674179361E+03  0.11543371557E+04  0.25500000920E-02 0. -1.
</event>
<event>
 5   0  0.2098250E-05  0.1699228E+04  0.7818609E-02  0.8761805E-01
       -3   -1    0    0    0  501  0.00000000000E+00  0.00000000000E+00  0.10687127413E+04  0.10687127461E+04  0.10100000352E+00 0.  1.
        3   -1    0    0  501    0  0.00000000000E+00  0.00000000000E+00 -0.67543288792E+03  0.67543289547E+03  0.10100000352E+00 0. -1.
    10030    2    1    2    0    0  0.00000000000E+00  0.00000000000E+00  0.39327985341E+03  0.17441456416E+04  0.16992277587E+04 0.  0.
        3    1    3    3  502    0  0.57703714407E+03 -0.37744358827E+03  0.70615699403E+03  0.98696161951E+03  0.10100000352E+00 0.  1.
       -3    1    3    3    0  502 -0.57703714407E+03  0.37744358827E+03 -0.31287714062E+03  0.75718402207E+03  0.10100000352E+00 0. -1.
</event>
<event>
 5   0  0.5821584E-05  0.1699396E+04  0.7818609E-02  0.8761709E-01
       -2   -1    0    0    0  501  0.00000000000E+00  0.00000000000E+00  0.11405923163E+04  0.11405923163E+04  0.25500000920E-02 0. -1.
        2   -1    0    0  501    0  0.00000000000E+00  0.00000000000E+00 -0.63299312424E+03  0.63299312424E+03  0.25500000920E-02 0.  1.
    10030    2    1    2    0    0  0.00000000000E+00  0.00000000000E+00  0.50759919209E+03  0.17735854406E+04  0.16993964738E+04 0.  0.
        1    1    3    3  502    0  0.38803576497E+02 -0.12792731825E+03 -0.62194910501E+03  0.63615391656E+03  0.50400001928E-02 0.  1.
       -1    1    3    3    0  502 -0.38803576497E+02  0.12792731825E+03  0.11295482971E+04  0.11374315240E+04  0.50400001928E-02 0. -1.
</event>
<event>
 5   0  0.5755321E-05  0.1701063E+04  0.7818609E-02  0.8760758E-01
        2   -1    0    0  501    0  0.00000000000E+00  0.00000000000E+00  0.17368744615E+04  0.17368744615E+04  0.25500000920E-02 0.  1.
       -2   -1    0    0    0  501  0.00000000000E+00  0.00000000000E+00 -0.41649750606E+03  0.41649750607E+03  0.25500000920E-02 0. -1.
    10030    2    1    2    0    0  0.00000000000E+00  0.00000000000E+00  0.13203769555E+04  0.21533719676E+04  0.17010630577E+04 0.  0.
        4    1    3    3  502    0  0.39798398127E+03 -0.57458064429E+03  0.12736829609E+04  0.14528606485E+04  0.12699999809E+01 0.  1.
       -4    1    3    3    0  502 -0.39798398127E+03  0.57458064429E+03  0.46693994535E+02  0.70051131909E+03  0.12699999809E+01 0. -1.
</event>
<event>
 5   0  0.5755321E-05  0.1696683E+04  0.7818609E-02  0.8763258E-01
        2   -1    0    0  501    0  0.00000000000E+00  0.00000000000E+00  0.13129751177E+04  0.13129751177E+04  0.25500000920E-02 0. -1.
       -2   -1    0    0    0  501  0.00000000000E+00  0.00000000000E+00 -0.54813184865E+03  0.54813184865E+03  0.25500000920E-02 0.  1.
    10030    2    1    2    0    0  0.00000000000E+00  0.00000000000E+00  0.76484326904E+03  0.18611069663E+04  0.16966832097E+04 0.  0.
        4    1    3    3  502    0  0.63051248142E+03 -0.44647267391E+03 -0.19632211556E+01  0.77258611488E+03  0.12699999809E+01 0. -1.
       -4    1    3    3    0  502 -0.63051248142E+03  0.44647267391E+03  0.76680649020E+03  0.10885208515E+04  0.12699999809E+01 0.  1.
</event>
<event>
 5   0  0.5652631E-05  0.1704145E+04  0.7818609E-02  0.8759004E-01
        2   -1    0    0  501    0  0.00000000000E+00  0.00000000000E+00  0.27770507033E+04  0.27770507033E+04  0.25500000920E-02 0.  1.
       -2   -1    0    0    0  501  0.00000000000E+00  0.00000000000E+00 -0.26143847686E+03  0.26143847687E+03  0.25500000920E-02 0. -1.
    10030    2    1    2    0    0  0.00000000000E+00  0.00000000000E+00  0.25156122264E+04  0.30384891801E+04  0.17041454234E+04 0.  0.
        2    1    3    3  502    0 -0.15469813793E+03 -0.43421001314E+03  0.25355558937E+04  0.25771134122E+04  0.25500000920E-02 0.  1.
       -2    1    3    3    0  502  0.15469813793E+03  0.43421001314E+03 -0.19943667245E+02  0.46137576796E+03  0.25500000920E-02 0. -1.
</event>
<event>
 5   0  0.5671132E-05  0.1700003E+04  0.7818609E-02  0.8761363E-01
        2   -1    0    0  501    0  0.00000000000E+00  0.00000000000E+00  0.99909777414E+03  0.99909777414E+03  0.25500000920E-02 0. -1.
       -2   -1    0    0    0  501  0.00000000000E+00  0.00000000000E+00 -0.72315479021E+03  0.72315479021E+03  0.25500000920E-02 0.  1.
    10030    2    1    2    0    0  0.00000000000E+00  0.00000000000E+00  0.27594298393E+03  0.17222525644E+04  0.17000027544E+04 0.  0.
        3    1    3    3  502    0  0.24588604478E+03  0.45988691163E+03 -0.54204114432E+03  0.75217320535E+03  0.10100000352E+00 0.  1.
       -3    1    3    3    0  502 -0.24588604478E+03 -0.45988691163E+03  0.81798412825E+03  0.97007935901E+03  0.10100000352E+00 0. -1.
</event>
<event>
 5   0  0.2993769E-05  0.1700270E+04  0.7818609E-02  0.8761211E-01
        1   -1    0    0  501    0  0.00000000000E+00  0.00000000000E+00  0.88157436741E+03  0.88157436742E+03  0.50400001928E-02 0.  1.
       -1   -1    0    0    0  501  0.00000000000E+00  0.00000000000E+00 -0.81981641654E+03  0.81981641656E+03  0.50400001928E-02 0. -1.
    10030    2    1    2    0    0  0.00000000000E+00  0.00000000000E+00  0.61757950866E+02  0.17013907840E+04  0.17002695537E+04 0.  0.
        3    1    3    3  502    0 -0.54019309699E+03  0.32312496551E+03  0.60266702667E+03  0.87145044645E+03  0.10100000352E+00 0.  1.
       -3    1    3    3    0  502  0.54019309699E+03 -0.32312496551E+03 -0.54090907580E+03  0.82994033753E+03  0.10100000352E+00 0. -1.
</event>
<event>
 5   0  0.2966258E-05  0.1698880E+04  0.7818609E-02  0.8762004E-01
        1   -1    0    0  501    0  0.00000000000E+00  0.00000000000E+00  0.62029361706E+03  0.62029361708E+03  0.50400001928E-02 0.  1.
       -1   -1    0    0    0  501  0.00000000000E+00  0.00000000000E+00 -0.11632363685E+04  0.11632363685E+04  0.50400001928E-02 0. -1.
    10030    2    1    2    0    0  0.00000000000E+00  0.00000000000E+00 -0.54294275146E+03  0.17835299856E+04  0.16988797421E+04 0.  0.
        4    1    3    3  502    0 -0.36887395356E+03  0.43657608676E+03  0.38823433154E+03  0.69093717676E+03  0.12699999809E+01 0.  1.
       -4    1    3    3    0  502  0.36887395356E+03 -0.43657608676E+03 -0.93117708300E+03  0.10925928088E+04  0.12699999809E+01 0. -1.
</event>
<event>
 5   0  0.5671132E-05  0.1681722E+04  0.7818609E-02  0.8771858E-01
       -2   -1    0    0    0  501  0.00000000000E+00  0.00000000000E+00  0.92110533231E+03  0.92110533231E+03  0.25500000920E-02 0. -1.
        2   -1    0    0  501    0  0.00000000000E+00  0.00000000000E+00 -0.76760710947E+03  0.76760710947E+03  0.25500000920E-02 0.  1.
    10030    2    1    2    0    0  0.00000000000E+00  0.00000000000E+00  0.15349822284E+03  0.16887124418E+04  0.16817217388E+04 0.  0.
        3    1    3    3  502    0  0.64134754771E+03 -0.49306060530E+03  0.30707466833E+03  0.86529203139E+03  0.10100000352E+00 0. -1.
       -3    1    3    3    0  502 -0.64134754771E+03  0.49306060530E+03 -0.15357644549E+03  0.82342041040E+03  0.10100000352E+00 0.  1.
</event>
<event>
 5   0  0.5652631E-05  0.1744719E+04  0.7818609E-02  0.8736263E-01
       -2   -1    0    0    0  501  0.00000000000E+00  0.00000000000E+00  0.40807413727E+03  0.40807413728E+03  0.25500000920E-02 0.  1.
        2   -1    0    0  501    0  0.00000000000E+00  0.00000000000E+00 -0.18648837636E+04  0.18648837636E+04  0.25500000920E-02 0. -1.
    10030    2    1    2    0    0  0.00000000000E+00  0.00000000000E+00 -0.14568096264E+04  0.22729579009E+04  0.17447186971E+04 0.  0.
        2    1    3    3  502    0  0.34363300907E+03  0.30737010849E+03 -0.16931993058E+04  0.17548458387E+04  0.25500000920E-02 0. -1.
       -2    1    3    3    0  502 -0.34363300907E+03 -0.30737010849E+03  0.23638967938E+03  0.51811206224E+03  0.25500000920E-02 0.  1.
</event>
<event>
 5   0  0.2911632E-05  0.1701902E+04  0.7818609E-02  0.8760280E-01
        1   -1    0    0  501    0  0.00000000000E+00  0.00000000000E+00  0.70630002594E+03  0.70630002596E+03  0.50400001928E-02 0. -1.
       -1   -1    0    0    0  501  0.00000000000E+00  0.00000000000E+00 -0.10252264239E+04  0.10252264239E+04  0.50400001928E-02 0.  1.
    10030    2    1    2    0    0  0.00000000000E+00  0.00000000000E+00 -0.31892639794E+03  0.17315264499E+04  0.17019018183E+04 0.  0.
        1    1    3    3  502    0 -0.59592604973E+03 -0.45297320020E+03 -0.57123635998E+03  0.94160690091E+03  0.50400001928E-02 0.  1.
       -1    1    3    3    0  502  0.59592604973E+03  0.45297320020E+03  0.25230996204E+03  0.78991954895E+03  0.50400001928E-02 0. -1.
</event>
<event>
 5   0  0.5821584E-05  0.1717900E+04  0.7818609E-02  0.8751221E-01
       -2   -1    0    0    0  501  0.00000000000E+00  0.00000000000E+00  0.10193771537E+04  0.10193771537E+04  0.25500000920E-02 0.  1.
        2   -1    0    0  501    0  0.00000000000E+00  0.00000000000E+00 -0.72377012818E+03  0.72377012818E+03  0.25500000920E-02 0. -1.
    10030    2    1    2    0    0  0.00000000000E+00  0.00000000000E+00  0.29560702553E+03  0.17431472819E+04  0.17178995701E+04 0.  0.
        1    1    3    3  502    0  0.11089558383E+03 -0.28370051916E+02 -0.71599620622E+03  0.72508844820E+03  0.50400001928E-02 0. -1.
       -1    1    3    3    0  502 -0.11089558383E+03  0.28370051916E+02  0.10116032317E+04  0.10180588337E+04  0.50400001928E-02 0.  1.
</event>
<event>
 5   0  0.2967704E-05  0.1699700E+04  0.7818609E-02  0.8761536E-01
       -1   -1    0    0    0  501  0.00000000000E+00  0.00000000000E+00  0.65168909372E+03  0.65168909374E+03  0.50400001928E-02 0.  1.
        1   -1    0    0  501    0  0.00000000000E+00  0.00000000000E+00 -0.11082656624E+04  0.11082656624E+04  0.50400001928E-02 0. -1.
    10030    2    1    2    0    0  0.00000000000E+00  0.00000000000E+00 -0.45657656870E+03  0.17599547562E+04  0.16996995560E+04 0.  0.
        2    1    3    3  502    0  0.75681240576E+03 -0.95469686545E+02 -0.61622333007E+03  0.98061749479E+03  0.25500000920E-02 0.  1.
       -2    1    3    3    0  502 -0.75681240576E+03  0.95469686545E+02  0.15964676137E+03  0.77933726139E+03  0.25500000920E-02 0. -1.
</event>
<event>
 5   0  0.5859822E-05  0.1697774E+04  0.7818609E-02  0.8762635E-01
        2   -1    0    0  501    0  0.00000000000E+00  0.00000000000E+00  0.38694901377E+03  0.38694901378E+03  0.25500000920E-02 0. -1.
       -2   -1    0    0    0  501  0.00000000000E+00  0.00000000000E+00 -0.18622837991E+04  0.18622837991E+04  0.25500000920E-02 0.  1.
    10030    2    1    2    0    0  0.00000000000E+00  0.00000000000E+00 -0.14753347853E+04  0.22492328129E+04  0.16977736945E+04 0.  0.
        5    1    3    3  502    0 -0.33623588108E+03 -0.80150985532E+02  0.28947553254E+03  0.45088459959E+03  0.46999998093E+01 0. -1.
       -5    1    3    3    0  502  0.33623588108E+03  0.80150985532E+02 -0.17648103179E+04  0.17983482133E+04  0.46999998093E+01 0.  1.
</event>
<event>
 5   0  0.2967704E-05  0.1698353E+04  0.7818609E-02  0.8762304E-01
        1   -1    0    0  501    0  0.00000000000E+00  0.00000000000E+00  0.70303998018E+03  0.70303998020E+03  0.50400001928E-02 0. -1.
       -1   -1    0    0    0  501  0.00000000000E+00  0.00000000000E+00 -0.10256894688E+04  0.10256894688E+04  0.50400001928E-02 0.  1.
    10030    2    1    2    0    0  0.00000000000E+00  0.00000000000E+00 -0.32264948861E+03  0.17287294490E+04  0.16983529714E+04 0.  0.
        2    1    3    3  502    0  0.42509783248E+03 -0.44845333739E+03 -0.75422218382E+03  0.97502290515E+03  0.25500000920E-02 0.  1.
       -2    1    3    3    0  502 -0.42509783248E+03  0.44845333739E+03  0.43157269521E+03  0.75370654386E+03  0.25500000920E-02 0. -1.
</event>
<event>
 5   0  0.2993769E-05  0.1696124E+04  0.7818609E-02  0.8763578E-01
       -1   -1    0    0    0  501  0.00000000000E+00  0.00000000000E+00  0.55643450430E+03  0.55643450432E+03  0.50400001928E-02 0. -1.
        1   -1    0    0  501    0  0.00000000000E+00  0.00000000000E+00 -0.12925323119E+04  0.12925323119E+04  0.50400001928E-02 0.  1.
    10030    2    1    2    0    0  0.00000000000E+00  0.00000000000E+00 -0.73609780759E+03  0.18489668162E+04  0.16961244958E+04 0.  0.
        3    1    3    3  502    0  0.21989464804E+03  0.69366744126E+03 -0.84281943335E+03  0.11134957489E+04  0.10100000352E+00 0.  1.
       -3    1    3    3    0  502 -0.21989464804E+03 -0.69366744126E+03  0.10672162577E+03  0.73547106735E+03  0.10100000352E+00 0. -1.
</event>
<event>
 5   0  0.2987859E-05  0.1696232E+04  0.7818609E-02  0.8763516E-01
       -1   -1    0    0    0  501  0.00000000000E+00  0.00000000000E+00  0.69015647349E+03  0.69015647351E+03  0.50400001928E-02 0.  1.
        1   -1    0    0  501    0  0.00000000000E+00  0.00000000000E+00 -0.10422282691E+04  0.10422282691E+04  0.50400001928E-02 0. -1.
    10030    2    1    2    0    0  0.00000000000E+00  0.00000000000E+00 -0.35207179560E+03  0.17323847426E+04  0.16962318082E+04 0.  0.
        5    1    3    3  502    0 -0.30492560422E+03 -0.14297770411E+03 -0.97099345631E+03  0.10277512492E+04  0.46999998093E+01 0. -1.
       -5    1    3    3    0  502  0.30492560422E+03  0.14297770411E+03  0.61892166071E+03  0.70463349344E+03  0.46999998093E+01 0.  1.
</event>
<event>
 5   0  0.5821584E-05  0.1698476E+04  0.7818609E-02  0.8762234E-01
       -2   -1    0    0    0  501  0.00000000000E+00  0.00000000000E+00  0.30730667867E+03  0.30730667868E+03  0.25500000920E-02 0. -1.
        2   -1    0    0  501    0  0.00000000000E+00  0.00000000000E+00 -0.23468570838E+04  0.23468570838E+04  0.25500000920E-02 0.  1.
    10030    2    1    2    0    0  0.00000000000E+00  0.00000000000E+00 -0.20395504051E+04  0.26541637625E+04  0.16984756174E+04 0.  0.
        1    1    3    3  502    0 -0.35783089833E+03  0.76389729053E+03 -0.86648306395E+03  0.12092869479E+04  0.50400001928E-02 0.  1.
       -1    1    3    3    0  502  0.35783089833E+03 -0.76389729053E+03 -0.11730673412E+04  0.14448768146E+04  0.50400001928E-02 0. -1.
</event>
<event>
 5   0  0.2993769E-05  0.1699194E+04  0.7818609E-02  0.8761824E-01
       -1   -1    0    0    0  501  0.00000000000E+00  0.00000000000E+00  0.84831069136E+03  0.84831069138E+03  0.50400001928E-02 0.  1.
        1   -1    0    0  501    0  0.00000000000E+00  0.00000000000E+00 -0.85088544962E+03  0.85088544964E+03  0.50400001928E-02 0. -1.
    10030    2    1    2    0    0  0.00000000000E+00  0.00000000000E+00 -0.25747582617E+01  0.16991961410E+04  0.16991941903E+04 0.  0.
        3    1    3    3  502    0  0.68750395175E+01 -0.64074517866E+03 -0.55915320376E+03  0.85044339354E+03  0.10100000352E+00 0. -1.
       -3    1    3    3    0  502 -0.68750395175E+01  0.64074517866E+03  0.55657844549E+03  0.84875274747E+03  0.10100000352E+00 0.  1.
</event>
<event>
 5   0  0.5652631E-05  0.1703837E+04  0.7818609E-02  0.8759179E-01
       -2   -1    0    0    0  501  0.00000000000E+00  0.00000000000E+00  0.13576906667E+04  0.13576906667E+04  0.25500000920E-02 0. -1.
        2   -1    0    0  501    0  0.00000000000E+00  0.00000000000E+00 -0.53455850220E+03  0.53455850220E+03  0.25500000920E-02 0.  1.
    10030    2    1    2    0    0  0.00000000000E+00  0.00000000000E+00  0.82313216447E+03  0.18922491689E+04  0.17038369514E+04 0.  0.
        2    1    3    3  502    0  0.78511472122E+03 -0.18807294182E+03  0.71365340252E+03  0.10775331716E+04  0.25500000920E-02 0. -1.
       -2    1    3    3    0  502 -0.78511472122E+03  0.18807294182E+03  0.10947876195E+03  0.81471599729E+03  0.25500000920E-02 0.  1.
</event>
<event>
 5   0  0.2966258E-05  0.1701341E+04  0.7818609E-02  0.8760600E-01
       -1   -1    0    0    0  501  0.00000000000E+00  0.00000000000E+00  0.10298324639E+04  0.10298324640E+04  0.50400001928E-02 0. -1.
        1   -1    0    0  501    0  0.00000000000E+00  0.00000000000E+00 -0.70267800803E+03  0.70267800805E+03  0.50400001928E-02 0.  1.
    10030    2    1    2    0    0  0.00000000000E+00  0.00000000000E+00  0.32715445592E+03  0.17325104720E+04  0.17013413818E+04 0.  0.
        4    1    3    3  502    0  0.70920658769E+03  0.31783648632E+03 -0.18865709393E+03  0.79974191340E+03  0.12699999809E+01 0.  1.
       -4    1    3    3    0  502 -0.70920658769E+03 -0.31783648632E+03  0.51581154985E+03  0.93276855860E+03  0.12699999809E+01 0. -1.
</event>
<event>
 5   0  0.2987859E-05  0.1700617E+04  0.7818609E-02  0.8761012E-01
       -1   -1    0    0    0  501  0.00000000000E+00  0.00000000000E+00  0.83226594507E+03  0.83226594508E+03  0.50400001928E-02 0.  1.
        1   -1    0    0  501    0  0.00000000000E+00  0.00000000000E+00 -0.86874268878E+03  0.86874268880E+03  0.50400001928E-02 0. -1.
    10030    2    1    2    0    0  0.00000000000E+00  0.00000000000E+00 -0.36476743717E+02  0.17010086339E+04  0.17006174819E+04 0.  0.
        5    1    3    3  502    0  0.11271908245E+03  0.66901283707E+03  0.49444083093E+03  0.83951032930E+03  0.46999998093E+01 0.  1.
       -5    1    3    3    0  502 -0.11271908245E+03 -0.66901283707E+03 -0.53091757465E+03  0.86149830458E+03  0.46999998093E+01 0. -1.
</event>
<event>
 5   0  0.5859822E-05  0.1695916E+04  0.7818609E-02  0.8763697E-01
        2   -1    0    0  501    0  0.00000000000E+00  0.00000000000E+00  0.82015938349E+03  0.82015938350E+03  0.25500000920E-02 0. -1.
       -2   -1    0    0    0  501  0.00000000000E+00  0.00000000000E+00 -0.87669836962E+03  0.87669836963E+03  0.25500000920E-02 0.  1.
    10030    2    1    2    0    0  0.00000000000E+00  0.00000000000E+00 -0.56538986130E+02  0.16968577531E+04  0.16959155573E+04 0.  0.
        5    1    3    3  502    0 -0.31223656478E+03  0.17246247634E+03 -0.79796621994E+03  0.87407502898E+03  0.46999998093E+01 0.  1.
       -5    1    3    3    0  502  0.31223656478E+03 -0.17246247634E+03  0.74142723381E+03  0.82278272415E+03  0.46999998093E+01 0. -1.
</event>
<event>
 5   0  0.2987859E-05  0.1707910E+04  0.7818609E-02  0.8756866E-01
        1   -1    0    0  501    0  0.00000000000E+00  0.00000000000E+00  0.81374415249E+03  0.81374415251E+03  0.50400001928E-02 0.  1.
       -1   -1    0    0    0  501  0.00000000000E+00  0.00000000000E+00 -0.89615255030E+03  0.89615255031E+03  0.50400001928E-02 0. -1.
    10030    2    1    2    0    0  0.00000000000E+00  0.00000000000E+00 -0.82408397802E+02  0.17098967028E+04  0.17079097137E+04 0.  0.
        5    1    3    3  502    0  0.70933545501E+03 -0.42248807534E+03 -0.25954929812E+03  0.86547148405E+03  0.46999998093E+01 0. -1.
       -5    1    3    3    0  502 -0.70933545501E+03  0.42248807534E+03  0.17714090032E+03  0.84442521878E+03  0.46999998093E+01 0.  1.
</event>
<event>
 5   0  0.2967704E-05  0.1701164E+04  0.7818609E-02  0.8760701E-01
        1   -1    0    0  501    0  0.00000000000E+00  0.00000000000E+00  0.11873250327E+04  0.11873250327E+04  0.50400001928E-02 0.  1.
       -1   -1    0    0    0  501  0.00000000000E+00  0.00000000000E+00 -0.60934441951E+03  0.60934441953E+03  0.50400001928E-02 0. -1.
    10030    2    1    2    0    0  0.00000000000E+00  0.00000000000E+00  0.57798061320E+03  0.17966694522E+04  0.17011641694E+04 0.  0.
        2    1    3    3  502    0  0.20412884662E+03 -0.79131370020E+03  0.39857549642E+02  0.81818982053E+03  0.25500000920E-02 0. -1.
       -2    1    3    3    0  502 -0.20412884662E+03  0.79131370020E+03  0.53812306356E+03  0.97847963172E+03  0.25500000920E-02 0.  1.
</event>
<event>
 5   0  0.5821584E-05  0.1705660E+04  0.7818609E-02  0.8758143E-01
        2   -1    0    0  501    0  0.00000000000E+00  0.00000000000E+00  0.47117488934E+03  0.47117488935E+03  0.25500000920E-02 0.  1.
       -2   -1    0    0    0  501  0.00000000000E+00  0.00000000000E+00 -0.15436291012E+04  0.15436291012E+04  0.25500000920E-02 0. -1.
    10030    2    1    2    0    0  0.00000000000E+00  0.00000000000E+00 -0.10724542119E+04  0.20148039906E+04  0.17056603073E+04 0.  0.
        1    1    3    3  502    0  0.46201433809E+03  0.15136049412E+03 -0.13639020085E+04  0.14479626848E+04  0.50400001928E-02 0.  1.
       -1    1    3    3    0  502 -0.46201433809E+03 -0.15136049412E+03  0.29144779660E+03  0.56684130579E+03  0.50400001928E-02 0. -1.
</event>
<event>
 5   0  0.2966258E-05  0.1699929E+04  0.7818609E-02  0.8761405E-01
       -1   -1    0    0    0  501  0.00000000000E+00  0.00000000000E+00  0.85316492014E+03  0.85316492016E+03  0.50400001928E-02 0. -1.
        1   -1    0    0  501    0  0.00000000000E+00  0.00000000000E+00 -0.84677631226E+03  0.84677631227E+03  0.50400001928E-02 0.  1.
    10030    2    1    2    0    0  0.00000000000E+00  0.00000000000E+00  0.63886078873E+01  0.16999412324E+04  0.16999292278E+04 0.  0.
        4    1    3    3  502    0  0.40372856248E+03  0.35739356994E+03 -0.65385775895E+03  0.84750132615E+03  0.12699999809E+01 0.  1.
       -4    1    3    3    0  502 -0.40372856248E+03 -0.35739356994E+03  0.66024636683E+03  0.85243990628E+03  0.12699999809E+01 0. -1.
</event>
<event>
 5   0  0.5821584E-05  0.1699616E+04  0.7818609E-02  0.8761584E-01
        2   -1    0    0  501    0  0.00000000000E+00  0.00000000000E+00  0.58565617219E+03  0.58565617220E+03  0.25500000920E-02 0. -1.
       -2   -1    0    0    0  501  0.00000000000E+00  0.00000000000E+00 -0.12331013168E+04  0.12331013169E+04  0.25500000920E-02 0.  1.
    10030    2    1    2    0    0  0.00000000000E+00  0.00000000000E+00 -0.64744514465E+03  0.18187574891E+04  0.16996157179E+04 0.  0.
        1    1    3    3  502    0  0.52022325635E+03 -0.28459392094E+03 -0.97511990617E+03  0.11412645476E+04  0.50400001928E-02 0.  1.
       -1    1    3    3    0  502 -0.52022325635E+03  0.28459392094E+03  0.32767476152E+03  0.67749294140E+03  0.50400001928E-02 0. -1.
</event>
<event>
 5   0  0.5821584E-05  0.1696358E+04  0.7818609E-02  0.8763444E-01
        2   -1    0    0  501    0  0.00000000000E+00  0.00000000000E+00  0.19511937952E+04  0.19511937952E+04  0.25500000920E-02 0. -1.
       -2   -1    0    0    0  501  0.00000000000E+00  0.00000000000E+00 -0.36870123480E+03  0.36870123481E+03  0.25500000920E-02 0.  1.
    10030    2    1    2    0    0  0.00000000000E+00  0.00000000000E+00  0.15824925604E+04  0.23198950301E+04  0.16963579359E+04 0.  0.
        1    1    3    3  502    0 -0.38652787854E+03 -0.14320608656E+03  0.18050013040E+04  0.18514700893E+04  0.50400001928E-02 0. -1.
       -1    1    3    3    0  502  0.38652787854E+03  0.14320608656E+03 -0.22250874358E+03  0.46842494074E+03  0.50400001928E-02 0.  1.
</event>
<event>
 5   0  0.2966258E-05  0.1701305E+04  0.7818609E-02  0.8760620E-01
       -1   -1    0    0    0  501  0.00000000000E+00  0.00000000000E+00  0.51454597262E+03  0.51454597264E+03  0.50400001928E-02 0. -1.
        1   -1    0    0  501    0  0.00000000000E+00  0.00000000000E+00 -0.14063078709E+04  0.14063078709E+04  0.50400001928E-02 0.  1.
    10030    2    1    2    0    0  0.00000000000E+00  0.00000000000E+00 -0.89176189827E+03  0.19208538435E+04  0.17013054414E+04 0.  0.
        4    1    3    3  502    0  0.42553794048E+01  0.73084809265E+03  0.45548223990E+02  0.73227952067E+03  0.12699999809E+01 0. -1.
       -4    1    3    3    0  502 -0.42553794048E+01 -0.73084809265E+03 -0.93731012226E+03  0.11885743229E+04  0.12699999809E+01 0.  1.
</event>
<event>
 5   0  0.2993769E-05  0.1702547E+04  0.7818609E-02  0.8759913E-01
        1   -1    0    0  501    0  0.00000000000E+00  0.00000000000E+00  0.87067375737E+03  0.87067375739E+03  0.50400001928E-02 0.  1.
       -1   -1    0    0    0  501  0.00000000000E+00  0.00000000000E+00 -0.83230569090E+03  0.83230569091E+03  0.50400001928E-02 0. -1.
    10030    2    1    2    0    0  0.00000000000E+00  0.00000000000E+00  0.38368066475E+02  0.17029794483E+04  0.17025471778E+04 0.  0.
        3    1    3    3  502    0  0.86033056490E+02 -0.49250426261E+03  0.70834704703E+03  0.86701654237E+03  0.10100000352E+00 0.  1.
       -3    1    3    3    0  502 -0.86033056490E+02  0.49250426261E+03 -0.66997898056E+03  0.83596290593E+03  0.10100000352E+00 0. -1.
</event>
<event>
 5   0  0.5755321E-05  0.1701329E+04  0.7818609E-02  0.8760607E-01
        2   -1    0    0  501    0  0.00000000000E+00  0.00000000000E+00  0.23406654253E+04  0.23406654253E+04  0.25500000920E-02 0.  1.
       -2   -1    0    0    0  501  0.00000000000E+00  0.00000000000E+00 -0.30915585969E+03  0.30915585970E+03  0.25500000920E-02 0. -1.
    10030    2    1    2    0    0  0.00000000000E+00  0.00000000000E+00  0.20315095656E+04  0.26498212850E+04  0.17013294000E+04 0.  0.
        4    1    3    3  502    0 -0.24478773802E+03 -0.65618488276E+03  0.17677697722E+04  0.19014497673E+04  0.12699999809E+01 0.  1.
       -4    1    3    3    0  502  0.24478773802E+03  0.65618488276E+03  0.26373979343E+03  0.74837151775E+03  0.12699999809E+01 0. -1.
</event>
<event>
 5   0  0.2966258E-05  0.1688343E+04  0.7818609E-02  0.8768041E-01
       -1   -1    0    0    0  501  0.00000000000E+00  0.00000000000E+00  0.49491350300E+03  0.49491350303E+03  0.50400001928E-02 0. -1.
        1   -1    0    0  501    0  0.00000000000E+00  0.00000000000E+00 -0.14398985309E+04  0.14398985309E+04  0.50400001928E-02 0.  1.
    10030    2    1    2    0    0  0.00000000000E+00  0.00000000000E+00 -0.94498502794E+03  0.19348120340E+04  0.16883426500E+04 0.  0.
        4    1    3    3  502    0  0.16442269062E+03  0.73408302670E+03 -0.91143678150E+03  0.11817915767E+04  0.12699999809E+01 0.  1.
       -4    1    3    3    0  502 -0.16442269062E+03 -0.73408302670E+03 -0.33548246438E+02  0.75302045724E+03  0.12699999809E+01 0. -1.
</event>
<event>
 5   0  0.2911632E-05  0.1699510E+04  0.7818609E-02  0.8761644E-01
        1   -1    0    0  501    0  0.00000000000E+00  0.00000000000E+00  0.26017944683E+04  0.26017944683E+04  0.50400001928E-02 0.  1.
       -1   -1    0    0    0  501  0.00000000000E+00  0.00000000000E+00 -0.27753275495E+03  0.27753275499E+03  0.50400001928E-02 0. -1.
    10030    2    1    2    0    0  0.00000000000E+00  0.00000000000E+00  0.23242617133E+04  0.28793272233E+04  0.16995095606E+04 0.  0.
        1    1    3    3  502    0  0.51617754216E+03 -0.64373480416E+03  0.81803740666E+03  0.11619031594E+04  0.50400001928E-02 0.  1.
       -1    1    3    3    0  502 -0.51617754216E+03  0.64373480416E+03  0.15062243067E+04  0.17174240639E+04  0.50400001928E-02 0. -1.
</event>
<event>
 5   0  0.2987859E-05  0.1695627E+04  0.7818609E-02  0.8763863E-01
       -1   -1    0    0    0  501  0.00000000000E+00  0.00000000000E+00  0.89334106507E+03  0.89334106509E+03  0.50400001928E-02 0. -1.
        1   -1    0    0  501    0  0.00000000000E+00  0.00000000000E+00 -0.80460594882E+03  0.80460594884E+03  0.50400001928E-02 0.  1.
    10030    2    1    2    0    0  0.00000000000E+00  0.00000000000E+00  0.88735116254E+02  0.16979470139E+04  0.16956267694E+04 0.  0.
        5    1    3    3  502    0 -0.67405399053E+03  0.10017184643E+02  0.55918808903E+03  0.87587815080E+03  0.46999998093E+01 0. -1.
       -5    1    3    3    0  502  0.67405399053E+03 -0.10017184643E+02 -0.47045297278E+03  0.82206886313E+03  0.46999998093E+01 0.  1.
</event>
<event>
 5   0  0.5755321E-05  0.1700597E+04  0.7818609E-02  0.8761024E-01
        2   -1    0    0  501    0  0.00000000000E+00  0.00000000000E+00  0.53513929515E+03  0.53513929516E+03  0.25500000920E-02 0. -1.
       -2   -1    0    0    0  501  0.00000000000E+00  0.00000000000E+00 -0.13510647415E+04  0.13510647415E+04  0.25500000920E-02 0.  1.
    10030    2    1    2    0    0  0.00000000000E+00  0.00000000000E+00 -0.81592544638E+03  0.18862040367E+04  0.17005973462E+04 0.  0.
        4    1    3    3  502    0  0.29429257922E+03 -0.66475366319E+03 -0.89711909937E+03  0.11546990284E+04  0.12699999809E+01 0.  1.
       -4    1    3    3    0  502 -0.29429257922E+03  0.66475366319E+03  0.81193652993E+02  0.73150500825E+03  0.12699999809E+01 0. -1.
</event>
<event>
 5   0  0.5652631E-05  0.1702172E+04  0.7818609E-02  0.8760127E-01
        2   -1    0    0  501    0  0.00000000000E+00  0.00000000000E+00  0.24339281637E+04  0.24339281637E+04  0.25500000920E-02 0.  1.
       -2   -1    0    0    0  501  0.00000000000E+00  0.00000000000E+00 -0.29760426232E+03  0.29760426233E+03  0.25500000920E-02 0. -1.
    10030    2    1    2    0    0  0.00000000000E+00  0.00000000000E+00  0.21363239014E+04  0.27315324260E+04  0.17021720192E+04 0.  0.
        2    1    3    3  502    0 -0.33953958240E+03  0.58696523314E+03  0.24280447573E+03  0.72025643099E+03  0.25500000920E-02 0.  1.
       -2    1    3    3    0  502  0.33953958240E+03 -0.58696523314E+03  0.18935194256E+04  0.20112759950E+04  0.25500000920E-02 0. -1.
</event>
<event>
 5   0  0.2987859E-05  0.1703418E+04  0.7818609E-02  0.8759417E-01
        1   -1    0    0  501    0  0.00000000000E+00  0.00000000000E+00  0.12954031014E+04  0.12954031014E+04  0.50400001928E-02 0. -1.
       -1   -1    0    0    0  501  0.00000000000E+00  0.00000000000E+00 -0.55998679839E+03  0.55998679841E+03  0.50400001928E-02 0.  1.
    10030    2    1    2    0    0  0.00000000000E+00  0.00000000000E+00  0.73541630304E+03  0.18553898999E+04  0.17034184870E+04 0.  0.
        5    1    3    3  502    0  0.37357904223E+03  0.32510452754E+03  0.11224428021E+04  0.12268472556E+04  0.46999998093E+01 0. -1.
       -5    1    3    3    0  502 -0.37357904223E+03 -0.32510452754E+03 -0.38702649908E+03  0.62854264422E+03  0.46999998093E+01 0.  1.
</event>
<event>
 5   0  0.2911632E-05  0.1703147E+04  0.7818609E-02  0.8759572E-01
        1   -1    0    0  501    0  0.00000000000E+00  0.00000000000E+00  0.18215536338E+04  0.18215536338E+04  0.50400001928E-02 0. -1.
       -1   -1    0    0    0  501  0.00000000000E+00  0.00000000000E+00 -0.39810931067E+03  0.39810931070E+03  0.50400001928E-02 0.  1.
    10030    2    1    2    0    0  0.00000000000E+00  0.00000000000E+00  0.14234443231E+04  0.22196629445E+04  0.17031470418E+04 0.  0.
        1    1    3    3  502    0 -0.40189908421E+03  0.49801780003E+03 -0.20471544834E+02  0.64028406759E+03  0.50400001928E-02 0.  1.
       -1    1    3    3    0  502  0.40189908421E+03 -0.49801780003E+03  0.14439158679E+04  0.15793788769E+04  0.50400001928E-02 0. -1.
</event>
<event>
 5   0  0.5671132E-05  0.1702549E+04  0.7818609E-02  0.8759912E-01
        2   -1    0    0  501    0  0.00000000000E+00  0.00000000000E+00  0.89074109780E+03  0.89074109780E+03  0.25500000920E-02 0.  1.
       -2   -1    0    0    0  501  0.00000000000E+00  0.00000000000E+00 -0.81355703652E+03  0.81355703652E+03  0.25500000920E-02 0. -1.
    10030    2    1    2    0    0  0.00000000000E+00  0.00000000000E+00  0.77184061283E+02  0.17042981343E+04  0.17025494857E+04 0.  0.
        3    1    3    3  502    0 -0.30678133816E+03  0.51825027491E+03 -0.56366577584E+03  0.82487408369E+03  0.10100000352E+00 0. -1.
       -3    1    3    3    0  502  0.30678133816E+03 -0.51825027491E+03  0.64084983713E+03  0.87942405063E+03  0.10100000352E+00 0.  1.
</event>
<event>
 5   0  0.5755321E-05  0.1699346E+04  0.7818609E-02  0.8761737E-01
        2   -1    0    0  501    0  0.00000000000E+00  0.00000000000E+00  0.12140566472E+04  0.12140566472E+04  0.25500000920E-02 0.  1.
       -2   -1    0    0    0  501  0.00000000000E+00  0.00000000000E+00 -0.59465457982E+03  0.59465457982E+03  0.25500000920E-02 0. -1.
    10030    2    1    2    0    0  0.00000000000E+00  0.00000000000E+00  0.61940206741E+03  0.18087112271E+04  0.16993461630E+04 0.  0.
        4    1    3    3  502    0 -0.14243078839E+03  0.32064663611E+02  0.12006055132E+04  0.12094502401E+04  0.12699999809E+01 0.  1.
       -4    1    3    3    0  502  0.14243078839E+03 -0.32064663611E+02 -0.58120344580E+03  0.59926098692E+03  0.12699999809E+01 0. -1.
</event>
<event>
 5   0  0.5755321E-05  0.1697189E+04  0.7818609E-02  0.8762969E-01
       -2   -1    0    0    0  501  0.00000000000E+00  0.00000000000E+00  0.44776802716E+03  0.44776802717E+03  0.25500000920E-02 0. -1.
        2   -1    0    0  501    0  0.00000000000E+00  0.00000000000E+00 -0.16082278243E+04  0.16082278243E+04  0.25500000920E-02 0.  1.
    10030    2    1    2    0    0  0.00000000000E+00  0.00000000000E+00 -0.11604597971E+04  0.20559958514E+04  0.16971894415E+04 0.  0.
        4    1    3    3  502    0  0.21125902913E+03 -0.15589930432E+03 -0.15577849956E+04  0.15797565243E+04  0.12699999809E+01 0.  1.
       -4    1    3    3    0  502 -0.21125902913E+03  0.15589930432E+03  0.39732519851E+03  0.47623932717E+03  0.12699999809E+01 0. -1.
</event>
<event>
 5   0  0.2993769E-05  0.1699070E+04  0.7818609E-02  0.8761895E-01
       -1   -1    0    0    0  501  0.00000000000E+00  0.00000000000E+00  0.39889675611E+03  0.39889675614E+03  0.50400001928E-02 0. -1.
        1   -1    0    0  501    0  0.00000000000E+00  0.00000000000E+00 -0.18092654989E+04  0.18092654989E+04  0.50400001928E-02 0.  1.
    10030    2    1    2    0    0  0.00000000000E+00  0.00000000000E+00 -0.14103687428E+04  0.22081622550E+04  0.16990704971E+04 0.  0.
        3    1    3    3  502    0 -0.40984693538E+03 -0.28193131685E+03 -0.16001851507E+04  0.16757244119E+04  0.10100000352E+00 0.  1.
       -3    1    3    3    0  502  0.40984693538E+03  0.28193131685E+03  0.18981640795E+03  0.53243784312E+03  0.10100000352E+00 0. -1.
</event>
<event>
 5   0  0.2993769E-05  0.1700030E+04  0.7818609E-02  0.8761347E-01
       -1   -1    0    0    0  501  0.00000000000E+00  0.00000000000E+00  0.60758932267E+03  0.60758932269E+03  0.50400001928E-02 0. -1.
        1   -1    0    0  501    0  0.00000000000E+00  0.00000000000E+00 -0.11891680184E+04  0.11891680184E+04  0.50400001928E-02 0.  1.
    10030    2    1    2    0    0  0.00000000000E+00  0.00000000000E+00 -0.58157869570E+03  0.17967573411E+04  0.17000303419E+04 0.  0.
        3    1    3    3  502    0 -0.73859557317E+03 -0.34422813592E+03 -0.35139585471E+02  0.81562934654E+03  0.10100000352E+00 0. -1.
       -3    1    3    3    0  502  0.73859557317E+03  0.34422813592E+03 -0.54643911023E+03  0.98112799453E+03  0.10100000352E+00 0.  1.
</event>
<event>
 5   0  0.2911632E-05  0.1700408E+04  0.7818609E-02  0.8761132E-01
       -1   -1    0    0    0  501  0.00000000000E+00  0.00000000000E+00  0.25609912802E+03  0.25609912807E+03  0.50400001928E-02 0.  1.
        1   -1    0    0  501    0  0.00000000000E+00  0.00000000000E+00 -0.28225278071E+04  0.28225278071E+04  0.50400001928E-02 0. -1.
    10030    2    1    2    0    0  0.00000000000E+00  0.00000000000E+00 -0.25664286791E+04  0.30786269352E+04  0.17004080808E+04 0.  0.
        1    1    3    3  502    0 -0.17090749918E+03 -0.22454232284E+03 -0.27352694329E+04  0.27497868096E+04  0.50400001928E-02 0. -1.
       -1    1    3    3    0  502  0.17090749918E+03  0.22454232284E+03  0.16884075377E+03  0.32884012556E+03  0.50400001928E-02 0.  1.
</event>
<event>
 5   0  0.2967704E-05  0.1694749E+04  0.7818609E-02  0.8764365E-01
       -1   -1    0    0    0  501  0.00000000000E+00  0.00000000000E+00  0.43924470106E+03  0.43924470108E+03  0.50400001928E-02 0. -1.
        1   -1    0    0  501    0  0.00000000000E+00  0.00000000000E+00 -0.16347233541E+04  0.16347233541E+04  0.50400001928E-02 0.  1.
    10030    2    1    2    0    0  0.00000000000E+00  0.00000000000E+00 -0.11954786530E+04  0.20739680552E+04  0.16947490328E+04 0.  0.
        2    1    3    3  502    0 -0.82164309974E+03  0.15759288556E+03 -0.76242807435E+03  0.11319140734E+04  0.25500000920E-02 0.  1.
       -2    1    3    3    0  502  0.82164309974E+03 -0.15759288556E+03 -0.43305057866E+03  0.94205398179E+03  0.25500000920E-02 0. -1.
</event>
<event>
 5   0  0.5671132E-05  0.1699732E+04  0.7818609E-02  0.8761517E-01
       -2   -1    0    0    0  501  0.00000000000E+00  0.00000000000E+00  0.12478575440E+04  0.12478575440E+04  0.25500000920E-02 0.  1.
        2   -1    0    0  501    0  0.00000000000E+00  0.00000000000E+00 -0.57880952751E+03  0.57880952752E+03  0.25500000920E-02 0. -1.
    10030    2    1    2    0    0  0.00000000000E+00  0.00000000000E+00  0.66904801644E+03  0.18266670715E+04  0.16997315499E+04 0.  0.
        3    1    3    3  502    0 -0.23725562368E+03 -0.74961281684E+03 -0.12153451576E+02  0.78635699445E+03  0.10100000352E+00 0.  1.
       -3    1    3    3    0  502  0.23725562368E+03  0.74961281684E+03  0.68120146802E+03  0.10403100770E+04  0.10100000352E+00 0. -1.
</event>
<event>
 5   0  0.5671132E-05  0.1700806E+04  0.7818609E-02  0.8760905E-01
       -2   -1    0    0    0  501  0.00000000000E+00  0.00000000000E+00  0.95573788098E+03  0.95573788098E+03  0.25500000920E-02 0. -1.
        2   -1    0    0  501    0  0.00000000000E+00  0.00000000000E+00 -0.75667738827E+03  0.75667738827E+03  0.25500000920E-02 0.  1.
    10030    2    1    2    0    0  0.00000000000E+00  0.00000000000E+00  0.19906049271E+03  0.17124152693E+04  0.17008059779E+04 0.  0.
        3    1    3    3  502    0 -0.33963016262E+03  0.77847942165E+03  0.56738657299E+02  0.85123330687E+03  0.10100000352E+00 0. -1.
       -3    1    3    3    0  502  0.33963016262E+03 -0.77847942165E+03  0.14232183541E+03  0.86118196238E+03  0.10100000352E+00 0.  1.
</event>
<event>
 5   0  0.2993769E-05  0.1700118E+04  0.7818609E-02  0.8761297E-01
        1   -1    0    0  501    0  0.00000000000E+00  0.00000000000E+00  0.89068282652E+03  0.89068282654E+03  0.50400001928E-02 0. -1.
       -1   -1    0    0    0  501  0.00000000000E+00  0.00000000000E+00 -0.81128822331E+03  0.81128822333E+03  0.50400001928E-02 0.  1.
    10030    2    1    2    0    0  0.00000000000E+00  0.00000000000E+00  0.79394603209E+02  0.17019710499E+04  0.17001182169E+04 0.  0.
        3    1    3    3  502    0 -0.52362293015E+02  0.82164420403E+03 -0.17209760665E+03  0.84110558443E+03  0.10100000352E+00 0.  1.
       -3    1    3    3    0  502  0.52362293015E+02 -0.82164420403E+03  0.25149220986E+03  0.86086546543E+03  0.10100000352E+00 0. -1.
</event>
<event>
 5   0  0.5652631E-05  0.1701940E+04  0.7818609E-02  0.8760258E-01
       -2   -1    0    0    0  501  0.00000000000E+00  0.00000000000E+00  0.22778573768E+04  0.22778573768E+04  0.25500000920E-02 0. -1.
        2   -1    0    0  501    0  0.00000000000E+00  0.00000000000E+00 -0.31790854071E+03  0.31790854072E+03  0.25500000920E-02 0.  1.
    10030    2    1    2    0    0  0.00000000000E+00  0.00000000000E+00  0.19599488361E+04  0.25957659176E+04  0.17019404392E+04 0.  0.
        2    1    3    3  502    0 -0.80568203807E+03 -0.27370819128E+03  0.99601378846E+03  0.13099935829E+04  0.25500000920E-02 0.  1.
       -2    1    3    3    0  502  0.80568203807E+03  0.27370819128E+03  0.96393504768E+03  0.12857723347E+04  0.25500000920E-02 0. -1.
</event>
<event>
 5   0  0.5821584E-05  0.1697854E+04  0.7818609E-02  0.8762589E-01
        2   -1    0    0  501    0  0.00000000000E+00  0.00000000000E+00  0.10286610664E+04  0.10286610664E+04  0.25500000920E-02 0.  1.
       -2   -1    0    0    0  501  0.00000000000E+00  0.00000000000E+00 -0.70059731423E+03  0.70059731423E+03  0.25500000920E-02 0. -1.
    10030    2    1    2    0    0  0.00000000000E+00  0.00000000000E+00  0.32806375221E+03  0.17292583807E+04  0.16978541520E+04 0.  0.
        1    1    3    3  502    0  0.30259163829E+03 -0.28398074625E+03 -0.59025423650E+03  0.72153089160E+03  0.50400001928E-02 0. -1.
       -1    1    3    3    0  502 -0.30259163829E+03  0.28398074625E+03  0.91831798871E+03  0.10077274891E+04  0.50400001928E-02 0.  1.
</event>
<event>
 5   0  0.5755321E-05  0.1703170E+04  0.7818609E-02  0.8759559E-01
       -2   -1    0    0    0  501  0.00000000000E+00  0.00000000000E+00  0.89275133897E+03  0.89275133897E+03  0.25500000920E-02 0.  1.
        2   -1    0    0  501    0  0.00000000000E+00  0.00000000000E+00 -0.81231647887E+03  0.81231647888E+03  0.25500000920E-02 0. -1.
    10030    2    1    2    0    0  0.00000000000E+00  0.00000000000E+00  0.80434860096E+02  0.17050678178E+04  0.17031695443E+04 0.  0.
        4    1    3    3  502    0  0.48435927545E+03  0.10252941236E+03 -0.65343202506E+03  0.81981169325E+03  0.12699999809E+01 0. -1.
       -4    1    3    3    0  502 -0.48435927545E+03 -0.10252941236E+03  0.73386688516E+03  0.88525612460E+03  0.12699999809E+01 0.  1.
</event>
<event>
 5   0  0.2987859E-05  0.1690533E+04  0.7818609E-02  0.8766782E-01
       -1   -1    0    0    0  501  0.00000000000E+00  0.00000000000E+00  0.98323915932E+03  0.98323915933E+03  0.50400001928E-02 0. -1.
        1   -1    0    0  501    0  0.00000000000E+00  0.00000000000E+00 -0.72665509383E+03  0.72665509385E+03  0.50400001928E-02 0.  1.
    10030    2    1    2    0    0  0.00000000000E+00  0.00000000000E+00  0.25658406549E+03  0.17098942532E+04  0.16905333402E+04 0.  0.
        5    1    3    3  502    0 -0.72750259451E+03 -0.38727700448E+03 -0.61500644685E+02  0.82646713335E+03  0.46999998093E+01 0.  1.
       -5    1    3    3    0  502  0.72750259451E+03  0.38727700448E+03  0.31808471017E+03  0.88342711983E+03  0.46999998093E+01 0. -1.
</event>
<event>
 5   0  0.5821584E-05  0.1703769E+04  0.7818609E-02  0.8759218E-01
        2   -1    0    0  501    0  0.00000000000E+00  0.00000000000E+00  0.18747864867E+04  0.18747864867E+04  0.25500000920E-02 0.  1.
       -2   -1    0    0    0  501  0.00000000000E+00  0.00000000000E+00 -0.38708798062E+03  0.38708798063E+03  0.25500000920E-02 0. -1.
    10030    2    1    2    0    0  0.00000000000E+00  0.00000000000E+00  0.14876985061E+04  0.22618744673E+04  0.17037691337E+04 0.  0.
        1    1    3    3  502    0 -0.67066348923E+03 -0.25899358131E+03  0.13716220483E+03  0.73190208458E+03  0.50400001928E-02 0. -1.
       -1    1    3    3    0  502  0.67066348923E+03  0.25899358131E+03  0.13505363012E+04  0.15299723827E+04  0.50400001928E-02 0.  1.
</event>
<event>
 5   0  0.5671132E-05  0.1698852E+04  0.7818609E-02  0.8762019E-01
       -2   -1    0    0    0  501  0.00000000000E+00  0.00000000000E+00  0.50473254714E+03  0.50473254715E+03  0.25500000920E-02 0. -1.
        2   -1    0    0  501    0  0.00000000000E+00  0.00000000000E+00 -0.14295190066E+04  0.14295190066E+04  0.25500000920E-02 0.  1.
    10030    2    1    2    0    0  0.00000000000E+00  0.00000000000E+00 -0.92478645945E+03  0.19342515537E+04  0.16988522824E+04 0.  0.
        3    1    3    3  502    0  0.82916388899E+02  0.50963328003E+03  0.30554545721E+03  0.59996603594E+03  0.10100000352E+00 0. -1.
       -3    1    3    3    0  502 -0.82916388899E+02 -0.50963328003E+03 -0.12303319167E+04  0.13342855178E+04  0.10100000352E+00 0.  1.
</event>
<event>
 5   0  0.2966258E-05  0.1697426E+04  0.7818609E-02  0.8762834E-01
        1   -1    0    0  501    0  0.00000000000E+00  0.00000000000E+00  0.72326350601E+03  0.72326350603E+03  0.50400001928E-02 0. -1.
       -1   -1    0    0    0  501  0.00000000000E+00  0.00000000000E+00 -0.99592174008E+03  0.99592174009E+03  0.50400001928E-02 0.  1.
    10030    2    1    2    0    0  0.00000000000E+00  0.00000000000E+00 -0.27265823407E+03  0.17191852461E+04  0.16974261097E+04 0.  0.
        4    1    3    3  502    0  0.50995498161E+03  0.65828235388E+03  0.29854978081E+02  0.83323626501E+03  0.12699999809E+01 0. -1.
       -4    1    3    3    0  502 -0.50995498161E+03 -0.65828235388E+03 -0.30251321215E+03  0.88594898111E+03  0.12699999809E+01 0.  1.
</event>
<event>
 5   0  0.5859822E-05  0.1700428E+04  0.7818609E-02  0.8761120E-01
       -2   -1    0    0    0  501  0.00000000000E+00  0.00000000000E+00  0.87875144526E+03  0.87875144527E+03  0.25500000920E-02 0. -1.
        2   -1    0    0  501    0  0.00000000000E+00  0.00000000000E+00 -0.82260323095E+03  0.82260323095E+03  0.25500000920E-02 0.  1.
    10030    2    1    2    0    0  0.00000000000E+00  0.00000000000E+00  0.56148214316E+02  0.17013546762E+04  0.17004279204E+04 0.  0.
        5    1    3    3  502    0  0.20736775872E+03  0.59340218909E+03  0.60084933113E+03  0.86958010217E+03  0.46999998093E+01 0. -1.
       -5    1    3    3    0  502 -0.20736775872E+03 -0.59340218909E+03 -0.54470111681E+03  0.83177457405E+03  0.46999998093E+01 0.  1.
</event>
<event>
 5   0  0.5652631E-05  0.1705504E+04  0.7818609E-02  0.8758231E-01
       -2   -1    0    0    0  501  0.00000000000E+00  0.00000000000E+00  0.96422678271E+03  0.96422678272E+03  0.25500000920E-02 0.  1.
        2   -1    0    0  501    0  0.00000000000E+00  0.00000000000E+00 -0.75416481880E+03  0.75416481880E+03  0.25500000920E-02 0. -1.
    10030    2    1    2    0    0  0.00000000000E+00  0.00000000000E+00  0.21006196392E+03  0.17183916015E+04  0.17055039336E+04 0.  0.
        2    1    3    3  502    0  0.32498748060E+03 -0.29912040293E+03  0.83999220992E+03  0.94903993106E+03  0.25500000920E-02 0.  1.
       -2    1    3    3    0  502 -0.32498748060E+03  0.29912040293E+03 -0.62993024601E+03  0.76935167046E+03  0.25500000920E-02 0. -1.
</event>
<event>
 5   0  0.5652631E-05  0.1700041E+04  0.7818609E-02  0.8761341E-01
        2   -1    0    0  501    0  0.00000000000E+00  0.00000000000E+00  0.20273193454E+04  0.20273193454E+04  0.25500000920E-02 0.  1.
       -2   -1    0    0    0  501  0.00000000000E+00  0.00000000000E+00 -0.35639897907E+03  0.35639897908E+03  0.25500000920E-02 0. -1.
    10030    2    1    2    0    0  0.00000000000E+00  0.00000000000E+00  0.16709203663E+04  0.23837183245E+04  0.17000406407E+04 0.  0.
        2    1    3    3  502    0  0.56075720447E+03  0.95662147609E+02  0.17210783452E+04  0.18126529064E+04  0.25500000920E-02 0.  1.
       -2    1    3    3    0  502 -0.56075720447E+03 -0.95662147609E+02 -0.50157978882E+02  0.57106541805E+03  0.25500000920E-02 0. -1.
</event>
<event>
 5   0  0.2993769E-05  0.1700653E+04  0.7818609E-02  0.8760992E-01
       -1   -1    0    0    0  501  0.00000000000E+00  0.00000000000E+00  0.77226182087E+03  0.77226182089E+03  0.50400001928E-02 0. -1.
        1   -1    0    0  501    0  0.00000000000E+00  0.00000000000E+00 -0.93628262323E+03  0.93628262325E+03  0.50400001928E-02 0.  1.
    10030    2    1    2    0    0  0.00000000000E+00  0.00000000000E+00 -0.16402080236E+03  0.17085444441E+04  0.17006531963E+04 0.  0.
        3    1    3    3  502    0 -0.15115569568E+03 -0.54340722390E+03 -0.72129304496E+03  0.91564355632E+03  0.10100000352E+00 0.  1.
       -3    1    3    3    0  502  0.15115569568E+03  0.54340722390E+03  0.55727224260E+03  0.79290088781E+03  0.10100000352E+00 0. -1.
</event>
<event>
 5   0  0.2967704E-05  0.1668323E+04  0.7818609E-02  0.8779640E-01
        1   -1    0    0  501    0  0.00000000000E+00  0.00000000000E+00  0.17746588659E+04  0.17746588659E+04  0.50400001928E-02 0.  1.
       -1   -1    0    0    0  501  0.00000000000E+00  0.00000000000E+00 -0.39208945449E+03  0.39208945452E+03  0.50400001928E-02 0. -1.
    10030    2    1    2    0    0  0.00000000000E+00  0.00000000000E+00  0.13825694114E+04  0.21667483204E+04  0.16683225428E+04 0.  0.
        2    1    3    3  502    0 -0.46707966278E+03  0.63026757945E+03  0.32296721098E+03  0.84835632399E+03  0.25500000920E-02 0. -1.
       -2    1    3    3    0  502  0.46707966278E+03 -0.63026757945E+03  0.10596022004E+04  0.13183919964E+04  0.25500000920E-02 0.  1.
</event>
<event>
 5   0  0.5821584E-05  0.1696576E+04  0.7818609E-02  0.8763319E-01
       -2   -1    0    0    0  501  0.00000000000E+00  0.00000000000E+00  0.95203106359E+03  0.95203106360E+03  0.25500000920E-02 0.  1.
        2   -1    0    0  501    0  0.00000000000E+00  0.00000000000E+00 -0.75585016182E+03  0.75585016183E+03  0.25500000920E-02 0. -1.
    10030    2    1    2    0    0  0.00000000000E+00  0.00000000000E+00  0.19618090177E+03  0.17078812254E+04  0.16965763566E+04 0.  0.
        1    1    3    3  502    0  0.53150065124E+03  0.65304758340E+03  0.20187321850E+03  0.86586193173E+03  0.50400001928E-02 0. -1.
       -1    1    3    3    0  502 -0.53150065124E+03 -0.65304758340E+03 -0.56923167284E+01  0.84201929369E+03  0.50400001928E-02 0.  1.
</event>
<event>
 5   0  0.2967704E-05  0.1700208E+04  0.7818609E-02  0.8761246E-01
        1   -1    0    0  501    0  0.00000000000E+00  0.00000000000E+00  0.75804286819E+03  0.75804286821E+03  0.50400001928E-02 0. -1.
       -1   -1    0    0    0  501  0.00000000000E+00  0.00000000000E+00 -0.95334575899E+03  0.95334575900E+03  0.50400001928E-02 0.  1.
    10030    2    1    2    0    0  0.00000000000E+00  0.00000000000E+00 -0.19530289079E+03  0.17113886272E+04  0.17002081679E+04 0.  0.
        2    1    3    3  502    0  0.14497208358E+03 -0.77570969249E+03 -0.41585447635E+03  0.89200749859E+03  0.25500000920E-02 0.  1.
       -2    1    3    3    0  502 -0.14497208358E+03  0.77570969249E+03  0.22055158556E+03  0.81938112862E+03  0.25500000920E-02 0. -1.
</event>
<event>
 5   0  0.2987859E-05  0.1694725E+04  0.7818609E-02  0.8764378E-01
       -1   -1    0    0    0  501  0.00000000000E+00  0.00000000000E+00  0.86615929258E+03  0.86615929260E+03  0.50400001928E-02 0. -1.
        1   -1    0    0  501    0  0.00000000000E+00  0.00000000000E+00 -0.82897400464E+03  0.82897400466E+03  0.50400001928E-02 0.  1.
    10030    2    1    2    0    0  0.00000000000E+00  0.00000000000E+00  0.37185287938E+02  0.16951332973E+04  0.16947253907E+04 0.  0.
        5    1    3    3  502    0 -0.41300537581E+03  0.54494518071E+03 -0.48199035637E+03  0.83658561072E+03  0.46999998093E+01 0.  1.
       -5    1    3    3    0  502  0.41300537581E+03 -0.54494518071E+03  0.51917564431E+03  0.85854768654E+03  0.46999998093E+01 0. -1.
</event>
<event>
 5   0  0.5859822E-05  0.1706453E+04  0.7818609E-02  0.8757692E-01
       -2   -1    0    0    0  501  0.00000000000E+00  0.00000000000E+00  0.46090899307E+03  0.46090899308E+03  0.25500000920E-02 0. -1.
        2   -1    0    0  501    0  0.00000000000E+00  0.00000000000E+00 -0.15794778150E+04  0.15794778150E+04  0.25500000920E-02 0.  1.
    10030    2    1    2    0    0  0.00000000000E+00  0.00000000000E+00 -0.11185688219E+04  0.20403868081E+04  0.17064530809E+04 0.  0.
        5    1    3    3  502    0 -0.35205044448E+03 -0.69206373172E+03 -0.98216238868E+03  0.12520210749E+04  0.46999998093E+01 0.  1.
       -5    1    3    3    0  502  0.35205044448E+03  0.69206373172E+03 -0.13640643323E+03  0.78836573318E+03  0.46999998093E+01 0. -1.
</event>
<event>
 5   0  0.2967704E-05  0.1700388E+04  0.7818609E-02  0.8761143E-01
       -1   -1    0    0    0  501  0.00000000000E+00  0.00000000000E+00  0.25161850247E+03  0.25161850252E+03  0.50400001928E-02 0.  1.
        1   -1    0    0  501    0  0.00000000000E+00  0.00000000000E+00 -0.28727222395E+04  0.28727222395E+04  0.50400001928E-02 0. -1.
    10030    2    1    2    0    0  0.00000000000E+00  0.00000000000E+00 -0.26211037370E+04  0.31243407420E+04  0.17003882709E+04 0.  0.
        2    1    3    3  502    0 -0.61714191111E+03  0.56697656435E+03 -0.15736539876E+04  0.17828946788E+04  0.25500000920E-02 0. -1.
       -2    1    3    3    0  502  0.61714191111E+03 -0.56697656435E+03 -0.10474497494E+04  0.13414460632E+04  0.25500000920E-02 0.  1.
</event>
<event>
 5   0  0.2993769E-05  0.1684732E+04  0.7818609E-02  0.8770121E-01
        1   -1    0    0  501    0  0.00000000000E+00  0.00000000000E+00  0.61617920170E+03  0.61617920172E+03  0.50400001928E-02 0.  1.
       -1   -1    0    0    0  501  0.00000000000E+00  0.00000000000E+00 -0.11515807886E+04  0.11515807886E+04  0.50400001928E-02 0. -1.
    10030    2    1    2    0    0  0.00000000000E+00  0.00000000000E+00 -0.53540158693E+03  0.17677599904E+04  0.16847315882E+04 0.  0.
        3    1    3    3  502    0 -0.53154177951E+03 -0.65297663753E+03 -0.24064295749E+03  0.87568498658E+03  0.10100000352E+00 0. -1.
       -3    1    3    3    0  502  0.53154177951E+03  0.65297663753E+03 -0.29475862945E+03  0.89207500378E+03  0.10100000352E+00 0.  1.
</event>
<event>
 5   0  0.2987859E-05  0.1699804E+04  0.7818609E-02  0.8761476E-01
        1   -1    0    0  501    0  0.00000000000E+00  0.00000000000E+00  0.12271822653E+04  0.12271822654E+04  0.50400001928E-02 0.  1.
       -1   -1    0    0    0  501  0.00000000000E+00  0.00000000000E+00 -0.58861101945E+03  0.58861101947E+03  0.50400001928E-02 0. -1.
    10030    2    1    2    0    0  0.00000000000E+00  0.00000000000E+00  0.63857124590E+03  0.18157932848E+04  0.16998035231E+04 0.  0.
        5    1    3    3  502    0  0.82861421918E+03 -0.15964681685E+03  0.42729007311E+03  0.94587923486E+03  0.46999998093E+01 0.  1.
       -5    1    3    3    0  502 -0.82861421918E+03  0.15964681685E+03  0.21128117278E+03  0.86991404997E+03  0.46999998093E+01 0. -1.
</event>
<event>
 5   0  0.5652631E-05  0.1706333E+04  0.7818609E-02  0.8757760E-01
        2   -1    0    0  501    0  0.00000000000E+00  0.00000000000E+00  0.58464255238E+03  0.58464255239E+03  0.25500000920E-02 0. -1.
       -2   -1    0    0    0  501  0.00000000000E+00  0.00000000000E+00 -0.12450230833E+04  0.12450230833E+04  0.25500000920E-02 0.  1.
    10030    2    1    2    0    0  0.00000000000E+00  0.00000000000E+00 -0.66038053088E+03  0.18296656356E+04  0.17063334647E+04 0.  0.
        2    1    3    3  502    0 -0.51662380998E+03  0.67881313331E+03 -0.34558194084E+03  0.92038812945E+03  0.25500000920E-02 0.  1.
       -2    1    3    3    0  502  0.51662380998E+03 -0.67881313331E+03 -0.31479859003E+03  0.90927750620E+03  0.25500000920E-02 0. -1.
</event>
<event>
 5   0  0.5671132E-05  0.1700228E+04  0.7818609E-02  0.8761234E-01
       -2   -1    0    0    0  501  0.00000000000E+00  0.00000000000E+00  0.78504283195E+03  0.78504283196E+03  0.25500000920E-02 0. -1.
        2   -1    0    0  501    0  0.00000000000E+00  0.00000000000E+00 -0.92057884403E+03  0.92057884403E+03  0.25500000920E-02 0.  1.
    10030    2    1    2    0    0  0.00000000000E+00  0.00000000000E+00 -0.13553601208E+03  0.17056216760E+04  0.17002280115E+04 0.  0.
        3    1    3    3  502    0  0.67856453473E+03  0.23666940435E+03  0.38779990072E+03  0.81660945865E+03  0.10100000352E+00 0. -1.
       -3    1    3    3    0  502 -0.67856453473E+03 -0.23666940435E+03 -0.52333591280E+03  0.88901221734E+03  0.10100000352E+00 0.  1.
</event>
<event>
 5   0  0.2993769E-05  0.1700693E+04  0.7818609E-02  0.8760969E-01
       -1   -1    0    0    0  501  0.00000000000E+00  0.00000000000E+00  0.12254463750E+04  0.12254463751E+04  0.50400001928E-02 0. -1.
        1   -1    0    0  501    0  0.00000000000E+00  0.00000000000E+00 -0.59006160987E+03  0.59006160989E+03  0.50400001928E-02 0.  1.
    10030    2    1    2    0    0  0.00000000000E+00  0.00000000000E+00  0.63538476518E+03  0.18155079850E+04  0.17006926364E+04 0.  0.
        3    1    3    3  502    0 -0.25222188662E+02 -0.47329895050E+02 -0.58825438835E+03  0.59069409459E+03  0.10100000352E+00 0.  1.
       -3    1    3    3    0  502  0.25222188662E+02  0.47329895050E+02  0.12236391535E+04  0.12248138904E+04  0.10100000352E+00 0. -1.
</event>
<event>
 5   0  0.5821584E-05  0.1698954E+04  0.7818609E-02  0.8761961E-01
       -2   -1    0    0    0  501  0.00000000000E+00  0.00000000000E+00  0.11079698969E+04  0.11079698969E+04  0.25500000920E-02 0.  1.
        2   -1    0    0  501    0  0.00000000000E+00  0.00000000000E+00 -0.65129161156E+03  0.65129161156E+03  0.25500000920E-02 0. -1.
    10030    2    1    2    0    0  0.00000000000E+00  0.00000000000E+00  0.45667828532E+03  0.17592615084E+04  0.16989543840E+04 0.  0.
        1    1    3    3  502    0 -0.22065910191E+03  0.46658677937E+03 -0.47030869308E+03  0.69827210223E+03  0.50400001928E-02 0. -1.
       -1    1    3    3    0  502  0.22065910191E+03 -0.46658677937E+03  0.92698697840E+03  0.10609894062E+04  0.50400001928E-02 0.  1.
</event>
<event>
 5   0  0.5821584E-05  0.1701215E+04  0.7818609E-02  0.8760672E-01
       -2   -1    0    0    0  501  0.00000000000E+00  0.00000000000E+00  0.70224672184E+03  0.70224672184E+03  0.25500000920E-02 0. -1.
        2   -1    0    0  501    0  0.00000000000E+00  0.00000000000E+00 -0.10303116930E+04  0.10303116930E+04  0.25500000920E-02 0.  1.
    10030    2    1    2    0    0  0.00000000000E+00  0.00000000000E+00 -0.32806497116E+03  0.17325584148E+04  0.17012148705E+04 0.  0.
        1    1    3    3  502    0 -0.75714102726E+03 -0.23638836357E+03  0.14885921565E+03  0.80703225444E+03  0.50400001928E-02 0. -1.
       -1    1    3    3    0  502  0.75714102726E+03  0.23638836357E+03 -0.47692418681E+03  0.92552616040E+03  0.50400001928E-02 0.  1.
</event>
<event>
 5   0  0.5859822E-05  0.1701922E+04  0.7818609E-02  0.8760269E-01
        2   -1    0    0  501    0  0.00000000000E+00  0.00000000000E+00  0.10896196166E+04  0.10896196166E+04  0.25500000920E-02 0.  1.
       -2   -1    0    0    0  501  0.00000000000E+00  0.00000000000E+00 -0.66457572871E+03  0.66457572872E+03  0.25500000920E-02 0. -1.
    10030    2    1    2    0    0  0.00000000000E+00  0.00000000000E+00  0.42504388791E+03  0.17541953453E+04  0.17019221495E+04 0.  0.
        5    1    3    3  502    0 -0.61922225114E+03  0.26495952452E+03 -0.32352170461E+03  0.74721357676E+03  0.46999998093E+01 0. -1.
       -5    1    3    3    0  502  0.61922225114E+03 -0.26495952452E+03  0.74856559252E+03  0.10069817686E+04  0.46999998093E+01 0.  1.
</event>
<event>
 5   0  0.5671132E-05  0.1700153E+04  0.7818609E-02  0.8761277E-01
       -2   -1    0    0    0  501  0.00000000000E+00  0.00000000000E+00  0.10875995603E+04  0.10875995603E+04  0.25500000920E-02 0. -1.
        2   -1    0    0  501    0  0.00000000000E+00  0.00000000000E+00 -0.66442641877E+03  0.66442641877E+03  0.25500000920E-02 0.  1.
    10030    2    1    2    0    0  0.00000000000E+00  0.00000000000E+00  0.42317314149E+03  0.17520259790E+04  0.17001527942E+04 0.  0.
        3    1    3    3  502    0 -0.77423962997E+03  0.17511662304E+03 -0.10185993996E+03  0.80030512547E+03  0.10100000352E+00 0.  1.
       -3    1    3    3    0  502  0.77423962997E+03 -0.17511662304E+03  0.52503308145E+03  0.95172085356E+03  0.10100000352E+00 0. -1.
</event>
<event>
 5   0  0.2911632E-05  0.1699790E+04  0.7818609E-02  0.8761484E-01
       -1   -1    0    0    0  501  0.00000000000E+00  0.00000000000E+00  0.10678935557E+04  0.10678935557E+04  0.50400001928E-02 0.  1.
        1   -1    0    0  501    0  0.00000000000E+00  0.00000000000E+00 -0.67639871988E+03  0.67639871990E+03  0.50400001928E-02 0. -1.
    10030    2    1    2    0    0  0.00000000000E+00  0.00000000000E+00  0.39149483584E+03  0.17442922756E+04  0.16997903801E+04 0.  0.
        1    1    3    3  502    0 -0.56240892323E+03  0.62391661426E+03  0.62952738961E+02  0.84234125261E+03  0.50400001928E-02 0. -1.
       -1    1    3    3    0  502  0.56240892323E+03 -0.62391661426E+03  0.32854209688E+03  0.90195102302E+03  0.50400001928E-02 0.  1.
</event>
<event>
 5   0  0.2911632E-05  0.1699249E+04  0.7818609E-02  0.8761793E-01
        1   -1    0    0  501    0  0.00000000000E+00  0.00000000000E+00  0.12649541451E+04  0.12649541451E+04  0.50400001928E-02 0. -1.
       -1   -1    0    0    0  501  0.00000000000E+00  0.00000000000E+00 -0.57066231333E+03  0.57066231335E+03  0.50400001928E-02 0.  1.
    10030    2    1    2    0    0  0.00000000000E+00  0.00000000000E+00  0.69429183177E+03  0.18356164585E+04  0.16992488443E+04 0.  0.
        1    1    3    3  502    0 -0.35881608085E+03  0.60254692873E+03 -0.17098077231E+03  0.72183530374E+03  0.50400001928E-02 0.  1.
       -1    1    3    3    0  502  0.35881608085E+03 -0.60254692873E+03  0.86527260408E+03  0.11137811547E+04  0.50400001928E-02 0. -1.
</event>
<event>
 5   0  0.2911632E-05  0.1700883E+04  0.7818609E-02  0.8760861E-01
       -1   -1    0    0    0  501  0.00000000000E+00  0.00000000000E+00  0.34687951006E+03  0.34687951010E+03  0.50400001928E-02 0.  1.
        1   -1    0    0  501    0  0.00000000000E+00  0.00000000000E+00 -0.20850191555E+04  0.20850191555E+04  0.50400001928E-02 0. -1.
    10030    2    1    2    0    0  0.00000000000E+00  0.00000000000E+00 -0.17381396454E+04  0.24318986656E+04  0.17008826217E+04 0.  0.
        1    1    3    3  502    0  0.39758246575E+02  0.55888241174E+01 -0.20836633687E+04  0.20840501403E+04  0.50400001928E-02 0. -1.
       -1    1    3    3    0  502 -0.39758246575E+02 -0.55888241174E+01  0.34552372332E+03  0.34784852526E+03  0.50400001928E-02 0.  1.
</event>
<event>
 5   0  0.5859822E-05  0.1698986E+04  0.7818609E-02  0.8761943E-01
        2   -1    0    0  501    0  0.00000000000E+00  0.00000000000E+00  0.11906125392E+04  0.11906125392E+04  0.25500000920E-02 0.  1.
       -2   -1    0    0    0  501  0.00000000000E+00  0.00000000000E+00 -0.60610685064E+03  0.60610685065E+03  0.25500000920E-02 0. -1.
    10030    2    1    2    0    0  0.00000000000E+00  0.00000000000E+00  0.58450568859E+03  0.17967193899E+04  0.16989860700E+04 0.  0.
        5    1    3    3  502    0  0.74489063046E+02 -0.49372160211E+03  0.10190320336E+04  0.11347942617E+04  0.46999998093E+01 0.  1.
       -5    1    3    3    0  502 -0.74489063046E+02  0.49372160211E+03 -0.43452634497E+03  0.66192512822E+03  0.46999998093E+01 0. -1.
</event>
<event>
 5   0  0.5821584E-05  0.1692957E+04  0.7818609E-02  0.8765392E-01
        2   -1    0    0  501    0  0.00000000000E+00  0.00000000000E+00  0.18884446225E+04  0.18884446225E+04  0.25500000920E-02 0. -1.
       -2   -1    0    0    0  501  0.00000000000E+00  0.00000000000E+00 -0.37942626399E+03  0.37942626400E+03  0.25500000920E-02 0.  1.
    10030    2    1    2    0    0  0.00000000000E+00  0.00000000000E+00  0.15090183585E+04  0.22678708865E+04  0.16929565711E+04 0.  0.
        1    1    3    3  502    0 -0.56008889659E+03  0.93815780449E+01  0.16046360822E+04  0.16996012892E+04  0.50400001928E-02 0. -1.
       -1    1    3    3    0  502  0.56008889659E+03 -0.93815780449E+01 -0.95617723667E+02  0.56826959728E+03  0.50400001928E-02 0.  1.
</event>
<event>
 5   0  0.2987859E-05  0.1699032E+04  0.7818609E-02  0.8761917E-01
        1   -1    0    0  501    0  0.00000000000E+00  0.00000000000E+00  0.75355459920E+03  0.75355459922E+03  0.50400001928E-02 0.  1.
       -1   -1    0    0    0  501  0.00000000000E+00  0.00000000000E+00 -0.95769768669E+03  0.95769768670E+03  0.50400001928E-02 0. -1.
    10030    2    1    2    0    0  0.00000000000E+00  0.00000000000E+00 -0.20414308749E+03  0.17112522859E+04  0.16990320732E+04 0.  0.
        5    1    3    3  502    0 -0.66120885038E+02 -0.28332094737E+03  0.70179971467E+03  0.75972867536E+03  0.46999998093E+01 0.  1.
       -5    1    3    3    0  502  0.66120885038E+02  0.28332094737E+03 -0.90594280216E+03  0.95152361055E+03  0.46999998093E+01 0. -1.
</event>
<event>
 5   0  0.2987859E-05  0.1712511E+04  0.7818609E-02  0.8754261E-01
       -1   -1    0    0    0  501  0.00000000000E+00  0.00000000000E+00  0.66519499373E+03  0.66519499375E+03  0.50400001928E-02 0. -1.
        1   -1    0    0  501    0  0.00000000000E+00  0.00000000000E+00 -0.11021936339E+04  0.11021936339E+04  0.50400001928E-02 0.  1.
    10030    2    1    2    0    0  0.00000000000E+00  0.00000000000E+00 -0.43699864019E+03  0.17673886277E+04  0.17125112408E+04 0.  0.
        5    1    3    3  502    0 -0.78866263595E+03 -0.32712244151E+03 -0.15198442273E+03  0.86724806130E+03  0.46999998093E+01 0. -1.
       -5    1    3    3    0  502  0.78866263595E+03  0.32712244151E+03 -0.28501421747E+03  0.90014056638E+03  0.46999998093E+01 0.  1.
</event>
<event>
 5   0  0.5821584E-05  0.1699703E+04  0.7818609E-02  0.8761534E-01
        2   -1    0    0  501    0  0.00000000000E+00  0.00000000000E+00  0.11924216039E+04  0.11924216039E+04  0.25500000920E-02 0. -1.
       -2   -1    0    0    0  501  0.00000000000E+00  0.00000000000E+00 -0.60569806168E+03  0.60569806168E+03  0.25500000920E-02 0.  1.
    10030    2    1    2    0    0  0.00000000000E+00  0.00000000000E+00  0.58672354224E+03  0.17981196656E+04  0.16997028613E+04 0.  0.
        1    1    3    3  502    0  0.32538818647E+03 -0.28875315854E+03  0.10656968593E+04  0.11510715245E+04  0.50400001928E-02 0. -1.
       -1    1    3    3    0  502 -0.32538818647E+03  0.28875315854E+03 -0.47897331707E+03  0.64704814114E+03  0.50400001928E-02 0.  1.
</event>
<event>
 5   0  0.2993769E-05  0.1700367E+04  0.7818609E-02  0.8761155E-01
       -1   -1    0    0    0  501  0.00000000000E+00  0.00000000000E+00  0.65161211229E+03  0.65161211231E+03  0.50400001928E-02 0.  1.
        1   -1    0    0  501    0  0.00000000000E+00  0.00000000000E+00 -0.11092670009E+04  0.11092670009E+04  0.50400001928E-02 0. -1.
    10030    2    1    2    0    0  0.00000000000E+00  0.00000000000E+00 -0.45765488863E+03  0.17608791132E+04  0.17003668000E+04 0.  0.
        3    1    3    3  502    0 -0.45286209530E+03  0.37425806289E+03  0.40758202228E+03  0.71503586629E+03  0.10100000352E+00 0.  1.
       -3    1    3    3    0  502  0.45286209530E+03 -0.37425806289E+03 -0.86523691091E+03  0.10458432470E+04  0.10100000352E+00 0. -1.
</event>
<event>
 5   0  0.2967704E-05  0.1699883E+04  0.7818609E-02  0.8761431E-01
       -1   -1    0    0    0  501  0.00000000000E+00  0.00000000000E+00  0.55034527065E+03  0.55034527067E+03  0.50400001928E-02 0.  1.
        1   -1    0    0  501    0  0.00000000000E+00  0.00000000000E+00 -0.13126310567E+04  0.13126310567E+04  0.50400001928E-02 0. -1.
    10030    2    1    2    0    0  0.00000000000E+00  0.00000000000E+00 -0.76228578601E+03  0.18629763273E+04  0.16998826950E+04 0.  0.
        2    1    3    3  502    0  0.66129902608E+03  0.50833503722E+03 -0.56015247070E+03  0.10047346428E+04  0.25500000920E-02 0. -1.
       -2    1    3    3    0  502 -0.66129902608E+03 -0.50833503722E+03 -0.20213331531E+03  0.85824168457E+03  0.25500000920E-02 0.  1.
</event>
<event>
 5   0  0.2966258E-05  0.1700256E+04  0.7818609E-02  0.8761218E-01
       -1   -1    0    0    0  501  0.00000000000E+00  0.00000000000E+00  0.73019307470E+03  0.73019307471E+03  0.50400001928E-02 0. -1.
        1   -1    0    0  501    0  0.00000000000E+00  0.00000000000E+00 -0.98976209129E+03  0.98976209130E+03  0.50400001928E-02 0.  1.
    10030    2    1    2    0    0  0.00000000000E+00  0.00000000000E+00 -0.25956901659E+03  0.17199551660E+04  0.17002557745E+04 0.  0.
        4    1    3    3  502    0 -0.38025205160E+03 -0.13958708740E+03 -0.88586623173E+03  0.97408252789E+03  0.12699999809E+01 0.  1.
       -4    1    3    3    0  502  0.38025205160E+03  0.13958708740E+03  0.62629721514E+03  0.74587263813E+03  0.12699999809E+01 0. -1.
</event>
<event>
 5   0  0.2966258E-05  0.1701343E+04  0.7818609E-02  0.8760599E-01
       -1   -1    0    0    0  501  0.00000000000E+00  0.00000000000E+00  0.85948698497E+03  0.85948698499E+03  0.50400001928E-02 0. -1.
        1   -1    0    0  501    0  0.00000000000E+00  0.00000000000E+00 -0.84194678407E+03  0.84194678408E+03  0.50400001928E-02 0.  1.
    10030    2    1    2    0    0  0.00000000000E+00  0.00000000000E+00  0.17540200909E+02  0.17014337691E+04  0.17013433551E+04 0.  0.
        4    1    3    3  502    0  0.60404890715E+03 -0.24405433397E+03  0.55579376693E+03  0.85635619015E+03  0.12699999809E+01 0. -1.
       -4    1    3    3    0  502 -0.60404890715E+03  0.24405433397E+03 -0.53825356602E+03  0.84507757892E+03  0.12699999809E+01 0.  1.
</event>
<event>
 5   0  0.2911632E-05  0.1700842E+04  0.7818609E-02  0.8760885E-01
       -1   -1    0    0    0  501  0.00000000000E+00  0.00000000000E+00  0.36827515325E+03  0.36827515328E+03  0.50400001928E-02 0. -1.
        1   -1    0    0  501    0  0.00000000000E+00  0.00000000000E+00 -0.19637911450E+04  0.19637911450E+04  0.50400001928E-02 0.  1.
    10030    2    1    2    0    0  0.00000000000E+00  0.00000000000E+00 -0.15955159917E+04  0.23320662983E+04  0.17008415387E+04 0.  0.
        1    1    3    3  502    0  0.47263990057E+03  0.46627542143E+03 -0.69105704375E+02  0.66751542502E+03  0.50400001928E-02 0. -1.
       -1    1    3    3    0  502 -0.47263990057E+03 -0.46627542143E+03 -0.15264102874E+04  0.16645508733E+04  0.50400001928E-02 0.  1.
</event>
<event>
 5   0  0.2993769E-05  0.1702275E+04  0.7818609E-02  0.8760068E-01
        1   -1    0    0  501    0  0.00000000000E+00  0.00000000000E+00  0.50115200411E+03  0.50115200414E+03  0.50400001928E-02 0.  1.
       -1   -1    0    0    0  501  0.00000000000E+00  0.00000000000E+00 -0.14455391819E+04  0.14455391819E+04  0.50400001928E-02 0. -1.
    10030    2    1    2    0    0  0.00000000000E+00  0.00000000000E+00 -0.94438717776E+03  0.19466911860E+04  0.17022747816E+04 0.  0.
        3    1    3    3  502    0 -0.65799650808E+03  0.44816205003E+03 -0.12792743274E+03  0.80633371874E+03  0.10100000352E+00 0.  1.
       -3    1    3    3    0  502  0.65799650808E+03 -0.44816205003E+03 -0.81645974501E+03  0.11403574673E+04  0.10100000352E+00 0. -1.
</event>
<event>
 5   0  0.2966258E-05  0.1698187E+04  0.7818609E-02  0.8762399E-01
       -1   -1    0    0    0  501  0.00000000000E+00  0.00000000000E+00  0.14191534045E+04  0.14191534045E+04  0.50400001928E-02 0.  1.
        1   -1    0    0  501    0  0.00000000000E+00  0.00000000000E+00 -0.50802130591E+03  0.50802130593E+03  0.50400001928E-02 0. -1.
    10030    2    1    2    0    0  0.00000000000E+00  0.00000000000E+00  0.91113209856E+03  0.19271747104E+04  0.16981874641E+04 0.  0.
        4    1    3    3  502    0 -0.71254044660E+03 -0.69287975735E+02 -0.62553514625E+02  0.71863013206E+03  0.12699999809E+01 0. -1.
       -4    1    3    3    0  502  0.71254044660E+03  0.69287975735E+02  0.97368561318E+03  0.12085445783E+04  0.12699999809E+01 0.  1.
</event>
<event>
 5   0  0.5671132E-05  0.1701149E+04  0.7818609E-02  0.8760709E-01
       -2   -1    0    0    0  501  0.00000000000E+00  0.00000000000E+00  0.51060386925E+03  0.51060386926E+03  0.25500000920E-02 0.  1.
        2   -1    0    0  501    0  0.00000000000E+00  0.00000000000E+00 -0.14169042453E+04  0.14169042453E+04  0.25500000920E-02 0. -1.
    10030    2    1    2    0    0  0.00000000000E+00  0.00000000000E+00 -0.90630037609E+03  0.19275081146E+04  0.17011487766E+04 0.  0.
        3    1    3    3  502    0 -0.21947016145E+03 -0.24000844628E+02 -0.13838724086E+04  0.14013729146E+04  0.10100000352E+00 0. -1.
       -3    1    3    3    0  502  0.21947016145E+03  0.24000844628E+02  0.47757203247E+03  0.52613520003E+03  0.10100000352E+00 0.  1.
</event>
<event>
 5   0  0.2967704E-05  0.1702614E+04  0.7818609E-02  0.8759875E-01
        1   -1    0    0  501    0  0.00000000000E+00  0.00000000000E+00  0.13295767152E+04  0.13295767152E+04  0.50400001928E-02 0.  1.
       -1   -1    0    0    0  501  0.00000000000E+00  0.00000000000E+00 -0.54507822272E+03  0.54507822274E+03  0.50400001928E-02 0. -1.
    10030    2    1    2    0    0  0.00000000000E+00  0.00000000000E+00  0.78449849250E+03  0.18746549380E+04  0.17026136531E+04 0.  0.
        2    1    3    3  502    0 -0.19166810617E+03  0.41763985162E+03  0.11812952918E+04  0.12675244672E+04  0.25500000920E-02 0.  1.
       -2    1    3    3    0  502  0.19166810617E+03 -0.41763985162E+03 -0.39679679929E+03  0.60713047075E+03  0.25500000920E-02 0. -1.
</event>
<event>
 5   0  0.2993769E-05  0.1698223E+04  0.7818609E-02  0.8762378E-01
        1   -1    0    0  501    0  0.00000000000E+00  0.00000000000E+00  0.11399319884E+04  0.11399319884E+04  0.50400001928E-02 0.  1.
       -1   -1    0    0    0  501  0.00000000000E+00  0.00000000000E+00 -0.63248574073E+03  0.63248574075E+03  0.50400001928E-02 0. -1.
    10030    2    1    2    0    0  0.00000000000E+00  0.00000000000E+00  0.50744624762E+03  0.17724177291E+04  0.16982234577E+04 0.  0.
        3    1    3    3  502    0 -0.79405798497E+03 -0.12720977511E+03 -0.30728289825E+02  0.80476993506E+03  0.10100000352E+00 0. -1.
       -3    1    3    3    0  502  0.79405798497E+03  0.12720977511E+03  0.53817453744E+03  0.96764779405E+03  0.10100000352E+00 0.  1.
</event>
<event>
 5   0  0.2967704E-05  0.1701519E+04  0.7818609E-02  0.8760499E-01
        1   -1    0    0  501    0  0.00000000000E+00  0.00000000000E+00  0.13143776825E+04  0.13143776825E+04  0.50400001928E-02 0. -1.
       -1   -1    0    0    0  501  0.00000000000E+00  0.00000000000E+00 -0.55067229711E+03  0.55067229713E+03  0.50400001928E-02 0.  1.
    10030    2    1    2    0    0  0.00000000000E+00  0.00000000000E+00  0.76370538539E+03  0.18650499796E+04  0.17015185896E+04 0.  0.
        2    1    3    3  502    0  0.21015378118E+03  0.65377533183E+03  0.93231839163E+03  0.11579310772E+04  0.25500000920E-02 0. -1.
       -2    1    3    3    0  502 -0.21015378118E+03 -0.65377533183E+03 -0.16861300624E+03  0.70711890240E+03  0.25500000920E-02 0.  1.
</event>
<event>
 5   0  0.5821584E-05  0.1699546E+04  0.7818609E-02  0.8761624E-01
       -2   -1    0    0    0  501  0.00000000000E+00  0.00000000000E+00  0.58169046514E+03  0.58169046515E+03  0.25500000920E-02 0.  1.
        2   -1    0    0  501    0  0.00000000000E+00  0.00000000000E+00 -0.12414056199E+04  0.12414056199E+04  0.25500000920E-02 0. -1.
    10030    2    1    2    0    0  0.00000000000E+00  0.00000000000E+00 -0.65971515471E+03  0.18230960850E+04  0.16995456010E+04 0.  0.
        1    1    3    3  502    0 -0.53453804389E+03  0.65759593504E+03 -0.26243558601E+03  0.88715036548E+03  0.50400001928E-02 0.  1.
       -1    1    3    3    0  502  0.53453804389E+03 -0.65759593504E+03 -0.39727956870E+03  0.93594571952E+03  0.50400001928E-02 0. -1.
</event>
<event>
 5   0  0.2911632E-05  0.1700531E+04  0.7818609E-02  0.8761061E-01
       -1   -1    0    0    0  501  0.00000000000E+00  0.00000000000E+00  0.95169405344E+03  0.95169405346E+03  0.50400001928E-02 0. -1.
        1   -1    0    0  501    0  0.00000000000E+00  0.00000000000E+00 -0.75964704148E+03  0.75964704150E+03  0.50400001928E-02 0.  1.
    10030    2    1    2    0    0  0.00000000000E+00  0.00000000000E+00  0.19204701196E+03  0.17113410950E+04  0.17005311783E+04 0.  0.
        1    1    3    3  502    0 -0.67039261689E+03  0.37541479562E+03 -0.27041896050E+03  0.81454830659E+03  0.50400001928E-02 0.  1.
       -1    1    3    3    0  502  0.67039261689E+03 -0.37541479562E+03  0.46246597245E+03  0.89679278836E+03  0.50400001928E-02 0. -1.
</event>
<event>
 5   0  0.5652631E-05  0.1698167E+04  0.7818609E-02  0.8762410E-01
       -2   -1    0    0    0  501  0.00000000000E+00  0.00000000000E+00  0.49297149604E+03  0.49297149605E+03  0.25500000920E-02 0.  1.
        2   -1    0    0  501    0  0.00000000000E+00  0.00000000000E+00 -0.14624436617E+04  0.14624436617E+04  0.25500000920E-02 0. -1.
    10030    2    1    2    0    0  0.00000000000E+00  0.00000000000E+00 -0.96947216562E+03  0.19554151577E+04  0.16981672942E+04 0.  0.
        2    1    3    3  502    0 -0.81657804736E+03  0.17786114667E+00 -0.21680020656E+03  0.84486807765E+03  0.25500000920E-02 0.  1.
       -2    1    3    3    0  502  0.81657804736E+03 -0.17786114667E+00 -0.75267195906E+03  0.11105470801E+04  0.25500000920E-02 0. -1.
</event>
<event>
 5   0  0.2098250E-05  0.1700318E+04  0.7818609E-02  0.8761183E-01
        3   -1    0    0  501    0  0.00000000000E+00  0.00000000000E+00  0.24600717645E+04  0.24600717666E+04  0.10100000352E+00 0.  1.
       -3   -1    0    0    0  501  0.00000000000E+00  0.00000000000E+00 -0.29380035754E+03  0.29380037490E+03  0.10100000352E+00 0. -1.
    10030    2    1    2    0    0  0.00000000000E+00  0.00000000000E+00  0.21662714070E+04  0.27538721415E+04  0.17003176065E+04 0.  0.
        2    1    3    3  502    0  0.84022402596E+03 -0.48927192471E+02  0.12774883885E+04  0.15298192268E+04  0.25500000920E-02 0.  1.
       -2    1    3    3    0  502 -0.84022402596E+03  0.48927192471E+02  0.88878301847E+03  0.12240529147E+04  0.25500000920E-02 0. -1.
</event>
<event>
 5   0  0.2911632E-05  0.1702902E+04  0.7818609E-02  0.8759711E-01
       -1   -1    0    0    0  501  0.00000000000E+00  0.00000000000E+00  0.82917205429E+03  0.82917205430E+03  0.50400001928E-02 0. -1.
        1   -1    0    0  501    0  0.00000000000E+00  0.00000000000E+00 -0.87432900515E+03  0.87432900517E+03  0.50400001928E-02 0.  1.
    10030    2    1    2    0    0  0.00000000000E+00  0.00000000000E+00 -0.45156950868E+02  0.17035010595E+04  0.17029024368E+04 0.  0.
        1    1    3    3  502    0  0.54702779896E+03  0.52590419753E+03  0.36376259508E+03  0.84150927708E+03  0.50400001928E-02 0. -1.
       -1    1    3    3    0  502 -0.54702779896E+03 -0.52590419753E+03 -0.40891954595E+03  0.86199178238E+03  0.50400001928E-02 0.  1.
</event>
<event>
 5   0  0.2993769E-05  0.1700699E+04  0.7818609E-02  0.8760966E-01
       -1   -1    0    0    0  501  0.00000000000E+00  0.00000000000E+00  0.58861418319E+03  0.58861418321E+03  0.50400001928E-02 0.  1.
        1   -1    0    0  501    0  0.00000000000E+00  0.00000000000E+00 -0.12284685703E+04  0.12284685703E+04  0.50400001928E-02 0. -1.
    10030    2    1    2    0    0  0.00000000000E+00  0.00000000000E+00 -0.63985438711E+03  0.18170827535E+04  0.17006987083E+04 0.  0.
        3    1    3    3  502    0  0.74465527468E+03 -0.36065375027E+03 -0.11025442765E+03  0.83470872447E+03  0.10100000352E+00 0.  1.
       -3    1    3    3    0  502 -0.74465527468E+03  0.36065375027E+03 -0.52959995946E+03  0.98237402905E+03  0.10100000352E+00 0. -1.
</event>
<event>
 5   0  0.5671132E-05  0.1703454E+04  0.7818609E-02  0.8759397E-01
       -2   -1    0    0    0  501  0.00000000000E+00  0.00000000000E+00  0.63082876594E+03  0.63082876594E+03  0.25500000920E-02 0.  1.
        2   -1    0    0  501    0  0.00000000000E+00  0.00000000000E+00 -0.11499780653E+04  0.11499780653E+04  0.25500000920E-02 0. -1.
    10030    2    1    2    0    0  0.00000000000E+00  0.00000000000E+00 -0.51914929939E+03  0.17808068313E+04  0.17034544242E+04 0.  0.
        3    1    3    3  502    0 -0.19056564578E+03 -0.18614156655E+03 -0.11053069549E+04  0.11369553302E+04  0.10100000352E+00 0. -1.
       -3    1    3    3    0  502  0.19056564578E+03  0.18614156655E+03  0.58615765549E+03  0.64385150108E+03  0.10100000352E+00 0.  1.
</event>
<event>
 5   0  0.5755321E-05  0.1699572E+04  0.7818609E-02  0.8761608E-01
        2   -1    0    0  501    0  0.00000000000E+00  0.00000000000E+00  0.74293630055E+03  0.74293630056E+03  0.25500000920E-02 0. -1.
       -2   -1    0    0    0  501  0.00000000000E+00  0.00000000000E+00 -0.97200318482E+03  0.97200318482E+03  0.25500000920E-02 0.  1.
    10030    2    1    2    0    0  0.00000000000E+00  0.00000000000E+00 -0.22906688426E+03  0.17149394854E+04  0.16995722406E+04 0.  0.
        4    1    3    3  502    0  0.20837692829E+02 -0.64396050858E+02  0.74021122135E+03  0.74330029323E+03  0.12699999809E+01 0. -1.
       -4    1    3    3    0  502 -0.20837692829E+02  0.64396050858E+02 -0.96927810561E+03  0.97163919215E+03  0.12699999809E+01 0.  1.
</event>
<event>
 5   0  0.2911632E-05  0.1699421E+04  0.7818609E-02  0.8761694E-01
        1   -1    0    0  501    0  0.00000000000E+00  0.00000000000E+00  0.12549465777E+04  0.12549465777E+04  0.50400001928E-02 0.  1.
       -1   -1    0    0    0  501  0.00000000000E+00  0.00000000000E+00 -0.57532981936E+03  0.57532981938E+03  0.50400001928E-02 0. -1.
    10030    2    1    2    0    0  0.00000000000E+00  0.00000000000E+00  0.67961675835E+03  0.18302763971E+04  0.16994212990E+04 0.  0.
        1    1    3    3  502    0  0.72487722219E+03  0.15700537137E+03  0.78635503525E+03  0.10809495434E+04  0.50400001928E-02 0.  1.
       -1    1    3    3    0  502 -0.72487722219E+03 -0.15700537137E+03 -0.10673827690E+03  0.74932685370E+03  0.50400001928E-02 0. -1.
</event>
<event>
 5   0  0.2987859E-05  0.1699562E+04  0.7818609E-02  0.8761614E-01
        1   -1    0    0  501    0  0.00000000000E+00  0.00000000000E+00  0.11942983377E+04  0.11942983377E+04  0.50400001928E-02 0. -1.
       -1   -1    0    0    0  501  0.00000000000E+00  0.00000000000E+00 -0.60464580140E+03  0.60464580142E+03  0.50400001928E-02 0.  1.
    10030    2    1    2    0    0  0.00000000000E+00  0.00000000000E+00  0.58965253628E+03  0.17989441391E+04  0.16995616794E+04 0.  0.
        5    1    3    3  502    0 -0.14685625215E+03 -0.13687418595E+03 -0.57917194881E+03  0.61299554473E+03  0.46999998093E+01 0.  1.
       -5    1    3    3    0  502  0.14685625215E+03  0.13687418595E+03  0.11688244851E+04  0.11859485944E+04  0.46999998093E+01 0. -1.
</event>
<event>
 5   0  0.5671132E-05  0.1699698E+04  0.7818609E-02  0.8761537E-01
       -2   -1    0    0    0  501  0.00000000000E+00  0.00000000000E+00  0.96333509416E+03  0.96333509417E+03  0.25500000920E-02 0.  1.
        2   -1    0    0  501    0  0.00000000000E+00  0.00000000000E+00 -0.74973225829E+03  0.74973225829E+03  0.25500000920E-02 0. -1.
    10030    2    1    2    0    0  0.00000000000E+00  0.00000000000E+00  0.21360283588E+03  0.17130673525E+04  0.16996980857E+04 0.  0.
        3    1    3    3  502    0 -0.35630146429E+03  0.64989872613E+03 -0.31231112996E+03  0.80427441821E+03  0.10100000352E+00 0. -1.
       -3    1    3    3    0  502  0.35630146429E+03 -0.64989872613E+03  0.52591396583E+03  0.90879293425E+03  0.10100000352E+00 0.  1.
</event>
<event>
 5   0  0.2966258E-05  0.1699160E+04  0.7818609E-02  0.8761844E-01
       -1   -1    0    0    0  501  0.00000000000E+00  0.00000000000E+00  0.51751621872E+03  0.51751621875E+03  0.50400001928E-02 0. -1.
        1   -1    0    0  501    0  0.00000000000E+00  0.00000000000E+00 -0.13947115155E+04  0.13947115155E+04  0.50400001928E-02 0.  1.
    10030    2    1    2    0    0  0.00000000000E+00  0.00000000000E+00 -0.87719529680E+03  0.19122277343E+04  0.16991595920E+04 0.  0.
        4    1    3    3  502    0 -0.44991636275E+03  0.54449215713E+03  0.92713054924E+02  0.71238596709E+03  0.12699999809E+01 0. -1.
       -4    1    3    3    0  502  0.44991636275E+03 -0.54449215713E+03 -0.96990835172E+03  0.11998417672E+04  0.12699999809E+01 0.  1.
</event>
<event>
 5   0  0.5671132E-05  0.1703959E+04  0.7818609E-02  0.8759110E-01
       -2   -1    0    0    0  501  0.00000000000E+00  0.00000000000E+00  0.35321684442E+03  0.35321684443E+03  0.25500000920E-02 0. -1.
        2   -1    0    0  501    0  0.00000000000E+00  0.00000000000E+00 -0.20550233672E+04  0.20550233672E+04  0.25500000920E-02 0.  1.
    10030    2    1    2    0    0  0.00000000000E+00  0.00000000000E+00 -0.17018065228E+04  0.24082402116E+04  0.17039587659E+04 0.  0.
        3    1    3    3  502    0  0.76177593634E+03  0.33153069995E+03 -0.11177690383E+04  0.13927034198E+04  0.10100000352E+00 0.  1.
       -3    1    3    3    0  502 -0.76177593634E+03 -0.33153069995E+03 -0.58403748445E+03  0.10155367919E+04  0.10100000352E+00 0. -1.
</event>
<event>
 5   0  0.2098250E-05  0.1700107E+04  0.7818609E-02  0.8761303E-01
       -3   -1    0    0    0  501  0.00000000000E+00  0.00000000000E+00  0.10760560129E+04  0.10760560177E+04  0.10100000352E+00 0. -1.
        3   -1    0    0  501    0  0.00000000000E+00  0.00000000000E+00 -0.67151826234E+03  0.67151826993E+03  0.10100000352E+00 0.  1.
    10030    2    1    2    0    0  0.00000000000E+00  0.00000000000E+00  0.40453775061E+03  0.17475742876E+04  0.17001073787E+04 0.  0.
        2    1    3    3  502    0 -0.21446049713E+03 -0.29535406018E+02 -0.64270735044E+03  0.67818757239E+03  0.25500000920E-02 0.  1.
       -2    1    3    3    0  502  0.21446049713E+03  0.29535406018E+02  0.10472451010E+04  0.10693867152E+04  0.25500000920E-02 0. -1.
</event>
<event>
 5   0  0.2967704E-05  0.1705178E+04  0.7818609E-02  0.8758417E-01
       -1   -1    0    0    0  501  0.00000000000E+00  0.00000000000E+00  0.65243237066E+03  0.65243237068E+03  0.50400001928E-02 0. -1.
        1   -1    0    0  501    0  0.00000000000E+00  0.00000000000E+00 -0.11141510460E+04  0.11141510460E+04  0.50400001928E-02 0.  1.
    10030    2    1    2    0    0  0.00000000000E+00  0.00000000000E+00 -0.46171867536E+03  0.17665834167E+04  0.17051782408E+04 0.  0.
        2    1    3    3  502    0 -0.37877524983E+03 -0.67646800693E+03  0.13663780776E+03  0.78724173213E+03  0.25500000920E-02 0. -1.
       -2    1    3    3    0  502  0.37877524983E+03  0.67646800693E+03 -0.59835648311E+03  0.97934168459E+03  0.25500000920E-02 0.  1.
</event>
<event>
 5   0  0.5859822E-05  0.1700522E+04  0.7818609E-02  0.8761067E-01
        2   -1    0    0  501    0  0.00000000000E+00  0.00000000000E+00  0.98305327330E+03  0.98305327331E+03  0.25500000920E-02 0. -1.
       -2   -1    0    0    0  501  0.00000000000E+00  0.00000000000E+00 -0.73540668490E+03  0.73540668491E+03  0.25500000920E-02 0.  1.
    10030    2    1    2    0    0  0.00000000000E+00  0.00000000000E+00  0.24764658840E+03  0.17184599582E+04  0.17005222125E+04 0.  0.
        5    1    3    3  502    0  0.31212701595E+02 -0.60811084532E+03 -0.47585762468E+03  0.77281019785E+03  0.46999998093E+01 0.  1.
       -5    1    3    3    0  502 -0.31212701595E+02  0.60811084532E+03  0.72350421308E+03  0.94564976036E+03  0.46999998093E+01 0. -1.
</event>
<event>
 5   0  0.2911632E-05  0.1701866E+04  0.7818609E-02  0.8760301E-01
        1   -1    0    0  501    0  0.00000000000E+00  0.00000000000E+00  0.18999549987E+04  0.18999549987E+04  0.50400001928E-02 0.  1.
       -1   -1    0    0    0  501  0.00000000000E+00  0.00000000000E+00 -0.38110745800E+03  0.38110745803E+03  0.50400001928E-02 0. -1.
    10030    2    1    2    0    0  0.00000000000E+00  0.00000000000E+00  0.15188475407E+04  0.22810624568E+04  0.17018660581E+04 0.  0.
        1    1    3    3  502    0  0.38741949508E+03 -0.10275659807E+03  0.17655058565E+04  0.18104319134E+04  0.50400001928E-02 0.  1.
       -1    1    3    3    0  502 -0.38741949508E+03  0.10275659807E+03 -0.24665831576E+03  0.47063054340E+03  0.50400001928E-02 0. -1.
</event>
<event>
 5   0  0.2911632E-05  0.1700325E+04  0.7818609E-02  0.8761179E-01
        1   -1    0    0  501    0  0.00000000000E+00  0.00000000000E+00  0.68435745667E+03  0.68435745669E+03  0.50400001928E-02 0. -1.
       -1   -1    0    0    0  501  0.00000000000E+00  0.00000000000E+00 -0.10561383865E+04  0.10561383866E+04  0.50400001928E-02 0.  1.
    10030    2    1    2    0    0  0.00000000000E+00  0.00000000000E+00 -0.37178092987E+03  0.17404958432E+04  0.17003248868E+04 0.  0.
        1    1    3    3  502    0  0.61643086886E+02  0.62913201739E+03  0.39601986991E+03  0.74594819046E+03  0.50400001928E-02 0. -1.
       -1    1    3    3    0  502 -0.61643086886E+02 -0.62913201739E+03 -0.76780079978E+03  0.99454765277E+03  0.50400001928E-02 0.  1.
</event>
<event>
 5   0  0.5671132E-05  0.1695862E+04  0.7818609E-02  0.8763728E-01
       -2   -1    0    0    0  501  0.00000000000E+00  0.00000000000E+00  0.49557409365E+03  0.49557409365E+03  0.25500000920E-02 0. -1.
        2   -1    0    0  501    0  0.00000000000E+00  0.00000000000E+00 -0.14508166143E+04  0.14508166143E+04  0.25500000920E-02 0.  1.
    10030    2    1    2    0    0  0.00000000000E+00  0.00000000000E+00 -0.95524252063E+03  0.19463907079E+04  0.16958621744E+04 0.  0.
        3    1    3    3  502    0  0.30151276938E+03 -0.70485887615E+03 -0.89342749769E+03  0.11772632200E+04  0.10100000352E+00 0. -1.
       -3    1    3    3    0  502 -0.30151276938E+03  0.70485887615E+03 -0.61815022933E+02  0.76912748790E+03  0.10100000352E+00 0.  1.
</event>
<event>
 5   0  0.2966258E-05  0.1699536E+04  0.7818609E-02  0.8761629E-01
       -1   -1    0    0    0  501  0.00000000000E+00  0.00000000000E+00  0.98823659674E+03  0.98823659675E+03  0.50400001928E-02 0.  1.
        1   -1    0    0  501    0  0.00000000000E+00  0.00000000000E+00 -0.73070101777E+03  0.73070101779E+03  0.50400001928E-02 0. -1.
    10030    2    1    2    0    0  0.00000000000E+00  0.00000000000E+00  0.25753557897E+03  0.17189376145E+04  0.16995358038E+04 0.  0.
        4    1    3    3  502    0  0.61442879074E+03 -0.48647771730E+03 -0.20349515068E+03  0.80968833360E+03  0.12699999809E+01 0. -1.
       -4    1    3    3    0  502 -0.61442879074E+03  0.48647771730E+03  0.46103072964E+03  0.90924928094E+03  0.12699999809E+01 0.  1.
</event>
<event>
 5   0  0.2911632E-05  0.1702698E+04  0.7818609E-02  0.8759827E-01
       -1   -1    0    0    0  501  0.00000000000E+00  0.00000000000E+00  0.91413489021E+03  0.91413489023E+03  0.50400001928E-02 0.  1.
        1   -1    0    0  501    0  0.00000000000E+00  0.00000000000E+00 -0.79287534609E+03  0.79287534611E+03  0.50400001928E-02 0. -1.
    10030    2    1    2    0    0  0.00000000000E+00  0.00000000000E+00  0.12125954412E+03  0.17070102363E+04  0.17026978798E+04 0.  0.
        1    1    3    3  502    0  0.33914482233E+03 -0.74552518787E+03  0.29352827499E+03  0.87004934602E+03  0.50400001928E-02 0.  1.
       -1    1    3    3    0  502 -0.33914482233E+03  0.74552518787E+03 -0.17226873087E+03  0.83696089032E+03  0.50400001928E-02 0. -1.
</event>
<event>
 5   0  0.5859822E-05  0.1701471E+04  0.7818609E-02  0.8760526E-01
        2   -1    0    0  501    0  0.00000000000E+00  0.00000000000E+00  0.12347416200E+04  0.12347416200E+04  0.25500000920E-02 0.  1.
       -2   -1    0    0    0  501  0.00000000000E+00  0.00000000000E+00 -0.58615571403E+03  0.58615571403E+03  0.25500000920E-02 0. -1.
    10030    2    1    2    0    0  0.00000000000E+00  0.00000000000E+00  0.64858590601E+03  0.18208973341E+04  0.17014709588E+04 0.  0.
        5    1    3    3  502    0 -0.18551370080E+02 -0.15830327459E+03 -0.57002019678E+03  0.59190302822E+03  0.46999998093E+01 0. -1.
       -5    1    3    3    0  502  0.18551370080E+02  0.15830327459E+03  0.12186061028E+04  0.12289943059E+04  0.46999998093E+01 0.  1.
</event>
<event>
 5   0  0.2987859E-05  0.1702594E+04  0.7818609E-02  0.8759886E-01
        1   -1    0    0  501    0  0.00000000000E+00  0.00000000000E+00  0.17271865377E+04  0.17271865377E+04  0.50400001928E-02 0. -1.
       -1   -1    0    0    0  501  0.00000000000E+00  0.00000000000E+00 -0.41958775784E+03  0.41958775787E+03  0.50400001928E-02 0.  1.
    10030    2    1    2    0    0  0.00000000000E+00  0.00000000000E+00  0.13075987799E+04  0.21467742956E+04  0.17025937000E+04 0.  0.
        5    1    3    3  502    0 -0.28554916177E+03 -0.26446742457E+03  0.16084172424E+04  0.16548442398E+04  0.46999998093E+01 0. -1.
       -5    1    3    3    0  502  0.28554916177E+03  0.26446742457E+03 -0.30081846248E+03  0.49193005581E+03  0.46999998093E+01 0.  1.
</event>
<event>
 5   0  0.5671132E-05  0.1698331E+04  0.7818609E-02  0.8762317E-01
       -2   -1    0    0    0  501  0.00000000000E+00  0.00000000000E+00  0.37850852600E+03  0.37850852601E+03  0.25500000920E-02 0. -1.
        2   -1    0    0  501    0  0.00000000000E+00  0.00000000000E+00 -0.19050607596E+04  0.19050607596E+04  0.25500000920E-02 0.  1.
    10030    2    1    2    0    0  0.00000000000E+00  0.00000000000E+00 -0.15265522335E+04  0.22835692856E+04  0.16983306393E+04 0.  0.
        3    1    3    3  502    0 -0.65831851857E+03  0.32590719104E+03 -0.19046705969E+03  0.75886525819E+03  0.10100000352E+00 0. -1.
       -3    1    3    3    0  502  0.65831851857E+03 -0.32590719104E+03 -0.13360851739E+04  0.15247040274E+04  0.10100000352E+00 0.  1.
</event>
<event>
 5   0  0.2967704E-05  0.1647375E+04  0.7818609E-02  0.8791961E-01
        1   -1    0    0  501    0  0.00000000000E+00  0.00000000000E+00  0.59709610634E+03  0.59709610637E+03  0.50400001928E-02 0.  1.
       -1   -1    0    0    0  501  0.00000000000E+00  0.00000000000E+00 -0.11362680614E+04  0.11362680614E+04  0.50400001928E-02 0. -1.
    10030    2    1    2    0    0  0.00000000000E+00  0.00000000000E+00 -0.53917195507E+03  0.17333641678E+04  0.16473751671E+04 0.  0.
        2    1    3    3  502    0  0.20707448728E+03  0.77208571378E+03 -0.47861355494E+03  0.93170120086E+03  0.25500000920E-02 0.  1.
       -2    1    3    3    0  502 -0.20707448728E+03 -0.77208571378E+03 -0.60558400126E+02  0.80166296693E+03  0.25500000920E-02 0. -1.
</event>
<event>
 5   0  0.2966258E-05  0.1650059E+04  0.7818609E-02  0.8790372E-01
       -1   -1    0    0    0  501  0.00000000000E+00  0.00000000000E+00  0.13671963195E+04  0.13671963195E+04  0.50400001928E-02 0.  1.
        1   -1    0    0  501    0  0.00000000000E+00  0.00000000000E+00 -0.49786068144E+03  0.49786068147E+03  0.50400001928E-02 0. -1.
    10030    2    1    2    0    0  0.00000000000E+00  0.00000000000E+00  0.86933563802E+03  0.18650570009E+04  0.16500585339E+04 0.  0.
        4    1    3    3  502    0  0.54286488727E+03  0.25769776492E+01  0.11368753065E+04  0.12598396732E+04  0.12699999809E+01 0.  1.
       -4    1    3    3    0  502 -0.54286488727E+03 -0.25769776492E+01 -0.26753966853E+03  0.60521732773E+03  0.12699999809E+01 0. -1.
</event>
<event>
 5   0  0.2911632E-05  0.1702389E+04  0.7818609E-02  0.8760003E-01
        1   -1    0    0  501    0  0.00000000000E+00  0.00000000000E+00  0.71847017409E+03  0.71847017411E+03  0.50400001928E-02 0.  1.
       -1   -1    0    0    0  501  0.00000000000E+00  0.00000000000E+00 -0.10084372535E+04  0.10084372535E+04  0.50400001928E-02 0. -1.
    10030    2    1    2    0    0  0.00000000000E+00  0.00000000000E+00 -0.28996707944E+03  0.17269074276E+04  0.17023890144E+04 0.  0.
        1    1    3    3  502    0 -0.83691393984E+03 -0.65328724937E+02 -0.28786420594E+03  0.88744497637E+03  0.50400001928E-02 0.  1.
       -1    1    3    3    0  502  0.83691393984E+03  0.65328724937E+02 -0.21028734971E+01  0.83946245128E+03  0.50400001928E-02 0. -1.
</event>
<event>
 5   0  0.2966258E-05  0.1692676E+04  0.7818609E-02  0.8765553E-01
        1   -1    0    0  501    0  0.00000000000E+00  0.00000000000E+00  0.81560470501E+03  0.81560470502E+03  0.50400001928E-02 0. -1.
       -1   -1    0    0    0  501  0.00000000000E+00  0.00000000000E+00 -0.87822916372E+03  0.87822916373E+03  0.50400001928E-02 0.  1.
    10030    2    1    2    0    0  0.00000000000E+00  0.00000000000E+00 -0.62624458710E+02  0.16938338688E+04  0.16926757965E+04 0.  0.
        4    1    3    3  502    0  0.38652304400E+03 -0.33834356212E+03  0.64176210135E+03  0.82203201714E+03  0.12699999809E+01 0. -1.
       -4    1    3    3    0  502 -0.38652304400E+03  0.33834356212E+03 -0.70438656006E+03  0.87180185161E+03  0.12699999809E+01 0.  1.
</event>
<event>
 5   0  0.5652631E-05  0.1698678E+04  0.7818609E-02  0.8762119E-01
       -2   -1    0    0    0  501  0.00000000000E+00  0.00000000000E+00  0.64558165747E+03  0.64558165747E+03  0.25500000920E-02 0. -1.
        2   -1    0    0  501    0  0.00000000000E+00  0.00000000000E+00 -0.11174055924E+04  0.11174055924E+04  0.25500000920E-02 0.  1.
    10030    2    1    2    0    0  0.00000000000E+00  0.00000000000E+00 -0.47182393492E+03  0.17629872499E+04  0.16986777851E+04 0.  0.
        2    1    3    3  502    0  0.48870454156E+03 -0.59570870262E+03 -0.60675665495E+03  0.98074187514E+03  0.25500000920E-02 0.  1.
       -2    1    3    3    0  502 -0.48870454156E+03  0.59570870262E+03  0.13493272004E+03  0.78224537472E+03  0.25500000920E-02 0. -1.
</event>
<event>
 5   0  0.5821584E-05  0.1701305E+04  0.7818609E-02  0.8760620E-01
       -2   -1    0    0    0  501  0.00000000000E+00  0.00000000000E+00  0.44317008067E+03  0.44317008068E+03  0.25500000920E-02 0. -1.
        2   -1    0    0  501    0  0.00000000000E+00  0.00000000000E+00 -0.16328034225E+04  0.16328034225E+04  0.25500000920E-02 0.  1.
    10030    2    1    2    0    0  0.00000000000E+00  0.00000000000E+00 -0.11896333418E+04  0.20759735032E+04  0.17013049397E+04 0.  0.
        1    1    3    3  502    0 -0.92668731491E+02 -0.26377750105E+03  0.38550539735E+03  0.47621473651E+03  0.50400001928E-02 0. -1.
       -1    1    3    3    0  502  0.92668731491E+02  0.26377750105E+03 -0.15751387392E+04  0.15997587666E+04  0.50400001928E-02 0.  1.
</event>
<event>
 5   0  0.5671132E-05  0.1699233E+04  0.7818609E-02  0.8761802E-01
       -2   -1    0    0    0  501  0.00000000000E+00  0.00000000000E+00  0.11392207807E+04  0.11392207807E+04  0.25500000920E-02 0.  1.
        2   -1    0    0  501    0  0.00000000000E+00  0.00000000000E+00 -0.63363360238E+03  0.63363360238E+03  0.25500000920E-02 0. -1.
    10030    2    1    2    0    0  0.00000000000E+00  0.00000000000E+00  0.50558717832E+03  0.17728543831E+04  0.16992334356E+04 0.  0.
        3    1    3    3  502    0  0.42212372774E+03  0.73236159781E+03  0.16361145718E+03  0.86099400149E+03  0.10100000352E+00 0. -1.
       -3    1    3    3    0  502 -0.42212372774E+03 -0.73236159781E+03  0.34197572113E+03  0.91186038159E+03  0.10100000352E+00 0.  1.
</event>
<event>
 5   0  0.5821584E-05  0.1698890E+04  0.7818609E-02  0.8761998E-01
        2   -1    0    0  501    0  0.00000000000E+00  0.00000000000E+00  0.12096819400E+04  0.12096819400E+04  0.25500000920E-02 0. -1.
       -2   -1    0    0    0  501  0.00000000000E+00  0.00000000000E+00 -0.59648476325E+03  0.59648476325E+03  0.25500000920E-02 0.  1.
    10030    2    1    2    0    0  0.00000000000E+00  0.00000000000E+00  0.61319717679E+03  0.18061667033E+04  0.16988900443E+04 0.  0.
        1    1    3    3  502    0 -0.71599237018E+03  0.30800956334E+03  0.66562363328E+03  0.10249730662E+04  0.50400001928E-02 0. -1.
       -1    1    3    3    0  502  0.71599237018E+03 -0.30800956334E+03 -0.52426456486E+02  0.78119363709E+03  0.50400001928E-02 0.  1.
</event>
<event>
 5   0  0.5755321E-05  0.1707486E+04  0.7818609E-02  0.8757106E-01
       -2   -1    0    0    0  501  0.00000000000E+00  0.00000000000E+00  0.91968782434E+03  0.91968782435E+03  0.25500000920E-02 0.  1.
        2   -1    0    0  501    0  0.00000000000E+00  0.00000000000E+00 -0.79252695714E+03  0.79252695715E+03  0.25500000920E-02 0. -1.
    10030    2    1    2    0    0  0.00000000000E+00  0.00000000000E+00  0.12716086720E+03  0.17122147815E+04  0.17074863314E+04 0.  0.
        4    1    3    3  502    0  0.61047117878E+03 -0.59681984867E+03  0.66193059703E+02  0.85630142236E+03  0.12699999809E+01 0.  1.
       -4    1    3    3    0  502 -0.61047117878E+03  0.59681984867E+03  0.60967807499E+02  0.85591335913E+03  0.12699999809E+01 0. -1.
</event>
<event>
 5   0  0.2993769E-05  0.1700868E+04  0.7818609E-02  0.8760870E-01
        1   -1    0    0  501    0  0.00000000000E+00  0.00000000000E+00  0.17587844729E+04  0.17587844729E+04  0.50400001928E-02 0.  1.
       -1   -1    0    0    0  501  0.00000000000E+00  0.00000000000E+00 -0.41121457459E+03  0.41121457462E+03  0.50400001928E-02 0. -1.
    10030    2    1    2    0    0  0.00000000000E+00  0.00000000000E+00  0.13475698983E+04  0.21699990475E+04  0.17008677889E+04 0.  0.
        3    1    3    3  502    0  0.37843935215E+03 -0.75444953282E+03  0.54103014954E+03  0.10025587632E+04  0.10100000352E+00 0. -1.
       -3    1    3    3    0  502 -0.37843935215E+03  0.75444953282E+03  0.80653974877E+03  0.11674402843E+04  0.10100000352E+00 0.  1.
</event>
<event>
 5   0  0.2911632E-05  0.1698773E+04  0.7818609E-02  0.8762065E-01
       -1   -1    0    0    0  501  0.00000000000E+00  0.00000000000E+00  0.63907593219E+03  0.63907593221E+03  0.50400001928E-02 0.  1.
        1   -1    0    0  501    0  0.00000000000E+00  0.00000000000E+00 -0.11289067044E+04  0.11289067044E+04  0.50400001928E-02 0. -1.
    10030    2    1    2    0    0  0.00000000000E+00  0.00000000000E+00 -0.48983077218E+03  0.17679826366E+04  0.16987726210E+04 0.  0.
        1    1    3    3  502    0  0.10868691920E+03  0.78486083009E+03 -0.56338514098E+03  0.97222537825E+03  0.50400001928E-02 0. -1.
       -1    1    3    3    0  502 -0.10868691920E+03 -0.78486083009E+03  0.73554368796E+02  0.79575725835E+03  0.50400001928E-02 0.  1.
</event>
<event>
 5   0  0.2098250E-05  0.1711485E+04  0.7818609E-02  0.8754841E-01
        3   -1    0    0  501    0  0.00000000000E+00  0.00000000000E+00  0.78389291041E+03  0.78389291692E+03  0.10100000352E+00 0.  1.
       -3   -1    0    0    0  501  0.00000000000E+00  0.00000000000E+00 -0.93417759777E+03  0.93417760323E+03  0.10100000352E+00 0. -1.
    10030    2    1    2    0    0  0.00000000000E+00  0.00000000000E+00 -0.15028468736E+03  0.17180705201E+04  0.17114849765E+04 0.  0.
        4    1    3    3  502    0  0.65305518384E+03  0.48395873119E+03  0.19346240719E+03  0.83553961159E+03  0.12699999809E+01 0.  1.
       -4    1    3    3    0  502 -0.65305518384E+03 -0.48395873119E+03 -0.34374709455E+03  0.88253090855E+03  0.12699999809E+01 0. -1.
</event>
<event>
 5   0  0.2911632E-05  0.1700572E+04  0.7818609E-02  0.8761038E-01
       -1   -1    0    0    0  501  0.00000000000E+00  0.00000000000E+00  0.31790936057E+03  0.31790936061E+03  0.50400001928E-02 0. -1.
        1   -1    0    0  501    0  0.00000000000E+00  0.00000000000E+00 -0.22741908168E+04  0.22741908168E+04  0.50400001928E-02 0.  1.
    10030    2    1    2    0    0  0.00000000000E+00  0.00000000000E+00 -0.19562814562E+04  0.25921001774E+04  0.17005723136E+04 0.  0.
        1    1    3    3  502    0  0.26896282257E+03  0.54604925186E+03 -0.18830838995E+04  0.19790188877E+04  0.50400001928E-02 0.  1.
       -1    1    3    3    0  502 -0.26896282257E+03 -0.54604925186E+03 -0.73197556672E+02  0.61308128964E+03  0.50400001928E-02 0. -1.
</event>
<event>
 5   0  0.2966258E-05  0.1688267E+04  0.7818609E-02  0.8768084E-01
       -1   -1    0    0    0  501  0.00000000000E+00  0.00000000000E+00  0.11198358762E+04  0.11198358762E+04  0.50400001928E-02 0.  1.
        1   -1    0    0  501    0  0.00000000000E+00  0.00000000000E+00 -0.63630884373E+03  0.63630884375E+03  0.50400001928E-02 0. -1.
    10030    2    1    2    0    0  0.00000000000E+00  0.00000000000E+00  0.48352703244E+03  0.17561447199E+04  0.16882671253E+04 0.  0.
        4    1    3    3  502    0 -0.11795013323E+02  0.23840668436E+03  0.10839979180E+04  0.11099684539E+04  0.12699999809E+01 0.  1.
       -4    1    3    3    0  502  0.11795013323E+02 -0.23840668436E+03 -0.60047088557E+03  0.64617626605E+03  0.12699999809E+01 0. -1.
</event>
<event>
 5   0  0.2993769E-05  0.1699785E+04  0.7818609E-02  0.8761487E-01
        1   -1    0    0  501    0  0.00000000000E+00  0.00000000000E+00  0.24568615082E+04  0.24568615082E+04  0.50400001928E-02 0. -1.
       -1   -1    0    0    0  501  0.00000000000E+00  0.00000000000E+00 -0.29400003109E+03  0.29400003113E+03  0.50400001928E-02 0.  1.
    10030    2    1    2    0    0  0.00000000000E+00  0.00000000000E+00  0.21628614771E+04  0.27508615394E+04  0.16997851157E+04 0.  0.
        3    1    3    3  502    0  0.71571255583E+03  0.18059334795E+03  0.17631783710E+04  0.19114540010E+04  0.10100000352E+00 0. -1.
       -3    1    3    3    0  502 -0.71571255583E+03 -0.18059334795E+03  0.39968310618E+03  0.83940753837E+03  0.10100000352E+00 0.  1.
</event>
<event>
 5   0  0.5755321E-05  0.1700604E+04  0.7818609E-02  0.8761020E-01
        2   -1    0    0  501    0  0.00000000000E+00  0.00000000000E+00  0.10376203061E+04  0.10376203061E+04  0.25500000920E-02 0. -1.
       -2   -1    0    0    0  501  0.00000000000E+00  0.00000000000E+00 -0.69679963970E+03  0.69679963971E+03  0.25500000920E-02 0.  1.
    10030    2    1    2    0    0  0.00000000000E+00  0.00000000000E+00  0.34082066639E+03  0.17344199458E+04  0.17006039579E+04 0.  0.
        4    1    3    3  502    0  0.68722909134E+03 -0.18450296678E+03  0.64516274022E+03  0.96050077720E+03  0.12699999809E+01 0. -1.
       -4    1    3    3    0  502 -0.68722909134E+03  0.18450296678E+03 -0.30434207383E+03  0.77391916860E+03  0.12699999809E+01 0.  1.
</event>
<event>
 5   0  0.2967704E-05  0.1699859E+04  0.7818609E-02  0.8761445E-01
        1   -1    0    0  501    0  0.00000000000E+00  0.00000000000E+00  0.10723896693E+04  0.10723896693E+04  0.50400001928E-02 0. -1.
       -1   -1    0    0    0  501  0.00000000000E+00  0.00000000000E+00 -0.67361752735E+03  0.67361752736E+03  0.50400001928E-02 0.  1.
    10030    2    1    2    0    0  0.00000000000E+00  0.00000000000E+00  0.39877214194E+03  0.17460071967E+04  0.16998593794E+04 0.  0.
        2    1    3    3  502    0  0.41801074513E+03  0.69257410852E+03  0.46721104910E+03  0.93417238411E+03  0.25500000920E-02 0. -1.
       -2    1    3    3    0  502 -0.41801074513E+03 -0.69257410852E+03 -0.68438907159E+02  0.81183481254E+03  0.25500000920E-02 0.  1.
</event>
<event>
 5   0  0.2993769E-05  0.1702169E+04  0.7818609E-02  0.8760128E-01
        1   -1    0    0  501    0  0.00000000000E+00  0.00000000000E+00  0.43897524515E+03  0.43897524518E+03  0.50400001928E-02 0.  1.
       -1   -1    0    0    0  501  0.00000000000E+00  0.00000000000E+00 -0.16500811243E+04  0.16500811243E+04  0.50400001928E-02 0. -1.
    10030    2    1    2    0    0  0.00000000000E+00  0.00000000000E+00 -0.12111058791E+04  0.20890563695E+04  0.17021689294E+04 0.  0.
        3    1    3    3  502    0 -0.54746589330E+02 -0.46154022210E+03 -0.14805761991E+04  0.15518126360E+04  0.10100000352E+00 0. -1.
       -3    1    3    3    0  502  0.54746589330E+02  0.46154022210E+03  0.26947031994E+03  0.53724373350E+03  0.10100000352E+00 0.  1.
</event>
<event>
 5   0  0.5859822E-05  0.1697707E+04  0.7818609E-02  0.8762673E-01
       -2   -1    0    0    0  501  0.00000000000E+00  0.00000000000E+00  0.80314373594E+03  0.80314373594E+03  0.25500000920E-02 0.  1.
        2   -1    0    0  501    0  0.00000000000E+00  0.00000000000E+00 -0.89716449483E+03  0.89716449483E+03  0.25500000920E-02 0. -1.
    10030    2    1    2    0    0  0.00000000000E+00  0.00000000000E+00 -0.94020758892E+02  0.17003082308E+04  0.16977067404E+04 0.  0.
        5    1    3    3  502    0  0.76175537751E+03 -0.21713225851E+02 -0.42146460965E+03  0.87086004991E+03  0.46999998093E+01 0. -1.
       -5    1    3    3    0  502 -0.76175537751E+03  0.21713225851E+02  0.32744385076E+03  0.82944818086E+03  0.46999998093E+01 0.  1.
</event>
<event>
 5   0  0.2967704E-05  0.1702858E+04  0.7818609E-02  0.8759736E-01
       -1   -1    0    0    0  501  0.00000000000E+00  0.00000000000E+00  0.52623643004E+03  0.52623643006E+03  0.50400001928E-02 0. -1.
        1   -1    0    0  501    0  0.00000000000E+00  0.00000000000E+00 -0.13775768112E+04  0.13775768113E+04  0.50400001928E-02 0.  1.
    10030    2    1    2    0    0  0.00000000000E+00  0.00000000000E+00 -0.85134038121E+03  0.19038132413E+04  0.17028577196E+04 0.  0.
        2    1    3    3  502    0 -0.66273405061E+03 -0.34789449051E+03 -0.87937336978E+03  0.11547919821E+04  0.25500000920E-02 0.  1.
       -2    1    3    3    0  502  0.66273405061E+03  0.34789449051E+03  0.28032988571E+02  0.74902125925E+03  0.25500000920E-02 0. -1.
</event>
<event>
 5   0  0.2987859E-05  0.1705199E+04  0.7818609E-02  0.8758405E-01
       -1   -1    0    0    0  501  0.00000000000E+00  0.00000000000E+00  0.10349284005E+04  0.10349284005E+04  0.50400001928E-02 0. -1.
        1   -1    0    0  501    0  0.00000000000E+00  0.00000000000E+00 -0.70239206924E+03  0.70239206926E+03  0.50400001928E-02 0.  1.
    10030    2    1    2    0    0  0.00000000000E+00  0.00000000000E+00  0.33253633126E+03  0.17373204698E+04  0.17051985231E+04 0.  0.
        5    1    3    3  502    0  0.20384402206E+03 -0.43018527432E+03 -0.55436893697E+03  0.73072482088E+03  0.46999998093E+01 0.  1.
       -5    1    3    3    0  502 -0.20384402206E+03  0.43018527432E+03  0.88690526823E+03  0.10065956489E+04  0.46999998093E+01 0. -1.
</event>
<event>
 5   0  0.2987859E-05  0.1696667E+04  0.7818609E-02  0.8763268E-01
        1   -1    0    0  501    0  0.00000000000E+00  0.00000000000E+00  0.63208982759E+03  0.63208982761E+03  0.50400001928E-02 0. -1.
       -1   -1    0    0    0  501  0.00000000000E+00  0.00000000000E+00 -0.11385559656E+04  0.11385559656E+04  0.50400001928E-02 0.  1.
    10030    2    1    2    0    0  0.00000000000E+00  0.00000000000E+00 -0.50646613800E+03  0.17706457932E+04  0.16966669019E+04 0.  0.
        5    1    3    3  502    0 -0.10280904979E+03 -0.64279189602E+03 -0.82091486533E+03  0.10476995888E+04  0.46999998093E+01 0.  1.
       -5    1    3    3    0  502  0.10280904979E+03  0.64279189602E+03  0.31444872734E+03  0.72294620438E+03  0.46999998093E+01 0. -1.
</event>
<event>
 5   0  0.5652631E-05  0.1696471E+04  0.7818609E-02  0.8763379E-01
        2   -1    0    0  501    0  0.00000000000E+00  0.00000000000E+00  0.10610386008E+04  0.10610386008E+04  0.25500000920E-02 0.  1.
       -2   -1    0    0    0  501  0.00000000000E+00  0.00000000000E+00 -0.67811269577E+03  0.67811269577E+03  0.25500000920E-02 0. -1.
    10030    2    1    2    0    0  0.00000000000E+00  0.00000000000E+00  0.38292590502E+03  0.17391512966E+04  0.16964713330E+04 0.  0.
        2    1    3    3  502    0 -0.75469886203E+02  0.12520806224E+03 -0.66510001813E+03  0.68097782394E+03  0.25500000920E-02 0. -1.
       -2    1    3    3    0  502  0.75469886203E+02 -0.12520806224E+03  0.10480259232E+04  0.10581734726E+04  0.25500000920E-02 0.  1.
</event>
<event>
 5   0  0.5652631E-05  0.1698162E+04  0.7818609E-02  0.8762413E-01
       -2   -1    0    0    0  501  0.00000000000E+00  0.00000000000E+00  0.81272250717E+03  0.81272250717E+03  0.25500000920E-02 0.  1.
        2   -1    0    0  501    0  0.00000000000E+00  0.00000000000E+00 -0.88706642179E+03  0.88706642179E+03  0.25500000920E-02 0. -1.
    10030    2    1    2    0    0  0.00000000000E+00  0.00000000000E+00 -0.74343914616E+02  0.16997889290E+04  0.16981623554E+04 0.  0.
        2    1    3    3  502    0  0.53690929836E+03 -0.52527116086E+03 -0.43347727048E+03  0.86722772737E+03  0.25500000920E-02 0. -1.
       -2    1    3    3    0  502 -0.53690929836E+03  0.52527116086E+03  0.35913335586E+03  0.83256120159E+03  0.25500000920E-02 0.  1.
</event>
<event>
 5   0  0.5859822E-05  0.1700654E+04  0.7818609E-02  0.8760991E-01
        2   -1    0    0  501    0  0.00000000000E+00  0.00000000000E+00  0.15439448315E+04  0.15439448315E+04  0.25500000920E-02 0. -1.
       -2   -1    0    0    0  501  0.00000000000E+00  0.00000000000E+00 -0.46831720825E+03  0.46831720825E+03  0.25500000920E-02 0.  1.
    10030    2    1    2    0    0  0.00000000000E+00  0.00000000000E+00  0.10756276233E+04  0.20122620398E+04  0.17006539133E+04 0.  0.
        5    1    3    3  502    0  0.54390104195E+03  0.61185729236E+03  0.26583555317E+03  0.86074869793E+03  0.46999998093E+01 0.  1.
       -5    1    3    3    0  502 -0.54390104195E+03 -0.61185729236E+03  0.80979207009E+03  0.11515133418E+04  0.46999998093E+01 0. -1.
</event>
<event>
 5   0  0.5755321E-05  0.1701432E+04  0.7818609E-02  0.8760548E-01
        2   -1    0    0  501    0  0.00000000000E+00  0.00000000000E+00  0.11682882498E+04  0.11682882498E+04  0.25500000920E-02 0. -1.
       -2   -1    0    0    0  501  0.00000000000E+00  0.00000000000E+00 -0.61946872215E+03  0.61946872216E+03  0.25500000920E-02 0.  1.
    10030    2    1    2    0    0  0.00000000000E+00  0.00000000000E+00  0.54881952761E+03  0.17877569719E+04  0.17014323721E+04 0.  0.
        4    1    3    3  502    0  0.40459352220E+03  0.26081934274E+03 -0.46260059140E+03  0.66762531993E+03  0.12699999809E+01 0.  1.
       -4    1    3    3    0  502 -0.40459352220E+03 -0.26081934274E+03  0.10114201190E+04  0.11201316520E+04  0.12699999809E+01 0. -1.
</event>
<event>
 5   0  0.2911632E-05  0.1701220E+04  0.7818609E-02  0.8760669E-01
       -1   -1    0    0    0  501  0.00000000000E+00  0.00000000000E+00  0.91016119328E+03  0.91016119329E+03  0.50400001928E-02 0.  1.
        1   -1    0    0  501    0  0.00000000000E+00  0.00000000000E+00 -0.79495525251E+03  0.79495525253E+03  0.50400001928E-02 0. -1.
    10030    2    1    2    0    0  0.00000000000E+00  0.00000000000E+00  0.11520594077E+03  0.17051164458E+04  0.17012200578E+04 0.  0.
        1    1    3    3  502    0  0.12803453203E+03 -0.82911838667E+03 -0.83101177468E+02  0.84305156795E+03  0.50400001928E-02 0. -1.
       -1    1    3    3    0  502 -0.12803453203E+03  0.82911838667E+03  0.19830711823E+03  0.86206487788E+03  0.50400001928E-02 0.  1.
</event>
<event>
 5   0  0.5755321E-05  0.1700190E+04  0.7818609E-02  0.8761256E-01
        2   -1    0    0  501    0  0.00000000000E+00  0.00000000000E+00  0.10408088069E+04  0.10408088069E+04  0.25500000920E-02 0.  1.
       -2   -1    0    0    0  501  0.00000000000E+00  0.00000000000E+00 -0.69432720531E+03  0.69432720531E+03  0.25500000920E-02 0. -1.
    10030    2    1    2    0    0  0.00000000000E+00  0.00000000000E+00  0.34648160157E+03  0.17351360122E+04  0.17001904248E+04 0.  0.
        4    1    3    3  502    0 -0.78605647598E+03 -0.10860754631E+03 -0.13795264096E+03  0.80542717026E+03  0.12699999809E+01 0. -1.
       -4    1    3    3    0  502  0.78605647598E+03  0.10860754631E+03  0.48443424253E+03  0.92970884193E+03  0.12699999809E+01 0.  1.
</event>
<event>
 5   0  0.2966258E-05  0.1712186E+04  0.7818609E-02  0.8754444E-01
        1   -1    0    0  501    0  0.00000000000E+00  0.00000000000E+00  0.16764384772E+04  0.16764384772E+04  0.50400001928E-02 0.  1.
       -1   -1    0    0    0  501  0.00000000000E+00  0.00000000000E+00 -0.43717418614E+03  0.43717418617E+03  0.50400001928E-02 0. -1.
    10030    2    1    2    0    0  0.00000000000E+00  0.00000000000E+00  0.12392642910E+04  0.21136126633E+04  0.17121864699E+04 0.  0.
        4    1    3    3  502    0 -0.35696559836E+02  0.55994580386E+02 -0.43398896229E+03  0.43904176306E+03  0.12699999809E+01 0. -1.
       -4    1    3    3    0  502  0.35696559836E+02 -0.55994580386E+02  0.16732532533E+04  0.16745709003E+04  0.12699999809E+01 0.  1.
</event>
<event>
 5   0  0.5821584E-05  0.1699532E+04  0.7818609E-02  0.8761631E-01
        2   -1    0    0  501    0  0.00000000000E+00  0.00000000000E+00  0.54776482720E+03  0.54776482721E+03  0.25500000920E-02 0. -1.
       -2   -1    0    0    0  501  0.00000000000E+00  0.00000000000E+00 -0.13182707507E+04  0.13182707507E+04  0.25500000920E-02 0.  1.
    10030    2    1    2    0    0  0.00000000000E+00  0.00000000000E+00 -0.77050592354E+03  0.18660355779E+04  0.16995321121E+04 0.  0.
        1    1    3    3  502    0  0.46518361964E+03  0.59073010408E+02 -0.11633544020E+04  0.12543041438E+04  0.50400001928E-02 0.  1.
       -1    1    3    3    0  502 -0.46518361964E+03 -0.59073010408E+02  0.39284847841E+03  0.61173143417E+03  0.50400001928E-02 0. -1.
</event>
<event>
 5   0  0.2993769E-05  0.1702663E+04  0.7818609E-02  0.8759847E-01
       -1   -1    0    0    0  501  0.00000000000E+00  0.00000000000E+00  0.41632607754E+03  0.41632607758E+03  0.50400001928E-02 0. -1.
        1   -1    0    0  501    0  0.00000000000E+00  0.00000000000E+00 -0.17408589315E+04  0.17408589315E+04  0.50400001928E-02 0.  1.
    10030    2    1    2    0    0  0.00000000000E+00  0.00000000000E+00 -0.13245328539E+04  0.21571850091E+04  0.17026625861E+04 0.  0.
        3    1    3    3  502    0  0.63173403727E+03  0.54796661049E+03 -0.46030974358E+03  0.95458911071E+03  0.10100000352E+00 0. -1.
       -3    1    3    3    0  502 -0.63173403727E+03 -0.54796661049E+03 -0.86422311035E+03  0.12025958983E+04  0.10100000352E+00 0.  1.
</event>
<event>
 5   0  0.5671132E-05  0.1703994E+04  0.7818609E-02  0.8759090E-01
        2   -1    0    0  501    0  0.00000000000E+00  0.00000000000E+00  0.70014548933E+03  0.70014548934E+03  0.25500000920E-02 0.  1.
       -2   -1    0    0    0  501  0.00000000000E+00  0.00000000000E+00 -0.10367829964E+04  0.10367829964E+04  0.25500000920E-02 0. -1.
    10030    2    1    2    0    0  0.00000000000E+00  0.00000000000E+00 -0.33663750705E+03  0.17369284857E+04  0.17039940591E+04 0.  0.
        3    1    3    3  502    0 -0.23769930784E+03  0.22422699503E+03  0.63373108561E+03  0.71301739482E+03  0.10100000352E+00 0.  1.
       -3    1    3    3    0  502  0.23769930784E+03 -0.22422699503E+03 -0.97036859267E+03  0.10239110909E+04  0.10100000352E+00 0. -1.
</event>
<event>
 5   0  0.2987859E-05  0.1690221E+04  0.7818609E-02  0.8766961E-01
        1   -1    0    0  501    0  0.00000000000E+00  0.00000000000E+00  0.16484396177E+04  0.16484396178E+04  0.50400001928E-02 0.  1.
       -1   -1    0    0    0  501  0.00000000000E+00  0.00000000000E+00 -0.43326528914E+03  0.43326528917E+03  0.50400001928E-02 0. -1.
    10030    2    1    2    0    0  0.00000000000E+00  0.00000000000E+00  0.12151743286E+04  0.20817049069E+04  0.16902208940E+04 0.  0.
        5    1    3    3  502    0  0.14887609530E+03 -0.73069929512E+03  0.11786792701E+03  0.75498376794E+03  0.46999998093E+01 0. -1.
       -5    1    3    3    0  502 -0.14887609530E+03  0.73069929512E+03  0.10973064016E+04  0.13267211390E+04  0.46999998093E+01 0.  1.
</event>
<event>
 5   0  0.5821584E-05  0.1717797E+04  0.7818609E-02  0.8751279E-01
       -2   -1    0    0    0  501  0.00000000000E+00  0.00000000000E+00  0.38778954030E+03  0.38778954031E+03  0.25500000920E-02 0. -1.
        2   -1    0    0  501    0  0.00000000000E+00  0.00000000000E+00 -0.19023371810E+04  0.19023371810E+04  0.25500000920E-02 0.  1.
    10030    2    1    2    0    0  0.00000000000E+00  0.00000000000E+00 -0.15145476407E+04  0.22901267213E+04  0.17177967993E+04 0.  0.
        1    1    3    3  502    0  0.28049934196E+03  0.53278307640E+02  0.32267175039E+03  0.43085440399E+03  0.50400001928E-02 0. -1.
       -1    1    3    3    0  502 -0.28049934196E+03 -0.53278307640E+02 -0.18372193911E+04  0.18592723174E+04  0.50400001928E-02 0.  1.
</event>
<event>
 5   0  0.5671132E-05  0.1699910E+04  0.7818609E-02  0.8761416E-01
        2   -1    0    0  501    0  0.00000000000E+00  0.00000000000E+00  0.13152928736E+04  0.13152928736E+04  0.25500000920E-02 0.  1.
       -2   -1    0    0    0  501  0.00000000000E+00  0.00000000000E+00 -0.54924929119E+03  0.54924929120E+03  0.25500000920E-02 0. -1.
    10030    2    1    2    0    0  0.00000000000E+00  0.00000000000E+00  0.76604358240E+03  0.18645421648E+04  0.16999102077E+04 0.  0.
        3    1    3    3  502    0  0.73302263366E+03 -0.12296914157E+03  0.83523707684E+03  0.11180628676E+04  0.10100000352E+00 0.  1.
       -3    1    3    3    0  502 -0.73302263366E+03  0.12296914157E+03 -0.69193494442E+02  0.74647929717E+03  0.10100000352E+00 0. -1.
</event>
<event>
 5   0  0.2098250E-05  0.1700144E+04  0.7818609E-02  0.8761282E-01
        3   -1    0    0  501    0  0.00000000000E+00  0.00000000000E+00  0.14219272733E+04  0.14219272769E+04  0.10100000352E+00 0.  1.
       -3   -1    0    0    0  501  0.00000000000E+00  0.00000000000E+00 -0.50819901969E+03  0.50819902973E+03  0.10100000352E+00 0. -1.
    10030    2    1    2    0    0  0.00000000000E+00  0.00000000000E+00  0.91372825363E+03  0.19301263066E+04  0.17001435934E+04 0.  0.
        4    1    3    3  502    0  0.91509403687E+02  0.78275765738E+03  0.81861711830E+03  0.11363182303E+04  0.12699999809E+01 0.  1.
       -4    1    3    3    0  502 -0.91509403687E+02 -0.78275765738E+03  0.95111135333E+02  0.79380807638E+03  0.12699999809E+01 0. -1.
</event>
<event>
 5   0  0.2966258E-05  0.1702279E+04  0.7818609E-02  0.8760066E-01
        1   -1    0    0  501    0  0.00000000000E+00  0.00000000000E+00  0.11709109843E+04  0.11709109843E+04  0.50400001928E-02 0. -1.
       -1   -1    0    0    0  501  0.00000000000E+00  0.00000000000E+00 -0.61869625416E+03  0.61869625418E+03  0.50400001928E-02 0.  1.
    10030    2    1    2    0    0  0.00000000000E+00  0.00000000000E+00  0.55221473014E+03  0.17896072385E+04  0.17022787550E+04 0.  0.
        4    1    3    3  502    0  0.66064756719E+03  0.34880119993E+03  0.70485147479E+03  0.10271001409E+04  0.12699999809E+01 0.  1.
       -4    1    3    3    0  502 -0.66064756719E+03 -0.34880119993E+03 -0.15263674464E+03  0.76250709755E+03  0.12699999809E+01 0. -1.
</event>
<event>
 5   0  0.2967704E-05  0.1698059E+04  0.7818609E-02  0.8762472E-01
        1   -1    0    0  501    0  0.00000000000E+00  0.00000000000E+00  0.59422399006E+03  0.59422399008E+03  0.50400001928E-02 0.  1.
       -1   -1    0    0    0  501  0.00000000000E+00  0.00000000000E+00 -0.12130960991E+04  0.12130960992E+04  0.50400001928E-02 0. -1.
    10030    2    1    2    0    0  0.00000000000E+00  0.00000000000E+00 -0.61887210908E+03  0.18073200892E+04  0.16980586614E+04 0.  0.
        2    1    3    3  502    0  0.25873173525E+03 -0.16296625237E+03 -0.11524554723E+04  0.11923312148E+04  0.25500000920E-02 0. -1.
       -2    1    3    3    0  502 -0.25873173525E+03  0.16296625237E+03  0.53358336317E+03  0.61498887445E+03  0.25500000920E-02 0.  1.
</event>
<event>
 5   0  0.5755321E-05  0.1695455E+04  0.7818609E-02  0.8763961E-01
       -2   -1    0    0    0  501  0.00000000000E+00  0.00000000000E+00  0.43375382092E+03  0.43375382093E+03  0.25500000920E-02 0. -1.
        2   -1    0    0  501    0  0.00000000000E+00  0.00000000000E+00 -0.16567964579E+04  0.16567964579E+04  0.25500000920E-02 0.  1.
    10030    2    1    2    0    0  0.00000000000E+00  0.00000000000E+00 -0.12230426370E+04  0.20905502788E+04  0.16954548583E+04 0.  0.
        4    1    3    3  502    0 -0.55056548975E+03  0.61748489640E+03 -0.83964967177E+03  0.11787379437E+04  0.12699999809E+01 0. -1.
       -4    1    3    3    0  502  0.55056548975E+03 -0.61748489640E+03 -0.38339296523E+03  0.91181233512E+03  0.12699999809E+01 0.  1.
</event>
<event>
 5   0  0.5821584E-05  0.1699523E+04  0.7818609E-02  0.8761636E-01
       -2   -1    0    0    0  501  0.00000000000E+00  0.00000000000E+00  0.40163882780E+03  0.40163882781E+03  0.25500000920E-02 0. -1.
        2   -1    0    0  501    0  0.00000000000E+00  0.00000000000E+00 -0.17978713541E+04  0.17978713541E+04  0.25500000920E-02 0.  1.
    10030    2    1    2    0    0  0.00000000000E+00  0.00000000000E+00 -0.13962325263E+04  0.21995101819E+04  0.16995233958E+04 0.  0.
        1    1    3    3  502    0  0.45962587592E+03  0.34325478121E+02  0.22581449988E+03  0.51325078923E+03  0.50400001928E-02 0. -1.
       -1    1    3    3    0  502 -0.45962587592E+03 -0.34325478121E+02 -0.16220470261E+04  0.16862593926E+04  0.50400001928E-02 0.  1.
</event>
<event>
 5   0  0.2911632E-05  0.1699943E+04  0.7818609E-02  0.8761397E-01
        1   -1    0    0  501    0  0.00000000000E+00  0.00000000000E+00  0.11454589133E+04  0.11454589133E+04  0.50400001928E-02 0.  1.
       -1   -1    0    0    0  501  0.00000000000E+00  0.00000000000E+00 -0.63070897660E+03  0.63070897662E+03  0.50400001928E-02 0. -1.
    10030    2    1    2    0    0  0.00000000000E+00  0.00000000000E+00  0.51474993672E+03  0.17761678899E+04  0.16999426096E+04 0.  0.
        1    1    3    3  502    0 -0.65883983257E+03  0.26973501863E+03  0.74255019767E+03  0.10286922287E+04  0.50400001928E-02 0.  1.
       -1    1    3    3    0  502  0.65883983257E+03 -0.26973501863E+03 -0.22780026095E+03  0.74747566126E+03  0.50400001928E-02 0. -1.
</event>
<event>
 5   0  0.5859822E-05  0.1702321E+04  0.7818609E-02  0.8760041E-01
        2   -1    0    0  501    0  0.00000000000E+00  0.00000000000E+00  0.15005781294E+04  0.15005781294E+04  0.25500000920E-02 0.  1.
       -2   -1    0    0    0  501  0.00000000000E+00  0.00000000000E+00 -0.48279694972E+03  0.48279694973E+03  0.25500000920E-02 0. -1.
    10030    2    1    2    0    0  0.00000000000E+00  0.00000000000E+00  0.10177811797E+04  0.19833750792E+04  0.17023214076E+04 0.  0.
        5    1    3    3  502    0  0.29288210447E+03 -0.73637771080E+03  0.87067324477E+03  0.11773385449E+04  0.46999998093E+01 0.  1.
       -5    1    3    3    0  502 -0.29288210447E+03  0.73637771080E+03  0.14710793493E+03  0.80603653429E+03  0.46999998093E+01 0. -1.
</event>
<event>
 5   0  0.2966258E-05  0.1730182E+04  0.7818609E-02  0.8744335E-01
       -1   -1    0    0    0  501  0.00000000000E+00  0.00000000000E+00  0.37250531275E+03  0.37250531279E+03  0.50400001928E-02 0. -1.
        1   -1    0    0  501    0  0.00000000000E+00  0.00000000000E+00 -0.20090526740E+04  0.20090526740E+04  0.50400001928E-02 0.  1.
    10030    2    1    2    0    0  0.00000000000E+00  0.00000000000E+00 -0.16365473613E+04  0.23815579868E+04  0.17301824120E+04 0.  0.
        4    1    3    3  502    0 -0.49600012826E+03 -0.25403521873E+03  0.92525438219E+02  0.56490051266E+03  0.12699999809E+01 0. -1.
       -4    1    3    3    0  502  0.49600012826E+03  0.25403521873E+03 -0.17290727995E+04  0.18166574742E+04  0.12699999809E+01 0.  1.
</event>
<event>
 5   0  0.2993769E-05  0.1705037E+04  0.7818609E-02  0.8758497E-01
       -1   -1    0    0    0  501  0.00000000000E+00  0.00000000000E+00  0.70351623653E+03  0.70351623655E+03  0.50400001928E-02 0. -1.
        1   -1    0    0  501    0  0.00000000000E+00  0.00000000000E+00 -0.10330785125E+04  0.10330785125E+04  0.50400001928E-02 0.  1.
    10030    2    1    2    0    0  0.00000000000E+00  0.00000000000E+00 -0.32956227597E+03  0.17365947491E+04  0.17050366649E+04 0.  0.
        3    1    3    3  502    0 -0.18718836609E+03 -0.59385030308E+03  0.42831096772E+03  0.75574331762E+03  0.10100000352E+00 0. -1.
       -3    1    3    3    0  502  0.18718836609E+03  0.59385030308E+03 -0.75787324369E+03  0.98085143144E+03  0.10100000352E+00 0.  1.
</event>
<event>
 5   0  0.2967704E-05  0.1691311E+04  0.7818609E-02  0.8766336E-01
        1   -1    0    0  501    0  0.00000000000E+00  0.00000000000E+00  0.12157818860E+04  0.12157818860E+04  0.50400001928E-02 0. -1.
       -1   -1    0    0    0  501  0.00000000000E+00  0.00000000000E+00 -0.58820857766E+03  0.58820857768E+03  0.50400001928E-02 0.  1.
    10030    2    1    2    0    0  0.00000000000E+00  0.00000000000E+00  0.62757330838E+03  0.18039904637E+04  0.16913111292E+04 0.  0.
        2    1    3    3  502    0  0.17432554301E+03 -0.79461177063E+03  0.67454418234E+02  0.81630102261E+03  0.25500000920E-02 0. -1.
       -2    1    3    3    0  502 -0.17432554301E+03  0.79461177063E+03  0.56011889014E+03  0.98768944111E+03  0.25500000920E-02 0.  1.
</event>
<event>
 5   0  0.5755321E-05  0.1687569E+04  0.7818609E-02  0.8768486E-01
        2   -1    0    0  501    0  0.00000000000E+00  0.00000000000E+00  0.72890887834E+03  0.72890887834E+03  0.25500000920E-02 0. -1.
       -2   -1    0    0    0  501  0.00000000000E+00  0.00000000000E+00 -0.97676470056E+03  0.97676470057E+03  0.25500000920E-02 0.  1.
    10030    2    1    2    0    0  0.00000000000E+00  0.00000000000E+00 -0.24785582222E+03  0.17056735789E+04  0.16875692132E+04 0.  0.
        4    1    3    3  502    0  0.79859872866E+03  0.26313526193E+03 -0.19518785235E+03  0.86319175511E+03  0.12699999809E+01 0. -1.
       -4    1    3    3    0  502 -0.79859872866E+03 -0.26313526193E+03 -0.52667969869E+02  0.84248182380E+03  0.12699999809E+01 0.  1.
</event>
<event>
 5   0  0.2911632E-05  0.1698598E+04  0.7818609E-02  0.8762164E-01
       -1   -1    0    0    0  501  0.00000000000E+00  0.00000000000E+00  0.94086992162E+03  0.94086992164E+03  0.50400001928E-02 0. -1.
        1   -1    0    0  501    0  0.00000000000E+00  0.00000000000E+00 -0.76664018794E+03  0.76664018796E+03  0.50400001928E-02 0.  1.
    10030    2    1    2    0    0  0.00000000000E+00  0.00000000000E+00  0.17422973369E+03  0.17075101096E+04  0.16985978848E+04 0.  0.
        1    1    3    3  502    0 -0.26123916822E+03 -0.25774453515E+03  0.85705160163E+03  0.93231732597E+03  0.50400001928E-02 0. -1.
       -1    1    3    3    0  502  0.26123916822E+03  0.25774453515E+03 -0.68282186795E+03  0.77519278363E+03  0.50400001928E-02 0.  1.
</event>
<event>
 5   0  0.2993769E-05  0.1697638E+04  0.7818609E-02  0.8762712E-01
        1   -1    0    0  501    0  0.00000000000E+00  0.00000000000E+00  0.10678952000E+04  0.10678952000E+04  0.50400001928E-02 0.  1.
       -1   -1    0    0    0  501  0.00000000000E+00  0.00000000000E+00 -0.67468600371E+03  0.67468600373E+03  0.50400001928E-02 0. -1.
    10030    2    1    2    0    0  0.00000000000E+00  0.00000000000E+00  0.39320919633E+03  0.17425812038E+04  0.16976382947E+04 0.  0.
        3    1    3    3  502    0 -0.55121628957E+03  0.64241010063E+03  0.26123006567E+03  0.88587318093E+03  0.10100000352E+00 0.  1.
       -3    1    3    3    0  502  0.55121628957E+03 -0.64241010063E+03  0.13197913065E+03  0.85670802284E+03  0.10100000352E+00 0. -1.
</event>
<event>
 5   0  0.5652631E-05  0.1691909E+04  0.7818609E-02  0.8765993E-01
       -2   -1    0    0    0  501  0.00000000000E+00  0.00000000000E+00  0.49848849957E+03  0.49848849957E+03  0.25500000920E-02 0.  1.
        2   -1    0    0  501    0  0.00000000000E+00  0.00000000000E+00 -0.14356171992E+04  0.14356171992E+04  0.25500000920E-02 0. -1.
    10030    2    1    2    0    0  0.00000000000E+00  0.00000000000E+00 -0.93712869967E+03  0.19341056988E+04  0.16919085834E+04 0.  0.
        2    1    3    3  502    0  0.16307329263E+03 -0.27310790222E+03 -0.13646496548E+04  0.14012314246E+04  0.25500000920E-02 0. -1.
       -2    1    3    3    0  502 -0.16307329263E+03  0.27310790222E+03  0.42752095512E+03  0.53287427419E+03  0.25500000920E-02 0.  1.
</event>
<event>
 5   0  0.5755321E-05  0.1701392E+04  0.7818609E-02  0.8760571E-01
       -2   -1    0    0    0  501  0.00000000000E+00  0.00000000000E+00  0.71717378507E+03  0.71717378508E+03  0.25500000920E-02 0. -1.
        2   -1    0    0  501    0  0.00000000000E+00  0.00000000000E+00 -0.10090774163E+04  0.10090774163E+04  0.25500000920E-02 0.  1.
    10030    2    1    2    0    0  0.00000000000E+00  0.00000000000E+00 -0.29190363127E+03  0.17262512014E+04  0.17013922183E+04 0.  0.
        4    1    3    3  502    0  0.15733753204E+02  0.95177130127E+02  0.71160516336E+03  0.71811542144E+03  0.12699999809E+01 0. -1.
       -4    1    3    3    0  502 -0.15733753204E+02 -0.95177130127E+02 -0.10035087946E+04  0.10081357800E+04  0.12699999809E+01 0.  1.
</event>
<event>
 5   0  0.2987859E-05  0.1699708E+04  0.7818609E-02  0.8761531E-01
       -1   -1    0    0    0  501  0.00000000000E+00  0.00000000000E+00  0.72950898613E+03  0.72950898614E+03  0.50400001928E-02 0. -1.
        1   -1    0    0  501    0  0.00000000000E+00  0.00000000000E+00 -0.99005226151E+03  0.99005226152E+03  0.50400001928E-02 0.  1.
    10030    2    1    2    0    0  0.00000000000E+00  0.00000000000E+00 -0.26054327538E+03  0.17195612477E+04  0.16997082356E+04 0.  0.
        5    1    3    3  502    0 -0.66599088841E+03 -0.36749614059E+03  0.25314403759E+03  0.80168651639E+03  0.46999998093E+01 0. -1.
       -5    1    3    3    0  502  0.66599088841E+03  0.36749614059E+03 -0.51368731298E+03  0.91787473127E+03  0.46999998093E+01 0.  1.
</event>
<event>
 5   0  0.5755321E-05  0.1701132E+04  0.7818609E-02  0.8760719E-01
       -2   -1    0    0    0  501  0.00000000000E+00  0.00000000000E+00  0.64021430355E+03  0.64021430356E+03  0.25500000920E-02 0.  1.
        2   -1    0    0  501    0  0.00000000000E+00  0.00000000000E+00 -0.11300318602E+04  0.11300318602E+04  0.25500000920E-02 0. -1.
    10030    2    1    2    0    0  0.00000000000E+00  0.00000000000E+00 -0.48981755660E+03  0.17702461637E+04  0.17011320470E+04 0.  0.
        4    1    3    3  502    0 -0.46286137511E+03 -0.69001035830E+03 -0.43425166460E+03  0.93751323630E+03  0.12699999809E+01 0.  1.
       -4    1    3    3    0  502  0.46286137511E+03  0.69001035830E+03 -0.55565892002E+02  0.83273292741E+03  0.12699999809E+01 0. -1.
</event>
<event>
 5   0  0.2967704E-05  0.1700159E+04  0.7818609E-02  0.8761274E-01
       -1   -1    0    0    0  501  0.00000000000E+00  0.00000000000E+00  0.57432341796E+03  0.57432341798E+03  0.50400001928E-02 0.  1.
        1   -1    0    0  501    0  0.00000000000E+00  0.00000000000E+00 -0.12582372181E+04  0.12582372181E+04  0.50400001928E-02 0. -1.
    10030    2    1    2    0    0  0.00000000000E+00  0.00000000000E+00 -0.68391380012E+03  0.18325606361E+04  0.17001589334E+04 0.  0.
        2    1    3    3  502    0 -0.44202423833E+03 -0.72461006650E+03 -0.29151593936E+03  0.89745569175E+03  0.25500000920E-02 0.  1.
       -2    1    3    3    0  502  0.44202423833E+03  0.72461006650E+03 -0.39239786076E+03  0.93510494432E+03  0.25500000920E-02 0. -1.
</event>
<event>
 5   0  0.5859822E-05  0.1702676E+04  0.7818609E-02  0.8759840E-01
        2   -1    0    0  501    0  0.00000000000E+00  0.00000000000E+00  0.10177293995E+04  0.10177293995E+04  0.25500000920E-02 0. -1.
       -2   -1    0    0    0  501  0.00000000000E+00  0.00000000000E+00 -0.71215017040E+03  0.71215017040E+03  0.25500000920E-02 0.  1.
    10030    2    1    2    0    0  0.00000000000E+00  0.00000000000E+00  0.30557922912E+03  0.17298795699E+04  0.17026757358E+04 0.  0.
        5    1    3    3  502    0 -0.68317529769E+03  0.50773849893E+03  0.16810375093E+03  0.86764499177E+03  0.46999998093E+01 0. -1.
       -5    1    3    3    0  502  0.68317529769E+03 -0.50773849893E+03  0.13747547819E+03  0.86223457815E+03  0.46999998093E+01 0.  1.
</event>
<event>
 5   0  0.2966258E-05  0.1736363E+04  0.7818609E-02  0.8740892E-01
       -1   -1    0    0    0  501  0.00000000000E+00  0.00000000000E+00  0.75796559333E+03  0.75796559335E+03  0.50400001928E-02 0. -1.
        1   -1    0    0  501    0  0.00000000000E+00  0.00000000000E+00 -0.99442447189E+03  0.99442447190E+03  0.50400001928E-02 0.  1.
    10030    2    1    2    0    0  0.00000000000E+00  0.00000000000E+00 -0.23645887855E+03  0.17523900652E+04  0.17363634814E+04 0.  0.
        4    1    3    3  502    0 -0.22074073775E+03  0.29524383063E+02  0.72864606830E+03  0.76192182555E+03  0.12699999809E+01 0. -1.
       -4    1    3    3    0  502  0.22074073775E+03 -0.29524383063E+02 -0.96510494686E+03  0.99046823970E+03  0.12699999809E+01 0.  1.
</event>
<event>
 5   0  0.5671132E-05  0.1698817E+04  0.7818609E-02  0.8762039E-01
        2   -1    0    0  501    0  0.00000000000E+00  0.00000000000E+00  0.11248843734E+04  0.11248843734E+04  0.25500000920E-02 0. -1.
       -2   -1    0    0    0  501  0.00000000000E+00  0.00000000000E+00 -0.64139487080E+03  0.64139487080E+03  0.25500000920E-02 0.  1.
    10030    2    1    2    0    0  0.00000000000E+00  0.00000000000E+00  0.48348950257E+03  0.17662792442E+04  0.16988173149E+04 0.  0.
        3    1    3    3  502    0  0.57819104443E+03 -0.57320484758E+03 -0.99992966131E+01  0.81422888507E+03  0.10100000352E+00 0.  1.
       -3    1    3    3    0  502 -0.57819104443E+03  0.57320484758E+03  0.49348879918E+03  0.95205035910E+03  0.10100000352E+00 0. -1.
</event>
<event>
 5   0  0.2098250E-05  0.1697907E+04  0.7818609E-02  0.8762559E-01
       -4   -1    0    0    0  501  0.00000000000E+00  0.00000000000E+00  0.88664857256E+03  0.88664948211E+03  0.12699999809E+01 0. -1.
        4   -1    0    0  501    0  0.00000000000E+00  0.00000000000E+00 -0.81285912358E+03  0.81286011570E+03  0.12699999809E+01 0.  1.
    10030    2    1    2    0    0  0.00000000000E+00  0.00000000000E+00  0.73789448973E+02  0.16995095978E+04  0.16979069439E+04 0.  0.
        5    1    3    3  502    0  0.82186881419E+02  0.42233992274E+03  0.76941485910E+03  0.88155941899E+03  0.46999998093E+01 0. -1.
       -5    1    3    3    0  502 -0.82186881419E+02 -0.42233992274E+03 -0.69562541012E+03  0.81795017881E+03  0.46999998093E+01 0.  1.
</event>
<event>
 5   0  0.5652631E-05  0.1700829E+04  0.7818609E-02  0.8760892E-01
        2   -1    0    0  501    0  0.00000000000E+00  0.00000000000E+00  0.14878885718E+04  0.14878885718E+04  0.25500000920E-02 0.  1.
       -2   -1    0    0    0  501  0.00000000000E+00  0.00000000000E+00 -0.48606113142E+03  0.48606113143E+03  0.25500000920E-02 0. -1.
    10030    2    1    2    0    0  0.00000000000E+00  0.00000000000E+00  0.10018274404E+04  0.19739497033E+04  0.17008289775E+04 0.  0.
        2    1    3    3  502    0 -0.20023668832E+03 -0.68415496185E+03  0.10391056007E+04  0.12601203088E+04  0.25500000920E-02 0.  1.
       -2    1    3    3    0  502  0.20023668832E+03  0.68415496185E+03 -0.37278160313E+02  0.71382939447E+03  0.25500000920E-02 0. -1.
</event>
<event>
 5   0  0.2098250E-05  0.1697067E+04  0.7818609E-02  0.8763039E-01
        3   -1    0    0  501    0  0.00000000000E+00  0.00000000000E+00  0.23136991777E+04  0.23136991799E+04  0.10100000352E+00 0.  1.
       -3   -1    0    0    0  501  0.00000000000E+00  0.00000000000E+00 -0.31119380952E+03  0.31119382591E+03  0.10100000352E+00 0. -1.
    10030    2    1    2    0    0  0.00000000000E+00  0.00000000000E+00  0.20025053682E+04  0.26248930058E+04  0.16970667466E+04 0.  0.
        1    1    3    3  502    0  0.67231490664E+03 -0.39363417075E+03  0.15213146051E+04  0.17091966890E+04  0.50400001928E-02 0. -1.
       -1    1    3    3    0  502 -0.67231490664E+03  0.39363417075E+03  0.48119076306E+03  0.91569631677E+03  0.50400001928E-02 0.  1.
</event>
<event>
 5   0  0.5755321E-05  0.1701420E+04  0.7818609E-02  0.8760555E-01
        2   -1    0    0  501    0  0.00000000000E+00  0.00000000000E+00  0.71743745417E+03  0.71743745418E+03  0.25500000920E-02 0. -1.
       -2   -1    0    0    0  501  0.00000000000E+00  0.00000000000E+00 -0.10087393340E+04  0.10087393340E+04  0.25500000920E-02 0.  1.
    10030    2    1    2    0    0  0.00000000000E+00  0.00000000000E+00 -0.29130187979E+03  0.17261767881E+04  0.17014198538E+04 0.  0.
        4    1    3    3  502    0 -0.40776564471E+03 -0.74635795837E+03 -0.16549944662E+03  0.86643793936E+03  0.12699999809E+01 0. -1.
       -4    1    3    3    0  502  0.40776564471E+03  0.74635795837E+03 -0.12580243317E+03  0.85973884879E+03  0.12699999809E+01 0.  1.
</event>
<event>
 5   0  0.5859822E-05  0.1698000E+04  0.7818609E-02  0.8762506E-01
        2   -1    0    0  501    0  0.00000000000E+00  0.00000000000E+00  0.75876116662E+03  0.75876116663E+03  0.25500000920E-02 0.  1.
       -2   -1    0    0    0  501  0.00000000000E+00  0.00000000000E+00 -0.94997066536E+03  0.94997066536E+03  0.25500000920E-02 0. -1.
    10030    2    1    2    0    0  0.00000000000E+00  0.00000000000E+00 -0.19120949874E+03  0.17087318320E+04  0.16979998237E+04 0.  0.
        5    1    3    3  502    0 -0.55879878554E+03  0.19543834725E+03  0.51678608510E+03  0.78583851907E+03  0.46999998093E+01 0.  1.
       -5    1    3    3    0  502  0.55879878554E+03 -0.19543834725E+03 -0.70799558384E+03  0.92289331292E+03  0.46999998093E+01 0. -1.
</event>
<event>
 5   0  0.2966258E-05  0.1703995E+04  0.7818609E-02  0.8759089E-01
       -1   -1    0    0    0  501  0.00000000000E+00  0.00000000000E+00  0.11668765250E+04  0.11668765250E+04  0.50400001928E-02 0. -1.
        1   -1    0    0  501    0  0.00000000000E+00  0.00000000000E+00 -0.62208803255E+03  0.62208803258E+03  0.50400001928E-02 0.  1.
    10030    2    1    2    0    0  0.00000000000E+00  0.00000000000E+00  0.54478849247E+03  0.17889645576E+04  0.17039952133E+04 0.  0.
        4    1    3    3  502    0 -0.93458299201E+02 -0.64373534275E+03 -0.30528774379E+03  0.71856235958E+03  0.12699999809E+01 0.  1.
       -4    1    3    3    0  502  0.93458299201E+02  0.64373534275E+03  0.85007623626E+03  0.10704021980E+04  0.12699999809E+01 0. -1.
</event>
<event>
 5   0  0.2967704E-05  0.1698730E+04  0.7818609E-02  0.8762089E-01
       -1   -1    0    0    0  501  0.00000000000E+00  0.00000000000E+00  0.46864761223E+03  0.46864761226E+03  0.50400001928E-02 0.  1.
        1   -1    0    0  501    0  0.00000000000E+00  0.00000000000E+00 -0.15393666172E+04  0.15393666172E+04  0.50400001928E-02 0. -1.
    10030    2    1    2    0    0  0.00000000000E+00  0.00000000000E+00 -0.10707190049E+04  0.20080142295E+04  0.16987295129E+04 0.  0.
        2    1    3    3  502    0 -0.71771444069E+03  0.39518965888E+03 -0.80002562635E+03  0.11451331310E+04  0.25500000920E-02 0. -1.
       -2    1    3    3    0  502  0.71771444069E+03 -0.39518965888E+03 -0.27069337859E+03  0.86288109846E+03  0.25500000920E-02 0.  1.
</event>
<event>
 5   0  0.5859822E-05  0.1700093E+04  0.7818609E-02  0.8761312E-01
        2   -1    0    0  501    0  0.00000000000E+00  0.00000000000E+00  0.10397200638E+04  0.10397200638E+04  0.25500000920E-02 0.  1.
       -2   -1    0    0    0  501  0.00000000000E+00  0.00000000000E+00 -0.69497432647E+03  0.69497432648E+03  0.25500000920E-02 0. -1.
    10030    2    1    2    0    0  0.00000000000E+00  0.00000000000E+00  0.34474573737E+03  0.17346943903E+04  0.17000926458E+04 0.  0.
        5    1    3    3  502    0 -0.33578314196E+03 -0.53087056742E+03  0.75672671754E+03  0.98347917762E+03  0.46999998093E+01 0.  1.
       -5    1    3    3    0  502  0.33578314196E+03  0.53087056742E+03 -0.41198098017E+03  0.75121521270E+03  0.46999998093E+01 0. -1.
</event>
<event>
 5   0  0.2993769E-05  0.1704174E+04  0.7818609E-02  0.8758988E-01
        1   -1    0    0  501    0  0.00000000000E+00  0.00000000000E+00  0.24441868617E+04  0.24441868618E+04  0.50400001928E-02 0.  1.
       -1   -1    0    0    0  501  0.00000000000E+00  0.00000000000E+00 -0.29705254517E+03  0.29705254521E+03  0.50400001928E-02 0. -1.
    10030    2    1    2    0    0  0.00000000000E+00  0.00000000000E+00  0.21471343166E+04  0.27412394070E+04  0.17041736158E+04 0.  0.
        3    1    3    3  502    0  0.70003979282E+03  0.40654470617E+03  0.64581036882E+03  0.10355700615E+04  0.10100000352E+00 0.  1.
       -3    1    3    3    0  502 -0.70003979282E+03 -0.40654470617E+03  0.15013239478E+04  0.17056693454E+04  0.10100000352E+00 0. -1.
</event>
<event>
 5   0  0.5821584E-05  0.1695515E+04  0.7818609E-02  0.8763926E-01
        2   -1    0    0  501    0  0.00000000000E+00  0.00000000000E+00  0.24352579166E+04  0.24352579166E+04  0.25500000920E-02 0.  1.
       -2   -1    0    0    0  501  0.00000000000E+00  0.00000000000E+00 -0.29511979613E+03  0.29511979614E+03  0.25500000920E-02 0. -1.
    10030    2    1    2    0    0  0.00000000000E+00  0.00000000000E+00  0.21401381205E+04  0.27303777127E+04  0.16955150485E+04 0.  0.
        1    1    3    3  502    0 -0.66881105776E+03 -0.12447002062E+03  0.18846781815E+04  0.20036997941E+04  0.50400001928E-02 0.  1.
       -1    1    3    3    0  502  0.66881105776E+03  0.12447002062E+03  0.25545993900E+03  0.72667791867E+03  0.50400001928E-02 0. -1.
</event>
<event>
 5   0  0.2911632E-05  0.1698519E+04  0.7818609E-02  0.8762209E-01
        1   -1    0    0  501    0  0.00000000000E+00  0.00000000000E+00  0.16177153182E+04  0.16177153182E+04  0.50400001928E-02 0. -1.
       -1   -1    0    0    0  501  0.00000000000E+00  0.00000000000E+00 -0.44583989450E+03  0.44583989453E+03  0.50400001928E-02 0.  1.
    10030    2    1    2    0    0  0.00000000000E+00  0.00000000000E+00  0.11718754237E+04  0.20635552127E+04  0.16985193868E+04 0.  0.
        1    1    3    3  502    0  0.69277919021E+03 -0.12044067486E+03  0.73616386178E+01  0.70320918388E+03  0.50400001928E-02 0.  1.
       -1    1    3    3    0  502 -0.69277919021E+03  0.12044067486E+03  0.11645137850E+04  0.13603460288E+04  0.50400001928E-02 0. -1.
</event>
<event>
 5   0  0.5821584E-05  0.1698221E+04  0.7818609E-02  0.8762380E-01
       -2   -1    0    0    0  501  0.00000000000E+00  0.00000000000E+00  0.16259669189E+04  0.16259669189E+04  0.25500000920E-02 0. -1.
        2   -1    0    0  501    0  0.00000000000E+00  0.00000000000E+00 -0.44342139102E+03  0.44342139102E+03  0.25500000920E-02 0.  1.
    10030    2    1    2    0    0  0.00000000000E+00  0.00000000000E+00  0.11825455278E+04  0.20693883099E+04  0.16982208489E+04 0.  0.
        1    1    3    3  502    0  0.49799009544E+03 -0.29881163478E+03  0.13460992131E+04  0.14660373869E+04  0.50400001928E-02 0. -1.
       -1    1    3    3    0  502 -0.49799009544E+03  0.29881163478E+03 -0.16355368530E+03  0.60335092296E+03  0.50400001928E-02 0.  1.
</event>
<event>
 5   0  0.5821584E-05  0.1698007E+04  0.7818609E-02  0.8762502E-01
        2   -1    0    0  501    0  0.00000000000E+00  0.00000000000E+00  0.10243671795E+04  0.10243671795E+04  0.25500000920E-02 0. -1.
       -2   -1    0    0    0  501  0.00000000000E+00  0.00000000000E+00 -0.70366059325E+03  0.70366059325E+03  0.25500000920E-02 0.  1.
    10030    2    1    2    0    0  0.00000000000E+00  0.00000000000E+00  0.32070658627E+03  0.17280277728E+04  0.16980068519E+04 0.  0.
        1    1    3    3  502    0 -0.66977770992E+02 -0.34559881409E+03  0.94659416008E+03  0.10099331988E+04  0.50400001928E-02 0. -1.
       -1    1    3    3    0  502  0.66977770992E+02  0.34559881409E+03 -0.62588757381E+03  0.71809457398E+03  0.50400001928E-02 0.  1.
</event>
<event>
 5   0  0.5859822E-05  0.1698171E+04  0.7818609E-02  0.8762408E-01
       -2   -1    0    0    0  501  0.00000000000E+00  0.00000000000E+00  0.65723334467E+03  0.65723334467E+03  0.25500000920E-02 0. -1.
        2   -1    0    0  501    0  0.00000000000E+00  0.00000000000E+00 -0.10969412633E+04  0.10969412633E+04  0.25500000920E-02 0.  1.
    10030    2    1    2    0    0  0.00000000000E+00  0.00000000000E+00 -0.43970791862E+03  0.17541746080E+04  0.16981712227E+04 0.  0.
        5    1    3    3  502    0 -0.47854014191E+03 -0.18637548966E+03  0.47860140489E+03  0.70200988977E+03  0.46999998093E+01 0. -1.
       -5    1    3    3    0  502  0.47854014191E+03  0.18637548966E+03 -0.91830932351E+03  0.10521647182E+04  0.46999998093E+01 0.  1.
</event>
<event>
 5   0  0.5671132E-05  0.1699246E+04  0.7818609E-02  0.8761795E-01
        2   -1    0    0  501    0  0.00000000000E+00  0.00000000000E+00  0.11228283148E+04  0.11228283148E+04  0.25500000920E-02 0.  1.
       -2   -1    0    0    0  501  0.00000000000E+00  0.00000000000E+00 -0.64289332495E+03  0.64289332495E+03  0.25500000920E-02 0. -1.
    10030    2    1    2    0    0  0.00000000000E+00  0.00000000000E+00  0.47993498981E+03  0.17657216397E+04  0.16992455133E+04 0.  0.
        3    1    3    3  502    0 -0.65710175125E+03  0.11063030049E+03 -0.30775576227E+03  0.73398596329E+03  0.10100000352E+00 0. -1.
       -3    1    3    3    0  502  0.65710175125E+03 -0.11063030049E+03  0.78769075208E+03  0.10317356764E+04  0.10100000352E+00 0.  1.
</event>
<event>
 5   0  0.2967704E-05  0.1684972E+04  0.7818609E-02  0.8769982E-01
       -1   -1    0    0    0  501  0.00000000000E+00  0.00000000000E+00  0.12675799191E+04  0.12675799191E+04  0.50400001928E-02 0.  1.
        1   -1    0    0  501    0  0.00000000000E+00  0.00000000000E+00 -0.55995126039E+03  0.55995126042E+03  0.50400001928E-02 0. -1.
    10030    2    1    2    0    0  0.00000000000E+00  0.00000000000E+00  0.70762865871E+03  0.18275311795E+04  0.16849723717E+04 0.  0.
        2    1    3    3  502    0  0.94041140952E+02 -0.81292322429E+03  0.13663549823E+03  0.82967292601E+03  0.25500000920E-02 0. -1.
       -2    1    3    3    0  502 -0.94041140952E+02  0.81292322429E+03  0.57099316048E+03  0.99785825351E+03  0.25500000920E-02 0.  1.
</event>
<event>
 5   0  0.2993769E-05  0.1699811E+04  0.7818609E-02  0.8761472E-01
        1   -1    0    0  501    0  0.00000000000E+00  0.00000000000E+00  0.14019492410E+04  0.14019492410E+04  0.50400001928E-02 0. -1.
       -1   -1    0    0    0  501  0.00000000000E+00  0.00000000000E+00 -0.51523947911E+03  0.51523947913E+03  0.50400001928E-02 0.  1.
    10030    2    1    2    0    0  0.00000000000E+00  0.00000000000E+00  0.88670976192E+03  0.19171887202E+04  0.16998112798E+04 0.  0.
        3    1    3    3  502    0  0.67047103630E+03  0.72717200471E+02  0.10267228753E+04  0.12284050938E+04  0.10100000352E+00 0. -1.
       -3    1    3    3    0  502 -0.67047103630E+03 -0.72717200471E+02 -0.14001311336E+03  0.68878362632E+03  0.10100000352E+00 0.  1.
</event>
<event>
 5   0  0.2098250E-05  0.1703272E+04  0.7818609E-02  0.8759500E-01
        3   -1    0    0  501    0  0.00000000000E+00  0.00000000000E+00  0.12033600772E+04  0.12033600815E+04  0.10100000352E+00 0. -1.
       -3   -1    0    0    0  501  0.00000000000E+00  0.00000000000E+00 -0.60271580428E+03  0.60271581275E+03  0.10100000352E+00 0.  1.
    10030    2    1    2    0    0  0.00000000000E+00  0.00000000000E+00  0.60064427296E+03  0.18060758942E+04  0.17032723191E+04 0.  0.
        5    1    3    3  502    0 -0.50103318006E+03  0.18013775079E+03 -0.40445863875E+03  0.66864993624E+03  0.46999998093E+01 0.  1.
       -5    1    3    3    0  502  0.50103318006E+03 -0.18013775079E+03  0.10051029117E+04  0.11374259580E+04  0.46999998093E+01 0. -1.
</event>
<event>
 5   0  0.2967704E-05  0.1704727E+04  0.7818609E-02  0.8758673E-01
       -1   -1    0    0    0  501  0.00000000000E+00  0.00000000000E+00  0.47432322316E+03  0.47432322319E+03  0.50400001928E-02 0. -1.
        1   -1    0    0  501    0  0.00000000000E+00  0.00000000000E+00 -0.15317058354E+04  0.15317058354E+04  0.50400001928E-02 0.  1.
    10030    2    1    2    0    0  0.00000000000E+00  0.00000000000E+00 -0.10573826122E+04  0.20060290586E+04  0.17047271322E+04 0.  0.
        2    1    3    3  502    0 -0.56560529422E+03 -0.14730458263E+03 -0.12587623714E+04  0.13878366966E+04  0.25500000920E-02 0.  1.
       -2    1    3    3    0  502  0.56560529422E+03  0.14730458263E+03  0.20137975920E+03  0.61819236191E+03  0.25500000920E-02 0. -1.
</event>
<event>
 5   0  0.2911632E-05  0.1699000E+04  0.7818609E-02  0.8761935E-01
        1   -1    0    0  501    0  0.00000000000E+00  0.00000000000E+00  0.10517550191E+04  0.10517550191E+04  0.50400001928E-02 0.  1.
       -1   -1    0    0    0  501  0.00000000000E+00  0.00000000000E+00 -0.68613930793E+03  0.68613930795E+03  0.50400001928E-02 0. -1.
    10030    2    1    2    0    0  0.00000000000E+00  0.00000000000E+00  0.36561571121E+03  0.17378943271E+04  0.16990002483E+04 0.  0.
        1    1    3    3  502    0  0.62761975278E+03 -0.32992446613E+03 -0.29576339714E+03  0.76826603110E+03  0.50400001928E-02 0. -1.
       -1    1    3    3    0  502 -0.62761975278E+03  0.32992446613E+03  0.66137910835E+03  0.96962829600E+03  0.50400001928E-02 0.  1.
</event>
<event>
 5   0  0.5821584E-05  0.1699680E+04  0.7818609E-02  0.8761547E-01
       -2   -1    0    0    0  501  0.00000000000E+00  0.00000000000E+00  0.97856393971E+03  0.97856393971E+03  0.25500000920E-02 0.  1.
        2   -1    0    0  501    0  0.00000000000E+00  0.00000000000E+00 -0.73804929418E+03  0.73804929418E+03  0.25500000920E-02 0. -1.
    10030    2    1    2    0    0  0.00000000000E+00  0.00000000000E+00  0.24051464553E+03  0.17166132339E+04  0.16996804700E+04 0.  0.
        1    1    3    3  502    0  0.17942903671E+03 -0.81714284637E+03  0.27111477779E+03  0.87944325192E+03  0.50400001928E-02 0.  1.
       -1    1    3    3    0  502 -0.17942903671E+03  0.81714284637E+03 -0.30600132257E+02  0.83716998197E+03  0.50400001928E-02 0. -1.
</event>
<event>
 5   0  0.2993769E-05  0.1696864E+04  0.7818609E-02  0.8763155E-01
       -1   -1    0    0    0  501  0.00000000000E+00  0.00000000000E+00  0.57047273063E+03  0.57047273065E+03  0.50400001928E-02 0.  1.
        1   -1    0    0  501    0  0.00000000000E+00  0.00000000000E+00 -0.12618255230E+04  0.12618255230E+04  0.50400001928E-02 0. -1.
    10030    2    1    2    0    0  0.00000000000E+00  0.00000000000E+00 -0.69135279233E+03  0.18322982536E+04  0.16968642276E+04 0.  0.
        3    1    3    3  502    0  0.67253363772E+03 -0.20252924460E+03  0.16824879732E+03  0.72223767333E+03  0.10100000352E+00 0.  1.
       -3    1    3    3    0  502 -0.67253363772E+03  0.20252924460E+03 -0.85960158964E+03  0.11100605803E+04  0.10100000352E+00 0. -1.
</event>
<event>
 5   0  0.5652631E-05  0.1701460E+04  0.7818609E-02  0.8760532E-01
       -2   -1    0    0    0  501  0.00000000000E+00  0.00000000000E+00  0.30126844408E+03  0.30126844409E+03  0.25500000920E-02 0. -1.
        2   -1    0    0  501    0  0.00000000000E+00  0.00000000000E+00 -0.24023148374E+04  0.24023148374E+04  0.25500000920E-02 0.  1.
    10030    2    1    2    0    0  0.00000000000E+00  0.00000000000E+00 -0.21010463933E+04  0.27035832815E+04  0.17014601415E+04 0.  0.
        2    1    3    3  502    0 -0.36061637169E+00  0.39752510329E+03 -0.22456581294E+04  0.22805715889E+04  0.25500000920E-02 0.  1.
       -2    1    3    3    0  502  0.36061637169E+00 -0.39752510329E+03  0.14461173616E+03  0.42301169255E+03  0.25500000920E-02 0. -1.
</event>
<event>
 5   0  0.2987859E-05  0.1692093E+04  0.7818609E-02  0.8765887E-01
       -1   -1    0    0    0  501  0.00000000000E+00  0.00000000000E+00  0.50308298704E+03  0.50308298707E+03  0.50400001928E-02 0.  1.
        1   -1    0    0  501    0  0.00000000000E+00  0.00000000000E+00 -0.14228161638E+04  0.14228161639E+04  0.50400001928E-02 0. -1.
    10030    2    1    2    0    0  0.00000000000E+00  0.00000000000E+00 -0.91973317681E+03  0.19258991509E+04  0.16920929120E+04 0.  0.
        5    1    3    3  502    0  0.81662284181E+03 -0.75899324919E+02 -0.22346843347E+03  0.85005517706E+03  0.46999998093E+01 0.  1.
       -5    1    3    3    0  502 -0.81662284181E+03  0.75899324919E+02 -0.69626474333E+03  0.10758439739E+04  0.46999998093E+01 0. -1.
</event>
<event>
 5   0  0.5755321E-05  0.1701786E+04  0.7818609E-02  0.8760346E-01
       -2   -1    0    0    0  501  0.00000000000E+00  0.00000000000E+00  0.69201460738E+03  0.69201460739E+03  0.25500000920E-02 0.  1.
        2   -1    0    0  501    0  0.00000000000E+00  0.00000000000E+00 -0.10462481387E+04  0.10462481387E+04  0.25500000920E-02 0. -1.
    10030    2    1    2    0    0  0.00000000000E+00  0.00000000000E+00 -0.35423353135E+03  0.17382627461E+04  0.17017861146E+04 0.  0.
        4    1    3    3  502    0 -0.48401221719E+03 -0.69708343636E+03 -0.11395083099E+03  0.85625904283E+03  0.12699999809E+01 0. -1.
       -4    1    3    3    0  502  0.48401221719E+03  0.69708343636E+03 -0.24028270036E+03  0.88200370330E+03  0.12699999809E+01 0.  1.
</event>
<event>
 5   0  0.5821584E-05  0.1683047E+04  0.7818609E-02  0.8771093E-01
       -2   -1    0    0    0  501  0.00000000000E+00  0.00000000000E+00  0.33348305344E+03  0.33348305345E+03  0.25500000920E-02 0.  1.
        2   -1    0    0  501    0  0.00000000000E+00  0.00000000000E+00 -0.21235317271E+04  0.21235317271E+04  0.25500000920E-02 0. -1.
    10030    2    1    2    0    0  0.00000000000E+00  0.00000000000E+00 -0.17900486736E+04  0.24570147805E+04  0.16830470515E+04 0.  0.
        1    1    3    3  502    0 -0.25349107039E+03  0.27401740925E+03  0.20600375307E+03  0.42635760770E+03  0.50400001928E-02 0.  1.
       -1    1    3    3    0  502  0.25349107039E+03 -0.27401740925E+03 -0.19960524267E+04  0.20306571728E+04  0.50400001928E-02 0. -1.
</event>
<event>
 5   0  0.5821584E-05  0.1711424E+04  0.7818609E-02  0.8754875E-01
        2   -1    0    0  501    0  0.00000000000E+00  0.00000000000E+00  0.29507014158E+04  0.29507014158E+04  0.25500000920E-02 0. -1.
       -2   -1    0    0    0  501  0.00000000000E+00  0.00000000000E+00 -0.24815900614E+03  0.24815900615E+03  0.25500000920E-02 0.  1.
    10030    2    1    2    0    0  0.00000000000E+00  0.00000000000E+00  0.27025424097E+04  0.31988604220E+04  0.17114241213E+04 0.  0.
        1    1    3    3  502    0 -0.48906609919E+03 -0.38768818310E+03  0.24455544901E+04  0.25239303756E+04  0.50400001928E-02 0. -1.
       -1    1    3    3    0  502  0.48906609919E+03  0.38768818310E+03  0.25698791958E+03  0.67493004639E+03  0.50400001928E-02 0.  1.
</event>
<event>
 5   0  0.2966258E-05  0.1699921E+04  0.7818609E-02  0.8761409E-01
       -1   -1    0    0    0  501  0.00000000000E+00  0.00000000000E+00  0.78842618909E+03  0.78842618911E+03  0.50400001928E-02 0.  1.
        1   -1    0    0  501    0  0.00000000000E+00  0.00000000000E+00 -0.91629788559E+03  0.91629788560E+03  0.50400001928E-02 0. -1.
    10030    2    1    2    0    0  0.00000000000E+00  0.00000000000E+00 -0.12787169650E+03  0.17047240747E+04  0.16999214688E+04 0.  0.
        4    1    3    3  502    0  0.71322159370E+03  0.13166554331E+03 -0.50837048287E+03  0.88569916889E+03  0.12699999809E+01 0. -1.
       -4    1    3    3    0  502 -0.71322159370E+03 -0.13166554331E+03  0.38049878638E+03  0.81902490582E+03  0.12699999809E+01 0.  1.
</event>
<event>
 5   0  0.5755321E-05  0.1698149E+04  0.7818609E-02  0.8762421E-01
       -2   -1    0    0    0  501  0.00000000000E+00  0.00000000000E+00  0.73314409604E+03  0.73314409605E+03  0.25500000920E-02 0.  1.
        2   -1    0    0  501    0  0.00000000000E+00  0.00000000000E+00 -0.98333688878E+03  0.98333688878E+03  0.25500000920E-02 0. -1.
    10030    2    1    2    0    0  0.00000000000E+00  0.00000000000E+00 -0.25019279274E+03  0.17164809848E+04  0.16981491506E+04 0.  0.
        4    1    3    3  502    0 -0.82408182394E+03 -0.18501132087E+03 -0.21313416266E+03  0.87107280155E+03  0.12699999809E+01 0.  1.
       -4    1    3    3    0  502  0.82408182394E+03  0.18501132087E+03 -0.37058630078E+02  0.84540818328E+03  0.12699999809E+01 0. -1.
</event>
<event>
 5   0  0.5755321E-05  0.1699852E+04  0.7818609E-02  0.8761449E-01
       -2   -1    0    0    0  501  0.00000000000E+00  0.00000000000E+00  0.59658044024E+03  0.59658044024E+03  0.25500000920E-02 0. -1.
        2   -1    0    0  501    0  0.00000000000E+00  0.00000000000E+00 -0.12108582709E+04  0.12108582709E+04  0.25500000920E-02 0.  1.
    10030    2    1    2    0    0  0.00000000000E+00  0.00000000000E+00 -0.61427783068E+03  0.18074387112E+04  0.16998521822E+04 0.  0.
        4    1    3    3  502    0  0.40468211570E+02  0.53889478360E+03 -0.10046513663E+04  0.11407765972E+04  0.12699999809E+01 0.  1.
       -4    1    3    3    0  502 -0.40468211570E+02 -0.53889478360E+03  0.39037353567E+03  0.66666211396E+03  0.12699999809E+01 0. -1.
</event>
<event>
 5   0  0.2967704E-05  0.1698817E+04  0.7818609E-02  0.8762039E-01
       -1   -1    0    0    0  501  0.00000000000E+00  0.00000000000E+00  0.11480043666E+04  0.11480043666E+04  0.50400001928E-02 0.  1.
        1   -1    0    0  501    0  0.00000000000E+00  0.00000000000E+00 -0.62847730018E+03  0.62847730020E+03  0.50400001928E-02 0. -1.
    10030    2    1    2    0    0  0.00000000000E+00  0.00000000000E+00  0.51952706640E+03  0.17764816668E+04  0.16988168647E+04 0.  0.
        2    1    3    3  502    0  0.61201533514E+03 -0.58876507145E+03  0.27749776881E+03  0.89342716072E+03  0.25500000920E-02 0.  1.
       -2    1    3    3    0  502 -0.61201533514E+03  0.58876507145E+03  0.24202929759E+03  0.88305450608E+03  0.25500000920E-02 0. -1.
</event>
<event>
 5   0  0.5821584E-05  0.1696069E+04  0.7818609E-02  0.8763609E-01
        2   -1    0    0  501    0  0.00000000000E+00  0.00000000000E+00  0.97641462047E+03  0.97641462048E+03  0.25500000920E-02 0.  1.
       -2   -1    0    0    0  501  0.00000000000E+00  0.00000000000E+00 -0.73653409407E+03  0.73653409408E+03  0.25500000920E-02 0. -1.
    10030    2    1    2    0    0  0.00000000000E+00  0.00000000000E+00  0.23988052640E+03  0.17129487146E+04  0.16960691707E+04 0.  0.
        1    1    3    3  502    0  0.33034433701E+03 -0.65643744203E+03  0.54738413789E+03  0.91633339497E+03  0.50400001928E-02 0.  1.
       -1    1    3    3    0  502 -0.33034433701E+03  0.65643744203E+03 -0.30750361149E+03  0.79661531959E+03  0.50400001928E-02 0. -1.
</event>
<event>
 5   0  0.2987859E-05  0.1663535E+04  0.7818609E-02  0.8782439E-01
        1   -1    0    0  501    0  0.00000000000E+00  0.00000000000E+00  0.99229597892E+03  0.99229597893E+03  0.50400001928E-02 0. -1.
       -1   -1    0    0    0  501  0.00000000000E+00  0.00000000000E+00 -0.69720859403E+03  0.69720859405E+03  0.50400001928E-02 0.  1.
    10030    2    1    2    0    0  0.00000000000E+00  0.00000000000E+00  0.29508738488E+03  0.16895045730E+04  0.16635351326E+04 0.  0.
        5    1    3    3  502    0 -0.32811510191E+02  0.77616939133E+03  0.44933515318E+03  0.89746291797E+03  0.46999998093E+01 0. -1.
       -5    1    3    3    0  502  0.32811510191E+02 -0.77616939133E+03 -0.15424776830E+03  0.79204165501E+03  0.46999998093E+01 0.  1.
</event>
<event>
 5   0  0.2987859E-05  0.1699593E+04  0.7818609E-02  0.8761596E-01
        1   -1    0    0  501    0  0.00000000000E+00  0.00000000000E+00  0.37902228570E+03  0.37902228573E+03  0.50400001928E-02 0. -1.
       -1   -1    0    0    0  501  0.00000000000E+00  0.00000000000E+00 -0.19053083039E+04  0.19053083039E+04  0.50400001928E-02 0.  1.
    10030    2    1    2    0    0  0.00000000000E+00  0.00000000000E+00 -0.15262860182E+04  0.22843305896E+04  0.16995932553E+04 0.  0.
        5    1    3    3  502    0 -0.38300845177E+03 -0.60394846102E+03 -0.13800628019E+04  0.15543630995E+04  0.46999998093E+01 0.  1.
       -5    1    3    3    0  502  0.38300845177E+03  0.60394846102E+03 -0.14622321623E+03  0.72996749014E+03  0.46999998093E+01 0. -1.
</event>
<event>
 5   0  0.2987859E-05  0.1700607E+04  0.7818609E-02  0.8761018E-01
       -1   -1    0    0    0  501  0.00000000000E+00  0.00000000000E+00  0.46398288994E+03  0.46398288997E+03  0.50400001928E-02 0.  1.
        1   -1    0    0  501    0  0.00000000000E+00  0.00000000000E+00 -0.15582809447E+04  0.15582809447E+04  0.50400001928E-02 0. -1.
    10030    2    1    2    0    0  0.00000000000E+00  0.00000000000E+00 -0.10942980548E+04  0.20222638347E+04  0.17006065931E+04 0.  0.
        5    1    3    3  502    0  0.45888828993E+03 -0.22921089722E+03  0.25925936973E+03  0.57476395923E+03  0.46999998093E+01 0.  1.
       -5    1    3    3    0  502 -0.45888828993E+03  0.22921089722E+03 -0.13535574245E+04  0.14474998755E+04  0.46999998093E+01 0. -1.
</event>
<event>
 5   0  0.2967704E-05  0.1700407E+04  0.7818609E-02  0.8761132E-01
        1   -1    0    0  501    0  0.00000000000E+00  0.00000000000E+00  0.18823587221E+04  0.18823587221E+04  0.50400001928E-02 0. -1.
       -1   -1    0    0    0  501  0.00000000000E+00  0.00000000000E+00 -0.38401082967E+03  0.38401082970E+03  0.50400001928E-02 0.  1.
    10030    2    1    2    0    0  0.00000000000E+00  0.00000000000E+00  0.14983478924E+04  0.22663695518E+04  0.17004071685E+04 0.  0.
        2    1    3    3  502    0 -0.18601769384E+03  0.79115544812E+03  0.41645333386E+03  0.91321569456E+03  0.25500000920E-02 0. -1.
       -2    1    3    3    0  502  0.18601769384E+03 -0.79115544812E+03  0.10818945586E+04  0.13531538573E+04  0.25500000920E-02 0.  1.
</event>
<event>
 5   0  0.5671132E-05  0.1696706E+04  0.7818609E-02  0.8763245E-01
       -2   -1    0    0    0  501  0.00000000000E+00  0.00000000000E+00  0.59873593431E+03  0.59873593432E+03  0.25500000920E-02 0.  1.
        2   -1    0    0  501    0  0.00000000000E+00  0.00000000000E+00 -0.12020371856E+04  0.12020371856E+04  0.25500000920E-02 0. -1.
    10030    2    1    2    0    0  0.00000000000E+00  0.00000000000E+00 -0.60330125132E+03  0.18007731200E+04  0.16967060528E+04 0.  0.
        3    1    3    3  502    0  0.40211931469E+03  0.35468851457E+03  0.39609038467E+03  0.66662694864E+03  0.10100000352E+00 0.  1.
       -3    1    3    3    0  502 -0.40211931469E+03 -0.35468851457E+03 -0.99939163600E+03  0.11341461713E+04  0.10100000352E+00 0. -1.
</event>
<event>
 5   0  0.5859822E-05  0.1703181E+04  0.7818609E-02  0.8759552E-01
        2   -1    0    0  501    0  0.00000000000E+00  0.00000000000E+00  0.75598958018E+03  0.75598958019E+03  0.25500000920E-02 0.  1.
       -2   -1    0    0    0  501  0.00000000000E+00  0.00000000000E+00 -0.95928040856E+03  0.95928040856E+03  0.25500000920E-02 0. -1.
    10030    2    1    2    0    0  0.00000000000E+00  0.00000000000E+00 -0.20329082838E+03  0.17152699887E+04  0.17031805463E+04 0.  0.
        5    1    3    3  502    0  0.46883116717E+02  0.72291298498E+03 -0.55246409662E+03  0.91106524384E+03  0.46999998093E+01 0.  1.
       -5    1    3    3    0  502 -0.46883116717E+02 -0.72291298498E+03  0.34917326824E+03  0.80420474491E+03  0.46999998093E+01 0. -1.
</event>
<event>
 5   0  0.5652631E-05  0.1699989E+04  0.7818609E-02  0.8761371E-01
        2   -1    0    0  501    0  0.00000000000E+00  0.00000000000E+00  0.90388723187E+03  0.90388723187E+03  0.25500000920E-02 0.  1.
       -2   -1    0    0    0  501  0.00000000000E+00  0.00000000000E+00 -0.79931481813E+03  0.79931481813E+03  0.25500000920E-02 0. -1.
    10030    2    1    2    0    0  0.00000000000E+00  0.00000000000E+00  0.10457241374E+03  0.17032020500E+04  0.16999887745E+04 0.  0.
        2    1    3    3  502    0 -0.16516944898E+03 -0.15097017658E+03  0.87384685137E+03  0.90204282645E+03  0.25500000920E-02 0.  1.
       -2    1    3    3    0  502  0.16516944898E+03  0.15097017658E+03 -0.76927443763E+03  0.80115922356E+03  0.25500000920E-02 0. -1.
</event>
<event>
 5   0  0.2967704E-05  0.1699213E+04  0.7818609E-02  0.8761813E-01
        1   -1    0    0  501    0  0.00000000000E+00  0.00000000000E+00  0.98368804125E+03  0.98368804126E+03  0.50400001928E-02 0. -1.
       -1   -1    0    0    0  501  0.00000000000E+00  0.00000000000E+00 -0.73380124322E+03  0.73380124323E+03  0.50400001928E-02 0.  1.
    10030    2    1    2    0    0  0.00000000000E+00  0.00000000000E+00  0.24988679803E+03  0.17174892845E+04  0.16992133564E+04 0.  0.
        2    1    3    3  502    0  0.72611546381E+03  0.42338013361E+03 -0.23165704199E+00  0.84053224684E+03  0.25500000920E-02 0.  1.
       -2    1    3    3    0  502 -0.72611546381E+03 -0.42338013361E+03  0.25011845507E+03  0.87695703765E+03  0.25500000920E-02 0. -1.
</event>
<event>
 5   0  0.5821584E-05  0.1707801E+04  0.7818609E-02  0.8756927E-01
       -2   -1    0    0    0  501  0.00000000000E+00  0.00000000000E+00  0.40001937890E+03  0.40001937891E+03  0.25500000920E-02 0.  1.
        2   -1    0    0  501    0  0.00000000000E+00  0.00000000000E+00 -0.18227777465E+04  0.18227777465E+04  0.25500000920E-02 0. -1.
    10030    2    1    2    0    0  0.00000000000E+00  0.00000000000E+00 -0.14227583676E+04  0.22227971254E+04  0.17078014194E+04 0.  0.
        1    1    3    3  502    0  0.29348519332E+03  0.11939576788E+03 -0.17434370548E+04  0.17719936998E+04  0.50400001928E-02 0. -1.
       -1    1    3    3    0  502 -0.29348519332E+03 -0.11939576788E+03  0.32067868720E+03  0.45080342560E+03  0.50400001928E-02 0.  1.
</event>
<event>
 5   0  0.2967704E-05  0.1699865E+04  0.7818609E-02  0.8761442E-01
        1   -1    0    0  501    0  0.00000000000E+00  0.00000000000E+00  0.15176981283E+04  0.15176981283E+04  0.50400001928E-02 0. -1.
       -1   -1    0    0    0  501  0.00000000000E+00  0.00000000000E+00 -0.47597411852E+03  0.47597411855E+03  0.50400001928E-02 0.  1.
    10030    2    1    2    0    0  0.00000000000E+00  0.00000000000E+00  0.10417240097E+04  0.19936722468E+04  0.16998647344E+04 0.  0.
        2    1    3    3  502    0 -0.57509293768E+03 -0.49104423625E+02 -0.21086517927E+03  0.61449756324E+03  0.25500000920E-02 0.  1.
       -2    1    3    3    0  502  0.57509293768E+03  0.49104423625E+02  0.12525891890E+04  0.13791746836E+04  0.25500000920E-02 0. -1.
</event>
<event>
 5   0  0.2911632E-05  0.1699716E+04  0.7818609E-02  0.8761526E-01
       -1   -1    0    0    0  501  0.00000000000E+00  0.00000000000E+00  0.38303983234E+03  0.38303983237E+03  0.50400001928E-02 0. -1.
        1   -1    0    0  501    0  0.00000000000E+00  0.00000000000E+00 -0.18855972004E+04  0.18855972004E+04  0.50400001928E-02 0.  1.
    10030    2    1    2    0    0  0.00000000000E+00  0.00000000000E+00 -0.15025573681E+04  0.22686370328E+04  0.16997162535E+04 0.  0.
        1    1    3    3  502    0 -0.53204164606E+03 -0.64632524762E+03 -0.55577960373E+03  0.10048361094E+04  0.50400001928E-02 0. -1.
       -1    1    3    3    0  502  0.53204164606E+03  0.64632524762E+03 -0.94677776436E+03  0.12638009234E+04  0.50400001928E-02 0.  1.
</event>
<event>
 5   0  0.2993769E-05  0.1704458E+04  0.7818609E-02  0.8758826E-01
       -1   -1    0    0    0  501  0.00000000000E+00  0.00000000000E+00  0.54292155403E+03  0.54292155405E+03  0.50400001928E-02 0. -1.
        1   -1    0    0  501    0  0.00000000000E+00  0.00000000000E+00 -0.13377525450E+04  0.13377525450E+04  0.50400001928E-02 0.  1.
    10030    2    1    2    0    0  0.00000000000E+00  0.00000000000E+00 -0.79483099101E+03  0.18806740991E+04  0.17044584955E+04 0.  0.
        3    1    3    3  502    0 -0.31858966903E+02 -0.27619375678E+03 -0.12863061819E+04  0.13160097222E+04  0.10100000352E+00 0.  1.
       -3    1    3    3    0  502  0.31858966903E+02  0.27619375678E+03  0.49147519091E+03  0.56466437690E+03  0.10100000352E+00 0. -1.
</event>
<event>
 5   0  0.2967704E-05  0.1698088E+04  0.7818609E-02  0.8762456E-01
       -1   -1    0    0    0  501  0.00000000000E+00  0.00000000000E+00  0.10931805692E+04  0.10931805692E+04  0.50400001928E-02 0.  1.
        1   -1    0    0  501    0  0.00000000000E+00  0.00000000000E+00 -0.65942964183E+03  0.65942964185E+03  0.50400001928E-02 0. -1.
    10030    2    1    2    0    0  0.00000000000E+00  0.00000000000E+00  0.43375092741E+03  0.17526102111E+04  0.16980879497E+04 0.  0.
        2    1    3    3  502    0 -0.49754711072E+00  0.84514024796E+03  0.30080929734E+03  0.89707776677E+03  0.25500000920E-02 0.  1.
       -2    1    3    3    0  502  0.49754711072E+00 -0.84514024796E+03  0.13294163007E+03  0.85553244432E+03  0.25500000920E-02 0. -1.
</event>
<event>
 5   0  0.2993769E-05  0.1696046E+04  0.7818609E-02  0.8763623E-01
       -1   -1    0    0    0  501  0.00000000000E+00  0.00000000000E+00  0.18417301852E+04  0.18417301852E+04  0.50400001928E-02 0.  1.
        1   -1    0    0  501    0  0.00000000000E+00  0.00000000000E+00 -0.39047156376E+03  0.39047156379E+03  0.50400001928E-02 0. -1.
    10030    2    1    2    0    0  0.00000000000E+00  0.00000000000E+00  0.14512586215E+04  0.22322017490E+04  0.16960463030E+04 0.  0.
        3    1    3    3  502    0  0.18406205037E+03 -0.81684543685E+03  0.54891614695E+03  0.10012113926E+04  0.10100000352E+00 0.  1.
       -3    1    3    3    0  502 -0.18406205037E+03  0.81684543685E+03  0.90234247451E+03  0.12309903564E+04  0.10100000352E+00 0. -1.
</event>
<event>
 5   0  0.2911632E-05  0.1747081E+04  0.7818609E-02  0.8734958E-01
       -1   -1    0    0    0  501  0.00000000000E+00  0.00000000000E+00  0.54041532057E+03  0.54041532060E+03  0.50400001928E-02 0.  1.
        1   -1    0    0  501    0  0.00000000000E+00  0.00000000000E+00 -0.14120127897E+04  0.14120127897E+04  0.50400001928E-02 0. -1.
    10030    2    1    2    0    0  0.00000000000E+00  0.00000000000E+00 -0.87159746908E+03  0.19524281103E+04  0.17470813884E+04 0.  0.
        1    1    3    3  502    0 -0.82250790056E+03 -0.72463346489E+02 -0.11714748127E+03  0.83396265831E+03  0.50400001928E-02 0. -1.
       -1    1    3    3    0  502  0.82250790056E+03  0.72463346489E+02 -0.75444998781E+03  0.11184654519E+04  0.50400001928E-02 0.  1.
</event>
<event>
 5   0  0.2967704E-05  0.1699783E+04  0.7818609E-02  0.8761488E-01
       -1   -1    0    0    0  501  0.00000000000E+00  0.00000000000E+00  0.60052150164E+03  0.60052150166E+03  0.50400001928E-02 0. -1.
        1   -1    0    0  501    0  0.00000000000E+00  0.00000000000E+00 -0.12028133135E+04  0.12028133135E+04  0.50400001928E-02 0.  1.
    10030    2    1    2    0    0  0.00000000000E+00  0.00000000000E+00 -0.60229181182E+03  0.18033348151E+04  0.16997826417E+04 0.  0.
        2    1    3    3  502    0 -0.61355138295E+03 -0.13313570177E+03  0.30659122163E+03  0.69869062666E+03  0.25500000920E-02 0. -1.
       -2    1    3    3    0  502  0.61355138295E+03  0.13313570177E+03 -0.90888303345E+03  0.11046441885E+04  0.25500000920E-02 0.  1.
</event>
<event>
 5   0  0.5652631E-05  0.1699272E+04  0.7818609E-02  0.8761780E-01
       -2   -1    0    0    0  501  0.00000000000E+00  0.00000000000E+00  0.65425851273E+03  0.65425851273E+03  0.25500000920E-02 0. -1.
        2   -1    0    0  501    0  0.00000000000E+00  0.00000000000E+00 -0.11033577966E+04  0.11033577966E+04  0.25500000920E-02 0.  1.
    10030    2    1    2    0    0  0.00000000000E+00  0.00000000000E+00 -0.44909928389E+03  0.17576163093E+04  0.16992718806E+04 0.  0.
        2    1    3    3  502    0  0.37634931715E+02 -0.27080556665E+03 -0.10566135751E+04  0.10914138949E+04  0.25500000920E-02 0.  1.
       -2    1    3    3    0  502 -0.37634931715E+02  0.27080556665E+03  0.60751429117E+03  0.66620241443E+03  0.25500000920E-02 0. -1.
</event>
<event>
 5   0  0.2967704E-05  0.1705117E+04  0.7818609E-02  0.8758451E-01
       -1   -1    0    0    0  501  0.00000000000E+00  0.00000000000E+00  0.98418289574E+03  0.98418289576E+03  0.50400001928E-02 0.  1.
        1   -1    0    0  501    0  0.00000000000E+00  0.00000000000E+00 -0.73853773114E+03  0.73853773116E+03  0.50400001928E-02 0. -1.
    10030    2    1    2    0    0  0.00000000000E+00  0.00000000000E+00  0.24564516460E+03  0.17227206269E+04  0.17051172427E+04 0.  0.
        2    1    3    3  502    0  0.42476020258E+03 -0.86273262422E+02 -0.61891746193E+03  0.75559455410E+03  0.25500000920E-02 0. -1.
       -2    1    3    3    0  502 -0.42476020258E+03  0.86273262422E+02  0.86456262653E+03  0.96712607281E+03  0.25500000920E-02 0.  1.
</event>
<event>
 5   0  0.2987859E-05  0.1700228E+04  0.7818609E-02  0.8761234E-01
        1   -1    0    0  501    0  0.00000000000E+00  0.00000000000E+00  0.48421500540E+03  0.48421500543E+03  0.50400001928E-02 0.  1.
       -1   -1    0    0    0  501  0.00000000000E+00  0.00000000000E+00 -0.14925063261E+04  0.14925063261E+04  0.50400001928E-02 0. -1.
    10030    2    1    2    0    0  0.00000000000E+00  0.00000000000E+00 -0.10082913207E+04  0.19767213316E+04  0.17002281715E+04 0.  0.
        5    1    3    3  502    0  0.45128462699E+03 -0.42241082089E+03 -0.11826456131E+04  0.13344517422E+04  0.46999998093E+01 0. -1.
       -5    1    3    3    0  502 -0.45128462699E+03  0.42241082089E+03  0.17435429234E+03  0.64226958936E+03  0.46999998093E+01 0.  1.
</event>
<event>
 5   0  0.2098250E-05  0.1702066E+04  0.7818609E-02  0.8760187E-01
        3   -1    0    0  501    0  0.00000000000E+00  0.00000000000E+00  0.13231744329E+04  0.13231744368E+04  0.10100000352E+00 0.  1.
       -3   -1    0    0    0  501  0.00000000000E+00  0.00000000000E+00 -0.54736346929E+03  0.54736347860E+03  0.10100000352E+00 0. -1.
    10030    2    1    2    0    0  0.00000000000E+00  0.00000000000E+00  0.77581096362E+03  0.18705379154E+04  0.17020662271E+04 0.  0.
        3    1    3    3  502    0  0.66579480021E+03  0.13638139778E+03 -0.17502022130E+03  0.70179390829E+03  0.10100000352E+00 0. -1.
       -3    1    3    3    0  502 -0.66579480021E+03 -0.13638139778E+03  0.95083118492E+03  0.11687440071E+04  0.10100000352E+00 0.  1.
</event>
<event>
 5   0  0.5671132E-05  0.1699487E+04  0.7818609E-02  0.8761657E-01
       -2   -1    0    0    0  501  0.00000000000E+00  0.00000000000E+00  0.65820704139E+03  0.65820704139E+03  0.25500000920E-02 0. -1.
        2   -1    0    0  501    0  0.00000000000E+00  0.00000000000E+00 -0.10970166994E+04  0.10970166994E+04  0.25500000920E-02 0.  1.
    10030    2    1    2    0    0  0.00000000000E+00  0.00000000000E+00 -0.43880965800E+03  0.17552237408E+04  0.16994871180E+04 0.  0.
        3    1    3    3  502    0  0.41720612190E+03  0.73079365414E+03 -0.97448296633E+02  0.84712247863E+03  0.10100000352E+00 0. -1.
       -3    1    3    3    0  502 -0.41720612190E+03 -0.73079365414E+03 -0.34136136136E+03  0.90810126215E+03  0.10100000352E+00 0.  1.
</event>
<event>
 5   0  0.5671132E-05  0.1697463E+04  0.7818609E-02  0.8762812E-01
        2   -1    0    0  501    0  0.00000000000E+00  0.00000000000E+00  0.73331988108E+03  0.73331988109E+03  0.25500000920E-02 0. -1.
       -2   -1    0    0    0  501  0.00000000000E+00  0.00000000000E+00 -0.98230739479E+03  0.98230739479E+03  0.25500000920E-02 0.  1.
    10030    2    1    2    0    0  0.00000000000E+00  0.00000000000E+00 -0.24898751371E+03  0.17156272759E+04  0.16974634511E+04 0.  0.
        3    1    3    3  502    0 -0.41158430914E+03  0.18868073851E+03  0.60106217603E+03  0.75251432828E+03  0.10100000352E+00 0. -1.
       -3    1    3    3    0  502  0.41158430914E+03 -0.18868073851E+03 -0.85004968973E+03  0.96311294760E+03  0.10100000352E+00 0.  1.
</event>
<event>
 5   0  0.5755321E-05  0.1701056E+04  0.7818609E-02  0.8760762E-01
       -2   -1    0    0    0  501  0.00000000000E+00  0.00000000000E+00  0.45868439872E+03  0.45868439873E+03  0.25500000920E-02 0.  1.
        2   -1    0    0  501    0  0.00000000000E+00  0.00000000000E+00 -0.15771152705E+04  0.15771152705E+04  0.25500000920E-02 0. -1.
    10030    2    1    2    0    0  0.00000000000E+00  0.00000000000E+00 -0.11184308718E+04  0.20357996692E+04  0.17010563419E+04 0.  0.
        4    1    3    3  502    0 -0.13046074268E+03  0.41117961467E+03  0.31804378998E+03  0.53594976085E+03  0.12699999809E+01 0.  1.
       -4    1    3    3    0  502  0.13046074268E+03 -0.41117961467E+03 -0.14364746617E+04  0.14998499084E+04  0.12699999809E+01 0. -1.
</event>
<event>
 5   0  0.5671132E-05  0.1698235E+04  0.7818609E-02  0.8762372E-01
        2   -1    0    0  501    0  0.00000000000E+00  0.00000000000E+00  0.88768557196E+03  0.88768557196E+03  0.25500000920E-02 0.  1.
       -2   -1    0    0    0  501  0.00000000000E+00  0.00000000000E+00 -0.81222476387E+03  0.81222476387E+03  0.25500000920E-02 0. -1.
    10030    2    1    2    0    0  0.00000000000E+00  0.00000000000E+00  0.75460808092E+02  0.16999103358E+04  0.16982346176E+04 0.  0.
        3    1    3    3  502    0 -0.42157863013E+03 -0.58742278777E+03  0.48337316482E+03  0.86973771888E+03  0.10100000352E+00 0.  1.
       -3    1    3    3    0  502  0.42157863013E+03  0.58742278777E+03 -0.40791235673E+03  0.83017261696E+03  0.10100000352E+00 0. -1.
</event>
<event>
 5   0  0.5821584E-05  0.1701902E+04  0.7818609E-02  0.8760280E-01
       -2   -1    0    0    0  501  0.00000000000E+00  0.00000000000E+00  0.62018635679E+03  0.62018635679E+03  0.25500000920E-02 0. -1.
        2   -1    0    0  501    0  0.00000000000E+00  0.00000000000E+00 -0.11675808854E+04  0.11675808854E+04  0.25500000920E-02 0.  1.
    10030    2    1    2    0    0  0.00000000000E+00  0.00000000000E+00 -0.54739452859E+03  0.17877672422E+04  0.17019021541E+04 0.  0.
        1    1    3    3  502    0  0.12983744996E+03  0.33835839318E+03  0.53506485762E+03  0.64624961705E+03  0.50400001928E-02 0. -1.
       -1    1    3    3    0  502 -0.12983744996E+03 -0.33835839318E+03 -0.10824593862E+04  0.11415176251E+04  0.50400001928E-02 0.  1.
</event>
<event>
 5   0  0.5671132E-05  0.1699573E+04  0.7818609E-02  0.8761608E-01
       -2   -1    0    0    0  501  0.00000000000E+00  0.00000000000E+00  0.72709808431E+03  0.72709808432E+03  0.25500000920E-02 0.  1.
        2   -1    0    0  501    0  0.00000000000E+00  0.00000000000E+00 -0.99317719527E+03  0.99317719528E+03  0.25500000920E-02 0. -1.
    10030    2    1    2    0    0  0.00000000000E+00  0.00000000000E+00 -0.26607911096E+03  0.17202752796E+04  0.16995731653E+04 0.  0.
        3    1    3    3  502    0 -0.72921746544E+03  0.28566443812E+03 -0.46686736667E+03  0.91177158947E+03  0.10100000352E+00 0. -1.
       -3    1    3    3    0  502  0.72921746544E+03 -0.28566443812E+03  0.20078825571E+03  0.80850369012E+03  0.10100000352E+00 0.  1.
</event>
<event>
 5   0  0.5859822E-05  0.1702149E+04  0.7818609E-02  0.8760140E-01
       -2   -1    0    0    0  501  0.00000000000E+00  0.00000000000E+00  0.60348253623E+03  0.60348253623E+03  0.25500000920E-02 0.  1.
        2   -1    0    0  501    0  0.00000000000E+00  0.00000000000E+00 -0.12002459059E+04  0.12002459059E+04  0.25500000920E-02 0. -1.
    10030    2    1    2    0    0  0.00000000000E+00  0.00000000000E+00 -0.59676336966E+03  0.18037284421E+04  0.17021485756E+04 0.  0.
        5    1    3    3  502    0  0.19821475383E+03  0.74961923442E+03 -0.67015674639E+03  0.10248659620E+04  0.46999998093E+01 0. -1.
       -5    1    3    3    0  502 -0.19821475383E+03 -0.74961923442E+03  0.73393376736E+02  0.77886248016E+03  0.46999998093E+01 0.  1.
</event>
<event>
 5   0  0.2993769E-05  0.1696722E+04  0.7818609E-02  0.8763236E-01
       -1   -1    0    0    0  501  0.00000000000E+00  0.00000000000E+00  0.10146464086E+04  0.10146464086E+04  0.50400001928E-02 0. -1.
        1   -1    0    0  501    0  0.00000000000E+00  0.00000000000E+00 -0.70932734575E+03  0.70932734577E+03  0.50400001928E-02 0.  1.
    10030    2    1    2    0    0  0.00000000000E+00  0.00000000000E+00  0.30531906285E+03  0.17239737544E+04  0.16967220679E+04 0.  0.
        3    1    3    3  502    0 -0.80706726367E+03 -0.25513938213E+03  0.94621510660E+02  0.85170823225E+03  0.10100000352E+00 0. -1.
       -3    1    3    3    0  502  0.80706726367E+03  0.25513938213E+03  0.21069755219E+03  0.87226552213E+03  0.10100000352E+00 0.  1.
</event>
<event>
 5   0  0.2911632E-05  0.1699060E+04  0.7818609E-02  0.8761900E-01
        1   -1    0    0  501    0  0.00000000000E+00  0.00000000000E+00  0.58616665360E+03  0.58616665362E+03  0.50400001928E-02 0. -1.
       -1   -1    0    0    0  501  0.00000000000E+00  0.00000000000E+00 -0.12312223624E+04  0.12312223624E+04  0.50400001928E-02 0.  1.
    10030    2    1    2    0    0  0.00000000000E+00  0.00000000000E+00 -0.64505570883E+03  0.18173890161E+04  0.16990603192E+04 0.  0.
        1    1    3    3  502    0 -0.75434893071E+03  0.20177879491E+03  0.35354662894E+02  0.78166933134E+03  0.50400001928E-02 0. -1.
       -1    1    3    3    0  502  0.75434893071E+03 -0.20177879491E+03 -0.68041037172E+03  0.10357196847E+04  0.50400001928E-02 0.  1.
</event>
<event>
 5   0  0.2993769E-05  0.1696826E+04  0.7818609E-02  0.8763177E-01
        1   -1    0    0  501    0  0.00000000000E+00  0.00000000000E+00  0.48583797451E+03  0.48583797454E+03  0.50400001928E-02 0.  1.
       -1   -1    0    0    0  501  0.00000000000E+00  0.00000000000E+00 -0.14815735625E+04  0.14815735625E+04  0.50400001928E-02 0. -1.
    10030    2    1    2    0    0  0.00000000000E+00  0.00000000000E+00 -0.99573558794E+03  0.19674115370E+04  0.16968260945E+04 0.  0.
        3    1    3    3  502    0 -0.69528739201E+03 -0.26422069891E+03 -0.24658699423E+02  0.74420776459E+03  0.10100000352E+00 0.  1.
       -3    1    3    3    0  502  0.69528739201E+03  0.26422069891E+03 -0.97107688852E+03  0.12232037724E+04  0.10100000352E+00 0. -1.
</event>
<event>
 5   0  0.2911632E-05  0.1696667E+04  0.7818609E-02  0.8763268E-01
       -1   -1    0    0    0  501  0.00000000000E+00  0.00000000000E+00  0.14642543116E+04  0.14642543116E+04  0.50400001928E-02 0. -1.
        1   -1    0    0  501    0  0.00000000000E+00  0.00000000000E+00 -0.49149225027E+03  0.49149225030E+03  0.50400001928E-02 0.  1.
    10030    2    1    2    0    0  0.00000000000E+00  0.00000000000E+00  0.97276206129E+03  0.19557465619E+04  0.16966669050E+04 0.  0.
        1    1    3    3  502    0  0.53803591978E+02  0.73187726705E+03 -0.42011429347E+01  0.73386429955E+03  0.50400001928E-02 0.  1.
       -1    1    3    3    0  502 -0.53803591978E+02 -0.73187726705E+03  0.97696320422E+03  0.12218822623E+04  0.50400001928E-02 0. -1.
</event>
<event>
 5   0  0.2966258E-05  0.1702864E+04  0.7818609E-02  0.8759732E-01
       -1   -1    0    0    0  501  0.00000000000E+00  0.00000000000E+00  0.32427604625E+04  0.32427604625E+04  0.50400001928E-02 0. -1.
        1   -1    0    0  501    0  0.00000000000E+00  0.00000000000E+00 -0.22355543385E+03  0.22355543390E+03  0.50400001928E-02 0.  1.
    10030    2    1    2    0    0  0.00000000000E+00  0.00000000000E+00  0.30192050286E+04  0.34663158964E+04  0.17028643189E+04 0.  0.
        4    1    3    3  502    0  0.80223277251E+03 -0.60373462548E+01  0.20900862890E+04  0.22387666647E+04  0.12699999809E+01 0. -1.
       -4    1    3    3    0  502 -0.80223277251E+03  0.60373462548E+01  0.92911873962E+03  0.12275492316E+04  0.12699999809E+01 0.  1.
</event>
<event>
 5   0  0.5755321E-05  0.1705811E+04  0.7818609E-02  0.8758057E-01
        2   -1    0    0  501    0  0.00000000000E+00  0.00000000000E+00  0.24896979476E+04  0.24896979476E+04  0.25500000920E-02 0. -1.
       -2   -1    0    0    0  501  0.00000000000E+00  0.00000000000E+00 -0.29218314305E+03  0.29218314306E+03  0.25500000920E-02 0.  1.
    10030    2    1    2    0    0  0.00000000000E+00  0.00000000000E+00  0.21975148045E+04  0.27818810907E+04  0.17058109762E+04 0.  0.
        4    1    3    3  502    0  0.79900085578E+03 -0.27939317859E+03  0.12696695582E+04  0.15259506269E+04  0.12699999809E+01 0.  1.
       -4    1    3    3    0  502 -0.79900085578E+03  0.27939317859E+03  0.92784524635E+03  0.12559304638E+04  0.12699999809E+01 0. -1.
</event>
<event>
 5   0  0.5859822E-05  0.1699835E+04  0.7818609E-02  0.8761459E-01
        2   -1    0    0  501    0  0.00000000000E+00  0.00000000000E+00  0.11623267172E+04  0.11623267172E+04  0.25500000920E-02 0. -1.
       -2   -1    0    0    0  501  0.00000000000E+00  0.00000000000E+00 -0.62147711598E+03  0.62147711599E+03  0.25500000920E-02 0.  1.
    10030    2    1    2    0    0  0.00000000000E+00  0.00000000000E+00  0.54084960125E+03  0.17838038332E+04  0.16998346462E+04 0.  0.
        5    1    3    3  502    0 -0.24368227402E+03 -0.67260242259E+03 -0.21111337202E+03  0.74589946735E+03  0.46999998093E+01 0.  1.
       -5    1    3    3    0  502  0.24368227402E+03  0.67260242259E+03  0.75196297326E+03  0.10379043659E+04  0.46999998093E+01 0. -1.
</event>
<event>
 5   0  0.2911632E-05  0.1699750E+04  0.7818609E-02  0.8761507E-01
        1   -1    0    0  501    0  0.00000000000E+00  0.00000000000E+00  0.90332592162E+03  0.90332592164E+03  0.50400001928E-02 0.  1.
       -1   -1    0    0    0  501  0.00000000000E+00  0.00000000000E+00 -0.79958688193E+03  0.79958688195E+03  0.50400001928E-02 0. -1.
    10030    2    1    2    0    0  0.00000000000E+00  0.00000000000E+00  0.10373903969E+03  0.17029128036E+04  0.16997500488E+04 0.  0.
        1    1    3    3  502    0  0.45610278222E+03  0.44093846360E+01  0.77030800128E+03  0.89522265805E+03  0.50400001928E-02 0.  1.
       -1    1    3    3    0  502 -0.45610278222E+03 -0.44093846360E+01 -0.66656896159E+03  0.80769014554E+03  0.50400001928E-02 0. -1.
</event>
<event>
 5   0  0.5671132E-05  0.1701760E+04  0.7818609E-02  0.8760361E-01
        2   -1    0    0  501    0  0.00000000000E+00  0.00000000000E+00  0.12576757653E+04  0.12576757653E+04  0.25500000920E-02 0.  1.
       -2   -1    0    0    0  501  0.00000000000E+00  0.00000000000E+00 -0.57566270931E+03  0.57566270932E+03  0.25500000920E-02 0. -1.
    10030    2    1    2    0    0  0.00000000000E+00  0.00000000000E+00  0.68201305595E+03  0.18333384746E+04  0.17017603103E+04 0.  0.
        3    1    3    3  502    0 -0.41258959737E+03  0.41547210597E+03  0.10061144179E+04  0.11640934150E+04  0.10100000352E+00 0.  1.
       -3    1    3    3    0  502  0.41258959737E+03 -0.41547210597E+03 -0.32410136199E+03  0.66924505956E+03  0.10100000352E+00 0. -1.
</event>
<event>
 5   0  0.5821584E-05  0.1703273E+04  0.7818609E-02  0.8759500E-01
       -2   -1    0    0    0  501  0.00000000000E+00  0.00000000000E+00  0.52882594671E+03  0.52882594672E+03  0.25500000920E-02 0.  1.
        2   -1    0    0  501    0  0.00000000000E+00  0.00000000000E+00 -0.13715001118E+04  0.13715001118E+04  0.25500000920E-02 0. -1.
    10030    2    1    2    0    0  0.00000000000E+00  0.00000000000E+00 -0.84267416506E+03  0.19003260585E+04  0.17032731373E+04 0.  0.
        1    1    3    3  502    0 -0.71424541095E+02 -0.83697015965E+03 -0.26488425254E+03  0.88078611507E+03  0.50400001928E-02 0. -1.
       -1    1    3    3    0  502  0.71424541095E+02  0.83697015965E+03 -0.57778991252E+03  0.10195399434E+04  0.50400001928E-02 0.  1.
</event>
<event>
 5   0  0.5652631E-05  0.1701030E+04  0.7818609E-02  0.8760777E-01
       -2   -1    0    0    0  501  0.00000000000E+00  0.00000000000E+00  0.19981178513E+04  0.19981178513E+04  0.25500000920E-02 0. -1.
        2   -1    0    0  501    0  0.00000000000E+00  0.00000000000E+00 -0.36202860933E+03  0.36202860934E+03  0.25500000920E-02 0.  1.
    10030    2    1    2    0    0  0.00000000000E+00  0.00000000000E+00  0.16360892420E+04  0.23601464607E+04  0.17010300726E+04 0.  0.
        2    1    3    3  502    0  0.38429359001E+03  0.80804136735E+02 -0.22871277592E+03  0.45444516249E+03  0.25500000920E-02 0.  1.
       -2    1    3    3    0  502 -0.38429359001E+03 -0.80804136735E+02  0.18648020179E+04  0.19057012982E+04  0.25500000920E-02 0. -1.
</event>
<event>
 5   0  0.2967704E-05  0.1694356E+04  0.7818609E-02  0.8764590E-01
       -1   -1    0    0    0  501  0.00000000000E+00  0.00000000000E+00  0.10208682283E+04  0.10208682283E+04  0.50400001928E-02 0.  1.
        1   -1    0    0  501    0  0.00000000000E+00  0.00000000000E+00 -0.70303938748E+03  0.70303938750E+03  0.50400001928E-02 0. -1.
    10030    2    1    2    0    0  0.00000000000E+00  0.00000000000E+00  0.31782884085E+03  0.17239076158E+04  0.16943560121E+04 0.  0.
        2    1    3    3  502    0 -0.76095230240E+03 -0.14117143719E+03 -0.19167165423E+03  0.79731788155E+03  0.25500000920E-02 0. -1.
       -2    1    3    3    0  502  0.76095230240E+03  0.14117143719E+03  0.50950049508E+03  0.92658973429E+03  0.25500000920E-02 0.  1.
</event>
<event>
 5   0  0.2966258E-05  0.1700269E+04  0.7818609E-02  0.8761211E-01
       -1   -1    0    0    0  501  0.00000000000E+00  0.00000000000E+00  0.62468782161E+03  0.62468782163E+03  0.50400001928E-02 0. -1.
        1   -1    0    0  501    0  0.00000000000E+00  0.00000000000E+00 -0.11569440774E+04  0.11569440774E+04  0.50400001928E-02 0.  1.
    10030    2    1    2    0    0  0.00000000000E+00  0.00000000000E+00 -0.53225625582E+03  0.17816318991E+04  0.17002692439E+04 0.  0.
        4    1    3    3  502    0 -0.21800084747E+03  0.73612087690E+03 -0.64874358122E+03  0.10051209688E+04  0.12699999809E+01 0.  1.
       -4    1    3    3    0  502  0.21800084747E+03 -0.73612087690E+03  0.11648732540E+03  0.77651093024E+03  0.12699999809E+01 0. -1.
</event>
<event>
 5   0  0.5859822E-05  0.1701290E+04  0.7818609E-02  0.8760629E-01
       -2   -1    0    0    0  501  0.00000000000E+00  0.00000000000E+00  0.54096916997E+03  0.54096916998E+03  0.25500000920E-02 0. -1.
        2   -1    0    0  501    0  0.00000000000E+00  0.00000000000E+00 -0.13375928672E+04  0.13375928672E+04  0.25500000920E-02 0.  1.
    10030    2    1    2    0    0  0.00000000000E+00  0.00000000000E+00 -0.79662369721E+03  0.18785620372E+04  0.17012895146E+04 0.  0.
        5    1    3    3  502    0 -0.37174437463E+03  0.75911959382E+03 -0.50374969408E+03  0.98399302948E+03  0.46999998093E+01 0.  1.
       -5    1    3    3    0  502  0.37174437463E+03 -0.75911959382E+03 -0.29287400313E+03  0.89456900768E+03  0.46999998093E+01 0. -1.
</event>
<event>
 5   0  0.2098250E-05  0.1703973E+04  0.7818609E-02  0.8759102E-01
        4   -1    0    0  501    0  0.00000000000E+00  0.00000000000E+00  0.88186807272E+03  0.88186898720E+03  0.12699999809E+01 0.  1.
       -4   -1    0    0    0  501  0.00000000000E+00  0.00000000000E+00 -0.82311556646E+03  0.82311654621E+03  0.12699999809E+01 0. -1.
    10030    2    1    2    0    0  0.00000000000E+00  0.00000000000E+00  0.58752506267E+02  0.17049855334E+04  0.17039729494E+04 0.  0.
        5    1    3    3  502    0  0.57347018871E+03 -0.36414977363E+03 -0.48511384717E+03  0.83476382869E+03  0.46999998093E+01 0. -1.
       -5    1    3    3    0  502 -0.57347018871E+03  0.36414977363E+03  0.54386635343E+03  0.87022170472E+03  0.46999998093E+01 0.  1.
</event>
<event>
 5   0  0.2987859E-05  0.1699832E+04  0.7818609E-02  0.8761460E-01
       -1   -1    0    0    0  501  0.00000000000E+00  0.00000000000E+00  0.42121230756E+03  0.42121230759E+03  0.50400001928E-02 0.  1.
        1   -1    0    0  501    0  0.00000000000E+00  0.00000000000E+00 -0.17149480939E+04  0.17149480939E+04  0.50400001928E-02 0. -1.
    10030    2    1    2    0    0  0.00000000000E+00  0.00000000000E+00 -0.12937357863E+04  0.21361604015E+04  0.16998320435E+04 0.  0.
        5    1    3    3  502    0 -0.52169664159E+03  0.55626072698E+03 -0.11183219263E+04  0.13536097677E+04  0.46999998093E+01 0. -1.
       -5    1    3    3    0  502  0.52169664159E+03 -0.55626072698E+03 -0.17541386001E+03  0.78255063383E+03  0.46999998093E+01 0.  1.
</event>
<event>
 5   0  0.2966258E-05  0.1698996E+04  0.7818609E-02  0.8761937E-01
       -1   -1    0    0    0  501  0.00000000000E+00  0.00000000000E+00  0.76354440235E+03  0.76354440237E+03  0.50400001928E-02 0.  1.
        1   -1    0    0  501    0  0.00000000000E+00  0.00000000000E+00 -0.94512786724E+03  0.94512786725E+03  0.50400001928E-02 0. -1.
    10030    2    1    2    0    0  0.00000000000E+00  0.00000000000E+00 -0.18158346489E+03  0.17086722696E+04  0.16989962832E+04 0.  0.
        4    1    3    3  502    0  0.59395867014E+03  0.40301778772E+03  0.36614730379E+03  0.80577645785E+03  0.12699999809E+01 0.  1.
       -4    1    3    3    0  502 -0.59395867014E+03 -0.40301778772E+03 -0.54773076868E+03  0.90289581177E+03  0.12699999809E+01 0. -1.
</event>
<event>
 5   0  0.2993769E-05  0.1700139E+04  0.7818609E-02  0.8761285E-01
        1   -1    0    0  501    0  0.00000000000E+00  0.00000000000E+00  0.12248759572E+04  0.12248759573E+04  0.50400001928E-02 0.  1.
       -1   -1    0    0    0  501  0.00000000000E+00  0.00000000000E+00 -0.58995210791E+03  0.58995210793E+03  0.50400001928E-02 0. -1.
    10030    2    1    2    0    0  0.00000000000E+00  0.00000000000E+00  0.63492384934E+03  0.18148280652E+04  0.17001389978E+04 0.  0.
        3    1    3    3  502    0 -0.63315915141E+03  0.14122791694E+03  0.90386730274E+03  0.11125699738E+04  0.10100000352E+00 0. -1.
       -3    1    3    3    0  502  0.63315915141E+03 -0.14122791694E+03 -0.26894345340E+03  0.70225809135E+03  0.10100000352E+00 0.  1.
</event>
<event>
 5   0  0.2987859E-05  0.1702457E+04  0.7818609E-02  0.8759964E-01
        1   -1    0    0  501    0  0.00000000000E+00  0.00000000000E+00  0.14980559728E+04  0.14980559728E+04  0.50400001928E-02 0.  1.
       -1   -1    0    0    0  501  0.00000000000E+00  0.00000000000E+00 -0.48368697405E+03  0.48368697408E+03  0.50400001928E-02 0. -1.
    10030    2    1    2    0    0  0.00000000000E+00  0.00000000000E+00  0.10143689988E+04  0.19817429469E+04  0.17024572365E+04 0.  0.
        5    1    3    3  502    0  0.33238409328E+03  0.33648588221E+03  0.13310037655E+04  0.14125491312E+04  0.46999998093E+01 0.  1.
       -5    1    3    3    0  502 -0.33238409328E+03 -0.33648588221E+03 -0.31663476668E+03  0.56919381572E+03  0.46999998093E+01 0. -1.
</event>
<event>
 5   0  0.2911632E-05  0.1703012E+04  0.7818609E-02  0.8759648E-01
       -1   -1    0    0    0  501  0.00000000000E+00  0.00000000000E+00  0.48676821171E+03  0.48676821174E+03  0.50400001928E-02 0. -1.
        1   -1    0    0  501    0  0.00000000000E+00  0.00000000000E+00 -0.14895444529E+04  0.14895444529E+04  0.50400001928E-02 0.  1.
    10030    2    1    2    0    0  0.00000000000E+00  0.00000000000E+00 -0.10027762412E+04  0.19763126647E+04  0.17030124951E+04 0.  0.
        1    1    3    3  502    0 -0.29523274994E+03  0.12599340166E+01 -0.14282472982E+04  0.14584424257E+04  0.50400001928E-02 0.  1.
       -1    1    3    3    0  502  0.29523274994E+03 -0.12599340166E+01  0.42547105701E+03  0.51787023901E+03  0.50400001928E-02 0. -1.
</event>
<event>
 5   0  0.2098250E-05  0.1699896E+04  0.7818609E-02  0.8761424E-01
       -3   -1    0    0    0  501  0.00000000000E+00  0.00000000000E+00  0.39713613940E+03  0.39713615224E+03  0.10100000352E+00 0. -1.
        3   -1    0    0  501    0  0.00000000000E+00  0.00000000000E+00 -0.18190520477E+04  0.18190520505E+04  0.10100000352E+00 0.  1.
    10030    2    1    2    0    0  0.00000000000E+00  0.00000000000E+00 -0.14219159083E+04  0.22161882027E+04  0.16998956732E+04 0.  0.
        3    1    3    3  502    0  0.22573956565E+03  0.81753021911E+03 -0.63840145986E+03  0.10615415417E+04  0.10100000352E+00 0.  1.
       -3    1    3    3    0  502 -0.22573956565E+03 -0.81753021911E+03 -0.78351444843E+03  0.11546466610E+04  0.10100000352E+00 0. -1.
</event>
<event>
 5   0  0.5821584E-05  0.1703346E+04  0.7818609E-02  0.8759458E-01
        2   -1    0    0  501    0  0.00000000000E+00  0.00000000000E+00  0.15664926142E+04  0.15664926142E+04  0.25500000920E-02 0. -1.
       -2   -1    0    0    0  501  0.00000000000E+00  0.00000000000E+00 -0.46303888628E+03  0.46303888629E+03  0.25500000920E-02 0.  1.
    10030    2    1    2    0    0  0.00000000000E+00  0.00000000000E+00  0.11034537279E+04  0.20295315005E+04  0.17033461133E+04 0.  0.
        1    1    3    3  502    0  0.70558741226E+03 -0.39233242110E+03  0.22855068168E+03  0.83905526582E+03  0.50400001928E-02 0. -1.
       -1    1    3    3    0  502 -0.70558741226E+03  0.39233242110E+03  0.87490304625E+03  0.11904762347E+04  0.50400001928E-02 0.  1.
</event>
<event>
 5   0  0.2911632E-05  0.1712608E+04  0.7818609E-02  0.8754206E-01
       -1   -1    0    0    0  501  0.00000000000E+00  0.00000000000E+00  0.98539746712E+03  0.98539746713E+03  0.50400001928E-02 0. -1.
        1   -1    0    0  501    0  0.00000000000E+00  0.00000000000E+00 -0.74412265645E+03  0.74412265646E+03  0.50400001928E-02 0.  1.
    10030    2    1    2    0    0  0.00000000000E+00  0.00000000000E+00  0.24127481067E+03  0.17295201236E+04  0.17126080473E+04 0.  0.
        1    1    3    3  502    0 -0.69087515253E+02  0.85161672598E+03  0.17805347015E+03  0.87276982704E+03  0.50400001928E-02 0. -1.
       -1    1    3    3    0  502  0.69087515253E+02 -0.85161672598E+03  0.63221340518E+02  0.85675029656E+03  0.50400001928E-02 0.  1.
</event>
<event>
 5   0  0.5755321E-05  0.1695131E+04  0.7818609E-02  0.8764146E-01
       -2   -1    0    0    0  501  0.00000000000E+00  0.00000000000E+00  0.78071081540E+03  0.78071081541E+03  0.25500000920E-02 0.  1.
        2   -1    0    0  501    0  0.00000000000E+00  0.00000000000E+00 -0.92014523930E+03  0.92014523931E+03  0.25500000920E-02 0. -1.
    10030    2    1    2    0    0  0.00000000000E+00  0.00000000000E+00 -0.13943442390E+03  0.17008560547E+04  0.16951310747E+04 0.  0.
        4    1    3    3  502    0  0.62473193295E+02  0.71832025557E+03 -0.51673147350E+03  0.88707379515E+03  0.12699999809E+01 0. -1.
       -4    1    3    3    0  502 -0.62473193295E+02 -0.71832025557E+03  0.37729704960E+03  0.81378225956E+03  0.12699999809E+01 0.  1.
</event>
<event>
 5   0  0.5859822E-05  0.1690889E+04  0.7818609E-02  0.8766578E-01
        2   -1    0    0  501    0  0.00000000000E+00  0.00000000000E+00  0.15802235727E+04  0.15802235727E+04  0.25500000920E-02 0. -1.
       -2   -1    0    0    0  501  0.00000000000E+00  0.00000000000E+00 -0.45232587463E+03  0.45232587464E+03  0.25500000920E-02 0.  1.
    10030    2    1    2    0    0  0.00000000000E+00  0.00000000000E+00  0.11278976980E+04  0.20325494473E+04  0.16908885352E+04 0.  0.
        5    1    3    3  502    0  0.24276649110E+03 -0.69922940231E+03  0.10550261682E+04  0.12887822283E+04  0.46999998093E+01 0. -1.
       -5    1    3    3    0  502 -0.24276649110E+03  0.69922940231E+03  0.72871529811E+02  0.74376721904E+03  0.46999998093E+01 0.  1.
</event>
<event>
 5   0  0.2967704E-05  0.1704301E+04  0.7818609E-02  0.8758915E-01
       -1   -1    0    0    0  501  0.00000000000E+00  0.00000000000E+00  0.41759374609E+03  0.41759374612E+03  0.50400001928E-02 0.  1.
        1   -1    0    0  501    0  0.00000000000E+00  0.00000000000E+00 -0.17389160681E+04  0.17389160681E+04  0.50400001928E-02 0. -1.
    10030    2    1    2    0    0  0.00000000000E+00  0.00000000000E+00 -0.13213223220E+04  0.21565098142E+04  0.17043010005E+04 0.  0.
        2    1    3    3  502    0 -0.59368345737E+03 -0.32841273109E+03 -0.13130699472E+04  0.14779944708E+04  0.25500000920E-02 0. -1.
       -2    1    3    3    0  502  0.59368345737E+03  0.32841273109E+03 -0.82523747555E+01  0.67851534337E+03  0.25500000920E-02 0.  1.
</event>
<event>
 5   0  0.2911632E-05  0.1700591E+04  0.7818609E-02  0.8761027E-01
        1   -1    0    0  501    0  0.00000000000E+00  0.00000000000E+00  0.10036591093E+04  0.10036591093E+04  0.50400001928E-02 0. -1.
       -1   -1    0    0    0  501  0.00000000000E+00  0.00000000000E+00 -0.72036640333E+03  0.72036640335E+03  0.50400001928E-02 0.  1.
    10030    2    1    2    0    0  0.00000000000E+00  0.00000000000E+00  0.28329270592E+03  0.17240255126E+04  0.17005908417E+04 0.  0.
        1    1    3    3  502    0  0.67907307657E+03 -0.33611003322E+03  0.53282909564E+03  0.92629209375E+03  0.50400001928E-02 0. -1.
       -1    1    3    3    0  502 -0.67907307657E+03  0.33611003322E+03 -0.24953638972E+03  0.79773341887E+03  0.50400001928E-02 0.  1.
</event>
<event>
 5   0  0.5652631E-05  0.1696193E+04  0.7818609E-02  0.8763539E-01
       -2   -1    0    0    0  501  0.00000000000E+00  0.00000000000E+00  0.59019042698E+03  0.59019042698E+03  0.25500000920E-02 0.  1.
        2   -1    0    0  501    0  0.00000000000E+00  0.00000000000E+00 -0.12187040935E+04  0.12187040935E+04  0.25500000920E-02 0. -1.
    10030    2    1    2    0    0  0.00000000000E+00  0.00000000000E+00 -0.62851366653E+03  0.18088945205E+04  0.16961927830E+04 0.  0.
        2    1    3    3  502    0 -0.50176265346E+03 -0.39272960536E+03 -0.91114655257E+03  0.11118409705E+04  0.25500000920E-02 0. -1.
       -2    1    3    3    0  502  0.50176265346E+03  0.39272960536E+03  0.28263288604E+03  0.69705355003E+03  0.25500000920E-02 0.  1.
</event>
<event>
 5   0  0.2993769E-05  0.1698870E+04  0.7818609E-02  0.8762009E-01
        1   -1    0    0  501    0  0.00000000000E+00  0.00000000000E+00  0.10645431484E+04  0.10645431484E+04  0.50400001928E-02 0. -1.
       -1   -1    0    0    0  501  0.00000000000E+00  0.00000000000E+00 -0.67779285401E+03  0.67779285403E+03  0.50400001928E-02 0.  1.
    10030    2    1    2    0    0  0.00000000000E+00  0.00000000000E+00  0.38675029438E+03  0.17423360024E+04  0.16988699053E+04 0.  0.
        3    1    3    3  502    0  0.64803271816E+03  0.51086149410E+03 -0.13309831300E+02  0.82528966537E+03  0.10100000352E+00 0.  1.
       -3    1    3    3    0  502 -0.64803271816E+03 -0.51086149410E+03  0.40006012568E+03  0.91704633706E+03  0.10100000352E+00 0. -1.
</event>
<event>
 5   0  0.2993769E-05  0.1686203E+04  0.7818609E-02  0.8769272E-01
       -1   -1    0    0    0  501  0.00000000000E+00  0.00000000000E+00  0.65904313832E+03  0.65904313834E+03  0.50400001928E-02 0.  1.
        1   -1    0    0  501    0  0.00000000000E+00  0.00000000000E+00 -0.10785642837E+04  0.10785642837E+04  0.50400001928E-02 0. -1.
    10030    2    1    2    0    0  0.00000000000E+00  0.00000000000E+00 -0.41952114536E+03  0.17376074220E+04  0.16862032978E+04 0.  0.
        3    1    3    3  502    0  0.82421886942E+03 -0.97824228617E+02 -0.36230737563E+03  0.90563401496E+03  0.10100000352E+00 0. -1.
       -3    1    3    3    0  502 -0.82421886942E+03  0.97824228617E+02 -0.57213769725E+02  0.83197340706E+03  0.10100000352E+00 0.  1.
</event>
<event>
 5   0  0.5652631E-05  0.1699635E+04  0.7818609E-02  0.8761573E-01
        2   -1    0    0  501    0  0.00000000000E+00  0.00000000000E+00  0.10363726011E+04  0.10363726012E+04  0.25500000920E-02 0.  1.
       -2   -1    0    0    0  501  0.00000000000E+00  0.00000000000E+00 -0.69684345256E+03  0.69684345257E+03  0.25500000920E-02 0. -1.
    10030    2    1    2    0    0  0.00000000000E+00  0.00000000000E+00  0.33952914859E+03  0.17332160537E+04  0.16996346214E+04 0.  0.
        2    1    3    3  502    0 -0.77336403367E+03 -0.23560250816E+03  0.43683410377E+03  0.91892573403E+03  0.25500000920E-02 0.  1.
       -2    1    3    3    0  502  0.77336403367E+03  0.23560250816E+03 -0.97304955187E+02  0.81429031969E+03  0.25500000920E-02 0. -1.
</event>
<event>
 5   0  0.2987859E-05  0.1699420E+04  0.7818609E-02  0.8761695E-01
       -1   -1    0    0    0  501  0.00000000000E+00  0.00000000000E+00  0.36212948762E+03  0.36212948766E+03  0.50400001928E-02 0.  1.
        1   -1    0    0  501    0  0.00000000000E+00  0.00000000000E+00 -0.19937806132E+04  0.19937806132E+04  0.50400001928E-02 0. -1.
    10030    2    1    2    0    0  0.00000000000E+00  0.00000000000E+00 -0.16316511255E+04  0.23559101008E+04  0.16994196091E+04 0.  0.
        5    1    3    3  502    0 -0.89398687686E+01 -0.57995468434E+02  0.35929911488E+03  0.36408974109E+03  0.46999998093E+01 0.  1.
       -5    1    3    3    0  502  0.89398687686E+01  0.57995468434E+02 -0.19909502404E+04  0.19918203597E+04  0.46999998093E+01 0. -1.
</event>
<event>
 5   0  0.5671132E-05  0.1701627E+04  0.7818609E-02  0.8760437E-01
        2   -1    0    0  501    0  0.00000000000E+00  0.00000000000E+00  0.18848363501E+04  0.18848363501E+04  0.25500000920E-02 0.  1.
       -2   -1    0    0    0  501  0.00000000000E+00  0.00000000000E+00 -0.38405669164E+03  0.38405669165E+03  0.25500000920E-02 0. -1.
    10030    2    1    2    0    0  0.00000000000E+00  0.00000000000E+00  0.15007796585E+04  0.22688930418E+04  0.17016274715E+04 0.  0.
        3    1    3    3  502    0  0.51036690479E+03 -0.10056597399E+03  0.16481090649E+04  0.17282509634E+04  0.10100000352E+00 0.  1.
       -3    1    3    3    0  502 -0.51036690479E+03  0.10056597399E+03 -0.14732940644E+03  0.54064207830E+03  0.10100000352E+00 0. -1.
</event>
<event>
 5   0  0.5671132E-05  0.1697555E+04  0.7818609E-02  0.8762760E-01
       -2   -1    0    0    0  501  0.00000000000E+00  0.00000000000E+00  0.72995659183E+03  0.72995659183E+03  0.25500000920E-02 0.  1.
        2   -1    0    0  501    0  0.00000000000E+00  0.00000000000E+00 -0.98693985514E+03  0.98693985514E+03  0.25500000920E-02 0. -1.
    10030    2    1    2    0    0  0.00000000000E+00  0.00000000000E+00 -0.25698326331E+03  0.17168964470E+04  0.16975550100E+04 0.  0.
        3    1    3    3  502    0  0.57283335604E+03 -0.56038583768E+03  0.15443281241E+03  0.81610038881E+03  0.10100000352E+00 0.  1.
       -3    1    3    3    0  502 -0.57283335604E+03  0.56038583768E+03 -0.41141607572E+03  0.90079605817E+03  0.10100000352E+00 0. -1.
</event>
<event>
 5   0  0.5652631E-05  0.1704355E+04  0.7818609E-02  0.8758884E-01
       -2   -1    0    0    0  501  0.00000000000E+00  0.00000000000E+00  0.10766741592E+04  0.10766741592E+04  0.25500000920E-02 0.  1.
        2   -1    0    0  501    0  0.00000000000E+00  0.00000000000E+00 -0.67449085902E+03  0.67449085902E+03  0.25500000920E-02 0. -1.
    10030    2    1    2    0    0  0.00000000000E+00  0.00000000000E+00  0.40218330016E+03  0.17511650182E+04  0.17043554541E+04 0.  0.
        2    1    3    3  502    0  0.33925541535E+03 -0.16259348046E+03  0.98673336059E+03  0.10560178037E+04  0.25500000920E-02 0.  1.
       -2    1    3    3    0  502 -0.33925541535E+03  0.16259348046E+03 -0.58455006043E+03  0.69514721455E+03  0.25500000920E-02 0. -1.
</event>
<event>
 5   0  0.2966258E-05  0.1699900E+04  0.7818609E-02  0.8761422E-01
        1   -1    0    0  501    0  0.00000000000E+00  0.00000000000E+00  0.81909941824E+03  0.81909941825E+03  0.50400001928E-02 0. -1.
       -1   -1    0    0    0  501  0.00000000000E+00  0.00000000000E+00 -0.88196226576E+03  0.88196226578E+03  0.50400001928E-02 0.  1.
    10030    2    1    2    0    0  0.00000000000E+00  0.00000000000E+00 -0.62862847525E+02  0.17010616840E+04  0.16998997368E+04 0.  0.
        4    1    3    3  502    0 -0.14650458077E+02  0.39105634163E+03  0.72358643994E+03  0.82262910671E+03  0.12699999809E+01 0. -1.
       -4    1    3    3    0  502  0.14650458077E+02 -0.39105634163E+03 -0.78644928746E+03  0.87843257732E+03  0.12699999809E+01 0.  1.
</event>
<event>
 5   0  0.5821584E-05  0.1693384E+04  0.7818609E-02  0.8765147E-01
       -2   -1    0    0    0  501  0.00000000000E+00  0.00000000000E+00  0.10772869940E+04  0.10772869940E+04  0.25500000920E-02 0. -1.
        2   -1    0    0  501    0  0.00000000000E+00  0.00000000000E+00 -0.66545628197E+03  0.66545628197E+03  0.25500000920E-02 0.  1.
    10030    2    1    2    0    0  0.00000000000E+00  0.00000000000E+00  0.41183071205E+03  0.17427432760E+04  0.16933840647E+04 0.  0.
        1    1    3    3  502    0  0.11469836107E+03  0.83810138366E+03  0.16855636224E+03  0.86254326883E+03  0.50400001928E-02 0. -1.
       -1    1    3    3    0  502 -0.11469836107E+03 -0.83810138366E+03  0.24327434981E+03  0.88020000717E+03  0.50400001928E-02 0.  1.
</event>
<event>
 5   0  0.5652631E-05  0.1698169E+04  0.7818609E-02  0.8762409E-01
        2   -1    0    0  501    0  0.00000000000E+00  0.00000000000E+00  0.21884627364E+04  0.21884627364E+04  0.25500000920E-02 0. -1.
       -2   -1    0    0    0  501  0.00000000000E+00  0.00000000000E+00 -0.32942957774E+03  0.32942957775E+03  0.25500000920E-02 0.  1.
    10030    2    1    2    0    0  0.00000000000E+00  0.00000000000E+00  0.18590331586E+04  0.25178923141E+04  0.16981688434E+04 0.  0.
        2    1    3    3  502    0  0.75370963567E+02  0.68735297958E+03  0.16601324136E+04  0.17983810862E+04  0.25500000920E-02 0.  1.
       -2    1    3    3    0  502 -0.75370963567E+02 -0.68735297958E+03  0.19890074507E+03  0.71951122790E+03  0.25500000920E-02 0. -1.
</event>
<event>
 5   0  0.5821584E-05  0.1698213E+04  0.7818609E-02  0.8762384E-01
        2   -1    0    0  501    0  0.00000000000E+00  0.00000000000E+00  0.20508853131E+04  0.20508853131E+04  0.25500000920E-02 0. -1.
       -2   -1    0    0    0  501  0.00000000000E+00  0.00000000000E+00 -0.35154661331E+03  0.35154661332E+03  0.25500000920E-02 0.  1.
    10030    2    1    2    0    0  0.00000000000E+00  0.00000000000E+00  0.16993386998E+04  0.24024319265E+04  0.16982129267E+04 0.  0.
        1    1    3    3  502    0  0.62875195758E+03 -0.32405261452E+02  0.16556692466E+04  0.17713327692E+04  0.50400001928E-02 0. -1.
       -1    1    3    3    0  502 -0.62875195758E+03  0.32405261452E+02  0.43669453253E+02  0.63109915727E+03  0.50400001928E-02 0.  1.
</event>
<event>
 5   0  0.5671132E-05  0.1702531E+04  0.7818609E-02  0.8759922E-01
        2   -1    0    0  501    0  0.00000000000E+00  0.00000000000E+00  0.14325687659E+04  0.14325687659E+04  0.25500000920E-02 0. -1.
       -2   -1    0    0    0  501  0.00000000000E+00  0.00000000000E+00 -0.50584158703E+03  0.50584158703E+03  0.25500000920E-02 0.  1.
    10030    2    1    2    0    0  0.00000000000E+00  0.00000000000E+00  0.92672717887E+03  0.19384103529E+04  0.17025308903E+04 0.  0.
        3    1    3    3  502    0  0.12012722258E+03  0.14828352286E+03  0.14079003725E+04  0.14207751482E+04  0.10100000352E+00 0. -1.
       -3    1    3    3    0  502 -0.12012722258E+03 -0.14828352286E+03 -0.48117319359E+03  0.51763520474E+03  0.10100000352E+00 0.  1.
</event>
<event>
 5   0  0.2967704E-05  0.1713671E+04  0.7818609E-02  0.8753605E-01
        1   -1    0    0  501    0  0.00000000000E+00  0.00000000000E+00  0.60294497707E+03  0.60294497709E+03  0.50400001928E-02 0.  1.
       -1   -1    0    0    0  501  0.00000000000E+00  0.00000000000E+00 -0.12176353155E+04  0.12176353155E+04  0.50400001928E-02 0. -1.
    10030    2    1    2    0    0  0.00000000000E+00  0.00000000000E+00 -0.61469033843E+03  0.18205802926E+04  0.17136710273E+04 0.  0.
        2    1    3    3  502    0  0.40189736213E+02 -0.37920748658E+03 -0.11225169890E+04  0.11855201067E+04  0.25500000920E-02 0. -1.
       -2    1    3    3    0  502 -0.40189736213E+02  0.37920748658E+03  0.50782665054E+03  0.63506018595E+03  0.25500000920E-02 0.  1.
</event>
<event>
 5   0  0.5821584E-05  0.1697926E+04  0.7818609E-02  0.8762548E-01
        2   -1    0    0  501    0  0.00000000000E+00  0.00000000000E+00  0.14732923009E+04  0.14732923009E+04  0.25500000920E-02 0.  1.
       -2   -1    0    0    0  501  0.00000000000E+00  0.00000000000E+00 -0.48920242970E+03  0.48920242971E+03  0.25500000920E-02 0. -1.
    10030    2    1    2    0    0  0.00000000000E+00  0.00000000000E+00  0.98408987117E+03  0.19624947306E+04  0.16979259975E+04 0.  0.
        1    1    3    3  502    0 -0.27436671420E+03  0.45385294901E+03  0.12582739578E+04  0.13654716937E+04  0.50400001928E-02 0.  1.
       -1    1    3    3    0  502  0.27436671420E+03 -0.45385294901E+03 -0.27418408668E+03  0.59702303691E+03  0.50400001928E-02 0. -1.
</event>
<event>
 5   0  0.5755321E-05  0.1699175E+04  0.7818609E-02  0.8761835E-01
        2   -1    0    0  501    0  0.00000000000E+00  0.00000000000E+00  0.20442455440E+04  0.20442455440E+04  0.25500000920E-02 0.  1.
       -2   -1    0    0    0  501  0.00000000000E+00  0.00000000000E+00 -0.35308804020E+03  0.35308804021E+03  0.25500000920E-02 0. -1.
    10030    2    1    2    0    0  0.00000000000E+00  0.00000000000E+00  0.16911575038E+04  0.23973335842E+04  0.16991746853E+04 0.  0.
        4    1    3    3  502    0 -0.60179586255E+03  0.25591617011E+00 -0.52507310883E+00  0.60179748610E+03  0.12699999809E+01 0. -1.
       -4    1    3    3    0  502  0.60179586255E+03 -0.25591617011E+00  0.16916825769E+04  0.17955360981E+04  0.12699999809E+01 0.  1.
</event>
<event>
 5   0  0.2911632E-05  0.1699826E+04  0.7818609E-02  0.8761464E-01
        1   -1    0    0  501    0  0.00000000000E+00  0.00000000000E+00  0.14947111162E+04  0.14947111162E+04  0.50400001928E-02 0. -1.
       -1   -1    0    0    0  501  0.00000000000E+00  0.00000000000E+00 -0.48327180039E+03  0.48327180041E+03  0.50400001928E-02 0.  1.
    10030    2    1    2    0    0  0.00000000000E+00  0.00000000000E+00  0.10114393158E+04  0.19779829167E+04  0.16998255584E+04 0.  0.
        1    1    3    3  502    0  0.16390474366E+03 -0.83338329867E+03  0.46967981506E+03  0.97056252565E+03  0.50400001928E-02 0.  1.
       -1    1    3    3    0  502 -0.16390474366E+03  0.83338329867E+03  0.54175950079E+03  0.10074203910E+04  0.50400001928E-02 0. -1.
</event>
<event>
 5   0  0.2967704E-05  0.1701118E+04  0.7818609E-02  0.8760727E-01
        1   -1    0    0  501    0  0.00000000000E+00  0.00000000000E+00  0.12922646084E+04  0.12922646084E+04  0.50400001928E-02 0.  1.
       -1   -1    0    0    0  501  0.00000000000E+00  0.00000000000E+00 -0.55983189400E+03  0.55983189402E+03  0.50400001928E-02 0. -1.
    10030    2    1    2    0    0  0.00000000000E+00  0.00000000000E+00  0.73243271437E+03  0.18520965024E+04  0.17011183889E+04 0.  0.
        2    1    3    3  502    0  0.50346481867E+03  0.46471457913E+02  0.11108898969E+04  0.12205379073E+04  0.25500000920E-02 0.  1.
       -2    1    3    3    0  502 -0.50346481867E+03 -0.46471457913E+02 -0.37845718254E+03  0.63155859512E+03  0.25500000920E-02 0. -1.
</event>
<event>
 5   0  0.2987859E-05  0.1705162E+04  0.7818609E-02  0.8758426E-01
        1   -1    0    0  501    0  0.00000000000E+00  0.00000000000E+00  0.10408782367E+04  0.10408782367E+04  0.50400001928E-02 0.  1.
       -1   -1    0    0    0  501  0.00000000000E+00  0.00000000000E+00 -0.69834745243E+03  0.69834745245E+03  0.50400001928E-02 0. -1.
    10030    2    1    2    0    0  0.00000000000E+00  0.00000000000E+00  0.34253078424E+03  0.17392256891E+04  0.17051623558E+04 0.  0.
        5    1    3    3  502    0 -0.56712273345E+03 -0.36463033159E+03 -0.36097194123E+03  0.76479167482E+03  0.46999998093E+01 0. -1.
       -5    1    3    3    0  502  0.56712273345E+03  0.36463033159E+03  0.70350272547E+03  0.97443401432E+03  0.46999998093E+01 0.  1.
</event>
<event>
 5   0  0.2098250E-05  0.1703888E+04  0.7818609E-02  0.8759150E-01
        3   -1    0    0  501    0  0.00000000000E+00  0.00000000000E+00  0.90835564170E+03  0.90835564731E+03  0.10100000352E+00 0. -1.
       -3   -1    0    0    0  501  0.00000000000E+00  0.00000000000E+00 -0.79903606993E+03  0.79903607631E+03  0.10100000352E+00 0.  1.
    10030    2    1    2    0    0  0.00000000000E+00  0.00000000000E+00  0.10931957177E+03  0.17073917236E+04  0.17038884145E+04 0.  0.
        3    1    3    3  502    0 -0.10079276163E+03 -0.41818111407E+03 -0.68222576819E+03  0.80651511700E+03  0.10100000352E+00 0.  1.
       -3    1    3    3    0  502  0.10079276163E+03  0.41818111407E+03  0.79154533996E+03  0.90087660663E+03  0.10100000352E+00 0. -1.
</event>
<event>
 5   0  0.2993769E-05  0.1697950E+04  0.7818609E-02  0.8762534E-01
        1   -1    0    0  501    0  0.00000000000E+00  0.00000000000E+00  0.13008626578E+04  0.13008626578E+04  0.50400001928E-02 0. -1.
       -1   -1    0    0    0  501  0.00000000000E+00  0.00000000000E+00 -0.55406204006E+03  0.55406204008E+03  0.50400001928E-02 0.  1.
    10030    2    1    2    0    0  0.00000000000E+00  0.00000000000E+00  0.74680061776E+03  0.18549246979E+04  0.16979500794E+04 0.  0.
        3    1    3    3  502    0 -0.25479231901E+02 -0.84417054205E+03  0.46791778952E+03  0.96551549095E+03  0.10100000352E+00 0. -1.
       -3    1    3    3    0  502  0.25479231901E+02  0.84417054205E+03  0.27888282824E+03  0.88940920695E+03  0.10100000352E+00 0.  1.
</event>
<event>
 5   0  0.5755321E-05  0.1698824E+04  0.7818609E-02  0.8762035E-01
        2   -1    0    0  501    0  0.00000000000E+00  0.00000000000E+00  0.12250647172E+04  0.12250647172E+04  0.25500000920E-02 0.  1.
       -2   -1    0    0    0  501  0.00000000000E+00  0.00000000000E+00 -0.58894922876E+03  0.58894922876E+03  0.25500000920E-02 0. -1.
    10030    2    1    2    0    0  0.00000000000E+00  0.00000000000E+00  0.63611548848E+03  0.18140139460E+04  0.16988242056E+04 0.  0.
        4    1    3    3  502    0  0.35060743034E+03 -0.48549278415E+03  0.96129028804E+03  0.11325676335E+04  0.12699999809E+01 0.  1.
       -4    1    3    3    0  502 -0.35060743034E+03  0.48549278415E+03 -0.32517479956E+03  0.68144631251E+03  0.12699999809E+01 0. -1.
</event>
<event>
 5   0  0.2911632E-05  0.1701258E+04  0.7818609E-02  0.8760647E-01
        1   -1    0    0  501    0  0.00000000000E+00  0.00000000000E+00  0.16756695512E+04  0.16756695512E+04  0.50400001928E-02 0.  1.
       -1   -1    0    0    0  501  0.00000000000E+00  0.00000000000E+00 -0.43180918689E+03  0.43180918692E+03  0.50400001928E-02 0. -1.
    10030    2    1    2    0    0  0.00000000000E+00  0.00000000000E+00  0.12438603643E+04  0.21074787381E+04  0.17012577776E+04 0.  0.
        1    1    3    3  502    0  0.32654045987E+03 -0.48982824279E+03 -0.13869204132E+03  0.60481059987E+03  0.50400001928E-02 0. -1.
       -1    1    3    3    0  502 -0.32654045987E+03  0.48982824279E+03  0.13825524056E+04  0.15026681382E+04  0.50400001928E-02 0.  1.
</event>
<event>
 5   0  0.5859822E-05  0.1700958E+04  0.7818609E-02  0.8760818E-01
       -2   -1    0    0    0  501  0.00000000000E+00  0.00000000000E+00  0.43976937094E+03  0.43976937095E+03  0.25500000920E-02 0.  1.
        2   -1    0    0  501    0  0.00000000000E+00  0.00000000000E+00 -0.16447591545E+04  0.16447591545E+04  0.25500000920E-02 0. -1.
    10030    2    1    2    0    0  0.00000000000E+00  0.00000000000E+00 -0.12049897836E+04  0.20845285255E+04  0.17009581991E+04 0.  0.
        5    1    3    3  502    0 -0.73565159615E+03 -0.12941104994E+03 -0.10414747127E+03  0.75418782576E+03  0.46999998093E+01 0.  1.
       -5    1    3    3    0  502  0.73565159615E+03  0.12941104994E+03 -0.11008423123E+04  0.13303406997E+04  0.46999998093E+01 0. -1.
</event>
<event>
 5   0  0.5859822E-05  0.1697145E+04  0.7818609E-02  0.8762995E-01
       -2   -1    0    0    0  501  0.00000000000E+00  0.00000000000E+00  0.72927046398E+03  0.72927046398E+03  0.25500000920E-02 0. -1.
        2   -1    0    0  501    0  0.00000000000E+00  0.00000000000E+00 -0.98739074734E+03  0.98739074734E+03  0.25500000920E-02 0.  1.
    10030    2    1    2    0    0  0.00000000000E+00  0.00000000000E+00 -0.25812028336E+03  0.17166612113E+04  0.16971445530E+04 0.  0.
        5    1    3    3  502    0 -0.27699978733E+02 -0.57265133385E+03 -0.76183868801E+03  0.95347633192E+03  0.46999998093E+01 0.  1.
       -5    1    3    3    0  502  0.27699978733E+02  0.57265133385E+03  0.50371840464E+03  0.76318487941E+03  0.46999998093E+01 0. -1.
</event>
<event>
 5   0  0.5859822E-05  0.1702206E+04  0.7818609E-02  0.8760107E-01
        2   -1    0    0  501    0  0.00000000000E+00  0.00000000000E+00  0.19372650192E+04  0.19372650192E+04  0.25500000920E-02 0.  1.
       -2   -1    0    0    0  501  0.00000000000E+00  0.00000000000E+00 -0.37391711306E+03  0.37391711307E+03  0.25500000920E-02 0. -1.
    10030    2    1    2    0    0  0.00000000000E+00  0.00000000000E+00  0.15633479061E+04  0.23111821322E+04  0.17022062663E+04 0.  0.
        5    1    3    3  502    0 -0.18167224822E+03 -0.70474070272E+03  0.13807666426E+04  0.15608340320E+04  0.46999998093E+01 0.  1.
       -5    1    3    3    0  502  0.18167224822E+03  0.70474070272E+03  0.18258126346E+03  0.75034810029E+03  0.46999998093E+01 0. -1.
</event>
<event>
 5   0  0.5652631E-05  0.1704637E+04  0.7818609E-02  0.8758724E-01
        2   -1    0    0  501    0  0.00000000000E+00  0.00000000000E+00  0.91727435858E+03  0.91727435858E+03  0.25500000920E-02 0.  1.
       -2   -1    0    0    0  501  0.00000000000E+00  0.00000000000E+00 -0.79196210826E+03  0.79196210827E+03  0.25500000920E-02 0. -1.
    10030    2    1    2    0    0  0.00000000000E+00  0.00000000000E+00  0.12531225031E+03  0.17092364668E+04  0.17046366591E+04 0.  0.
        2    1    3    3  502    0  0.25858450221E+03 -0.36600538531E+03  0.78960946257E+03  0.90791463819E+03  0.25500000920E-02 0.  1.
       -2    1    3    3    0  502 -0.25858450221E+03  0.36600538531E+03 -0.66429721226E+03  0.80132182865E+03  0.25500000920E-02 0. -1.
</event>
<event>
 5   0  0.2966258E-05  0.1699889E+04  0.7818609E-02  0.8761427E-01
       -1   -1    0    0    0  501  0.00000000000E+00  0.00000000000E+00  0.47924449833E+03  0.47924449836E+03  0.50400001928E-02 0.  1.
        1   -1    0    0  501    0  0.00000000000E+00  0.00000000000E+00 -0.15073852265E+04  0.15073852265E+04  0.50400001928E-02 0. -1.
    10030    2    1    2    0    0  0.00000000000E+00  0.00000000000E+00 -0.10281407281E+04  0.19866297248E+04  0.16998894984E+04 0.  0.
        4    1    3    3  502    0 -0.34181242423E+03  0.40248052014E+03 -0.12924318108E+04  0.13961403586E+04  0.12699999809E+01 0. -1.
       -4    1    3    3    0  502  0.34181242423E+03 -0.40248052014E+03  0.26429108261E+03  0.59048936629E+03  0.12699999809E+01 0.  1.
</event>
<event>
 5   0  0.5821584E-05  0.1700561E+04  0.7818609E-02  0.8761044E-01
        2   -1    0    0  501    0  0.00000000000E+00  0.00000000000E+00  0.76455403549E+03  0.76455403550E+03  0.25500000920E-02 0. -1.
       -2   -1    0    0    0  501  0.00000000000E+00  0.00000000000E+00 -0.94561946375E+03  0.94561946376E+03  0.25500000920E-02 0.  1.
    10030    2    1    2    0    0  0.00000000000E+00  0.00000000000E+00 -0.18106542826E+03  0.17101734993E+04  0.17005612921E+04 0.  0.
        1    1    3    3  502    0  0.24738909501E+03  0.78253096704E+03  0.13303242243E+03  0.83141668503E+03  0.50400001928E-02 0. -1.
       -1    1    3    3    0  502 -0.24738909501E+03 -0.78253096704E+03 -0.31409785069E+03  0.87875681422E+03  0.50400001928E-02 0.  1.
</event>
<event>
 5   0  0.5859822E-05  0.1700774E+04  0.7818609E-02  0.8760923E-01
        2   -1    0    0  501    0  0.00000000000E+00  0.00000000000E+00  0.10366662275E+04  0.10366662275E+04  0.25500000920E-02 0.  1.
       -2   -1    0    0    0  501  0.00000000000E+00  0.00000000000E+00 -0.69758021346E+03  0.69758021346E+03  0.25500000920E-02 0. -1.
    10030    2    1    2    0    0  0.00000000000E+00  0.00000000000E+00  0.33908601400E+03  0.17342464409E+04  0.17007737630E+04 0.  0.
        5    1    3    3  502    0 -0.89620275510E+02  0.45394344263E+03 -0.55796860126E+03  0.72487757096E+03  0.46999998093E+01 0. -1.
       -5    1    3    3    0  502  0.89620275510E+02 -0.45394344263E+03  0.89705461526E+03  0.10093688700E+04  0.46999998093E+01 0.  1.
</event>
<event>
 5   0  0.5755321E-05  0.1699418E+04  0.7818609E-02  0.8761696E-01
        2   -1    0    0  501    0  0.00000000000E+00  0.00000000000E+00  0.10576617004E+04  0.10576617004E+04  0.25500000920E-02 0.  1.
       -2   -1    0    0    0  501  0.00000000000E+00  0.00000000000E+00 -0.68264335629E+03  0.68264335629E+03  0.25500000920E-02 0. -1.
    10030    2    1    2    0    0  0.00000000000E+00  0.00000000000E+00  0.37501834407E+03  0.17403050567E+04  0.16994184099E+04 0.  0.
        4    1    3    3  502    0 -0.40774701726E+03 -0.72527619499E+03  0.10963828310E+02  0.83210877145E+03  0.12699999809E+01 0. -1.
       -4    1    3    3    0  502  0.40774701726E+03  0.72527619499E+03  0.36405451576E+03  0.90819628520E+03  0.12699999809E+01 0.  1.
</event>
<event>
 5   0  0.5671132E-05  0.1715417E+04  0.7818609E-02  0.8752620E-01
        2   -1    0    0  501    0  0.00000000000E+00  0.00000000000E+00  0.86137835079E+03  0.86137835080E+03  0.25500000920E-02 0.  1.
       -2   -1    0    0    0  501  0.00000000000E+00  0.00000000000E+00 -0.85405422019E+03  0.85405422019E+03  0.25500000920E-02 0. -1.
    10030    2    1    2    0    0  0.00000000000E+00  0.00000000000E+00  0.73241306006E+01  0.17154325710E+04  0.17154169355E+04 0.  0.
        3    1    3    3  502    0 -0.30372405378E+03  0.64833346202E+02 -0.79585265897E+03  0.85430271486E+03  0.10100000352E+00 0. -1.
       -3    1    3    3    0  502  0.30372405378E+03 -0.64833346202E+02  0.80317678957E+03  0.86112985613E+03  0.10100000352E+00 0.  1.
</event>
<event>
 5   0  0.5859822E-05  0.1696807E+04  0.7818609E-02  0.8763188E-01
        2   -1    0    0  501    0  0.00000000000E+00  0.00000000000E+00  0.26630098789E+04  0.26630098789E+04  0.25500000920E-02 0. -1.
       -2   -1    0    0    0  501  0.00000000000E+00  0.00000000000E+00 -0.27029121854E+03  0.27029121855E+03  0.25500000920E-02 0.  1.
    10030    2    1    2    0    0  0.00000000000E+00  0.00000000000E+00  0.23927186603E+04  0.29333010974E+04  0.16968066303E+04 0.  0.
        5    1    3    3  502    0 -0.11988682533E+03 -0.75918958916E+03  0.57540417570E+03  0.96013214642E+03  0.46999998093E+01 0.  1.
       -5    1    3    3    0  502  0.11988682533E+03  0.75918958916E+03  0.18173144846E+04  0.19731689510E+04  0.46999998093E+01 0. -1.
</event>
<event>
 5   0  0.2966258E-05  0.1703279E+04  0.7818609E-02  0.8759496E-01
        1   -1    0    0  501    0  0.00000000000E+00  0.00000000000E+00  0.98382402186E+03  0.98382402188E+03  0.50400001928E-02 0.  1.
       -1   -1    0    0    0  501  0.00000000000E+00  0.00000000000E+00 -0.73721541343E+03  0.73721541345E+03  0.50400001928E-02 0. -1.
    10030    2    1    2    0    0  0.00000000000E+00  0.00000000000E+00  0.24660860843E+03  0.17210394353E+04  0.17032794639E+04 0.  0.
        4    1    3    3  502    0 -0.10242346023E+03 -0.42350460575E+03 -0.61606444365E+03  0.75457519700E+03  0.12699999809E+01 0. -1.
       -4    1    3    3    0  502  0.10242346023E+03  0.42350460575E+03  0.86267305208E+03  0.96646423833E+03  0.12699999809E+01 0.  1.
</event>
<event>
 5   0  0.2993769E-05  0.1699332E+04  0.7818609E-02  0.8761745E-01
       -1   -1    0    0    0  501  0.00000000000E+00  0.00000000000E+00  0.93263755371E+03  0.93263755373E+03  0.50400001928E-02 0. -1.
        1   -1    0    0  501    0  0.00000000000E+00  0.00000000000E+00 -0.77407628313E+03  0.77407628314E+03  0.50400001928E-02 0.  1.
    10030    2    1    2    0    0  0.00000000000E+00  0.00000000000E+00  0.15856127059E+03  0.17067138369E+04  0.16993323526E+04 0.  0.
        3    1    3    3  502    0  0.44944125034E+03 -0.52406584254E+03  0.57669971938E+03  0.89956935328E+03  0.10100000352E+00 0. -1.
       -3    1    3    3    0  502 -0.44944125034E+03  0.52406584254E+03 -0.41813844880E+03  0.80714448359E+03  0.10100000352E+00 0.  1.
</event>
<event>
 5   0  0.2987859E-05  0.1699855E+04  0.7818609E-02  0.8761447E-01
        1   -1    0    0  501    0  0.00000000000E+00  0.00000000000E+00  0.75128660420E+03  0.75128660422E+03  0.50400001928E-02 0. -1.
       -1   -1    0    0    0  501  0.00000000000E+00  0.00000000000E+00 -0.96151943967E+03  0.96151943968E+03  0.50400001928E-02 0.  1.
    10030    2    1    2    0    0  0.00000000000E+00  0.00000000000E+00 -0.21023283546E+03  0.17128060439E+04  0.16998549053E+04 0.  0.
        5    1    3    3  502    0 -0.11172808415E+03 -0.36284113664E+03  0.66108338521E+03  0.76235830645E+03  0.46999998093E+01 0. -1.
       -5    1    3    3    0  502  0.11172808415E+03  0.36284113664E+03 -0.87131622067E+03  0.95044773745E+03  0.46999998093E+01 0.  1.
</event>
<event>
 5   0  0.5821584E-05  0.1701708E+04  0.7818609E-02  0.8760391E-01
        2   -1    0    0  501    0  0.00000000000E+00  0.00000000000E+00  0.11107401927E+04  0.11107401927E+04  0.25500000920E-02 0.  1.
       -2   -1    0    0    0  501  0.00000000000E+00  0.00000000000E+00 -0.65177480393E+03  0.65177480393E+03  0.25500000920E-02 0. -1.
    10030    2    1    2    0    0  0.00000000000E+00  0.00000000000E+00  0.45896538877E+03  0.17625149966E+04  0.17017079318E+04 0.  0.
        1    1    3    3  502    0  0.43811499787E+02 -0.58451468266E+01  0.11095503360E+04  0.11104303496E+04  0.50400001928E-02 0.  1.
       -1    1    3    3    0  502 -0.43811499787E+02  0.58451468266E+01 -0.65058494723E+03  0.65208464699E+03  0.50400001928E-02 0. -1.
</event>
<event>
 5   0  0.5859822E-05  0.1700282E+04  0.7818609E-02  0.8761203E-01
        2   -1    0    0  501    0  0.00000000000E+00  0.00000000000E+00  0.12204503263E+04  0.12204503263E+04  0.25500000920E-02 0.  1.
       -2   -1    0    0    0  501  0.00000000000E+00  0.00000000000E+00 -0.59219116896E+03  0.59219116897E+03  0.25500000920E-02 0. -1.
    10030    2    1    2    0    0  0.00000000000E+00  0.00000000000E+00  0.62825915730E+03  0.18126414952E+04  0.17002822182E+04 0.  0.
        5    1    3    3  502    0  0.58113867858E+03  0.60843324123E+03  0.44384447967E+03  0.95127976164E+03  0.46999998093E+01 0.  1.
       -5    1    3    3    0  502 -0.58113867858E+03 -0.60843324123E+03  0.18441467763E+03  0.86136173360E+03  0.46999998093E+01 0. -1.
</event>
<event>
 5   0  0.2987859E-05  0.1701803E+04  0.7818609E-02  0.8760337E-01
        1   -1    0    0  501    0  0.00000000000E+00  0.00000000000E+00  0.82017350076E+03  0.82017350077E+03  0.50400001928E-02 0. -1.
       -1   -1    0    0    0  501  0.00000000000E+00  0.00000000000E+00 -0.88278071471E+03  0.88278071473E+03  0.50400001928E-02 0.  1.
    10030    2    1    2    0    0  0.00000000000E+00  0.00000000000E+00 -0.62607213953E+02  0.17029542155E+04  0.17018029841E+04 0.  0.
        5    1    3    3  502    0  0.58535294125E+03 -0.88493584866E+02 -0.64289794586E+03  0.87396169206E+03  0.46999998093E+01 0. -1.
       -5    1    3    3    0  502 -0.58535294125E+03  0.88493584866E+02  0.58029073191E+03  0.82899252344E+03  0.46999998093E+01 0.  1.
</event>
<event>
 5   0  0.2911632E-05  0.1691791E+04  0.7818609E-02  0.8766060E-01
        1   -1    0    0  501    0  0.00000000000E+00  0.00000000000E+00  0.11329171821E+04  0.11329171821E+04  0.50400001928E-02 0. -1.
       -1   -1    0    0    0  501  0.00000000000E+00  0.00000000000E+00 -0.63159011338E+03  0.63159011341E+03  0.50400001928E-02 0.  1.
    10030    2    1    2    0    0  0.00000000000E+00  0.00000000000E+00  0.50132706867E+03  0.17645072955E+04  0.16917911118E+04 0.  0.
        1    1    3    3  502    0  0.92142410620E+02  0.13945149035E+03  0.11155227059E+04  0.11279751103E+04  0.50400001928E-02 0. -1.
       -1    1    3    3    0  502 -0.92142410620E+02 -0.13945149035E+03 -0.61419563722E+03  0.63653218521E+03  0.50400001928E-02 0.  1.
</event>
<event>
 5   0  0.5755321E-05  0.1702386E+04  0.7818609E-02  0.8760005E-01
       -2   -1    0    0    0  501  0.00000000000E+00  0.00000000000E+00  0.68898219359E+03  0.68898219359E+03  0.25500000920E-02 0. -1.
        2   -1    0    0  501    0  0.00000000000E+00  0.00000000000E+00 -0.10515939585E+04  0.10515939585E+04  0.25500000920E-02 0.  1.
    10030    2    1    2    0    0  0.00000000000E+00  0.00000000000E+00 -0.36261176488E+03  0.17405761521E+04  0.17023859871E+04 0.  0.
        4    1    3    3  502    0  0.10389928960E+03  0.32694023376E+03  0.61517093206E+03  0.70435918918E+03  0.12699999809E+01 0. -1.
       -4    1    3    3    0  502 -0.10389928960E+03 -0.32694023376E+03 -0.97778269694E+03  0.10362169629E+04  0.12699999809E+01 0.  1.
</event>
<event>
 5   0  0.2911632E-05  0.1722817E+04  0.7818609E-02  0.8748457E-01
        1   -1    0    0  501    0  0.00000000000E+00  0.00000000000E+00  0.15606780834E+04  0.15606780834E+04  0.50400001928E-02 0. -1.
       -1   -1    0    0    0  501  0.00000000000E+00  0.00000000000E+00 -0.47545012320E+03  0.47545012323E+03  0.50400001928E-02 0.  1.
    10030    2    1    2    0    0  0.00000000000E+00  0.00000000000E+00  0.10852279602E+04  0.20361282066E+04  0.17228169805E+04 0.  0.
        1    1    3    3  502    0  0.99146077001E+01 -0.79624753484E+03  0.15436600448E+03  0.81113334264E+03  0.50400001928E-02 0. -1.
       -1    1    3    3    0  502 -0.99146077001E+01  0.79624753484E+03  0.93086195569E+03  0.12249948640E+04  0.50400001928E-02 0.  1.
</event>
<event>
 5   0  0.5755321E-05  0.1720089E+04  0.7818609E-02  0.8749989E-01
        2   -1    0    0  501    0  0.00000000000E+00  0.00000000000E+00  0.10004688662E+04  0.10004688662E+04  0.25500000920E-02 0.  1.
       -2   -1    0    0    0  501  0.00000000000E+00  0.00000000000E+00 -0.73932965289E+03  0.73932965290E+03  0.25500000920E-02 0. -1.
    10030    2    1    2    0    0  0.00000000000E+00  0.00000000000E+00  0.26113921331E+03  0.17397985191E+04  0.17200887182E+04 0.  0.
        4    1    3    3  502    0  0.41762483903E+03 -0.40924787058E+03 -0.50735562236E+03  0.77414834896E+03  0.12699999809E+01 0. -1.
       -4    1    3    3    0  502 -0.41762483903E+03  0.40924787058E+03  0.76849483568E+03  0.96565017015E+03  0.12699999809E+01 0.  1.
</event>
<event>
 5   0  0.5821584E-05  0.1697950E+04  0.7818609E-02  0.8762534E-01
        2   -1    0    0  501    0  0.00000000000E+00  0.00000000000E+00  0.77781882496E+03  0.77781882497E+03  0.25500000920E-02 0. -1.
       -2   -1    0    0    0  501  0.00000000000E+00  0.00000000000E+00 -0.92664061804E+03  0.92664061804E+03  0.25500000920E-02 0.  1.
    10030    2    1    2    0    0  0.00000000000E+00  0.00000000000E+00 -0.14882179307E+03  0.17044594430E+04  0.16979499600E+04 0.  0.
        1    1    3    3  502    0 -0.58097667167E+03 -0.27932368394E+03  0.48015877488E+03  0.80380847380E+03  0.50400001928E-02 0. -1.
       -1    1    3    3    0  502  0.58097667167E+03  0.27932368394E+03 -0.62898056795E+03  0.90065096920E+03  0.50400001928E-02 0.  1.
</event>
<event>
 5   0  0.2098250E-05  0.1698209E+04  0.7818609E-02  0.8762386E-01
       -4   -1    0    0    0  501  0.00000000000E+00  0.00000000000E+00  0.84351558557E+03  0.84351654163E+03  0.12699999809E+01 0. -1.
        4   -1    0    0  501    0  0.00000000000E+00  0.00000000000E+00 -0.85472861843E+03  0.85472956194E+03  0.12699999809E+01 0.  1.
    10030    2    1    2    0    0  0.00000000000E+00  0.00000000000E+00 -0.11213032851E+02  0.16982461036E+04  0.16982090849E+04 0.  0.
        3    1    3    3  502    0  0.67567401903E+03  0.29592959633E+03 -0.42617341830E+03  0.85189993464E+03  0.10100000352E+00 0.  1.
       -3    1    3    3    0  502 -0.67567401903E+03 -0.29592959633E+03  0.41496038544E+03  0.84634616893E+03  0.10100000352E+00 0. -1.
</event>
<event>
 5   0  0.2911632E-05  0.1700156E+04  0.7818609E-02  0.8761276E-01
        1   -1    0    0  501    0  0.00000000000E+00  0.00000000000E+00  0.21411559163E+04  0.21411559163E+04  0.50400001928E-02 0. -1.
       -1   -1    0    0    0  501  0.00000000000E+00  0.00000000000E+00 -0.33749634544E+03  0.33749634547E+03  0.50400001928E-02 0.  1.
    10030    2    1    2    0    0  0.00000000000E+00  0.00000000000E+00  0.18036595709E+04  0.24786522618E+04  0.17001556362E+04 0.  0.
        1    1    3    3  502    0 -0.25739315200E+03  0.73964583955E+03  0.41982968999E+03  0.88858548901E+03  0.50400001928E-02 0. -1.
       -1    1    3    3    0  502  0.25739315200E+03 -0.73964583955E+03  0.13838298809E+04  0.15900667728E+04  0.50400001928E-02 0.  1.
</event>
<event>
 5   0  0.2098250E-05  0.1699463E+04  0.7818609E-02  0.8761671E-01
        3   -1    0    0  501    0  0.00000000000E+00  0.00000000000E+00  0.10804064822E+04  0.10804064869E+04  0.10100000352E+00 0. -1.
       -3   -1    0    0    0  501  0.00000000000E+00  0.00000000000E+00 -0.66830708436E+03  0.66830709199E+03  0.10100000352E+00 0.  1.
    10030    2    1    2    0    0  0.00000000000E+00  0.00000000000E+00  0.41209939784E+03  0.17487135789E+04  0.16994626408E+04 0.  0.
        1    1    3    3  502    0 -0.15691420219E+03  0.70054909518E+03 -0.26171462241E+03  0.76412410328E+03  0.50400001928E-02 0.  1.
       -1    1    3    3    0  502  0.15691420219E+03 -0.70054909518E+03  0.67381402025E+03  0.98458947563E+03  0.50400001928E-02 0. -1.
</event>
<event>
 5   0  0.5755321E-05  0.1703408E+04  0.7818609E-02  0.8759423E-01
        2   -1    0    0  501    0  0.00000000000E+00  0.00000000000E+00  0.12309012512E+04  0.12309012512E+04  0.25500000920E-02 0. -1.
       -2   -1    0    0    0  501  0.00000000000E+00  0.00000000000E+00 -0.58932387792E+03  0.58932387793E+03  0.25500000920E-02 0.  1.
    10030    2    1    2    0    0  0.00000000000E+00  0.00000000000E+00  0.64157737330E+03  0.18202251292E+04  0.17034077594E+04 0.  0.
        4    1    3    3  502    0  0.30035338284E+03 -0.30956460176E+03  0.11055616559E+04  0.11867226235E+04  0.12699999809E+01 0. -1.
       -4    1    3    3    0  502 -0.30035338284E+03  0.30956460176E+03 -0.46398428261E+03  0.63350250564E+03  0.12699999809E+01 0.  1.
</event>
<event>
 5   0  0.2966258E-05  0.1700530E+04  0.7818609E-02  0.8761062E-01
        1   -1    0    0  501    0  0.00000000000E+00  0.00000000000E+00  0.21592087603E+04  0.21592087603E+04  0.50400001928E-02 0.  1.
       -1   -1    0    0    0  501  0.00000000000E+00  0.00000000000E+00 -0.33482181824E+03  0.33482181828E+03  0.50400001928E-02 0. -1.
    10030    2    1    2    0    0  0.00000000000E+00  0.00000000000E+00  0.18243869420E+04  0.24940305785E+04  0.17005295682E+04 0.  0.
        4    1    3    3  502    0  0.82022633915E+03 -0.14614376112E+02  0.58436614207E+03  0.10072091284E+04  0.12699999809E+01 0.  1.
       -4    1    3    3    0  502 -0.82022633915E+03  0.14614376112E+02  0.12400208000E+04  0.14868214502E+04  0.12699999809E+01 0. -1.
</event>
<event>
 5   0  0.5755321E-05  0.1705455E+04  0.7818609E-02  0.8758260E-01
        2   -1    0    0  501    0  0.00000000000E+00  0.00000000000E+00  0.98837881154E+03  0.98837881155E+03  0.25500000920E-02 0.  1.
       -2   -1    0    0    0  501  0.00000000000E+00  0.00000000000E+00 -0.73569346235E+03  0.73569346236E+03  0.25500000920E-02 0. -1.
    10030    2    1    2    0    0  0.00000000000E+00  0.00000000000E+00  0.25268534919E+03  0.17240722739E+04  0.17054545787E+04 0.  0.
        4    1    3    3  502    0  0.53581357686E+03  0.66125901555E+03  0.17966832949E+03  0.86985170938E+03  0.12699999809E+01 0. -1.
       -4    1    3    3    0  502 -0.53581357686E+03 -0.66125901555E+03  0.73017019703E+02  0.85422056452E+03  0.12699999809E+01 0.  1.
</event>
<event>
 5   0  0.2967704E-05  0.1700257E+04  0.7818609E-02  0.8761218E-01
       -1   -1    0    0    0  501  0.00000000000E+00  0.00000000000E+00  0.68026739930E+03  0.68026739932E+03  0.50400001928E-02 0.  1.
        1   -1    0    0  501    0  0.00000000000E+00  0.00000000000E+00 -0.10624039873E+04  0.10624039873E+04  0.50400001928E-02 0. -1.
    10030    2    1    2    0    0  0.00000000000E+00  0.00000000000E+00 -0.38213658798E+03  0.17426713866E+04  0.17002573893E+04 0.  0.
        2    1    3    3  502    0 -0.72247449073E+03 -0.35406058972E+03  0.90354428483E+02  0.80962473634E+03  0.25500000920E-02 0.  1.
       -2    1    3    3    0  502  0.72247449073E+03  0.35406058972E+03 -0.47249101647E+03  0.93304665027E+03  0.25500000920E-02 0. -1.
</event>
<event>
 5   0  0.5821584E-05  0.1701488E+04  0.7818609E-02  0.8760516E-01
        2   -1    0    0  501    0  0.00000000000E+00  0.00000000000E+00  0.77993821510E+03  0.77993821510E+03  0.25500000920E-02 0.  1.
       -2   -1    0    0    0  501  0.00000000000E+00  0.00000000000E+00 -0.92797732150E+03  0.92797732151E+03  0.25500000920E-02 0. -1.
    10030    2    1    2    0    0  0.00000000000E+00  0.00000000000E+00 -0.14803910641E+03  0.17079155366E+04  0.17014875560E+04 0.  0.
        1    1    3    3  502    0  0.57067951104E+03  0.18822723432E+03 -0.67850753113E+03  0.90635372008E+03  0.50400001928E-02 0. -1.
       -1    1    3    3    0  502 -0.57067951104E+03 -0.18822723432E+03  0.53046842473E+03  0.80156181653E+03  0.50400001928E-02 0.  1.
</event>
<event>
 5   0  0.2993769E-05  0.1702011E+04  0.7818609E-02  0.8760218E-01
        1   -1    0    0  501    0  0.00000000000E+00  0.00000000000E+00  0.66192775303E+03  0.66192775305E+03  0.50400001928E-02 0.  1.
       -1   -1    0    0    0  501  0.00000000000E+00  0.00000000000E+00 -0.10940921868E+04  0.10940921868E+04  0.50400001928E-02 0. -1.
    10030    2    1    2    0    0  0.00000000000E+00  0.00000000000E+00 -0.43216443378E+03  0.17560199399E+04  0.17020105556E+04 0.  0.
        3    1    3    3  502    0 -0.22426211704E+03  0.67841092460E+03 -0.69300068974E+03  0.99538175889E+03  0.10100000352E+00 0. -1.
       -3    1    3    3    0  502  0.22426211704E+03 -0.67841092460E+03  0.26083625595E+03  0.76063818099E+03  0.10100000352E+00 0.  1.
</event>
<event>
 5   0  0.2911632E-05  0.1705482E+04  0.7818609E-02  0.8758244E-01
        1   -1    0    0  501    0  0.00000000000E+00  0.00000000000E+00  0.79635710454E+03  0.79635710455E+03  0.50400001928E-02 0.  1.
       -1   -1    0    0    0  501  0.00000000000E+00  0.00000000000E+00 -0.91311681321E+03  0.91311681322E+03  0.50400001928E-02 0. -1.
    10030    2    1    2    0    0  0.00000000000E+00  0.00000000000E+00 -0.11675970867E+03  0.17094739178E+04  0.17054818222E+04 0.  0.
        1    1    3    3  502    0  0.25666225238E+02 -0.83167701767E+03 -0.24542223591E+03  0.86751224241E+03  0.50400001928E-02 0. -1.
       -1    1    3    3    0  502 -0.25666225238E+02  0.83167701767E+03  0.12866252724E+03  0.84196167536E+03  0.50400001928E-02 0.  1.
</event>
<event>
 5   0  0.2993769E-05  0.1701989E+04  0.7818609E-02  0.8760231E-01
        1   -1    0    0  501    0  0.00000000000E+00  0.00000000000E+00  0.60936113849E+03  0.60936113851E+03  0.50400001928E-02 0.  1.
       -1   -1    0    0    0  501  0.00000000000E+00  0.00000000000E+00 -0.11884441653E+04  0.11884441653E+04  0.50400001928E-02 0. -1.
    10030    2    1    2    0    0  0.00000000000E+00  0.00000000000E+00 -0.57908302680E+03  0.17978053038E+04  0.17019890594E+04 0.  0.
        3    1    3    3  502    0  0.63131739022E+03  0.37234925064E+03 -0.74630409364E+03  0.10460284040E+04  0.10100000352E+00 0. -1.
       -3    1    3    3    0  502 -0.63131739022E+03 -0.37234925064E+03  0.16722106684E+03  0.75177689978E+03  0.10100000352E+00 0.  1.
</event>
<event>
 5   0  0.5671132E-05  0.1701513E+04  0.7818609E-02  0.8760502E-01
       -2   -1    0    0    0  501  0.00000000000E+00  0.00000000000E+00  0.31386966822E+03  0.31386966823E+03  0.25500000920E-02 0. -1.
        2   -1    0    0  501    0  0.00000000000E+00  0.00000000000E+00 -0.23060091340E+04  0.23060091340E+04  0.25500000920E-02 0.  1.
    10030    2    1    2    0    0  0.00000000000E+00  0.00000000000E+00 -0.19921394657E+04  0.26198788022E+04  0.17015126468E+04 0.  0.
        3    1    3    3  502    0  0.37273762551E+02 -0.82009171971E+02  0.30650567024E+03  0.31946920627E+03  0.10100000352E+00 0. -1.
       -3    1    3    3    0  502 -0.37273762551E+02  0.82009171971E+02 -0.22986451360E+04  0.23004095959E+04  0.10100000352E+00 0.  1.
</event>
<event>
 5   0  0.5652631E-05  0.1698783E+04  0.7818609E-02  0.8762059E-01
        2   -1    0    0  501    0  0.00000000000E+00  0.00000000000E+00  0.13443293594E+04  0.13443293594E+04  0.25500000920E-02 0. -1.
       -2   -1    0    0    0  501  0.00000000000E+00  0.00000000000E+00 -0.53667321057E+03  0.53667321058E+03  0.25500000920E-02 0.  1.
    10030    2    1    2    0    0  0.00000000000E+00  0.00000000000E+00  0.80765614886E+03  0.18810025700E+04  0.16987825681E+04 0.  0.
        2    1    3    3  502    0 -0.92994398255E+02  0.29285922030E+02  0.13381130586E+04  0.13416602331E+04  0.25500000920E-02 0. -1.
       -2    1    3    3    0  502  0.92994398255E+02 -0.29285922030E+02 -0.53045690975E+03  0.53934233696E+03  0.25500000920E-02 0.  1.
</event>
<event>
 5   0  0.2966258E-05  0.1694236E+04  0.7818609E-02  0.8764659E-01
        1   -1    0    0  501    0  0.00000000000E+00  0.00000000000E+00  0.97192257668E+03  0.97192257670E+03  0.50400001928E-02 0. -1.
       -1   -1    0    0    0  501  0.00000000000E+00  0.00000000000E+00 -0.73833973408E+03  0.73833973410E+03  0.50400001928E-02 0.  1.
    10030    2    1    2    0    0  0.00000000000E+00  0.00000000000E+00  0.23358284260E+03  0.17102623108E+04  0.16942361782E+04 0.  0.
        4    1    3    3  502    0  0.42969744676E+03  0.36411362684E+03  0.75553969930E+03  0.94236960855E+03  0.12699999809E+01 0. -1.
       -4    1    3    3    0  502 -0.42969744676E+03 -0.36411362684E+03 -0.52195685670E+03  0.76789270225E+03  0.12699999809E+01 0.  1.
</event>
<event>
 5   0  0.5821584E-05  0.1689956E+04  0.7818609E-02  0.8767114E-01
       -2   -1    0    0    0  501  0.00000000000E+00  0.00000000000E+00  0.59781030044E+03  0.59781030044E+03  0.25500000920E-02 0. -1.
        2   -1    0    0  501    0  0.00000000000E+00  0.00000000000E+00 -0.11943385819E+04  0.11943385819E+04  0.25500000920E-02 0.  1.
    10030    2    1    2    0    0  0.00000000000E+00  0.00000000000E+00 -0.59652828144E+03  0.17921488823E+04  0.16899561018E+04 0.  0.
        1    1    3    3  502    0  0.67649396409E+03  0.37672892073E+03  0.60449595990E+02  0.77667426688E+03  0.50400001928E-02 0. -1.
       -1    1    3    3    0  502 -0.67649396409E+03 -0.37672892073E+03 -0.65697787743E+03  0.10154746154E+04  0.50400001928E-02 0.  1.
</event>
<event>
 5   0  0.5859822E-05  0.1703609E+04  0.7818609E-02  0.8759309E-01
       -2   -1    0    0    0  501  0.00000000000E+00  0.00000000000E+00  0.50906600343E+03  0.50906600343E+03  0.25500000920E-02 0.  1.
        2   -1    0    0  501    0  0.00000000000E+00  0.00000000000E+00 -0.14252980323E+04  0.14252980323E+04  0.25500000920E-02 0. -1.
    10030    2    1    2    0    0  0.00000000000E+00  0.00000000000E+00 -0.91623202890E+03  0.19343640358E+04  0.17036088436E+04 0.  0.
        5    1    3    3  502    0  0.18710507945E+03 -0.69428035413E+03  0.60370115724E+02  0.72159556661E+03  0.46999998093E+01 0.  1.
       -5    1    3    3    0  502 -0.18710507945E+03  0.69428035413E+03 -0.97660214462E+03  0.12127684691E+04  0.46999998093E+01 0. -1.
</event>
<event>
 5   0  0.2966258E-05  0.1696842E+04  0.7818609E-02  0.8763167E-01
       -1   -1    0    0    0  501  0.00000000000E+00  0.00000000000E+00  0.49684792735E+03  0.49684792737E+03  0.50400001928E-02 0. -1.
        1   -1    0    0  501    0  0.00000000000E+00  0.00000000000E+00 -0.14487702435E+04  0.14487702435E+04  0.50400001928E-02 0.  1.
    10030    2    1    2    0    0  0.00000000000E+00  0.00000000000E+00 -0.95192231619E+03  0.19456181709E+04  0.16968423530E+04 0.  0.
        4    1    3    3  502    0 -0.74235281586E+03  0.75088655810E+02 -0.12907901044E+02  0.74625346650E+03  0.12699999809E+01 0. -1.
       -4    1    3    3    0  502  0.74235281586E+03 -0.75088655810E+02 -0.93901441515E+03  0.11993647044E+04  0.12699999809E+01 0.  1.
</event>
<event>
 5   0  0.5821584E-05  0.1696924E+04  0.7818609E-02  0.8763121E-01
       -2   -1    0    0    0  501  0.00000000000E+00  0.00000000000E+00  0.29273721517E+03  0.29273721518E+03  0.25500000920E-02 0.  1.
        2   -1    0    0  501    0  0.00000000000E+00  0.00000000000E+00 -0.24591591934E+04  0.24591591935E+04  0.25500000920E-02 0. -1.
    10030    2    1    2    0    0  0.00000000000E+00  0.00000000000E+00 -0.21664219783E+04  0.27518964086E+04  0.16969235858E+04 0.  0.
        1    1    3    3  502    0  0.94341934638E+02 -0.80661603771E+03 -0.14816260144E+04  0.16895992068E+04  0.50400001928E-02 0. -1.
       -1    1    3    3    0  502 -0.94341934638E+02  0.80661603771E+03 -0.68479596386E+03  0.10622972019E+04  0.50400001928E-02 0.  1.
</event>
<event>
 5   0  0.2911632E-05  0.1697657E+04  0.7818609E-02  0.8762702E-01
       -1   -1    0    0    0  501  0.00000000000E+00  0.00000000000E+00  0.12543611257E+04  0.12543611257E+04  0.50400001928E-02 0. -1.
        1   -1    0    0  501    0  0.00000000000E+00  0.00000000000E+00 -0.57440358796E+03  0.57440358798E+03  0.50400001928E-02 0.  1.
    10030    2    1    2    0    0  0.00000000000E+00  0.00000000000E+00  0.67995753772E+03  0.18287647137E+04  0.16976566570E+04 0.  0.
        1    1    3    3  502    0  0.50252853360E+03 -0.19036220761E+03 -0.36783258339E+03  0.65120926483E+03  0.50400001928E-02 0.  1.
       -1    1    3    3    0  502 -0.50252853360E+03  0.19036220761E+03  0.10477901211E+04  0.11775554488E+04  0.50400001928E-02 0. -1.
</event>
<event>
 5   0  0.5821584E-05  0.1700194E+04  0.7818609E-02  0.8761254E-01
        2   -1    0    0  501    0  0.00000000000E+00  0.00000000000E+00  0.12015978006E+04  0.12015978006E+04  0.25500000920E-02 0.  1.
       -2   -1    0    0    0  501  0.00000000000E+00  0.00000000000E+00 -0.60142020882E+03  0.60142020883E+03  0.25500000920E-02 0. -1.
    10030    2    1    2    0    0  0.00000000000E+00  0.00000000000E+00  0.60017759179E+03  0.18030180094E+04  0.17001943420E+04 0.  0.
        1    1    3    3  502    0  0.69611387200E+03  0.48263796847E+03  0.37620175430E+03  0.92684502014E+03  0.50400001928E-02 0. -1.
       -1    1    3    3    0  502 -0.69611387200E+03 -0.48263796847E+03  0.22397583749E+03  0.87617298931E+03  0.50400001928E-02 0.  1.
</event>
<event>
 5   0  0.2966258E-05  0.1701346E+04  0.7818609E-02  0.8760597E-01
       -1   -1    0    0    0  501  0.00000000000E+00  0.00000000000E+00  0.44464417967E+03  0.44464417969E+03  0.50400001928E-02 0.  1.
        1   -1    0    0  501    0  0.00000000000E+00  0.00000000000E+00 -0.16274695000E+04  0.16274695000E+04  0.50400001928E-02 0. -1.
    10030    2    1    2    0    0  0.00000000000E+00  0.00000000000E+00 -0.11828253203E+04  0.20721136797E+04  0.17013463384E+04 0.  0.
        4    1    3    3  502    0 -0.13595586019E+03 -0.69370074918E+03 -0.15064074138E+02  0.70705959053E+03  0.12699999809E+01 0.  1.
       -4    1    3    3    0  502  0.13595586019E+03  0.69370074918E+03 -0.11677612462E+04  0.13650540892E+04  0.12699999809E+01 0. -1.
</event>
<event>
 5   0  0.5652631E-05  0.1697187E+04  0.7818609E-02  0.8762970E-01
        2   -1    0    0  501    0  0.00000000000E+00  0.00000000000E+00  0.10075875574E+04  0.10075875574E+04  0.25500000920E-02 0. -1.
       -2   -1    0    0    0  501  0.00000000000E+00  0.00000000000E+00 -0.71468837609E+03  0.71468837609E+03  0.25500000920E-02 0.  1.
    10030    2    1    2    0    0  0.00000000000E+00  0.00000000000E+00  0.29289918128E+03  0.17222759335E+04  0.16971872203E+04 0.  0.
        2    1    3    3  502    0  0.67693824706E+03 -0.27348619341E+03  0.58536036811E+03  0.93578141084E+03  0.25500000920E-02 0. -1.
       -2    1    3    3    0  502 -0.67693824706E+03  0.27348619341E+03 -0.29246118683E+03  0.78649452263E+03  0.25500000920E-02 0.  1.
</event>
<event>
 5   0  0.5652631E-05  0.1700534E+04  0.7818609E-02  0.8761060E-01
       -2   -1    0    0    0  501  0.00000000000E+00  0.00000000000E+00  0.50868750082E+03  0.50868750083E+03  0.25500000920E-02 0. -1.
        2   -1    0    0  501    0  0.00000000000E+00  0.00000000000E+00 -0.14212135885E+04  0.14212135885E+04  0.25500000920E-02 0.  1.
    10030    2    1    2    0    0  0.00000000000E+00  0.00000000000E+00 -0.91252608767E+03  0.19299010893E+04  0.17005335498E+04 0.  0.
        2    1    3    3  502    0  0.55943019764E+03 -0.40698392917E+03 -0.10172605456E+04  0.12302101781E+04  0.25500000920E-02 0.  1.
       -2    1    3    3    0  502 -0.55943019764E+03  0.40698392917E+03  0.10473445789E+03  0.69969091127E+03  0.25500000920E-02 0. -1.
</event>
<event>
 5   0  0.2966258E-05  0.1699386E+04  0.7818609E-02  0.8761714E-01
        1   -1    0    0  501    0  0.00000000000E+00  0.00000000000E+00  0.13369676350E+04  0.13369676350E+04  0.50400001928E-02 0.  1.
       -1   -1    0    0    0  501  0.00000000000E+00  0.00000000000E+00 -0.54001188118E+03  0.54001188120E+03  0.50400001928E-02 0. -1.
    10030    2    1    2    0    0  0.00000000000E+00  0.00000000000E+00  0.79695575386E+03  0.18769795163E+04  0.16993862512E+04 0.  0.
        4    1    3    3  502    0  0.68667264913E+03  0.26664865617E+03  0.86624031189E+03  0.11370992585E+04  0.12699999809E+01 0.  1.
       -4    1    3    3    0  502 -0.68667264913E+03 -0.26664865617E+03 -0.69284558025E+02  0.73988025773E+03  0.12699999809E+01 0. -1.
</event>
<event>
 5   0  0.2987859E-05  0.1709576E+04  0.7818609E-02  0.8755922E-01
       -1   -1    0    0    0  501  0.00000000000E+00  0.00000000000E+00  0.59591473625E+03  0.59591473627E+03  0.50400001928E-02 0.  1.
        1   -1    0    0  501    0  0.00000000000E+00  0.00000000000E+00 -0.12261189200E+04  0.12261189200E+04  0.50400001928E-02 0. -1.
    10030    2    1    2    0    0  0.00000000000E+00  0.00000000000E+00 -0.63020418377E+03  0.18220336563E+04  0.17095757753E+04 0.  0.
        5    1    3    3  502    0  0.23515186782E+03 -0.24821514671E+03 -0.11500469737E+04  0.11998071893E+04  0.46999998093E+01 0. -1.
       -5    1    3    3    0  502 -0.23515186782E+03  0.24821514671E+03  0.51984278988E+03  0.62222646696E+03  0.46999998093E+01 0.  1.
</event>
<event>
 5   0  0.2967704E-05  0.1707375E+04  0.7818609E-02  0.8757169E-01
        1   -1    0    0  501    0  0.00000000000E+00  0.00000000000E+00  0.51684826454E+03  0.51684826456E+03  0.50400001928E-02 0. -1.
       -1   -1    0    0    0  501  0.00000000000E+00  0.00000000000E+00 -0.14100512422E+04  0.14100512422E+04  0.50400001928E-02 0.  1.
    10030    2    1    2    0    0  0.00000000000E+00  0.00000000000E+00 -0.89320297764E+03  0.19268995067E+04  0.17073752223E+04 0.  0.
        2    1    3    3  502    0  0.34178680866E+03  0.70901486473E+03 -0.73553129877E+02  0.79052537208E+03  0.25500000920E-02 0. -1.
       -2    1    3    3    0  502 -0.34178680866E+03 -0.70901486473E+03 -0.81964984777E+03  0.11363741347E+04  0.25500000920E-02 0.  1.
</event>
<event>
 5   0  0.5671132E-05  0.1684560E+04  0.7818609E-02  0.8770220E-01
        2   -1    0    0  501    0  0.00000000000E+00  0.00000000000E+00  0.19645355089E+04  0.19645355089E+04  0.25500000920E-02 0. -1.
       -2   -1    0    0    0  501  0.00000000000E+00  0.00000000000E+00 -0.36112113280E+03  0.36112113281E+03  0.25500000920E-02 0.  1.
    10030    2    1    2    0    0  0.00000000000E+00  0.00000000000E+00  0.16034143761E+04  0.23256566417E+04  0.16845596319E+04 0.  0.
        3    1    3    3  502    0  0.24416649833E+03  0.17202559090E+03  0.18889684360E+04  0.19124361023E+04  0.10100000352E+00 0. -1.
       -3    1    3    3    0  502 -0.24416649833E+03 -0.17202559090E+03 -0.28555405994E+03  0.41322053940E+03  0.10100000352E+00 0.  1.
</event>
<event>
 5   0  0.2967704E-05  0.1702290E+04  0.7818609E-02  0.8760060E-01
        1   -1    0    0  501    0  0.00000000000E+00  0.00000000000E+00  0.16212136534E+04  0.16212136534E+04  0.50400001928E-02 0. -1.
       -1   -1    0    0    0  501  0.00000000000E+00  0.00000000000E+00 -0.44685511023E+03  0.44685511026E+03  0.50400001928E-02 0.  1.
    10030    2    1    2    0    0  0.00000000000E+00  0.00000000000E+00  0.11743585431E+04  0.20680687636E+04  0.17022897589E+04 0.  0.
        2    1    3    3  502    0 -0.33791186496E+03  0.21089866163E+02  0.15358854936E+04  0.15727598228E+04  0.25500000920E-02 0. -1.
       -2    1    3    3    0  502  0.33791186496E+03 -0.21089866163E+02 -0.36152695044E+03  0.49530894080E+03  0.25500000920E-02 0.  1.
</event>
<event>
 5   0  0.2911632E-05  0.1701457E+04  0.7818609E-02  0.8760534E-01
       -1   -1    0    0    0  501  0.00000000000E+00  0.00000000000E+00  0.16173328706E+04  0.16173328706E+04  0.50400001928E-02 0. -1.
        1   -1    0    0  501    0  0.00000000000E+00  0.00000000000E+00 -0.44748913290E+03  0.44748913292E+03  0.50400001928E-02 0.  1.
    10030    2    1    2    0    0  0.00000000000E+00  0.00000000000E+00  0.11698437377E+04  0.20648220035E+04  0.17014568862E+04 0.  0.
        1    1    3    3  502    0 -0.28848640623E+03 -0.60278757532E+03  0.12238149918E+04  0.13943817274E+04  0.50400001928E-02 0. -1.
       -1    1    3    3    0  502  0.28848640623E+03  0.60278757532E+03 -0.53971254099E+02  0.67044027612E+03  0.50400001928E-02 0.  1.
</event>
<event>
 5   0  0.5821584E-05  0.1699900E+04  0.7818609E-02  0.8761422E-01
        2   -1    0    0  501    0  0.00000000000E+00  0.00000000000E+00  0.11083000820E+04  0.11083000820E+04  0.25500000920E-02 0. -1.
       -2   -1    0    0    0  501  0.00000000000E+00  0.00000000000E+00 -0.65182235208E+03  0.65182235208E+03  0.25500000920E-02 0.  1.
    10030    2    1    2    0    0  0.00000000000E+00  0.00000000000E+00  0.45647772988E+03  0.17601224340E+04  0.16998997220E+04 0.  0.
        1    1    3    3  502    0 -0.19994815792E+03 -0.79271488917E+03 -0.12458668311E+02  0.81763768248E+03  0.50400001928E-02 0.  1.
       -1    1    3    3    0  502  0.19994815792E+03  0.79271488917E+03  0.46893639819E+03  0.94248475157E+03  0.50400001928E-02 0. -1.
</event>
<event>
 5   0  0.2098250E-05  0.1699037E+04  0.7818609E-02  0.8761914E-01
       -3   -1    0    0    0  501  0.00000000000E+00  0.00000000000E+00  0.79333037665E+03  0.79333038308E+03  0.10100000352E+00 0. -1.
        3   -1    0    0  501    0  0.00000000000E+00  0.00000000000E+00 -0.90968579166E+03  0.90968579727E+03  0.10100000352E+00 0.  1.
    10030    2    1    2    0    0  0.00000000000E+00  0.00000000000E+00 -0.11635541501E+03  0.17030161803E+04  0.16990366470E+04 0.  0.
        2    1    3    3  502    0  0.43580485141E+03  0.65162107411E+03 -0.38627524732E+03  0.87392474472E+03  0.25500000920E-02 0. -1.
       -2    1    3    3    0  502 -0.43580485141E+03 -0.65162107411E+03  0.26991983230E+03  0.82909143562E+03  0.25500000920E-02 0.  1.
</event>
<event>
 5   0  0.2987859E-05  0.1699013E+04  0.7818609E-02  0.8761927E-01
       -1   -1    0    0    0  501  0.00000000000E+00  0.00000000000E+00  0.68305929772E+03  0.68305929774E+03  0.50400001928E-02 0.  1.
        1   -1    0    0  501    0  0.00000000000E+00  0.00000000000E+00 -0.10565139313E+04  0.10565139314E+04  0.50400001928E-02 0. -1.
    10030    2    1    2    0    0  0.00000000000E+00  0.00000000000E+00 -0.37345463363E+03  0.17395732291E+04  0.16990134361E+04 0.  0.
        5    1    3    3  502    0 -0.63359398070E+03  0.55645225274E+03 -0.29193804167E+03  0.89237343760E+03  0.46999998093E+01 0.  1.
       -5    1    3    3    0  502  0.63359398070E+03 -0.55645225274E+03 -0.81516591961E+02  0.84719979150E+03  0.46999998093E+01 0. -1.
</event>
<event>
 5   0  0.5652631E-05  0.1701496E+04  0.7818609E-02  0.8760512E-01
        2   -1    0    0  501    0  0.00000000000E+00  0.00000000000E+00  0.90833105064E+03  0.90833105064E+03  0.25500000920E-02 0. -1.
       -2   -1    0    0    0  501  0.00000000000E+00  0.00000000000E+00 -0.79681514551E+03  0.79681514552E+03  0.25500000920E-02 0.  1.
    10030    2    1    2    0    0  0.00000000000E+00  0.00000000000E+00  0.11151590513E+03  0.17051461962E+04  0.17014957400E+04 0.  0.
        2    1    3    3  502    0 -0.78548056121E+01 -0.81650853497E+03 -0.18355146726E+03  0.83692235410E+03  0.25500000920E-02 0. -1.
       -2    1    3    3    0  502  0.78548056121E+01  0.81650853497E+03  0.29506737239E+03  0.86822384206E+03  0.25500000920E-02 0.  1.
</event>
<event>
 5   0  0.5652631E-05  0.1700200E+04  0.7818609E-02  0.8761250E-01
        2   -1    0    0  501    0  0.00000000000E+00  0.00000000000E+00  0.11850354026E+04  0.11850354026E+04  0.25500000920E-02 0.  1.
       -2   -1    0    0    0  501  0.00000000000E+00  0.00000000000E+00 -0.60982969706E+03  0.60982969707E+03  0.25500000920E-02 0. -1.
    10030    2    1    2    0    0  0.00000000000E+00  0.00000000000E+00  0.57520570550E+03  0.17948650996E+04  0.17001997301E+04 0.  0.
        2    1    3    3  502    0 -0.78164844234E+03 -0.23662471774E+03  0.53676150985E+03  0.97728115859E+03  0.25500000920E-02 0.  1.
       -2    1    3    3    0  502  0.78164844234E+03  0.23662471774E+03  0.38444195645E+02  0.81758394104E+03  0.25500000920E-02 0. -1.
</event>
<event>
 5   0  0.2993769E-05  0.1698398E+04  0.7818609E-02  0.8762278E-01
        1   -1    0    0  501    0  0.00000000000E+00  0.00000000000E+00  0.22856215213E+04  0.22856215213E+04  0.50400001928E-02 0. -1.
       -1   -1    0    0    0  501  0.00000000000E+00  0.00000000000E+00 -0.31551121057E+03  0.31551121061E+03  0.50400001928E-02 0.  1.
    10030    2    1    2    0    0  0.00000000000E+00  0.00000000000E+00  0.19701103107E+04  0.26011327319E+04  0.16983983198E+04 0.  0.
        3    1    3    3  502    0  0.62627653413E+03  0.37868496028E+03  0.16447028022E+04  0.18001866331E+04  0.10100000352E+00 0. -1.
       -3    1    3    3    0  502 -0.62627653413E+03 -0.37868496028E+03  0.32540750855E+03  0.80094609879E+03  0.10100000352E+00 0.  1.
</event>
<event>
 5   0  0.5859822E-05  0.1701346E+04  0.7818609E-02  0.8760597E-01
       -2   -1    0    0    0  501  0.00000000000E+00  0.00000000000E+00  0.35486532398E+03  0.35486532399E+03  0.25500000920E-02 0.  1.
        2   -1    0    0  501    0  0.00000000000E+00  0.00000000000E+00 -0.20392090934E+04  0.20392090934E+04  0.25500000920E-02 0. -1.
    10030    2    1    2    0    0  0.00000000000E+00  0.00000000000E+00 -0.16843437694E+04  0.23940744174E+04  0.17013460502E+04 0.  0.
        5    1    3    3  502    0  0.38706077064E+03  0.58086153497E+03 -0.15263584637E+04  0.16783945939E+04  0.46999998093E+01 0. -1.
       -5    1    3    3    0  502 -0.38706077064E+03 -0.58086153497E+03 -0.15798530572E+03  0.71567982352E+03  0.46999998093E+01 0.  1.
</event>
<event>
 5   0  0.2966258E-05  0.1701262E+04  0.7818609E-02  0.8760645E-01
        1   -1    0    0  501    0  0.00000000000E+00  0.00000000000E+00  0.13258257810E+04  0.13258257810E+04  0.50400001928E-02 0.  1.
       -1   -1    0    0    0  501  0.00000000000E+00  0.00000000000E+00 -0.54575309428E+03  0.54575309430E+03  0.50400001928E-02 0. -1.
    10030    2    1    2    0    0  0.00000000000E+00  0.00000000000E+00  0.78007268668E+03  0.18715788753E+04  0.17012624988E+04 0.  0.
        4    1    3    3  502    0 -0.67611951869E+03 -0.17892075131E+03 -0.14260599472E+03  0.71378450630E+03  0.12699999809E+01 0. -1.
       -4    1    3    3    0  502  0.67611951869E+03  0.17892075131E+03  0.92267868140E+03  0.11577943690E+04  0.12699999809E+01 0.  1.
</event>
<event>
 5   0  0.5652631E-05  0.1700754E+04  0.7818609E-02  0.8760934E-01
       -2   -1    0    0    0  501  0.00000000000E+00  0.00000000000E+00  0.85251287547E+03  0.85251287547E+03  0.25500000920E-02 0. -1.
        2   -1    0    0  501    0  0.00000000000E+00  0.00000000000E+00 -0.84824652402E+03  0.84824652402E+03  0.25500000920E-02 0.  1.
    10030    2    1    2    0    0  0.00000000000E+00  0.00000000000E+00  0.42663514501E+01  0.17007593995E+04  0.17007540484E+04 0.  0.
        2    1    3    3  502    0  0.56752934276E+03 -0.37533821143E+03  0.51220610444E+03  0.85165921664E+03  0.25500000920E-02 0. -1.
       -2    1    3    3    0  502 -0.56752934276E+03  0.37533821143E+03 -0.50793975299E+03  0.84910018286E+03  0.25500000920E-02 0.  1.
</event>
<event>
 5   0  0.2987859E-05  0.1700598E+04  0.7818609E-02  0.8761023E-01
       -1   -1    0    0    0  501  0.00000000000E+00  0.00000000000E+00  0.38054068042E+03  0.38054068045E+03  0.50400001928E-02 0.  1.
        1   -1    0    0  501    0  0.00000000000E+00  0.00000000000E+00 -0.18999513805E+04  0.18999513805E+04  0.50400001928E-02 0. -1.
    10030    2    1    2    0    0  0.00000000000E+00  0.00000000000E+00 -0.15194107001E+04  0.22804920610E+04  0.17005984725E+04 0.  0.
        5    1    3    3  502    0  0.15206661547E+02 -0.60412679130E+03  0.42413311666E+02  0.60582291268E+03  0.46999998093E+01 0.  1.
       -5    1    3    3    0  502 -0.15206661547E+02  0.60412679130E+03 -0.15618240118E+04  0.16746691483E+04  0.46999998093E+01 0. -1.
</event>
<event>
 5   0  0.2098250E-05  0.1699910E+04  0.7818609E-02  0.8761415E-01
        3   -1    0    0  501    0  0.00000000000E+00  0.00000000000E+00  0.41872512085E+03  0.41872513303E+03  0.10100000352E+00 0. -1.
       -3   -1    0    0    0  501  0.00000000000E+00  0.00000000000E+00 -0.17252937697E+04  0.17252937727E+04  0.10100000352E+00 0.  1.
    10030    2    1    2    0    0  0.00000000000E+00  0.00000000000E+00 -0.13065686488E+04  0.21440189057E+04  0.16999104193E+04 0.  0.
        2    1    3    3  502    0 -0.34726313181E+03  0.56149481780E+03 -0.13284449935E+04  0.14834534755E+04  0.25500000920E-02 0.  1.
       -2    1    3    3    0  502  0.34726313181E+03 -0.56149481780E+03  0.21876344655E+02  0.66056543022E+03  0.25500000920E-02 0. -1.
</event>
<event>
 5   0  0.2967704E-05  0.1703893E+04  0.7818609E-02  0.8759147E-01
       -1   -1    0    0    0  501  0.00000000000E+00  0.00000000000E+00  0.88061032173E+03  0.88061032174E+03  0.50400001928E-02 0.  1.
        1   -1    0    0  501    0  0.00000000000E+00  0.00000000000E+00 -0.82421553894E+03  0.82421553896E+03  0.50400001928E-02 0. -1.
    10030    2    1    2    0    0  0.00000000000E+00  0.00000000000E+00  0.56394782783E+02  0.17048258607E+04  0.17038928499E+04 0.  0.
        2    1    3    3  502    0 -0.25471332754E+03 -0.45403752974E+03 -0.64654844743E+03  0.83009267707E+03  0.25500000920E-02 0. -1.
       -2    1    3    3    0  502  0.25471332754E+03  0.45403752974E+03  0.70294323022E+03  0.87473318363E+03  0.25500000920E-02 0.  1.
</event>
<event>
 5   0  0.2987859E-05  0.1702428E+04  0.7818609E-02  0.8759981E-01
       -1   -1    0    0    0  501  0.00000000000E+00  0.00000000000E+00  0.45645582890E+03  0.45645582893E+03  0.50400001928E-02 0. -1.
        1   -1    0    0  501    0  0.00000000000E+00  0.00000000000E+00 -0.15873712504E+04  0.15873712504E+04  0.50400001928E-02 0.  1.
    10030    2    1    2    0    0  0.00000000000E+00  0.00000000000E+00 -0.11309154215E+04  0.20438270794E+04  0.17024275138E+04 0.  0.
        5    1    3    3  502    0 -0.71718315421E+03  0.15815894487E+03 -0.48840517713E+02  0.73605258963E+03  0.46999998093E+01 0. -1.
       -5    1    3    3    0  502  0.71718315421E+03 -0.15815894487E+03 -0.10820749038E+04  0.13077744897E+04  0.46999998093E+01 0.  1.
</event>
<event>
 5   0  0.5652631E-05  0.1700785E+04  0.7818609E-02  0.8760917E-01
       -2   -1    0    0    0  501  0.00000000000E+00  0.00000000000E+00  0.53171561203E+03  0.53171561204E+03  0.25500000920E-02 0. -1.
        2   -1    0    0  501    0  0.00000000000E+00  0.00000000000E+00 -0.13600640227E+04  0.13600640227E+04  0.25500000920E-02 0.  1.
    10030    2    1    2    0    0  0.00000000000E+00  0.00000000000E+00 -0.82834841070E+03  0.18917796348E+04  0.17007848474E+04 0.  0.
        2    1    3    3  502    0 -0.77197998420E+02  0.52848491437E+03 -0.11502360618E+04  0.12681872233E+04  0.25500000920E-02 0. -1.
       -2    1    3    3    0  502  0.77197998420E+02 -0.52848491437E+03  0.32188765106E+03  0.62359241143E+03  0.25500000920E-02 0.  1.
</event>
<event>
 5   0  0.5652631E-05  0.1700211E+04  0.7818609E-02  0.8761244E-01
        2   -1    0    0  501    0  0.00000000000E+00  0.00000000000E+00  0.74300534304E+03  0.74300534304E+03  0.25500000920E-02 0.  1.
       -2   -1    0    0    0  501  0.00000000000E+00  0.00000000000E+00 -0.97264314280E+03  0.97264314280E+03  0.25500000920E-02 0. -1.
    10030    2    1    2    0    0  0.00000000000E+00  0.00000000000E+00 -0.22963779976E+03  0.17156484858E+04  0.17002106363E+04 0.  0.
        2    1    3    3  502    0  0.79084799111E+03 -0.30928149481E+03 -0.74664821181E+02  0.85244966045E+03  0.25500000920E-02 0. -1.
       -2    1    3    3    0  502 -0.79084799111E+03  0.30928149481E+03 -0.15497297858E+03  0.86319882540E+03  0.25500000920E-02 0.  1.
</event>
<event>
 5   0  0.2966258E-05  0.1699793E+04  0.7818609E-02  0.8761482E-01
        1   -1    0    0  501    0  0.00000000000E+00  0.00000000000E+00  0.16766322328E+04  0.16766322328E+04  0.50400001928E-02 0.  1.
       -1   -1    0    0    0  501  0.00000000000E+00  0.00000000000E+00 -0.43081858247E+03  0.43081858250E+03  0.50400001928E-02 0. -1.
    10030    2    1    2    0    0  0.00000000000E+00  0.00000000000E+00  0.12458136503E+04  0.21074508153E+04  0.16997933073E+04 0.  0.
        4    1    3    3  502    0  0.10987792572E+03 -0.67008036971E+03  0.12566053655E+04  0.14283345259E+04  0.12699999809E+01 0.  1.
       -4    1    3    3    0  502 -0.10987792572E+03  0.67008036971E+03 -0.10791715219E+02  0.67911628934E+03  0.12699999809E+01 0. -1.
</event>
<event>
 5   0  0.5755321E-05  0.1705707E+04  0.7818609E-02  0.8758116E-01
        2   -1    0    0  501    0  0.00000000000E+00  0.00000000000E+00  0.15126273627E+04  0.15126273627E+04  0.25500000920E-02 0.  1.
       -2   -1    0    0    0  501  0.00000000000E+00  0.00000000000E+00 -0.48085796683E+03  0.48085796684E+03  0.25500000920E-02 0. -1.
    10030    2    1    2    0    0  0.00000000000E+00  0.00000000000E+00  0.10317693959E+04  0.19934853295E+04  0.17057067957E+04 0.  0.
        4    1    3    3  502    0 -0.81182702572E+03  0.24430838125E+03  0.40745463376E+03  0.94062245152E+03  0.12699999809E+01 0. -1.
       -4    1    3    3    0  502  0.81182702572E+03 -0.24430838125E+03  0.62431476211E+03  0.10528628780E+04  0.12699999809E+01 0.  1.
</event>
<event>
 5   0  0.2098250E-05  0.1701970E+04  0.7818609E-02  0.8760241E-01
        3   -1    0    0  501    0  0.00000000000E+00  0.00000000000E+00  0.59505456669E+03  0.59505457526E+03  0.10100000352E+00 0. -1.
       -3   -1    0    0    0  501  0.00000000000E+00  0.00000000000E+00 -0.12169905070E+04  0.12169905112E+04  0.10100000352E+00 0.  1.
    10030    2    1    2    0    0  0.00000000000E+00  0.00000000000E+00 -0.62193594031E+03  0.18120450864E+04  0.17019703527E+04 0.  0.
        1    1    3    3  502    0  0.36576632207E+03 -0.26057732723E+03  0.45861614238E+03  0.64188340990E+03  0.50400001928E-02 0. -1.
       -1    1    3    3    0  502 -0.36576632207E+03  0.26057732723E+03 -0.10805520827E+04  0.11701616765E+04  0.50400001928E-02 0.  1.
</event>
<event>
 5   0  0.2098250E-05  0.1710214E+04  0.7818609E-02  0.8755560E-01
       -3   -1    0    0    0  501  0.00000000000E+00  0.00000000000E+00  0.54814500532E+03  0.54814501463E+03  0.10100000352E+00 0. -1.
        3   -1    0    0  501    0  0.00000000000E+00  0.00000000000E+00 -0.13339688702E+04  0.13339688740E+04  0.10100000352E+00 0.  1.
    10030    2    1    2    0    0  0.00000000000E+00  0.00000000000E+00 -0.78582386490E+03  0.18821138887E+04  0.17102144729E+04 0.  0.
        2    1    3    3  502    0  0.58492021739E+03 -0.10435766811E+03  0.28386907425E+03  0.65848601726E+03  0.25500000920E-02 0. -1.
       -2    1    3    3    0  502 -0.58492021739E+03  0.10435766811E+03 -0.10696929391E+04  0.12236278714E+04  0.25500000920E-02 0.  1.
</event>
<event>
 5   0  0.2993769E-05  0.1699331E+04  0.7818609E-02  0.8761746E-01
        1   -1    0    0  501    0  0.00000000000E+00  0.00000000000E+00  0.13937366424E+04  0.13937366424E+04  0.50400001928E-02 0. -1.
       -1   -1    0    0    0  501  0.00000000000E+00  0.00000000000E+00 -0.51798246256E+03  0.51798246259E+03  0.50400001928E-02 0.  1.
    10030    2    1    2    0    0  0.00000000000E+00  0.00000000000E+00  0.87575417983E+03  0.19117191050E+04  0.16993306191E+04 0.  0.
        3    1    3    3  502    0 -0.32179597493E+03 -0.30855744927E+03 -0.37582969478E+03  0.58310232263E+03  0.10100000352E+00 0.  1.
       -3    1    3    3    0  502  0.32179597493E+03  0.30855744927E+03  0.12515838746E+04  0.13286167824E+04  0.10100000352E+00 0. -1.
</event>
<event>
 5   0  0.5652631E-05  0.1697626E+04  0.7818609E-02  0.8762720E-01
        2   -1    0    0  501    0  0.00000000000E+00  0.00000000000E+00  0.15652188349E+04  0.15652188349E+04  0.25500000920E-02 0. -1.
       -2   -1    0    0    0  501  0.00000000000E+00  0.00000000000E+00 -0.46030835558E+03  0.46030835559E+03  0.25500000920E-02 0.  1.
    10030    2    1    2    0    0  0.00000000000E+00  0.00000000000E+00  0.11049104794E+04  0.20255271905E+04  0.16976257633E+04 0.  0.
        2    1    3    3  502    0  0.40046143329E+03 -0.19203827555E+03  0.14155224494E+04  0.14835605359E+04  0.25500000920E-02 0. -1.
       -2    1    3    3    0  502 -0.40046143329E+03  0.19203827555E+03 -0.31061197004E+03  0.54196665466E+03  0.25500000920E-02 0.  1.
</event>
<event>
 5   0  0.2911632E-05  0.1700675E+04  0.7818609E-02  0.8760980E-01
        1   -1    0    0  501    0  0.00000000000E+00  0.00000000000E+00  0.75435986626E+03  0.75435986628E+03  0.50400001928E-02 0.  1.
       -1   -1    0    0    0  501  0.00000000000E+00  0.00000000000E+00 -0.95852593323E+03  0.95852593324E+03  0.50400001928E-02 0. -1.
    10030    2    1    2    0    0  0.00000000000E+00  0.00000000000E+00 -0.20416606697E+03  0.17128857995E+04  0.17006745660E+04 0.  0.
        1    1    3    3  502    0  0.69411921196E+03  0.39145620929E+03 -0.40091877201E+03  0.89206238906E+03  0.50400001928E-02 0. -1.
       -1    1    3    3    0  502 -0.69411921196E+03 -0.39145620929E+03  0.19675270504E+03  0.82082341046E+03  0.50400001928E-02 0.  1.
</event>
<event>
 5   0  0.5652631E-05  0.1702728E+04  0.7818609E-02  0.8759810E-01
       -2   -1    0    0    0  501  0.00000000000E+00  0.00000000000E+00  0.31267344217E+03  0.31267344218E+03  0.25500000920E-02 0.  1.
        2   -1    0    0  501    0  0.00000000000E+00  0.00000000000E+00 -0.23181406006E+04  0.23181406006E+04  0.25500000920E-02 0. -1.
    10030    2    1    2    0    0  0.00000000000E+00  0.00000000000E+00 -0.20054671584E+04  0.26308140428E+04  0.17027284000E+04 0.  0.
        2    1    3    3  502    0 -0.82897870315E+03 -0.81302608722E+02 -0.73067525657E+03  0.11080172088E+04  0.25500000920E-02 0. -1.
       -2    1    3    3    0  502  0.82897870315E+03  0.81302608722E+02 -0.12747919018E+04  0.15227968340E+04  0.25500000920E-02 0.  1.
</event>
<event>
 5   0  0.5652631E-05  0.1698407E+04  0.7818609E-02  0.8762273E-01
        2   -1    0    0  501    0  0.00000000000E+00  0.00000000000E+00  0.10306237614E+04  0.10306237614E+04  0.25500000920E-02 0.  1.
       -2   -1    0    0    0  501  0.00000000000E+00  0.00000000000E+00 -0.69971864885E+03  0.69971864886E+03  0.25500000920E-02 0. -1.
    10030    2    1    2    0    0  0.00000000000E+00  0.00000000000E+00  0.33090511257E+03  0.17303424103E+04  0.16984070959E+04 0.  0.
        2    1    3    3  502    0  0.26678069438E+03 -0.33198811559E+03 -0.58304441843E+03  0.72203105311E+03  0.25500000920E-02 0. -1.
       -2    1    3    3    0  502 -0.26678069438E+03  0.33198811559E+03  0.91394953100E+03  0.10083113572E+04  0.25500000920E-02 0.  1.
</event>
<event>
 5   0  0.2993769E-05  0.1700528E+04  0.7818609E-02  0.8761063E-01
        1   -1    0    0  501    0  0.00000000000E+00  0.00000000000E+00  0.13785563038E+04  0.13785563038E+04  0.50400001928E-02 0.  1.
       -1   -1    0    0    0  501  0.00000000000E+00  0.00000000000E+00 -0.52442465296E+03  0.52442465299E+03  0.50400001928E-02 0. -1.
    10030    2    1    2    0    0  0.00000000000E+00  0.00000000000E+00  0.85413165081E+03  0.19029809568E+04  0.17005280488E+04 0.  0.
        3    1    3    3  502    0  0.72749539257E+03 -0.41671532676E+03  0.26861926157E+03  0.88037351599E+03  0.10100000352E+00 0. -1.
       -3    1    3    3    0  502 -0.72749539257E+03  0.41671532676E+03  0.58551238924E+03  0.10226074408E+04  0.10100000352E+00 0.  1.
</event>
<event>
 5   0  0.2911632E-05  0.1700142E+04  0.7818609E-02  0.8761283E-01
        1   -1    0    0  501    0  0.00000000000E+00  0.00000000000E+00  0.10431578008E+04  0.10431578008E+04  0.50400001928E-02 0.  1.
       -1   -1    0    0    0  501  0.00000000000E+00  0.00000000000E+00 -0.69272430317E+03  0.69272430319E+03  0.50400001928E-02 0. -1.
    10030    2    1    2    0    0  0.00000000000E+00  0.00000000000E+00  0.35043349761E+03  0.17358821040E+04  0.17001420654E+04 0.  0.
        1    1    3    3  502    0  0.32926652579E+03  0.52314416616E+03  0.77102867618E+03  0.98822137353E+03  0.50400001928E-02 0.  1.
       -1    1    3    3    0  502 -0.32926652579E+03 -0.52314416616E+03 -0.42059517857E+03  0.74766073045E+03  0.50400001928E-02 0. -1.
</event>
<event>
 5   0  0.2993769E-05  0.1703479E+04  0.7818609E-02  0.8759383E-01
        1   -1    0    0  501    0  0.00000000000E+00  0.00000000000E+00  0.21766951716E+03  0.21766951722E+03  0.50400001928E-02 0. -1.
       -1   -1    0    0    0  501  0.00000000000E+00  0.00000000000E+00 -0.33328506045E+04  0.33328506045E+04  0.50400001928E-02 0.  1.
    10030    2    1    2    0    0  0.00000000000E+00  0.00000000000E+00 -0.31151810873E+04  0.35505201217E+04  0.17034787724E+04 0.  0.
        3    1    3    3  502    0 -0.37168172854E+02 -0.84125262357E+03 -0.12908966672E+04  0.15412662539E+04  0.10100000352E+00 0. -1.
       -3    1    3    3    0  502  0.37168172854E+02  0.84125262357E+03 -0.18242844201E+04  0.20092538678E+04  0.10100000352E+00 0.  1.
</event>
<event>
 5   0  0.2098250E-05  0.1703772E+04  0.7818609E-02  0.8759216E-01
        3   -1    0    0  501    0  0.00000000000E+00  0.00000000000E+00  0.10239405120E+04  0.10239405169E+04  0.10100000352E+00 0. -1.
       -3   -1    0    0    0  501  0.00000000000E+00  0.00000000000E+00 -0.70874177568E+03  0.70874178287E+03  0.10100000352E+00 0.  1.
    10030    2    1    2    0    0  0.00000000000E+00  0.00000000000E+00  0.31519873628E+03  0.17326822998E+04  0.17037716128E+04 0.  0.
        4    1    3    3  502    0 -0.74474108474E+03  0.73040945718E+02 -0.25641248867E+03  0.79102670012E+03  0.12699999809E+01 0. -1.
       -4    1    3    3    0  502  0.74474108474E+03 -0.73040945718E+02  0.57161122495E+03  0.94165559970E+03  0.12699999809E+01 0.  1.
</event>
<event>
 5   0  0.2966258E-05  0.1700628E+04  0.7818609E-02  0.8761006E-01
        1   -1    0    0  501    0  0.00000000000E+00  0.00000000000E+00  0.74106639004E+03  0.74106639006E+03  0.50400001928E-02 0. -1.
       -1   -1    0    0    0  501  0.00000000000E+00  0.00000000000E+00 -0.97566639228E+03  0.97566639229E+03  0.50400001928E-02 0.  1.
    10030    2    1    2    0    0  0.00000000000E+00  0.00000000000E+00 -0.23460000224E+03  0.17167327824E+04  0.17006276150E+04 0.  0.
        4    1    3    3  502    0  0.45690673956E+03  0.36867503175E+03  0.50362417474E+03  0.77351403993E+03  0.12699999809E+01 0. -1.
       -4    1    3    3    0  502 -0.45690673956E+03 -0.36867503175E+03 -0.73822417697E+03  0.94321874242E+03  0.12699999809E+01 0.  1.
</event>
<event>
 5   0  0.2966258E-05  0.1702526E+04  0.7818609E-02  0.8759925E-01
        1   -1    0    0  501    0  0.00000000000E+00  0.00000000000E+00  0.20233277368E+04  0.20233277368E+04  0.50400001928E-02 0.  1.
       -1   -1    0    0    0  501  0.00000000000E+00  0.00000000000E+00 -0.35814698758E+03  0.35814698762E+03  0.50400001928E-02 0. -1.
    10030    2    1    2    0    0  0.00000000000E+00  0.00000000000E+00  0.16651807492E+04  0.23814747244E+04  0.17025260455E+04 0.  0.
        4    1    3    3  502    0 -0.39244525919E+03 -0.74146682212E+03  0.10346211822E+04  0.13320018519E+04  0.12699999809E+01 0.  1.
       -4    1    3    3    0  502  0.39244525919E+03  0.74146682212E+03  0.63055956694E+03  0.10494728725E+04  0.12699999809E+01 0. -1.
</event>
<event>
 5   0  0.5821584E-05  0.1690055E+04  0.7818609E-02  0.8767057E-01
        2   -1    0    0  501    0  0.00000000000E+00  0.00000000000E+00  0.85115360986E+03  0.85115360986E+03  0.25500000920E-02 0. -1.
       -2   -1    0    0    0  501  0.00000000000E+00  0.00000000000E+00 -0.83894510421E+03  0.83894510421E+03  0.25500000920E-02 0.  1.
    10030    2    1    2    0    0  0.00000000000E+00  0.00000000000E+00  0.12208505645E+02  0.16900987141E+04  0.16900546191E+04 0.  0.
        1    1    3    3  502    0  0.29209441414E+03 -0.59210235567E+03  0.53353322713E+03  0.84885926444E+03  0.50400001928E-02 0. -1.
       -1    1    3    3    0  502 -0.29209441414E+03  0.59210235567E+03 -0.52132472149E+03  0.84123944963E+03  0.50400001928E-02 0.  1.
</event>
<event>
 5   0  0.5671132E-05  0.1703957E+04  0.7818609E-02  0.8759111E-01
        2   -1    0    0  501    0  0.00000000000E+00  0.00000000000E+00  0.16444975807E+04  0.16444975807E+04  0.25500000920E-02 0. -1.
       -2   -1    0    0    0  501  0.00000000000E+00  0.00000000000E+00 -0.44139158591E+03  0.44139158592E+03  0.25500000920E-02 0.  1.
    10030    2    1    2    0    0  0.00000000000E+00  0.00000000000E+00  0.12031059948E+04  0.20858891666E+04  0.17039570360E+04 0.  0.
        3    1    3    3  502    0 -0.59247844145E+03  0.11038623777E+03 -0.13563348539E+03  0.61774774596E+03  0.10100000352E+00 0.  1.
       -3    1    3    3    0  502  0.59247844145E+03 -0.11038623777E+03  0.13387394802E+04  0.14681414206E+04  0.10100000352E+00 0. -1.
</event>
<event>
 5   0  0.2098250E-05  0.1701780E+04  0.7818609E-02  0.8760350E-01
        3   -1    0    0  501    0  0.00000000000E+00  0.00000000000E+00  0.10599129428E+04  0.10599129476E+04  0.10100000352E+00 0.  1.
       -3   -1    0    0    0  501  0.00000000000E+00  0.00000000000E+00 -0.68308812506E+03  0.68308813253E+03  0.10100000352E+00 0. -1.
    10030    2    1    2    0    0  0.00000000000E+00  0.00000000000E+00  0.37682481775E+03  0.17430010802E+04  0.17017801921E+04 0.  0.
        2    1    3    3  502    0  0.64552038054E+03 -0.18993173782E+03  0.72183784955E+03  0.98682344306E+03  0.25500000920E-02 0.  1.
       -2    1    3    3    0  502 -0.64552038054E+03  0.18993173782E+03 -0.34501303180E+03  0.75617763709E+03  0.25500000920E-02 0. -1.
</event>
<event>
 5   0  0.5652631E-05  0.1698831E+04  0.7818609E-02  0.8762031E-01
       -2   -1    0    0    0  501  0.00000000000E+00  0.00000000000E+00  0.13247470263E+04  0.13247470263E+04  0.25500000920E-02 0. -1.
        2   -1    0    0  501    0  0.00000000000E+00  0.00000000000E+00 -0.54463758577E+03  0.54463758578E+03  0.25500000920E-02 0.  1.
    10030    2    1    2    0    0  0.00000000000E+00  0.00000000000E+00  0.78010944050E+03  0.18693846121E+04  0.16988313891E+04 0.  0.
        2    1    3    3  502    0 -0.23399576240E+03 -0.30079924951E+03  0.12253931348E+04  0.12832858373E+04  0.25500000920E-02 0. -1.
       -2    1    3    3    0  502  0.23399576240E+03  0.30079924951E+03 -0.44528369433E+03  0.58609877475E+03  0.25500000920E-02 0.  1.
</event>
<event>
 5   0  0.5755321E-05  0.1699895E+04  0.7818609E-02  0.8761424E-01
       -2   -1    0    0    0  501  0.00000000000E+00  0.00000000000E+00  0.11670081603E+04  0.11670081603E+04  0.25500000920E-02 0.  1.
        2   -1    0    0  501    0  0.00000000000E+00  0.00000000000E+00 -0.61902820892E+03  0.61902820892E+03  0.25500000920E-02 0. -1.
    10030    2    1    2    0    0  0.00000000000E+00  0.00000000000E+00  0.54797995140E+03  0.17860363692E+04  0.16998952571E+04 0.  0.
        4    1    3    3  502    0  0.11107455318E+03 -0.27688582916E+03 -0.56220823926E+03  0.63646133892E+03  0.12699999809E+01 0. -1.
       -4    1    3    3    0  502 -0.11107455318E+03  0.27688582916E+03  0.11101881907E+04  0.11495750303E+04  0.12699999809E+01 0.  1.
</event>
<event>
 5   0  0.2966258E-05  0.1700629E+04  0.7818609E-02  0.8761006E-01
       -1   -1    0    0    0  501  0.00000000000E+00  0.00000000000E+00  0.47479227853E+03  0.47479227855E+03  0.50400001928E-02 0. -1.
        1   -1    0    0  501    0  0.00000000000E+00  0.00000000000E+00 -0.15228439349E+04  0.15228439349E+04  0.50400001928E-02 0.  1.
    10030    2    1    2    0    0  0.00000000000E+00  0.00000000000E+00 -0.10480516564E+04  0.19976362135E+04  0.17006287564E+04 0.  0.
        4    1    3    3  502    0 -0.32997212980E+03 -0.91442210961E+02  0.39023014519E+03  0.51915745541E+03  0.12699999809E+01 0. -1.
       -4    1    3    3    0  502  0.32997212980E+03  0.91442210961E+02 -0.14382818016E+04  0.14784787581E+04  0.12699999809E+01 0.  1.
</event>
<event>
 5   0  0.5859822E-05  0.1702075E+04  0.7818609E-02  0.8760182E-01
       -2   -1    0    0    0  501  0.00000000000E+00  0.00000000000E+00  0.48379003761E+03  0.48379003762E+03  0.25500000920E-02 0.  1.
        2   -1    0    0  501    0  0.00000000000E+00  0.00000000000E+00 -0.14970651474E+04  0.14970651474E+04  0.25500000920E-02 0. -1.
    10030    2    1    2    0    0  0.00000000000E+00  0.00000000000E+00 -0.10132751098E+04  0.19808551850E+04  0.17020754436E+04 0.  0.
        5    1    3    3  502    0 -0.25839563066E+01  0.53594361853E+03  0.26269670668E+03  0.59688683079E+03  0.46999998093E+01 0.  1.
       -5    1    3    3    0  502  0.25839563066E+01 -0.53594361853E+03 -0.12759718164E+04  0.13839683542E+04  0.46999998093E+01 0. -1.
</event>
<event>
 5   0  0.5671132E-05  0.1702251E+04  0.7818609E-02  0.8760082E-01
       -2   -1    0    0    0  501  0.00000000000E+00  0.00000000000E+00  0.92939276111E+03  0.92939276111E+03  0.25500000920E-02 0. -1.
        2   -1    0    0  501    0  0.00000000000E+00  0.00000000000E+00 -0.77944938201E+03  0.77944938201E+03  0.25500000920E-02 0.  1.
    10030    2    1    2    0    0  0.00000000000E+00  0.00000000000E+00  0.14994337910E+03  0.17088421431E+04  0.17022509959E+04 0.  0.
        3    1    3    3  502    0  0.39148638646E+03 -0.25958346262E+03 -0.63754371385E+03  0.79190098000E+03  0.10100000352E+00 0.  1.
       -3    1    3    3    0  502 -0.39148638646E+03  0.25958346262E+03  0.78748709296E+03  0.91694116312E+03  0.10100000352E+00 0. -1.
</event>
<event>
 5   0  0.2966258E-05  0.1729343E+04  0.7818609E-02  0.8744804E-01
       -1   -1    0    0    0  501  0.00000000000E+00  0.00000000000E+00  0.77548419391E+03  0.77548419393E+03  0.50400001928E-02 0.  1.
        1   -1    0    0  501    0  0.00000000000E+00  0.00000000000E+00 -0.96411623988E+03  0.96411623989E+03  0.50400001928E-02 0. -1.
    10030    2    1    2    0    0  0.00000000000E+00  0.00000000000E+00 -0.18863204596E+03  0.17396004338E+04  0.17293431182E+04 0.  0.
        4    1    3    3  502    0  0.56406008190E+03  0.23140152713E+02 -0.75314810003E+03  0.94124009484E+03  0.12699999809E+01 0.  1.
       -4    1    3    3    0  502 -0.56406008190E+03 -0.23140152713E+02  0.56451605407E+03  0.79836033898E+03  0.12699999809E+01 0. -1.
</event>
<event>
 5   0  0.2993769E-05  0.1695995E+04  0.7818609E-02  0.8763652E-01
        1   -1    0    0  501    0  0.00000000000E+00  0.00000000000E+00  0.62142260840E+03  0.62142260842E+03  0.50400001928E-02 0.  1.
       -1   -1    0    0    0  501  0.00000000000E+00  0.00000000000E+00 -0.11571826948E+04  0.11571826948E+04  0.50400001928E-02 0. -1.
    10030    2    1    2    0    0  0.00000000000E+00  0.00000000000E+00 -0.53576008642E+03  0.17786053033E+04  0.16959946800E+04 0.  0.
        3    1    3    3  502    0 -0.32315375018E+03 -0.73840084104E+03  0.84609725982E+01  0.80606187514E+03  0.10100000352E+00 0.  1.
       -3    1    3    3    0  502  0.32315375018E+03  0.73840084104E+03 -0.54422105902E+03  0.97254342812E+03  0.10100000352E+00 0. -1.
</event>
<event>
 5   0  0.5755321E-05  0.1701042E+04  0.7818609E-02  0.8760770E-01
        2   -1    0    0  501    0  0.00000000000E+00  0.00000000000E+00  0.11279846513E+04  0.11279846513E+04  0.25500000920E-02 0. -1.
       -2   -1    0    0    0  501  0.00000000000E+00  0.00000000000E+00 -0.64130850758E+03  0.64130850759E+03  0.25500000920E-02 0.  1.
    10030    2    1    2    0    0  0.00000000000E+00  0.00000000000E+00  0.48667614374E+03  0.17692931589E+04  0.17010422138E+04 0.  0.
        4    1    3    3  502    0  0.23140589324E+03  0.76069159571E+01  0.10945743851E+04  0.11187945522E+04  0.12699999809E+01 0. -1.
       -4    1    3    3    0  502 -0.23140589324E+03 -0.76069159571E+01 -0.60789824136E+03  0.65049860672E+03  0.12699999809E+01 0.  1.
</event>
<event>
 5   0  0.5671132E-05  0.1699511E+04  0.7818609E-02  0.8761643E-01
       -2   -1    0    0    0  501  0.00000000000E+00  0.00000000000E+00  0.26597116936E+03  0.26597116937E+03  0.25500000920E-02 0. -1.
        2   -1    0    0  501    0  0.00000000000E+00  0.00000000000E+00 -0.27148976241E+04  0.27148976241E+04  0.25500000920E-02 0.  1.
    10030    2    1    2    0    0  0.00000000000E+00  0.00000000000E+00 -0.24489264548E+04  0.29808687935E+04  0.16995111012E+04 0.  0.
        3    1    3    3  502    0 -0.78026100538E+03 -0.26417043430E+03 -0.85868343965E+03  0.11899287855E+04  0.10100000352E+00 0.  1.
       -3    1    3    3    0  502  0.78026100538E+03  0.26417043430E+03 -0.15902430151E+04  0.17909400080E+04  0.10100000352E+00 0. -1.
</event>
<event>
 5   0  0.5652631E-05  0.1706990E+04  0.7818609E-02  0.8757387E-01
       -2   -1    0    0    0  501  0.00000000000E+00  0.00000000000E+00  0.60408083578E+03  0.60408083579E+03  0.25500000920E-02 0. -1.
        2   -1    0    0  501    0  0.00000000000E+00  0.00000000000E+00 -0.12058884666E+04  0.12058884666E+04  0.25500000920E-02 0.  1.
    10030    2    1    2    0    0  0.00000000000E+00  0.00000000000E+00 -0.60180763083E+03  0.18099693024E+04  0.17069904660E+04 0.  0.
        2    1    3    3  502    0  0.54321167520E+03  0.65723169063E+03 -0.26092378617E+03  0.89169144968E+03  0.25500000920E-02 0.  1.
       -2    1    3    3    0  502 -0.54321167520E+03 -0.65723169063E+03 -0.34088384466E+03  0.91827785272E+03  0.25500000920E-02 0. -1.
</event>
<event>
 5   0  0.5652631E-05  0.1697855E+04  0.7818609E-02  0.8762589E-01
       -2   -1    0    0    0  501  0.00000000000E+00  0.00000000000E+00  0.90934513853E+03  0.90934513853E+03  0.25500000920E-02 0. -1.
        2   -1    0    0  501    0  0.00000000000E+00  0.00000000000E+00 -0.79252400171E+03  0.79252400172E+03  0.25500000920E-02 0.  1.
    10030    2    1    2    0    0  0.00000000000E+00  0.00000000000E+00  0.11682113681E+03  0.17018691402E+04  0.16978549386E+04 0.  0.
        2    1    3    3  502    0  0.19625048381E+03  0.51946503978E+03 -0.58522881035E+03  0.80675333307E+03  0.25500000920E-02 0.  1.
       -2    1    3    3    0  502 -0.19625048381E+03 -0.51946503978E+03  0.70204994716E+03  0.89511580718E+03  0.25500000920E-02 0. -1.
</event>
<event>
 5   0  0.5755321E-05  0.1697761E+04  0.7818609E-02  0.8762642E-01
        2   -1    0    0  501    0  0.00000000000E+00  0.00000000000E+00  0.19239211927E+04  0.19239211927E+04  0.25500000920E-02 0.  1.
       -2   -1    0    0    0  501  0.00000000000E+00  0.00000000000E+00 -0.37454648558E+03  0.37454648559E+03  0.25500000920E-02 0. -1.
    10030    2    1    2    0    0  0.00000000000E+00  0.00000000000E+00  0.15493747071E+04  0.22984676783E+04  0.16977607856E+04 0.  0.
        4    1    3    3  502    0  0.42954915311E+03 -0.39834785221E+03  0.16063830887E+04  0.17098718451E+04  0.12699999809E+01 0.  1.
       -4    1    3    3    0  502 -0.42954915311E+03  0.39834785221E+03 -0.57008381586E+02  0.58859583312E+03  0.12699999809E+01 0. -1.
</event>
<event>
 5   0  0.5859822E-05  0.1700470E+04  0.7818609E-02  0.8761096E-01
       -2   -1    0    0    0  501  0.00000000000E+00  0.00000000000E+00  0.45235072785E+03  0.45235072785E+03  0.25500000920E-02 0. -1.
        2   -1    0    0  501    0  0.00000000000E+00  0.00000000000E+00 -0.15980951086E+04  0.15980951086E+04  0.25500000920E-02 0.  1.
    10030    2    1    2    0    0  0.00000000000E+00  0.00000000000E+00 -0.11457443808E+04  0.20504458365E+04  0.17004699181E+04 0.  0.
        5    1    3    3  502    0  0.11000919770E+02  0.31450157017E+03 -0.15252685910E+04  0.15574012401E+04  0.46999998093E+01 0.  1.
       -5    1    3    3    0  502 -0.11000919770E+02 -0.31450157017E+03  0.37952421024E+03  0.49304459639E+03  0.46999998093E+01 0. -1.
</event>
<event>
 5   0  0.5859822E-05  0.1700242E+04  0.7818609E-02  0.8761227E-01
       -2   -1    0    0    0  501  0.00000000000E+00  0.00000000000E+00  0.26048979880E+04  0.26048979880E+04  0.25500000920E-02 0. -1.
        2   -1    0    0  501    0  0.00000000000E+00  0.00000000000E+00 -0.27744096427E+03  0.27744096428E+03  0.25500000920E-02 0.  1.
    10030    2    1    2    0    0  0.00000000000E+00  0.00000000000E+00  0.23274570237E+04  0.28823389522E+04  0.17002416412E+04 0.  0.
        5    1    3    3  502    0  0.54156030669E+03  0.55753430448E+03  0.58003149058E+03  0.96984054695E+03  0.46999998093E+01 0.  1.
       -5    1    3    3    0  502 -0.54156030669E+03 -0.55753430448E+03  0.17474255331E+04  0.19124984053E+04  0.46999998093E+01 0. -1.
</event>
<event>
 5   0  0.5671132E-05  0.1689221E+04  0.7818609E-02  0.8767536E-01
       -2   -1    0    0    0  501  0.00000000000E+00  0.00000000000E+00  0.45515705018E+03  0.45515705019E+03  0.25500000920E-02 0.  1.
        2   -1    0    0  501    0  0.00000000000E+00  0.00000000000E+00 -0.15672991929E+04  0.15672991929E+04  0.25500000920E-02 0. -1.
    10030    2    1    2    0    0  0.00000000000E+00  0.00000000000E+00 -0.11121421428E+04  0.20224562431E+04  0.16892214508E+04 0.  0.
        3    1    3    3  502    0 -0.66996054559E+02 -0.32414848865E+03 -0.14864105652E+04  0.15228187983E+04  0.10100000352E+00 0. -1.
       -3    1    3    3    0  502  0.66996054559E+02  0.32414848865E+03  0.37426842244E+03  0.49963744481E+03  0.10100000352E+00 0.  1.
</event>
<event>
 5   0  0.2911632E-05  0.1699351E+04  0.7818609E-02  0.8761734E-01
       -1   -1    0    0    0  501  0.00000000000E+00  0.00000000000E+00  0.12953225007E+04  0.12953225007E+04  0.50400001928E-02 0. -1.
        1   -1    0    0  501    0  0.00000000000E+00  0.00000000000E+00 -0.55735065002E+03  0.55735065004E+03  0.50400001928E-02 0.  1.
    10030    2    1    2    0    0  0.00000000000E+00  0.00000000000E+00  0.73797185063E+03  0.18526731507E+04  0.16993514501E+04 0.  0.
        1    1    3    3  502    0  0.30994070394E+03  0.59203832160E+03 -0.20312312909E+03  0.69844943969E+03  0.50400001928E-02 0.  1.
       -1    1    3    3    0  502 -0.30994070394E+03 -0.59203832160E+03  0.94109497972E+03  0.11542237110E+04  0.50400001928E-02 0. -1.
</event>
<event>
 5   0  0.2911632E-05  0.1700976E+04  0.7818609E-02  0.8760808E-01
       -1   -1    0    0    0  501  0.00000000000E+00  0.00000000000E+00  0.40166753357E+03  0.40166753360E+03  0.50400001928E-02 0.  1.
        1   -1    0    0  501    0  0.00000000000E+00  0.00000000000E+00 -0.18008174442E+04  0.18008174442E+04  0.50400001928E-02 0. -1.
    10030    2    1    2    0    0  0.00000000000E+00  0.00000000000E+00 -0.13991499106E+04  0.22024849778E+04  0.17009760742E+04 0.  0.
        1    1    3    3  502    0  0.15433025934E+02  0.51579704749E+03 -0.15749502636E+04  0.16573331305E+04  0.50400001928E-02 0. -1.
       -1    1    3    3    0  502 -0.15433025934E+02 -0.51579704749E+03  0.17580035300E+03  0.54515184731E+03  0.50400001928E-02 0.  1.
</event>
<event>
 5   0  0.5652631E-05  0.1698809E+04  0.7818609E-02  0.8762044E-01
       -2   -1    0    0    0  501  0.00000000000E+00  0.00000000000E+00  0.94157535216E+03  0.94157535216E+03  0.25500000920E-02 0.  1.
        2   -1    0    0  501    0  0.00000000000E+00  0.00000000000E+00 -0.76625626334E+03  0.76625626335E+03  0.25500000920E-02 0. -1.
    10030    2    1    2    0    0  0.00000000000E+00  0.00000000000E+00  0.17531908882E+03  0.17078316155E+04  0.16988090075E+04 0.  0.
        2    1    3    3  502    0  0.44752608175E+02  0.32500521699E+03  0.87531092389E+03  0.93477291387E+03  0.25500000920E-02 0.  1.
       -2    1    3    3    0  502 -0.44752608175E+02 -0.32500521699E+03 -0.69999183508E+03  0.77305870164E+03  0.25500000920E-02 0. -1.
</event>
<event>
 5   0  0.5755321E-05  0.1699935E+04  0.7818609E-02  0.8761402E-01
        2   -1    0    0  501    0  0.00000000000E+00  0.00000000000E+00  0.79184892139E+03  0.79184892139E+03  0.25500000920E-02 0.  1.
       -2   -1    0    0    0  501  0.00000000000E+00  0.00000000000E+00 -0.91235153470E+03  0.91235153470E+03  0.25500000920E-02 0. -1.
    10030    2    1    2    0    0  0.00000000000E+00  0.00000000000E+00 -0.12050261331E+03  0.17042004561E+04  0.16999347972E+04 0.  0.
        4    1    3    3  502    0 -0.77529598505E+03 -0.24048388659E+03 -0.31292860516E+03  0.86996683211E+03  0.12699999809E+01 0. -1.
       -4    1    3    3    0  502  0.77529598505E+03  0.24048388659E+03  0.19242599185E+03  0.83423362398E+03  0.12699999809E+01 0.  1.
</event>
<event>
 5   0  0.2987859E-05  0.1697654E+04  0.7818609E-02  0.8762704E-01
        1   -1    0    0  501    0  0.00000000000E+00  0.00000000000E+00  0.10445132913E+04  0.10445132913E+04  0.50400001928E-02 0. -1.
       -1   -1    0    0    0  501  0.00000000000E+00  0.00000000000E+00 -0.68980155621E+03  0.68980155623E+03  0.50400001928E-02 0.  1.
    10030    2    1    2    0    0  0.00000000000E+00  0.00000000000E+00  0.35471173508E+03  0.17343148475E+04  0.16976535499E+04 0.  0.
        5    1    3    3  502    0 -0.11749394785E+03  0.20705632620E+03  0.10096944069E+04  0.10373919391E+04  0.46999998093E+01 0. -1.
       -5    1    3    3    0  502  0.11749394785E+03 -0.20705632620E+03 -0.65498267178E+03  0.69692290846E+03  0.46999998093E+01 0.  1.
</event>
<event>
 5   0  0.5821584E-05  0.1688865E+04  0.7818609E-02  0.8767741E-01
       -2   -1    0    0    0  501  0.00000000000E+00  0.00000000000E+00  0.86344684234E+03  0.86344684234E+03  0.25500000920E-02 0. -1.
        2   -1    0    0  501    0  0.00000000000E+00  0.00000000000E+00 -0.82583711339E+03  0.82583711339E+03  0.25500000920E-02 0.  1.
    10030    2    1    2    0    0  0.00000000000E+00  0.00000000000E+00  0.37609728950E+02  0.16892839557E+04  0.16888652378E+04 0.  0.
        1    1    3    3  502    0 -0.53686787980E+03  0.11899307684E+03 -0.62219719400E+03  0.83037089360E+03  0.50400001928E-02 0.  1.
       -1    1    3    3    0  502  0.53686787980E+03 -0.11899307684E+03  0.65980692295E+03  0.85891306213E+03  0.50400001928E-02 0. -1.
</event>
<event>
 5   0  0.2987859E-05  0.1701771E+04  0.7818609E-02  0.8760355E-01
        1   -1    0    0  501    0  0.00000000000E+00  0.00000000000E+00  0.11752902070E+04  0.11752902070E+04  0.50400001928E-02 0. -1.
       -1   -1    0    0    0  501  0.00000000000E+00  0.00000000000E+00 -0.61602347448E+03  0.61602347450E+03  0.50400001928E-02 0.  1.
    10030    2    1    2    0    0  0.00000000000E+00  0.00000000000E+00  0.55926673251E+03  0.17913136815E+04  0.17017712618E+04 0.  0.
        5    1    3    3  502    0  0.65969234685E+03  0.64775580191E+02  0.84117715980E+03  0.10709766442E+04  0.46999998093E+01 0. -1.
       -5    1    3    3    0  502 -0.65969234685E+03 -0.64775580191E+02 -0.28191042729E+03  0.72033703729E+03  0.46999998093E+01 0.  1.
</event>
<event>
 5   0  0.2966258E-05  0.1696564E+04  0.7818609E-02  0.8763327E-01
        1   -1    0    0  501    0  0.00000000000E+00  0.00000000000E+00  0.68081266484E+03  0.68081266486E+03  0.50400001928E-02 0.  1.
       -1   -1    0    0    0  501  0.00000000000E+00  0.00000000000E+00 -0.10569455680E+04  0.10569455680E+04  0.50400001928E-02 0. -1.
    10030    2    1    2    0    0  0.00000000000E+00  0.00000000000E+00 -0.37613290312E+03  0.17377582328E+04  0.16965635016E+04 0.  0.
        4    1    3    3  502    0  0.34493106594E+03  0.15751216571E+02  0.60557294732E+03  0.69709809102E+03  0.12699999809E+01 0.  1.
       -4    1    3    3    0  502 -0.34493106594E+03 -0.15751216571E+02 -0.98170585044E+03  0.10406601418E+04  0.12699999809E+01 0. -1.
</event>
<event>
 5   0  0.2911632E-05  0.1692741E+04  0.7818609E-02  0.8765515E-01
       -1   -1    0    0    0  501  0.00000000000E+00  0.00000000000E+00  0.93492805727E+03  0.93492805729E+03  0.50400001928E-02 0.  1.
        1   -1    0    0  501    0  0.00000000000E+00  0.00000000000E+00 -0.76620090828E+03  0.76620090830E+03  0.50400001928E-02 0. -1.
    10030    2    1    2    0    0  0.00000000000E+00  0.00000000000E+00  0.16872714899E+03  0.17011289656E+04  0.16927406496E+04 0.  0.
        1    1    3    3  502    0  0.46754537666E+02 -0.40186722546E+03 -0.66273107352E+03  0.77646360477E+03  0.50400001928E-02 0. -1.
       -1    1    3    3    0  502 -0.46754537666E+02  0.40186722546E+03  0.83145822251E+03  0.92466536082E+03  0.50400001928E-02 0.  1.
</event>
<event>
 5   0  0.2911632E-05  0.1700315E+04  0.7818609E-02  0.8761184E-01
       -1   -1    0    0    0  501  0.00000000000E+00  0.00000000000E+00  0.42119311711E+03  0.42119311714E+03  0.50400001928E-02 0. -1.
        1   -1    0    0  501    0  0.00000000000E+00  0.00000000000E+00 -0.17160017237E+04  0.17160017237E+04  0.50400001928E-02 0.  1.
    10030    2    1    2    0    0  0.00000000000E+00  0.00000000000E+00 -0.12948086066E+04  0.21371948408E+04  0.17003154002E+04 0.  0.
        1    1    3    3  502    0  0.88175278238E+02 -0.64980105048E+03 -0.13274912482E+04  0.14806246314E+04  0.50400001928E-02 0.  1.
       -1    1    3    3    0  502 -0.88175278238E+02  0.64980105048E+03  0.32682641627E+02  0.65657020948E+03  0.50400001928E-02 0. -1.
</event>
<event>
 5   0  0.2911632E-05  0.1698712E+04  0.7818609E-02  0.8762100E-01
       -1   -1    0    0    0  501  0.00000000000E+00  0.00000000000E+00  0.44559638840E+03  0.44559638843E+03  0.50400001928E-02 0.  1.
        1   -1    0    0  501    0  0.00000000000E+00  0.00000000000E+00 -0.16189657403E+04  0.16189657404E+04  0.50400001928E-02 0. -1.
    10030    2    1    2    0    0  0.00000000000E+00  0.00000000000E+00 -0.11733693519E+04  0.20645621288E+04  0.16987116140E+04 0.  0.
        1    1    3    3  502    0 -0.61001856548E+02 -0.68153445148E+03 -0.11982399784E+04  0.13798512532E+04  0.50400001928E-02 0. -1.
       -1    1    3    3    0  502  0.61001856548E+02  0.68153445148E+03  0.24870626466E+02  0.68471087559E+03  0.50400001928E-02 0.  1.
</event>
<event>
 5   0  0.2967704E-05  0.1701628E+04  0.7818609E-02  0.8760436E-01
       -1   -1    0    0    0  501  0.00000000000E+00  0.00000000000E+00  0.93324740617E+03  0.93324740619E+03  0.50400001928E-02 0. -1.
        1   -1    0    0  501    0  0.00000000000E+00  0.00000000000E+00 -0.77566225045E+03  0.77566225047E+03  0.50400001928E-02 0.  1.
    10030    2    1    2    0    0  0.00000000000E+00  0.00000000000E+00  0.15758515572E+03  0.17089096567E+04  0.17016283770E+04 0.  0.
        2    1    3    3  502    0  0.20800964648E+03 -0.67305466663E+03  0.55792333140E+03  0.89863732453E+03  0.25500000920E-02 0. -1.
       -2    1    3    3    0  502 -0.20800964648E+03  0.67305466663E+03 -0.40033817568E+03  0.81027233213E+03  0.25500000920E-02 0.  1.
</event>
<event>
 5   0  0.2987859E-05  0.1694595E+04  0.7818609E-02  0.8764453E-01
       -1   -1    0    0    0  501  0.00000000000E+00  0.00000000000E+00  0.48715159049E+03  0.48715159052E+03  0.50400001928E-02 0.  1.
        1   -1    0    0  501    0  0.00000000000E+00  0.00000000000E+00 -0.14736949704E+04  0.14736949704E+04  0.50400001928E-02 0. -1.
    10030    2    1    2    0    0  0.00000000000E+00  0.00000000000E+00 -0.98654337990E+03  0.19608465609E+04  0.16945947584E+04 0.  0.
        5    1    3    3  502    0 -0.20026672614E+03  0.49999475506E+02 -0.14441413667E+04  0.14588259273E+04  0.46999998093E+01 0. -1.
       -5    1    3    3    0  502  0.20026672614E+03 -0.49999475506E+02  0.45759798675E+03  0.50202063366E+03  0.46999998093E+01 0.  1.
</event>
<event>
 5   0  0.5671132E-05  0.1699976E+04  0.7818609E-02  0.8761378E-01
        2   -1    0    0  501    0  0.00000000000E+00  0.00000000000E+00  0.12567063000E+04  0.12567063000E+04  0.25500000920E-02 0.  1.
       -2   -1    0    0    0  501  0.00000000000E+00  0.00000000000E+00 -0.57489965093E+03  0.57489965094E+03  0.25500000920E-02 0. -1.
    10030    2    1    2    0    0  0.00000000000E+00  0.00000000000E+00  0.68180664906E+03  0.18316059509E+04  0.16999764859E+04 0.  0.
        3    1    3    3  502    0 -0.77399447391E+03  0.34253403364E+03  0.25687072558E+03  0.88452223810E+03  0.10100000352E+00 0. -1.
       -3    1    3    3    0  502  0.77399447391E+03 -0.34253403364E+03  0.42493592348E+03  0.94708371283E+03  0.10100000352E+00 0.  1.
</event>
<event>
 5   0  0.2993769E-05  0.1702064E+04  0.7818609E-02  0.8760188E-01
       -1   -1    0    0    0  501  0.00000000000E+00  0.00000000000E+00  0.12524377845E+04  0.12524377845E+04  0.50400001928E-02 0. -1.
        1   -1    0    0  501    0  0.00000000000E+00  0.00000000000E+00 -0.57827681999E+03  0.57827682002E+03  0.50400001928E-02 0.  1.
    10030    2    1    2    0    0  0.00000000000E+00  0.00000000000E+00  0.67416096449E+03  0.18307146045E+04  0.17020643223E+04 0.  0.
        3    1    3    3  502    0 -0.75557379549E+03  0.49269908224E+02  0.75495100451E+03  0.10692381932E+04  0.10100000352E+00 0. -1.
       -3    1    3    3    0  502  0.75557379549E+03 -0.49269908224E+02 -0.80790040022E+02  0.76147641135E+03  0.10100000352E+00 0.  1.
</event>
<event>
 5   0  0.2967704E-05  0.1702541E+04  0.7818609E-02  0.8759916E-01
        1   -1    0    0  501    0  0.00000000000E+00  0.00000000000E+00  0.86540535691E+03  0.86540535693E+03  0.50400001928E-02 0.  1.
       -1   -1    0    0    0  501  0.00000000000E+00  0.00000000000E+00 -0.83736686369E+03  0.83736686370E+03  0.50400001928E-02 0. -1.
    10030    2    1    2    0    0  0.00000000000E+00  0.00000000000E+00  0.28038493225E+02  0.17027722206E+04  0.17025413587E+04 0.  0.
        2    1    3    3  502    0 -0.62464861850E+03 -0.35785905455E+03  0.46840757427E+03  0.85886824086E+03  0.25500000920E-02 0.  1.
       -2    1    3    3    0  502  0.62464861850E+03  0.35785905455E+03 -0.44036908105E+03  0.84390397977E+03  0.25500000920E-02 0. -1.
</event>
<event>
 5   0  0.5859822E-05  0.1698953E+04  0.7818609E-02  0.8761961E-01
        2   -1    0    0  501    0  0.00000000000E+00  0.00000000000E+00  0.87253378495E+03  0.87253378496E+03  0.25500000920E-02 0. -1.
       -2   -1    0    0    0  501  0.00000000000E+00  0.00000000000E+00 -0.82702900570E+03  0.82702900571E+03  0.25500000920E-02 0.  1.
    10030    2    1    2    0    0  0.00000000000E+00  0.00000000000E+00  0.45504779247E+02  0.16995627907E+04  0.16989534998E+04 0.  0.
        5    1    3    3  502    0 -0.13966751692E+03 -0.53353137476E+03 -0.62356438233E+03  0.83247664955E+03  0.46999998093E+01 0.  1.
       -5    1    3    3    0  502  0.13966751692E+03  0.53353137476E+03  0.66906916157E+03  0.86708614111E+03  0.46999998093E+01 0. -1.
</event>
<event>
 5   0  0.5671132E-05  0.1702125E+04  0.7818609E-02  0.8760153E-01
       -2   -1    0    0    0  501  0.00000000000E+00  0.00000000000E+00  0.76620348359E+03  0.76620348360E+03  0.25500000920E-02 0. -1.
        2   -1    0    0  501    0  0.00000000000E+00  0.00000000000E+00 -0.94531960695E+03  0.94531960696E+03  0.25500000920E-02 0.  1.
    10030    2    1    2    0    0  0.00000000000E+00  0.00000000000E+00 -0.17911612336E+03  0.17115230906E+04  0.17021247615E+04 0.  0.
        3    1    3    3  502    0  0.49971401098E+03  0.68091079760E+03  0.15679067740E+02  0.84474815799E+03  0.10100000352E+00 0. -1.
       -3    1    3    3    0  502 -0.49971401098E+03 -0.68091079760E+03 -0.19479519110E+03  0.86677493257E+03  0.10100000352E+00 0.  1.
</event>
<event>
 5   0  0.2911632E-05  0.1702237E+04  0.7818609E-02  0.8760089E-01
       -1   -1    0    0    0  501  0.00000000000E+00  0.00000000000E+00  0.35511111219E+03  0.35511111222E+03  0.50400001928E-02 0. -1.
        1   -1    0    0  501    0  0.00000000000E+00  0.00000000000E+00 -0.20399333380E+04  0.20399333380E+04  0.50400001928E-02 0.  1.
    10030    2    1    2    0    0  0.00000000000E+00  0.00000000000E+00 -0.16848222258E+04  0.23950444502E+04  0.17022373471E+04 0.  0.
        1    1    3    3  502    0 -0.23011465040E+03  0.19061785781E+03  0.27888334180E+03  0.40873443506E+03  0.50400001928E-02 0. -1.
       -1    1    3    3    0  502  0.23011465040E+03 -0.19061785781E+03 -0.19637055676E+04  0.19863100152E+04  0.50400001928E-02 0.  1.
</event>
<event>
 5   0  0.5755321E-05  0.1703239E+04  0.7818609E-02  0.8759519E-01
       -2   -1    0    0    0  501  0.00000000000E+00  0.00000000000E+00  0.66207211461E+03  0.66207211461E+03  0.25500000920E-02 0. -1.
        2   -1    0    0  501    0  0.00000000000E+00  0.00000000000E+00 -0.10954330051E+04  0.10954330051E+04  0.25500000920E-02 0.  1.
    10030    2    1    2    0    0  0.00000000000E+00  0.00000000000E+00 -0.43336089048E+03  0.17575051197E+04  0.17032388512E+04 0.  0.
        4    1    3    3  502    0  0.50424535155E+03  0.47341808629E+03 -0.72936668497E+03  0.10051693554E+04  0.12699999809E+01 0.  1.
       -4    1    3    3    0  502 -0.50424535155E+03 -0.47341808629E+03  0.29600579449E+03  0.75233576431E+03  0.12699999809E+01 0. -1.
</event>
<event>
 5   0  0.5821584E-05  0.1699827E+04  0.7818609E-02  0.8761463E-01
       -2   -1    0    0    0  501  0.00000000000E+00  0.00000000000E+00  0.50574465641E+03  0.50574465642E+03  0.25500000920E-02 0. -1.
        2   -1    0    0  501    0  0.00000000000E+00  0.00000000000E+00 -0.14282951185E+04  0.14282951185E+04  0.25500000920E-02 0.  1.
    10030    2    1    2    0    0  0.00000000000E+00  0.00000000000E+00 -0.92255046214E+03  0.19340397750E+04  0.16998266076E+04 0.  0.
        1    1    3    3  502    0  0.24678040850E+03  0.81177384223E+03 -0.40466783096E+03  0.94001776281E+03  0.50400001928E-02 0.  1.
       -1    1    3    3    0  502 -0.24678040850E+03 -0.81177384223E+03 -0.51788263118E+03  0.99402201216E+03  0.50400001928E-02 0. -1.
</event>
<event>
 5   0  0.5671132E-05  0.1702752E+04  0.7818609E-02  0.8759796E-01
       -2   -1    0    0    0  501  0.00000000000E+00  0.00000000000E+00  0.78306000368E+03  0.78306000368E+03  0.25500000920E-02 0. -1.
        2   -1    0    0  501    0  0.00000000000E+00  0.00000000000E+00 -0.92565183855E+03  0.92565183856E+03  0.25500000920E-02 0.  1.
    10030    2    1    2    0    0  0.00000000000E+00  0.00000000000E+00 -0.14259183487E+03  0.17087118422E+04  0.17027518106E+04 0.  0.
        3    1    3    3  502    0 -0.13458365998E+03  0.10283837510E+03  0.76598202467E+03  0.78448515935E+03  0.10100000352E+00 0. -1.
       -3    1    3    3    0  502  0.13458365998E+03 -0.10283837510E+03 -0.90857385954E+03  0.92422668289E+03  0.10100000352E+00 0.  1.
</event>
<event>
 5   0  0.2987859E-05  0.1699791E+04  0.7818609E-02  0.8761483E-01
       -1   -1    0    0    0  501  0.00000000000E+00  0.00000000000E+00  0.12391367067E+04  0.12391367067E+04  0.50400001928E-02 0. -1.
        1   -1    0    0  501    0  0.00000000000E+00  0.00000000000E+00 -0.58292395204E+03  0.58292395207E+03  0.50400001928E-02 0.  1.
    10030    2    1    2    0    0  0.00000000000E+00  0.00000000000E+00  0.65621275469E+03  0.18220606588E+04  0.16997911239E+04 0.  0.
        5    1    3    3  502    0 -0.28051436702E+03 -0.52583993514E+03 -0.32136809531E+03  0.67712295056E+03  0.46999998093E+01 0.  1.
       -5    1    3    3    0  502  0.28051436702E+03  0.52583993514E+03  0.97758085000E+03  0.11449377083E+04  0.46999998093E+01 0. -1.
</event>
<event>
 5   0  0.2967704E-05  0.1700001E+04  0.7818609E-02  0.8761364E-01
       -1   -1    0    0    0  501  0.00000000000E+00  0.00000000000E+00  0.54732259149E+03  0.54732259151E+03  0.50400001928E-02 0. -1.
        1   -1    0    0  501    0  0.00000000000E+00  0.00000000000E+00 -0.13200647598E+04  0.13200647598E+04  0.50400001928E-02 0.  1.
    10030    2    1    2    0    0  0.00000000000E+00  0.00000000000E+00 -0.77274216827E+03  0.18673873513E+04  0.17000014886E+04 0.  0.
        2    1    3    3  502    0  0.67082746933E+03 -0.45425252232E+03 -0.10385818920E+03  0.81678722511E+03  0.25500000920E-02 0.  1.
       -2    1    3    3    0  502 -0.67082746933E+03  0.45425252232E+03 -0.66888397906E+03  0.10506001262E+04  0.25500000920E-02 0. -1.
</event>
<event>
 5   0  0.2911632E-05  0.1701358E+04  0.7818609E-02  0.8760590E-01
        1   -1    0    0  501    0  0.00000000000E+00  0.00000000000E+00  0.12042592666E+04  0.12042592666E+04  0.50400001928E-02 0.  1.
       -1   -1    0    0    0  501  0.00000000000E+00  0.00000000000E+00 -0.60091308996E+03  0.60091308998E+03  0.50400001928E-02 0. -1.
    10030    2    1    2    0    0  0.00000000000E+00  0.00000000000E+00  0.60334617667E+03  0.18051723566E+04  0.17013584655E+04 0.  0.
        1    1    3    3  502    0  0.60560089140E+03 -0.13878425798E+03 -0.31485214054E+03  0.69652378305E+03  0.50400001928E-02 0. -1.
       -1    1    3    3    0  502 -0.60560089140E+03  0.13878425798E+03  0.91819831721E+03  0.11086485736E+04  0.50400001928E-02 0.  1.
</event>
<event>
 5   0  0.5652631E-05  0.1700735E+04  0.7818609E-02  0.8760945E-01
        2   -1    0    0  501    0  0.00000000000E+00  0.00000000000E+00  0.36405906157E+03  0.36405906158E+03  0.25500000920E-02 0. -1.
       -2   -1    0    0    0  501  0.00000000000E+00  0.00000000000E+00 -0.19862853513E+04  0.19862853513E+04  0.25500000920E-02 0.  1.
    10030    2    1    2    0    0  0.00000000000E+00  0.00000000000E+00 -0.16222262897E+04  0.23503444129E+04  0.17007353480E+04 0.  0.
        2    1    3    3  502    0  0.59256401272E+03 -0.56341887396E+03 -0.11338890296E+04  0.13979546732E+04  0.25500000920E-02 0. -1.
       -2    1    3    3    0  502 -0.59256401272E+03  0.56341887396E+03 -0.48833726010E+03  0.95238973972E+03  0.25500000920E-02 0.  1.
</event>
<event>
 5   0  0.5755321E-05  0.1700110E+04  0.7818609E-02  0.8761302E-01
       -2   -1    0    0    0  501  0.00000000000E+00  0.00000000000E+00  0.71322063462E+03  0.71322063462E+03  0.25500000920E-02 0.  1.
        2   -1    0    0  501    0  0.00000000000E+00  0.00000000000E+00 -0.10131411458E+04  0.10131411458E+04  0.25500000920E-02 0. -1.
    10030    2    1    2    0    0  0.00000000000E+00  0.00000000000E+00 -0.29992051115E+03  0.17263617804E+04  0.17001096093E+04 0.  0.
        4    1    3    3  502    0  0.14577082427E+03 -0.54763999840E+03 -0.79333105942E+03  0.97495358033E+03  0.12699999809E+01 0. -1.
       -4    1    3    3    0  502 -0.14577082427E+03  0.54763999840E+03  0.49341054828E+03  0.75140820005E+03  0.12699999809E+01 0.  1.
</event>
<event>
 5   0  0.2967704E-05  0.1701458E+04  0.7818609E-02  0.8760533E-01
        1   -1    0    0  501    0  0.00000000000E+00  0.00000000000E+00  0.14281898227E+04  0.14281898227E+04  0.50400001928E-02 0.  1.
       -1   -1    0    0    0  501  0.00000000000E+00  0.00000000000E+00 -0.50675321690E+03  0.50675321693E+03  0.50400001928E-02 0. -1.
    10030    2    1    2    0    0  0.00000000000E+00  0.00000000000E+00  0.92143660579E+03  0.19349430396E+04  0.17014579478E+04 0.  0.
        2    1    3    3  502    0 -0.54470822358E+03 -0.61949195056E+03  0.69725720537E+03  0.10801133904E+04  0.25500000920E-02 0.  1.
       -2    1    3    3    0  502  0.54470822358E+03  0.61949195056E+03  0.22417940041E+03  0.85482964924E+03  0.25500000920E-02 0. -1.
</event>
<event>
 5   0  0.2987859E-05  0.1685720E+04  0.7818609E-02  0.8769551E-01
        1   -1    0    0  501    0  0.00000000000E+00  0.00000000000E+00  0.23962350208E+04  0.23962350209E+04  0.50400001928E-02 0.  1.
       -1   -1    0    0    0  501  0.00000000000E+00  0.00000000000E+00 -0.29647034361E+03  0.29647034365E+03  0.50400001928E-02 0. -1.
    10030    2    1    2    0    0  0.00000000000E+00  0.00000000000E+00  0.20997646772E+04  0.26927053645E+04  0.16857195734E+04 0.  0.
        5    1    3    3  502    0 -0.13046826397E+03  0.10080840979E+02  0.23798887999E+04  0.23834882800E+04  0.46999998093E+01 0.  1.
       -5    1    3    3    0  502  0.13046826397E+03 -0.10080840979E+02 -0.28012412263E+03  0.30921708448E+03  0.46999998093E+01 0. -1.
</event>
<event>
 5   0  0.2967704E-05  0.1699494E+04  0.7818609E-02  0.8761653E-01
        1   -1    0    0  501    0  0.00000000000E+00  0.00000000000E+00  0.14255935249E+04  0.14255935249E+04  0.50400001928E-02 0. -1.
       -1   -1    0    0    0  501  0.00000000000E+00  0.00000000000E+00 -0.50650490920E+03  0.50650490922E+03  0.50400001928E-02 0.  1.
    10030    2    1    2    0    0  0.00000000000E+00  0.00000000000E+00  0.91908861566E+03  0.19320984341E+04  0.16994941823E+04 0.  0.
        2    1    3    3  502    0 -0.65374480181E+03  0.32652111106E+03 -0.33483512939E+02  0.73151858999E+03  0.25500000920E-02 0.  1.
       -2    1    3    3    0  502  0.65374480181E+03 -0.32652111106E+03  0.95257212860E+03  0.12005798441E+04  0.25500000920E-02 0. -1.
</event>
<event>
 5   0  0.2098250E-05  0.1703043E+04  0.7818609E-02  0.8759631E-01
        3   -1    0    0  501    0  0.00000000000E+00  0.00000000000E+00  0.53728332712E+03  0.53728333661E+03  0.10100000352E+00 0. -1.
       -3   -1    0    0    0  501  0.00000000000E+00  0.00000000000E+00 -0.13495460621E+04  0.13495460659E+04  0.10100000352E+00 0.  1.
    10030    2    1    2    0    0  0.00000000000E+00  0.00000000000E+00 -0.81226273500E+03  0.18868294025E+04  0.17030427016E+04 0.  0.
        5    1    3    3  502    0 -0.13003030064E+03  0.40167981818E+03  0.41313684089E+03  0.59072725916E+03  0.46999998093E+01 0. -1.
       -5    1    3    3    0  502  0.13003030064E+03 -0.40167981818E+03 -0.12253995759E+04  0.12961021434E+04  0.46999998093E+01 0.  1.
</event>
<event>
 5   0  0.5652631E-05  0.1704958E+04  0.7818609E-02  0.8758542E-01
       -2   -1    0    0    0  501  0.00000000000E+00  0.00000000000E+00  0.65660985063E+03  0.65660985064E+03  0.25500000920E-02 0.  1.
        2   -1    0    0  501    0  0.00000000000E+00  0.00000000000E+00 -0.11067763383E+04  0.11067763383E+04  0.25500000920E-02 0. -1.
    10030    2    1    2    0    0  0.00000000000E+00  0.00000000000E+00 -0.45016648770E+03  0.17633861890E+04  0.17049577663E+04 0.  0.
        2    1    3    3  502    0  0.79750408442E+03  0.34685741598E+02 -0.53450864020E+03  0.96068483479E+03  0.25500000920E-02 0. -1.
       -2    1    3    3    0  502 -0.79750408442E+03 -0.34685741598E+02  0.84342152498E+02  0.80270135419E+03  0.25500000920E-02 0.  1.
</event>
<event>
 5   0  0.5671132E-05  0.1699830E+04  0.7818609E-02  0.8761461E-01
        2   -1    0    0  501    0  0.00000000000E+00  0.00000000000E+00  0.16198275538E+04  0.16198275538E+04  0.25500000920E-02 0. -1.
       -2   -1    0    0    0  501  0.00000000000E+00  0.00000000000E+00 -0.44594596844E+03  0.44594596844E+03  0.25500000920E-02 0.  1.
    10030    2    1    2    0    0  0.00000000000E+00  0.00000000000E+00  0.11738815854E+04  0.20657735222E+04  0.16998300706E+04 0.  0.
        3    1    3    3  502    0 -0.39642122235E+03  0.54075027905E+03 -0.47798418685E+02  0.67219442786E+03  0.10100000352E+00 0.  1.
       -3    1    3    3    0  502  0.39642122235E+03 -0.54075027905E+03  0.12216800040E+04  0.13935790944E+04  0.10100000352E+00 0. -1.
</event>
<event>
 5   0  0.5652631E-05  0.1692408E+04  0.7818609E-02  0.8765706E-01
       -2   -1    0    0    0  501  0.00000000000E+00  0.00000000000E+00  0.50963665240E+03  0.50963665240E+03  0.25500000920E-02 0.  1.
        2   -1    0    0  501    0  0.00000000000E+00  0.00000000000E+00 -0.14050426110E+04  0.14050426110E+04  0.25500000920E-02 0. -1.
    10030    2    1    2    0    0  0.00000000000E+00  0.00000000000E+00 -0.89540595857E+03  0.19146792634E+04  0.16924080037E+04 0.  0.
        2    1    3    3  502    0 -0.33524927481E+03  0.61200179524E+03  0.93830422453E+02  0.70408978250E+03  0.25500000920E-02 0.  1.
       -2    1    3    3    0  502  0.33524927481E+03 -0.61200179524E+03 -0.98923638103E+03  0.12105894809E+04  0.25500000920E-02 0. -1.
</event>
<event>
 5   0  0.2993769E-05  0.1698264E+04  0.7818609E-02  0.8762355E-01
       -1   -1    0    0    0  501  0.00000000000E+00  0.00000000000E+00  0.40613033734E+03  0.40613033737E+03  0.50400001928E-02 0. -1.
        1   -1    0    0  501    0  0.00000000000E+00  0.00000000000E+00 -0.17753533800E+04  0.17753533800E+04  0.50400001928E-02 0.  1.
    10030    2    1    2    0    0  0.00000000000E+00  0.00000000000E+00 -0.13692230427E+04  0.21814837174E+04  0.16982636629E+04 0.  0.
        3    1    3    3  502    0  0.42851057754E+03  0.62066916267E+03 -0.18352106180E+03  0.77622903507E+03  0.10100000352E+00 0. -1.
       -3    1    3    3    0  502 -0.42851057754E+03 -0.62066916267E+03 -0.11857019809E+04  0.14052546823E+04  0.10100000352E+00 0.  1.
</event>
<event>
 5   0  0.2987859E-05  0.1687920E+04  0.7818609E-02  0.8768284E-01
        1   -1    0    0  501    0  0.00000000000E+00  0.00000000000E+00  0.94070369389E+03  0.94070369390E+03  0.50400001928E-02 0.  1.
       -1   -1    0    0    0  501  0.00000000000E+00  0.00000000000E+00 -0.75716563471E+03  0.75716563473E+03  0.50400001928E-02 0. -1.
    10030    2    1    2    0    0  0.00000000000E+00  0.00000000000E+00  0.18353805918E+03  0.16978693286E+04  0.16879200330E+04 0.  0.
        5    1    3    3  502    0  0.37612146435E+03  0.49370695476E+03  0.66700741259E+03  0.91111738627E+03  0.46999998093E+01 0.  1.
       -5    1    3    3    0  502 -0.37612146435E+03 -0.49370695476E+03 -0.48346935341E+03  0.78675194236E+03  0.46999998093E+01 0. -1.
</event>
<event>
 5   0  0.5859822E-05  0.1703316E+04  0.7818609E-02  0.8759476E-01
        2   -1    0    0  501    0  0.00000000000E+00  0.00000000000E+00  0.19554580411E+04  0.19554580411E+04  0.25500000920E-02 0. -1.
       -2   -1    0    0    0  501  0.00000000000E+00  0.00000000000E+00 -0.37092132546E+03  0.37092132547E+03  0.25500000920E-02 0.  1.
    10030    2    1    2    0    0  0.00000000000E+00  0.00000000000E+00  0.15845367157E+04  0.23263793666E+04  0.17033156942E+04 0.  0.
        5    1    3    3  502    0  0.28262631212E+03 -0.36189579260E+03  0.17718895183E+04  0.18304263853E+04  0.46999998093E+01 0. -1.
       -5    1    3    3    0  502 -0.28262631212E+03  0.36189579260E+03 -0.18735280263E+03  0.49595298129E+03  0.46999998093E+01 0.  1.
</event>
<event>
 5   0  0.2987859E-05  0.1699137E+04  0.7818609E-02  0.8761857E-01
       -1   -1    0    0    0  501  0.00000000000E+00  0.00000000000E+00  0.40216156693E+03  0.40216156696E+03  0.50400001928E-02 0.  1.
        1   -1    0    0  501    0  0.00000000000E+00  0.00000000000E+00 -0.17947173204E+04  0.17947173204E+04  0.50400001928E-02 0. -1.
    10030    2    1    2    0    0  0.00000000000E+00  0.00000000000E+00 -0.13925557535E+04  0.21968788873E+04  0.16991366394E+04 0.  0.
        5    1    3    3  502    0  0.53505764930E+03  0.62941751621E+03 -0.43999172720E+03  0.93598499336E+03  0.46999998093E+01 0.  1.
       -5    1    3    3    0  502 -0.53505764930E+03 -0.62941751621E+03 -0.95256402625E+03  0.12608938940E+04  0.46999998093E+01 0. -1.
</event>
<event>
 5   0  0.2967704E-05  0.1699581E+04  0.7818609E-02  0.8761603E-01
       -1   -1    0    0    0  501  0.00000000000E+00  0.00000000000E+00  0.54809405757E+03  0.54809405759E+03  0.50400001928E-02 0.  1.
        1   -1    0    0  501    0  0.00000000000E+00  0.00000000000E+00 -0.13175549855E+04  0.13175549855E+04  0.50400001928E-02 0. -1.
    10030    2    1    2    0    0  0.00000000000E+00  0.00000000000E+00 -0.76946092792E+03  0.18656490431E+04  0.16995811932E+04 0.  0.
        2    1    3    3  502    0 -0.13263085283E+03 -0.41211214025E+03 -0.11874242602E+04  0.12638843828E+04  0.25500000920E-02 0. -1.
       -2    1    3    3    0  502  0.13263085283E+03  0.41211214025E+03  0.41796333229E+03  0.60176466032E+03  0.25500000920E-02 0.  1.
</event>
<event>
 5   0  0.5859822E-05  0.1694933E+04  0.7818609E-02  0.8764260E-01
       -2   -1    0    0    0  501  0.00000000000E+00  0.00000000000E+00  0.30469228702E+03  0.30469228703E+03  0.25500000920E-02 0. -1.
        2   -1    0    0  501    0  0.00000000000E+00  0.00000000000E+00 -0.23571297870E+04  0.23571297870E+04  0.25500000920E-02 0.  1.
    10030    2    1    2    0    0  0.00000000000E+00  0.00000000000E+00 -0.20524375000E+04  0.26618220740E+04  0.16949327605E+04 0.  0.
        5    1    3    3  502    0 -0.11257322134E+02 -0.16369187234E+03 -0.23319260217E+04  0.23376960489E+04  0.46999998093E+01 0.  1.
       -5    1    3    3    0  502  0.11257322134E+02  0.16369187234E+03  0.27948852174E+03  0.32412602511E+03  0.46999998093E+01 0. -1.
</event>
<event>
 5   0  0.2911632E-05  0.1700996E+04  0.7818609E-02  0.8760797E-01
       -1   -1    0    0    0  501  0.00000000000E+00  0.00000000000E+00  0.31955925246E+03  0.31955925250E+03  0.50400001928E-02 0. -1.
        1   -1    0    0  501    0  0.00000000000E+00  0.00000000000E+00 -0.22635764024E+04  0.22635764024E+04  0.50400001928E-02 0.  1.
    10030    2    1    2    0    0  0.00000000000E+00  0.00000000000E+00 -0.19440171499E+04  0.25831356549E+04  0.17009959237E+04 0.  0.
        1    1    3    3  502    0  0.55910633985E+03  0.18166578385E+03 -0.19053552268E+04  0.19939861827E+04  0.50400001928E-02 0.  1.
       -1    1    3    3    0  502 -0.55910633985E+03 -0.18166578385E+03 -0.38661923091E+02  0.58914947221E+03  0.50400001928E-02 0. -1.
</event>
<event>
 5   0  0.5671132E-05  0.1699606E+04  0.7818609E-02  0.8761589E-01
       -2   -1    0    0    0  501  0.00000000000E+00  0.00000000000E+00  0.37443212419E+03  0.37443212420E+03  0.25500000920E-02 0.  1.
        2   -1    0    0  501    0  0.00000000000E+00  0.00000000000E+00 -0.19286943824E+04  0.19286943824E+04  0.25500000920E-02 0. -1.
    10030    2    1    2    0    0  0.00000000000E+00  0.00000000000E+00 -0.15542622582E+04  0.23031265066E+04  0.16996059950E+04 0.  0.
        3    1    3    3  502    0  0.51675570248E+03 -0.37161501666E+03 -0.14138453755E+02  0.63665852914E+03  0.10100000352E+00 0.  1.
       -3    1    3    3    0  502 -0.51675570248E+03  0.37161501666E+03 -0.15401238045E+04  0.16664679775E+04  0.10100000352E+00 0. -1.
</event>
<event>
 5   0  0.5821584E-05  0.1700998E+04  0.7818609E-02  0.8760795E-01
        2   -1    0    0  501    0  0.00000000000E+00  0.00000000000E+00  0.13285244100E+04  0.13285244100E+04  0.25500000920E-02 0.  1.
       -2   -1    0    0    0  501  0.00000000000E+00  0.00000000000E+00 -0.54447502425E+03  0.54447502426E+03  0.25500000920E-02 0. -1.
    10030    2    1    2    0    0  0.00000000000E+00  0.00000000000E+00  0.78404938575E+03  0.18729994343E+04  0.17009977782E+04 0.  0.
        1    1    3    3  502    0 -0.29948283361E+03  0.79332031215E+03  0.46424053951E+03  0.96672972637E+03  0.50400001928E-02 0. -1.
       -1    1    3    3    0  502  0.29948283361E+03 -0.79332031215E+03  0.31980884624E+03  0.90626970790E+03  0.50400001928E-02 0.  1.
</event>
<event>
 5   0  0.5671132E-05  0.1704162E+04  0.7818609E-02  0.8758994E-01
       -2   -1    0    0    0  501  0.00000000000E+00  0.00000000000E+00  0.37956726624E+03  0.37956726625E+03  0.25500000920E-02 0. -1.
        2   -1    0    0  501    0  0.00000000000E+00  0.00000000000E+00 -0.19128162021E+04  0.19128162021E+04  0.25500000920E-02 0.  1.
    10030    2    1    2    0    0  0.00000000000E+00  0.00000000000E+00 -0.15332489358E+04  0.22923834683E+04  0.17041624531E+04 0.  0.
        3    1    3    3  502    0 -0.50882105963E+03  0.46610257609E+03 -0.14390626820E+04  0.15959485878E+04  0.10100000352E+00 0.  1.
       -3    1    3    3    0  502  0.50882105963E+03 -0.46610257609E+03 -0.94186253857E+02  0.69643488050E+03  0.10100000352E+00 0. -1.
</event>
<event>
 5   0  0.2967704E-05  0.1702611E+04  0.7818609E-02  0.8759877E-01
       -1   -1    0    0    0  501  0.00000000000E+00  0.00000000000E+00  0.53481793191E+03  0.53481793194E+03  0.50400001928E-02 0. -1.
        1   -1    0    0  501    0  0.00000000000E+00  0.00000000000E+00 -0.13550794745E+04  0.13550794745E+04  0.50400001928E-02 0.  1.
    10030    2    1    2    0    0  0.00000000000E+00  0.00000000000E+00 -0.82026154260E+03  0.18898974065E+04  0.17026107038E+04 0.  0.
        2    1    3    3  502    0  0.45373094367E+03 -0.41205176514E+03 -0.10659352674E+04  0.12295838404E+04  0.25500000920E-02 0.  1.
       -2    1    3    3    0  502 -0.45373094367E+03  0.41205176514E+03  0.24567372479E+03  0.66031356601E+03  0.25500000920E-02 0. -1.
</event>
<event>
 5   0  0.5755321E-05  0.1701159E+04  0.7818609E-02  0.8760704E-01
       -2   -1    0    0    0  501  0.00000000000E+00  0.00000000000E+00  0.24049669299E+03  0.24049669301E+03  0.25500000920E-02 0.  1.
        2   -1    0    0  501    0  0.00000000000E+00  0.00000000000E+00 -0.30082969529E+04  0.30082969529E+04  0.25500000920E-02 0. -1.
    10030    2    1    2    0    0  0.00000000000E+00  0.00000000000E+00 -0.27678002599E+04  0.32487936459E+04  0.17011589799E+04 0.  0.
        4    1    3    3  502    0  0.30434773233E+03 -0.56472155551E+03 -0.24505376369E+04  0.25331155323E+04  0.12699999809E+01 0. -1.
       -4    1    3    3    0  502 -0.30434773233E+03  0.56472155551E+03 -0.31726262308E+03  0.71567811363E+03  0.12699999809E+01 0.  1.
</event>
<event>
 5   0  0.2987859E-05  0.1700173E+04  0.7818609E-02  0.8761265E-01
       -1   -1    0    0    0  501  0.00000000000E+00  0.00000000000E+00  0.76569489558E+03  0.76569489559E+03  0.50400001928E-02 0.  1.
        1   -1    0    0  501    0  0.00000000000E+00  0.00000000000E+00 -0.94377981538E+03  0.94377981539E+03  0.50400001928E-02 0. -1.
    10030    2    1    2    0    0  0.00000000000E+00  0.00000000000E+00 -0.17808491980E+03  0.17094747110E+04  0.17001733879E+04 0.  0.
        5    1    3    3  502    0  0.84059136301E+03 -0.12555986924E+03 -0.10544664380E+03  0.85644626511E+03  0.46999998093E+01 0. -1.
       -5    1    3    3    0  502 -0.84059136301E+03  0.12555986924E+03 -0.72638276000E+02  0.85302844587E+03  0.46999998093E+01 0.  1.
</event>
<event>
 5   0  0.2098250E-05  0.1700118E+04  0.7818609E-02  0.8761297E-01
        4   -1    0    0  501    0  0.00000000000E+00  0.00000000000E+00  0.74167534286E+03  0.74167643019E+03  0.12699999809E+01 0.  1.
       -4   -1    0    0    0  501  0.00000000000E+00  0.00000000000E+00 -0.97427928555E+03  0.97428011329E+03  0.12699999809E+01 0. -1.
    10030    2    1    2    0    0  0.00000000000E+00  0.00000000000E+00 -0.23260394270E+03  0.17159565435E+04  0.17001183091E+04 0.  0.
        5    1    3    3  502    0  0.26965189261E+03 -0.24259912163E+03  0.65963293566E+03  0.75279756695E+03  0.46999998093E+01 0.  1.
       -5    1    3    3    0  502 -0.26965189261E+03  0.24259912163E+03 -0.89223687835E+03  0.96315897654E+03  0.46999998093E+01 0. -1.
</event>
<event>
 5   0  0.2098250E-05  0.1696253E+04  0.7818609E-02  0.8763504E-01
        3   -1    0    0  501    0  0.00000000000E+00  0.00000000000E+00  0.44319937163E+03  0.44319938314E+03  0.10100000352E+00 0.  1.
       -3   -1    0    0    0  501  0.00000000000E+00  0.00000000000E+00 -0.16230132520E+04  0.16230132552E+04  0.10100000352E+00 0. -1.
    10030    2    1    2    0    0  0.00000000000E+00  0.00000000000E+00 -0.11798138804E+04  0.20662126383E+04  0.16962528922E+04 0.  0.
        3    1    3    3  502    0 -0.10982736376E+03  0.31533844859E+03 -0.15395736551E+04  0.15753689843E+04  0.10100000352E+00 0.  1.
       -3    1    3    3    0  502  0.10982736376E+03 -0.31533844859E+03  0.35975977470E+03  0.49084365401E+03  0.10100000352E+00 0. -1.
</event>
<event>
 5   0  0.2967704E-05  0.1679072E+04  0.7818609E-02  0.8773391E-01
       -1   -1    0    0    0  501  0.00000000000E+00  0.00000000000E+00  0.10245402390E+04  0.10245402390E+04  0.50400001928E-02 0. -1.
        1   -1    0    0  501    0  0.00000000000E+00  0.00000000000E+00 -0.68793884963E+03  0.68793884965E+03  0.50400001928E-02 0.  1.
    10030    2    1    2    0    0  0.00000000000E+00  0.00000000000E+00  0.33660138934E+03  0.17124790886E+04  0.16790724028E+04 0.  0.
        2    1    3    3  502    0  0.12516137753E+02  0.58487882507E+03 -0.44582668249E+03  0.73552792234E+03  0.25500000920E-02 0.  1.
       -2    1    3    3    0  502 -0.12516137753E+02 -0.58487882507E+03  0.78242807183E+03  0.97695116629E+03  0.25500000920E-02 0. -1.
</event>
<event>
 5   0  0.2993769E-05  0.1699368E+04  0.7818609E-02  0.8761725E-01
        1   -1    0    0  501    0  0.00000000000E+00  0.00000000000E+00  0.91376840799E+03  0.91376840800E+03  0.50400001928E-02 0. -1.
       -1   -1    0    0    0  501  0.00000000000E+00  0.00000000000E+00 -0.79009376484E+03  0.79009376486E+03  0.50400001928E-02 0.  1.
    10030    2    1    2    0    0  0.00000000000E+00  0.00000000000E+00  0.12367464314E+03  0.17038621729E+04  0.16993677903E+04 0.  0.
        3    1    3    3  502    0  0.20995383355E+03 -0.11001195786E+03 -0.75627376488E+03  0.79254858573E+03  0.10100000352E+00 0.  1.
       -3    1    3    3    0  502 -0.20995383355E+03  0.11001195786E+03  0.87994840803E+03  0.91131358713E+03  0.10100000352E+00 0. -1.
</event>
<event>
 5   0  0.2987859E-05  0.1700339E+04  0.7818609E-02  0.8761171E-01
        1   -1    0    0  501    0  0.00000000000E+00  0.00000000000E+00  0.79760491575E+03  0.79760491576E+03  0.50400001928E-02 0.  1.
       -1   -1    0    0    0  501  0.00000000000E+00  0.00000000000E+00 -0.90619862078E+03  0.90619862080E+03  0.50400001928E-02 0. -1.
    10030    2    1    2    0    0  0.00000000000E+00  0.00000000000E+00 -0.10859370504E+03  0.17038035366E+04  0.17003393480E+04 0.  0.
        5    1    3    3  502    0 -0.40947362021E+03 -0.36036911873E+03 -0.70772343258E+03  0.89354859655E+03  0.46999998093E+01 0. -1.
       -5    1    3    3    0  502  0.40947362021E+03  0.36036911873E+03  0.59912972755E+03  0.81025494001E+03  0.46999998093E+01 0.  1.
</event>
<event>
 5   0  0.5859822E-05  0.1675761E+04  0.7818609E-02  0.8775311E-01
        2   -1    0    0  501    0  0.00000000000E+00  0.00000000000E+00  0.15231423361E+04  0.15231423361E+04  0.25500000920E-02 0. -1.
       -2   -1    0    0    0  501  0.00000000000E+00  0.00000000000E+00 -0.46091801272E+03  0.46091801273E+03  0.25500000920E-02 0.  1.
    10030    2    1    2    0    0  0.00000000000E+00  0.00000000000E+00  0.10622243233E+04  0.19840603488E+04  0.16757610076E+04 0.  0.
        5    1    3    3  502    0 -0.70022815007E+03 -0.34852886799E+03  0.17546624256E+03  0.80162480391E+03  0.46999998093E+01 0. -1.
       -5    1    3    3    0  502  0.70022815007E+03  0.34852886799E+03  0.88675808078E+03  0.11824355449E+04  0.46999998093E+01 0.  1.
</event>
<event>
 5   0  0.2911632E-05  0.1700571E+04  0.7818609E-02  0.8761039E-01
       -1   -1    0    0    0  501  0.00000000000E+00  0.00000000000E+00  0.35299868054E+03  0.35299868057E+03  0.50400001928E-02 0. -1.
        1   -1    0    0  501    0  0.00000000000E+00  0.00000000000E+00 -0.20481240487E+04  0.20481240487E+04  0.50400001928E-02 0.  1.
    10030    2    1    2    0    0  0.00000000000E+00  0.00000000000E+00 -0.16951253682E+04  0.24011227293E+04  0.17005705946E+04 0.  0.
        1    1    3    3  502    0 -0.42319252949E+03 -0.66892025659E+03 -0.40908678444E+03  0.89100966545E+03  0.50400001928E-02 0. -1.
       -1    1    3    3    0  502  0.42319252949E+03  0.66892025659E+03 -0.12860385837E+04  0.15101130638E+04  0.50400001928E-02 0.  1.
</event>
<event>
 5   0  0.2987859E-05  0.1697814E+04  0.7818609E-02  0.8762612E-01
        1   -1    0    0  501    0  0.00000000000E+00  0.00000000000E+00  0.23713179209E+04  0.23713179209E+04  0.50400001928E-02 0.  1.
       -1   -1    0    0    0  501  0.00000000000E+00  0.00000000000E+00 -0.30389969824E+03  0.30389969828E+03  0.50400001928E-02 0. -1.
    10030    2    1    2    0    0  0.00000000000E+00  0.00000000000E+00  0.20674182226E+04  0.26752176192E+04  0.16978136537E+04 0.  0.
        5    1    3    3  502    0 -0.64573687242E+03 -0.54631086957E+03  0.92020477932E+03  0.12498922356E+04  0.46999998093E+01 0. -1.
       -5    1    3    3    0  502  0.64573687242E+03  0.54631086957E+03  0.11472134433E+04  0.14253253836E+04  0.46999998093E+01 0.  1.
</event>
<event>
 5   0  0.2966258E-05  0.1704129E+04  0.7818609E-02  0.8759013E-01
        1   -1    0    0  501    0  0.00000000000E+00  0.00000000000E+00  0.61518304834E+03  0.61518304836E+03  0.50400001928E-02 0. -1.
       -1   -1    0    0    0  501  0.00000000000E+00  0.00000000000E+00 -0.11801586622E+04  0.11801586623E+04  0.50400001928E-02 0.  1.
    10030    2    1    2    0    0  0.00000000000E+00  0.00000000000E+00 -0.56497561390E+03  0.17953417106E+04  0.17041286376E+04 0.  0.
        4    1    3    3  502    0 -0.10324564330E+03  0.30658724095E+03  0.54796546570E+03  0.63633573188E+03  0.12699999809E+01 0. -1.
       -4    1    3    3    0  502  0.10324564330E+03 -0.30658724095E+03 -0.11129410796E+04  0.11590059787E+04  0.12699999809E+01 0.  1.
</event>
<event>
 5   0  0.2967704E-05  0.1731447E+04  0.7818609E-02  0.8743629E-01
       -1   -1    0    0    0  501  0.00000000000E+00  0.00000000000E+00  0.55673231375E+03  0.55673231377E+03  0.50400001928E-02 0.  1.
        1   -1    0    0  501    0  0.00000000000E+00  0.00000000000E+00 -0.13462074111E+04  0.13462074111E+04  0.50400001928E-02 0. -1.
    10030    2    1    2    0    0  0.00000000000E+00  0.00000000000E+00 -0.78947509731E+03  0.19029397248E+04  0.17314469865E+04 0.  0.
        2    1    3    3  502    0 -0.43874929160E+03  0.57624452946E+03  0.12649123666E+03  0.73522699322E+03  0.25500000920E-02 0.  1.
       -2    1    3    3    0  502  0.43874929160E+03 -0.57624452946E+03 -0.91596633396E+03  0.11677127316E+04  0.25500000920E-02 0. -1.
</event>
<event>
 5   0  0.5652631E-05  0.1699507E+04  0.7818609E-02  0.8761646E-01
        2   -1    0    0  501    0  0.00000000000E+00  0.00000000000E+00  0.22037808441E+04  0.22037808441E+04  0.25500000920E-02 0.  1.
       -2   -1    0    0    0  501  0.00000000000E+00  0.00000000000E+00 -0.32765545525E+03  0.32765545526E+03  0.25500000920E-02 0. -1.
    10030    2    1    2    0    0  0.00000000000E+00  0.00000000000E+00  0.18761253888E+04  0.25314362993E+04  0.16995067705E+04 0.  0.
        2    1    3    3  502    0  0.71361601654E+03 -0.24949449916E+03  0.15160731172E+04  0.16940994719E+04  0.25500000920E-02 0.  1.
       -2    1    3    3    0  502 -0.71361601654E+03  0.24949449916E+03  0.36005227162E+03  0.83733682737E+03  0.25500000920E-02 0. -1.
</event>
<event>
 5   0  0.5671132E-05  0.1699936E+04  0.7818609E-02  0.8761401E-01
       -2   -1    0    0    0  501  0.00000000000E+00  0.00000000000E+00  0.54053981619E+03  0.54053981619E+03  0.25500000920E-02 0.  1.
        2   -1    0    0  501    0  0.00000000000E+00  0.00000000000E+00 -0.13365256304E+04  0.13365256304E+04  0.25500000920E-02 0. -1.
    10030    2    1    2    0    0  0.00000000000E+00  0.00000000000E+00 -0.79598581424E+03  0.18770654466E+04  0.16999356677E+04 0.  0.
        3    1    3    3  502    0 -0.32137841075E+02  0.63045164986E+03 -0.10264582782E+04  0.12050388917E+04  0.10100000352E+00 0. -1.
       -3    1    3    3    0  502  0.32137841075E+02 -0.63045164986E+03  0.23047246391E+03  0.67202655488E+03  0.10100000352E+00 0.  1.
</event>
<event>
 5   0  0.5755321E-05  0.1676727E+04  0.7818609E-02  0.8774750E-01
        2   -1    0    0  501    0  0.00000000000E+00  0.00000000000E+00  0.62201500406E+03  0.62201500406E+03  0.25500000920E-02 0. -1.
       -2   -1    0    0    0  501  0.00000000000E+00  0.00000000000E+00 -0.11299623112E+04  0.11299623112E+04  0.25500000920E-02 0.  1.
    10030    2    1    2    0    0  0.00000000000E+00  0.00000000000E+00 -0.50794730716E+03  0.17519773153E+04  0.16767271831E+04 0.  0.
        4    1    3    3  502    0 -0.30228775551E+03  0.66527910685E+03 -0.68336397780E+03  0.10004809424E+04  0.12699999809E+01 0.  1.
       -4    1    3    3    0  502  0.30228775551E+03 -0.66527910685E+03  0.17541667064E+03  0.75149637283E+03  0.12699999809E+01 0. -1.
</event>
<event>
 5   0  0.2987859E-05  0.1689252E+04  0.7818609E-02  0.8767518E-01
       -1   -1    0    0    0  501  0.00000000000E+00  0.00000000000E+00  0.35637242393E+03  0.35637242396E+03  0.50400001928E-02 0. -1.
        1   -1    0    0  501    0  0.00000000000E+00  0.00000000000E+00 -0.20018191295E+04  0.20018191296E+04  0.50400001928E-02 0.  1.
    10030    2    1    2    0    0  0.00000000000E+00  0.00000000000E+00 -0.16454467056E+04  0.23581915535E+04  0.16892520659E+04 0.  0.
        5    1    3    3  502    0 -0.63691560795E+03 -0.44243489311E+03 -0.35561476864E+03  0.85316708795E+03  0.46999998093E+01 0. -1.
       -5    1    3    3    0  502  0.63691560795E+03  0.44243489311E+03 -0.12898319370E+04  0.15050244656E+04  0.46999998093E+01 0.  1.
</event>
<event>
 5   0  0.5821584E-05  0.1700368E+04  0.7818609E-02  0.8761154E-01
       -2   -1    0    0    0  501  0.00000000000E+00  0.00000000000E+00  0.59136342552E+03  0.59136342552E+03  0.25500000920E-02 0.  1.
        2   -1    0    0  501    0  0.00000000000E+00  0.00000000000E+00 -0.12222825768E+04  0.12222825768E+04  0.25500000920E-02 0. -1.
    10030    2    1    2    0    0  0.00000000000E+00  0.00000000000E+00 -0.63091915126E+03  0.18136460023E+04  0.17003684443E+04 0.  0.
        1    1    3    3  502    0 -0.46863264533E+03 -0.64958496968E+03 -0.11452416031E+02  0.80106700529E+03  0.50400001928E-02 0.  1.
       -1    1    3    3    0  502  0.46863264533E+03  0.64958496968E+03 -0.61946673523E+03  0.10125789970E+04  0.50400001928E-02 0. -1.
</event>
<event>
 5   0  0.5859822E-05  0.1726676E+04  0.7818609E-02  0.8746295E-01
       -2   -1    0    0    0  501  0.00000000000E+00  0.00000000000E+00  0.61073608217E+03  0.61073608218E+03  0.25500000920E-02 0. -1.
        2   -1    0    0  501    0  0.00000000000E+00  0.00000000000E+00 -0.12204168394E+04  0.12204168394E+04  0.25500000920E-02 0.  1.
    10030    2    1    2    0    0  0.00000000000E+00  0.00000000000E+00 -0.60968075724E+03  0.18311529216E+04  0.17266761122E+04 0.  0.
        5    1    3    3  502    0 -0.65918856969E+03 -0.53473875163E+03 -0.47203571762E+03  0.97124400210E+03  0.46999998093E+01 0.  1.
       -5    1    3    3    0  502  0.65918856969E+03  0.53473875163E+03 -0.13764503963E+03  0.85990891950E+03  0.46999998093E+01 0. -1.
</event>
<event>
 5   0  0.2966258E-05  0.1702504E+04  0.7818609E-02  0.8759938E-01
       -1   -1    0    0    0  501  0.00000000000E+00  0.00000000000E+00  0.51674488305E+03  0.51674488307E+03  0.50400001928E-02 0. -1.
        1   -1    0    0  501    0  0.00000000000E+00  0.00000000000E+00 -0.14022971693E+04  0.14022971693E+04  0.50400001928E-02 0.  1.
    10030    2    1    2    0    0  0.00000000000E+00  0.00000000000E+00 -0.88555228626E+03  0.19190420524E+04  0.17025039052E+04 0.  0.
        4    1    3    3  502    0 -0.63275765567E+03  0.56935210554E+03 -0.43243281858E+03  0.95474804340E+03  0.12699999809E+01 0. -1.
       -4    1    3    3    0  502  0.63275765567E+03 -0.56935210554E+03 -0.45311946769E+03  0.96429400900E+03  0.12699999809E+01 0.  1.
</event>
<event>
 5   0  0.2967704E-05  0.1699866E+04  0.7818609E-02  0.8761441E-01
        1   -1    0    0  501    0  0.00000000000E+00  0.00000000000E+00  0.71677017881E+03  0.71677017883E+03  0.50400001928E-02 0. -1.
       -1   -1    0    0    0  501  0.00000000000E+00  0.00000000000E+00 -0.10078347339E+04  0.10078347339E+04  0.50400001928E-02 0.  1.
    10030    2    1    2    0    0  0.00000000000E+00  0.00000000000E+00 -0.29106455510E+03  0.17246049127E+04  0.16998657388E+04 0.  0.
        2    1    3    3  502    0  0.37159227850E+03  0.76169523475E+03 -0.80367993400E+02  0.85130456739E+03  0.25500000920E-02 0. -1.
       -2    1    3    3    0  502 -0.37159227850E+03 -0.76169523475E+03 -0.21069656170E+03  0.87330034536E+03  0.25500000920E-02 0.  1.
</event>
<event>
 5   0  0.2967704E-05  0.1697677E+04  0.7818609E-02  0.8762690E-01
       -1   -1    0    0    0  501  0.00000000000E+00  0.00000000000E+00  0.54697661485E+03  0.54697661488E+03  0.50400001928E-02 0. -1.
        1   -1    0    0  501    0  0.00000000000E+00  0.00000000000E+00 -0.13172898568E+04  0.13172898568E+04  0.50400001928E-02 0.  1.
    10030    2    1    2    0    0  0.00000000000E+00  0.00000000000E+00 -0.77031324193E+03  0.18642664717E+04  0.16976769383E+04 0.  0.
        2    1    3    3  502    0 -0.60053654540E+03 -0.22178300651E+03  0.22694003059E+03  0.67921544581E+03  0.25500000920E-02 0. -1.
       -2    1    3    3    0  502  0.60053654540E+03  0.22178300651E+03 -0.99725327252E+03  0.11850510259E+04  0.25500000920E-02 0.  1.
</event>
<event>
 5   0  0.2987859E-05  0.1701361E+04  0.7818609E-02  0.8760589E-01
        1   -1    0    0  501    0  0.00000000000E+00  0.00000000000E+00  0.50441349103E+03  0.50441349106E+03  0.50400001928E-02 0. -1.
       -1   -1    0    0    0  501  0.00000000000E+00  0.00000000000E+00 -0.14346504220E+04  0.14346504220E+04  0.50400001928E-02 0.  1.
    10030    2    1    2    0    0  0.00000000000E+00  0.00000000000E+00 -0.93023693098E+03  0.19390639131E+04  0.17013606647E+04 0.  0.
        5    1    3    3  502    0 -0.75579272567E+03  0.16017155126E+03 -0.59346216186E+02  0.77486878462E+03  0.46999998093E+01 0. -1.
       -5    1    3    3    0  502  0.75579272567E+03 -0.16017155126E+03 -0.87089071479E+03  0.11641951285E+04  0.46999998093E+01 0.  1.
</event>
<event>
 5   0  0.2967704E-05  0.1702114E+04  0.7818609E-02  0.8760160E-01
       -1   -1    0    0    0  501  0.00000000000E+00  0.00000000000E+00  0.90202788135E+03  0.90202788137E+03  0.50400001928E-02 0.  1.
        1   -1    0    0  501    0  0.00000000000E+00  0.00000000000E+00 -0.80296610681E+03  0.80296610682E+03  0.50400001928E-02 0. -1.
    10030    2    1    2    0    0  0.00000000000E+00  0.00000000000E+00  0.99061774546E+02  0.17049939882E+04  0.17021137637E+04 0.  0.
        2    1    3    3  502    0  0.78200441297E+03 -0.18310432645E+03 -0.23244095009E+03  0.83611416179E+03  0.25500000920E-02 0.  1.
       -2    1    3    3    0  502 -0.78200441297E+03  0.18310432645E+03  0.33150272464E+03  0.86887982639E+03  0.25500000920E-02 0. -1.
</event>
<event>
 5   0  0.5652631E-05  0.1699992E+04  0.7818609E-02  0.8761369E-01
        2   -1    0    0  501    0  0.00000000000E+00  0.00000000000E+00  0.23132476345E+04  0.23132476345E+04  0.25500000920E-02 0.  1.
       -2   -1    0    0    0  501  0.00000000000E+00  0.00000000000E+00 -0.31232836396E+03  0.31232836397E+03  0.25500000920E-02 0. -1.
    10030    2    1    2    0    0  0.00000000000E+00  0.00000000000E+00  0.20009192706E+04  0.26255759985E+04  0.16999915872E+04 0.  0.
        2    1    3    3  502    0 -0.65578843329E+02 -0.56166586427E+03  0.20334724942E+02  0.56584682452E+03  0.25500000920E-02 0. -1.
       -2    1    3    3    0  502  0.65578843329E+02  0.56166586427E+03  0.19805845456E+04  0.20597291740E+04  0.25500000920E-02 0.  1.
</event>
<event>
 5   0  0.5652631E-05  0.1700964E+04  0.7818609E-02  0.8760815E-01
       -2   -1    0    0    0  501  0.00000000000E+00  0.00000000000E+00  0.53823597161E+03  0.53823597162E+03  0.25500000920E-02 0.  1.
        2   -1    0    0  501    0  0.00000000000E+00  0.00000000000E+00 -0.13438709869E+04  0.13438709869E+04  0.25500000920E-02 0. -1.
    10030    2    1    2    0    0  0.00000000000E+00  0.00000000000E+00 -0.80563501531E+03  0.18821069585E+04  0.17009640871E+04 0.  0.
        2    1    3    3  502    0 -0.46454046080E+03 -0.56194370469E+03 -0.88733204034E+03  0.11484497015E+04  0.25500000920E-02 0. -1.
       -2    1    3    3    0  502  0.46454046080E+03  0.56194370469E+03  0.81697025030E+02  0.73365725708E+03  0.25500000920E-02 0.  1.
</event>
<event>
 5   0  0.5671132E-05  0.1705260E+04  0.7818609E-02  0.8758370E-01
       -2   -1    0    0    0  501  0.00000000000E+00  0.00000000000E+00  0.81525687779E+03  0.81525687779E+03  0.25500000920E-02 0. -1.
        2   -1    0    0  501    0  0.00000000000E+00  0.00000000000E+00 -0.89171683452E+03  0.89171683453E+03  0.25500000920E-02 0.  1.
    10030    2    1    2    0    0  0.00000000000E+00  0.00000000000E+00 -0.76459956735E+02  0.17069737123E+04  0.17052604287E+04 0.  0.
        3    1    3    3  502    0 -0.31597309767E+03  0.33318751449E+03  0.68091046853E+03  0.82127461583E+03  0.10100000352E+00 0. -1.
       -3    1    3    3    0  502  0.31597309767E+03 -0.33318751449E+03 -0.75737042526E+03  0.88569909649E+03  0.10100000352E+00 0.  1.
</event>
<event>
 5   0  0.2911632E-05  0.1700525E+04  0.7818609E-02  0.8761065E-01
        1   -1    0    0  501    0  0.00000000000E+00  0.00000000000E+00  0.21847610340E+04  0.21847610340E+04  0.50400001928E-02 0. -1.
       -1   -1    0    0    0  501  0.00000000000E+00  0.00000000000E+00 -0.33090416384E+03  0.33090416388E+03  0.50400001928E-02 0.  1.
    10030    2    1    2    0    0  0.00000000000E+00  0.00000000000E+00  0.18538568701E+04  0.25156651978E+04  0.17005252402E+04 0.  0.
        1    1    3    3  502    0  0.55729321606E+03 -0.53185547112E+03  0.39456824717E+03  0.86552300520E+03  0.50400001928E-02 0.  1.
       -1    1    3    3    0  502 -0.55729321606E+03  0.53185547112E+03  0.14592886229E+04  0.16501421926E+04  0.50400001928E-02 0. -1.
</event>
<event>
 5   0  0.2967704E-05  0.1704146E+04  0.7818609E-02  0.8759003E-01
        1   -1    0    0  501    0  0.00000000000E+00  0.00000000000E+00  0.11808665771E+04  0.11808665771E+04  0.50400001928E-02 0.  1.
       -1   -1    0    0    0  501  0.00000000000E+00  0.00000000000E+00 -0.61482698374E+03  0.61482698376E+03  0.50400001928E-02 0. -1.
    10030    2    1    2    0    0  0.00000000000E+00  0.00000000000E+00  0.56603959337E+03  0.17956935609E+04  0.17041462799E+04 0.  0.
        2    1    3    3  502    0  0.45906043253E+03 -0.39451583723E+03 -0.34890446564E+03  0.69865123824E+03  0.25500000920E-02 0. -1.
       -2    1    3    3    0  502 -0.45906043253E+03  0.39451583723E+03  0.91494405901E+03  0.10970423226E+04  0.25500000920E-02 0.  1.
</event>
<event>
 5   0  0.2967704E-05  0.1700809E+04  0.7818609E-02  0.8760903E-01
       -1   -1    0    0    0  501  0.00000000000E+00  0.00000000000E+00  0.62962832779E+03  0.62962832781E+03  0.50400001928E-02 0.  1.
        1   -1    0    0  501    0  0.00000000000E+00  0.00000000000E+00 -0.11485947677E+04  0.11485947677E+04  0.50400001928E-02 0. -1.
    10030    2    1    2    0    0  0.00000000000E+00  0.00000000000E+00 -0.51896643988E+03  0.17782230955E+04  0.17008089874E+04 0.  0.
        2    1    3    3  502    0 -0.47221446988E+03 -0.70684303580E+03 -0.28453680550E+03  0.89642332439E+03  0.25500000920E-02 0.  1.
       -2    1    3    3    0  502  0.47221446988E+03  0.70684303580E+03 -0.23442963439E+03  0.88179977110E+03  0.25500000920E-02 0. -1.
</event>
<event>
 5   0  0.5671132E-05  0.1706205E+04  0.7818609E-02  0.8757834E-01
        2   -1    0    0  501    0  0.00000000000E+00  0.00000000000E+00  0.65613180086E+03  0.65613180087E+03  0.25500000920E-02 0. -1.
       -2   -1    0    0    0  501  0.00000000000E+00  0.00000000000E+00 -0.11092032750E+04  0.11092032750E+04  0.25500000920E-02 0.  1.
    10030    2    1    2    0    0  0.00000000000E+00  0.00000000000E+00 -0.45307147412E+03  0.17653350759E+04  0.17062046095E+04 0.  0.
        3    1    3    3  502    0  0.59174803309E+03 -0.23335308454E+03  0.36164069423E+03  0.73171264760E+03  0.10100000352E+00 0. -1.
       -3    1    3    3    0  502 -0.59174803309E+03  0.23335308454E+03 -0.81471216835E+03  0.10336224283E+04  0.10100000352E+00 0.  1.
</event>
<event>
 5   0  0.5652631E-05  0.1706710E+04  0.7818609E-02  0.8757547E-01
        2   -1    0    0  501    0  0.00000000000E+00  0.00000000000E+00  0.17336086417E+04  0.17336086417E+04  0.25500000920E-02 0. -1.
       -2   -1    0    0    0  501  0.00000000000E+00  0.00000000000E+00 -0.42005706713E+03  0.42005706714E+03  0.25500000920E-02 0.  1.
    10030    2    1    2    0    0  0.00000000000E+00  0.00000000000E+00  0.13135515746E+04  0.21536657088E+04  0.17067097722E+04 0.  0.
        2    1    3    3  502    0  0.35795026434E+03 -0.24448066431E+03 -0.27078478700E+03  0.51110036963E+03  0.25500000920E-02 0.  1.
       -2    1    3    3    0  502 -0.35795026434E+03  0.24448066431E+03  0.15843363616E+04  0.16425653392E+04  0.25500000920E-02 0. -1.
</event>
<event>
 5   0  0.5652631E-05  0.1699593E+04  0.7818609E-02  0.8761596E-01
       -2   -1    0    0    0  501  0.00000000000E+00  0.00000000000E+00  0.71853420130E+03  0.71853420131E+03  0.25500000920E-02 0.  1.
        2   -1    0    0  501    0  0.00000000000E+00  0.00000000000E+00 -0.10050379892E+04  0.10050379892E+04  0.25500000920E-02 0. -1.
    10030    2    1    2    0    0  0.00000000000E+00  0.00000000000E+00 -0.28650378791E+03  0.17235721905E+04  0.16995930911E+04 0.  0.
        2    1    3    3  502    0  0.75469521656E+03 -0.36246519326E+02  0.25117707440E+03  0.79622145334E+03  0.25500000920E-02 0.  1.
       -2    1    3    3    0  502 -0.75469521656E+03  0.36246519326E+02 -0.53768086231E+03  0.92735073719E+03  0.25500000920E-02 0. -1.
</event>
<event>
 5   0  0.2966258E-05  0.1699787E+04  0.7818609E-02  0.8761486E-01
        1   -1    0    0  501    0  0.00000000000E+00  0.00000000000E+00  0.80637157350E+03  0.80637157352E+03  0.50400001928E-02 0. -1.
       -1   -1    0    0    0  501  0.00000000000E+00  0.00000000000E+00 -0.89576464955E+03  0.89576464956E+03  0.50400001928E-02 0.  1.
    10030    2    1    2    0    0  0.00000000000E+00  0.00000000000E+00 -0.89393076042E+02  0.17021362231E+04  0.16997872219E+04 0.  0.
        4    1    3    3  502    0 -0.10096360428E+03  0.16648700735E+03  0.78373504322E+03  0.80756040262E+03  0.12699999809E+01 0. -1.
       -4    1    3    3    0  502  0.10096360428E+03 -0.16648700735E+03 -0.87312811926E+03  0.89457582046E+03  0.12699999809E+01 0.  1.
</event>
<event>
 5   0  0.2098250E-05  0.1699191E+04  0.7818609E-02  0.8761826E-01
       -3   -1    0    0    0  501  0.00000000000E+00  0.00000000000E+00  0.13960897218E+04  0.13960897255E+04  0.10100000352E+00 0.  1.
        3   -1    0    0  501    0  0.00000000000E+00  0.00000000000E+00 -0.51702432586E+03  0.51702433573E+03  0.10100000352E+00 0. -1.
    10030    2    1    2    0    0  0.00000000000E+00  0.00000000000E+00  0.87906539597E+03  0.19131140612E+04  0.16991908194E+04 0.  0.
        4    1    3    3  502    0 -0.25610346319E+03  0.38450276332E+03  0.12423055514E+04  0.13254267444E+04  0.12699999809E+01 0.  1.
       -4    1    3    3    0  502  0.25610346319E+03 -0.38450276332E+03 -0.36324015546E+03  0.58768731678E+03  0.12699999809E+01 0. -1.
</event>
<event>
 5   0  0.5821584E-05  0.1697547E+04  0.7818609E-02  0.8762764E-01
       -2   -1    0    0    0  501  0.00000000000E+00  0.00000000000E+00  0.74547603530E+03  0.74547603530E+03  0.25500000920E-02 0.  1.
        2   -1    0    0  501    0  0.00000000000E+00  0.00000000000E+00 -0.96638484464E+03  0.96638484464E+03  0.25500000920E-02 0. -1.
    10030    2    1    2    0    0  0.00000000000E+00  0.00000000000E+00 -0.22090880934E+03  0.17118608799E+04  0.16975473396E+04 0.  0.
        1    1    3    3  502    0  0.25536326597E+03 -0.39920697805E+03 -0.82055096840E+03  0.94756556538E+03  0.50400001928E-02 0. -1.
       -1    1    3    3    0  502 -0.25536326597E+03  0.39920697805E+03  0.59964215906E+03  0.76429531457E+03  0.50400001928E-02 0.  1.
</event>
<event>
 5   0  0.5671132E-05  0.1698535E+04  0.7818609E-02  0.8762200E-01
       -2   -1    0    0    0  501  0.00000000000E+00  0.00000000000E+00  0.83140170862E+03  0.83140170862E+03  0.25500000920E-02 0.  1.
        2   -1    0    0  501    0  0.00000000000E+00  0.00000000000E+00 -0.86751727781E+03  0.86751727782E+03  0.25500000920E-02 0. -1.
    10030    2    1    2    0    0  0.00000000000E+00  0.00000000000E+00 -0.36115569192E+02  0.16989189864E+04  0.16985350712E+04 0.  0.
        3    1    3    3  502    0  0.31962013979E+03 -0.22091927725E+03 -0.77340592199E+03  0.86551666142E+03  0.10100000352E+00 0. -1.
       -3    1    3    3    0  502 -0.31962013979E+03  0.22091927725E+03  0.73729035280E+03  0.83340232502E+03  0.10100000352E+00 0.  1.
</event>
<event>
 5   0  0.2967704E-05  0.1699677E+04  0.7818609E-02  0.8761549E-01
       -1   -1    0    0    0  501  0.00000000000E+00  0.00000000000E+00  0.70981359041E+03  0.70981359042E+03  0.50400001928E-02 0.  1.
        1   -1    0    0  501    0  0.00000000000E+00  0.00000000000E+00 -0.10174862974E+04  0.10174862974E+04  0.50400001928E-02 0. -1.
    10030    2    1    2    0    0  0.00000000000E+00  0.00000000000E+00 -0.30767270696E+03  0.17272998878E+04  0.16996771481E+04 0.  0.
        2    1    3    3  502    0 -0.54831554009E+03 -0.17170076633E+03 -0.79018729960E+03  0.97699900364E+03  0.25500000920E-02 0. -1.
       -2    1    3    3    0  502  0.54831554009E+03  0.17170076633E+03  0.48251459264E+03  0.75030088416E+03  0.25500000920E-02 0.  1.
</event>
<event>
 5   0  0.5671132E-05  0.1695047E+04  0.7818609E-02  0.8764194E-01
       -2   -1    0    0    0  501  0.00000000000E+00  0.00000000000E+00  0.54284569666E+03  0.54284569666E+03  0.25500000920E-02 0.  1.
        2   -1    0    0  501    0  0.00000000000E+00  0.00000000000E+00 -0.13232044384E+04  0.13232044384E+04  0.25500000920E-02 0. -1.
    10030    2    1    2    0    0  0.00000000000E+00  0.00000000000E+00 -0.78035874174E+03  0.18660501351E+04  0.16950467075E+04 0.  0.
        3    1    3    3  502    0 -0.32859723654E+02 -0.44809680759E+03 -0.11813049002E+04  0.12638638328E+04  0.10100000352E+00 0. -1.
       -3    1    3    3    0  502  0.32859723654E+02  0.44809680759E+03  0.40094615848E+03  0.60218630225E+03  0.10100000352E+00 0.  1.
</event>
<event>
 5   0  0.5652631E-05  0.1698785E+04  0.7818609E-02  0.8762058E-01
        2   -1    0    0  501    0  0.00000000000E+00  0.00000000000E+00  0.40672566371E+03  0.40672566372E+03  0.25500000920E-02 0. -1.
       -2   -1    0    0    0  501  0.00000000000E+00  0.00000000000E+00 -0.17738424707E+04  0.17738424707E+04  0.25500000920E-02 0.  1.
    10030    2    1    2    0    0  0.00000000000E+00  0.00000000000E+00 -0.13671168070E+04  0.21805681344E+04  0.16987845728E+04 0.  0.
        2    1    3    3  502    0  0.44329517264E+03  0.99109592159E+02 -0.16048379577E+04  0.16678843461E+04  0.25500000920E-02 0.  1.
       -2    1    3    3    0  502 -0.44329517264E+03 -0.99109592159E+02  0.23772115072E+03  0.51268378836E+03  0.25500000920E-02 0. -1.
</event>
<event>
 5   0  0.5859822E-05  0.1703537E+04  0.7818609E-02  0.8759350E-01
       -2   -1    0    0    0  501  0.00000000000E+00  0.00000000000E+00  0.56353277933E+03  0.56353277934E+03  0.25500000920E-02 0. -1.
        2   -1    0    0  501    0  0.00000000000E+00  0.00000000000E+00 -0.12874310506E+04  0.12874310506E+04  0.25500000920E-02 0.  1.
    10030    2    1    2    0    0  0.00000000000E+00  0.00000000000E+00 -0.72389827127E+03  0.18509638299E+04  0.17035370241E+04 0.  0.
        5    1    3    3  502    0 -0.32022131488E+03  0.34155117879E+03 -0.11350665110E+04  0.12278424055E+04  0.46999998093E+01 0.  1.
       -5    1    3    3    0  502  0.32022131488E+03 -0.34155117879E+03  0.41116823976E+03  0.62312142446E+03  0.46999998093E+01 0. -1.
</event>
<event>
 5   0  0.2987859E-05  0.1678540E+04  0.7818609E-02  0.8773699E-01
        1   -1    0    0  501    0  0.00000000000E+00  0.00000000000E+00  0.59769308673E+03  0.59769308675E+03  0.50400001928E-02 0.  1.
       -1   -1    0    0    0  501  0.00000000000E+00  0.00000000000E+00 -0.11784881214E+04  0.11784881215E+04  0.50400001928E-02 0. -1.
    10030    2    1    2    0    0  0.00000000000E+00  0.00000000000E+00 -0.58079503471E+03  0.17761812082E+04  0.16785400835E+04 0.  0.
        5    1    3    3  502    0 -0.62564700393E+03 -0.50349987043E+03 -0.54830862797E+03  0.97242518199E+03  0.46999998093E+01 0. -1.
       -5    1    3    3    0  502  0.62564700393E+03  0.50349987043E+03 -0.32486406740E+02  0.80375602622E+03  0.46999998093E+01 0.  1.
</event>
<event>
 5   0  0.2987859E-05  0.1700567E+04  0.7818609E-02  0.8761041E-01
        1   -1    0    0  501    0  0.00000000000E+00  0.00000000000E+00  0.13656213472E+04  0.13656213472E+04  0.50400001928E-02 0.  1.
       -1   -1    0    0    0  501  0.00000000000E+00  0.00000000000E+00 -0.52941626895E+03  0.52941626897E+03  0.50400001928E-02 0. -1.
    10030    2    1    2    0    0  0.00000000000E+00  0.00000000000E+00  0.83620507821E+03  0.18950376161E+04  0.17005671506E+04 0.  0.
        5    1    3    3  502    0 -0.23008243351E+03  0.51008785799E+03 -0.29528785511E+03  0.63272786919E+03  0.46999998093E+01 0. -1.
       -5    1    3    3    0  502  0.23008243351E+03 -0.51008785799E+03  0.11314929333E+04  0.12623097469E+04  0.46999998093E+01 0.  1.
</event>
<event>
 5   0  0.5821584E-05  0.1703113E+04  0.7818609E-02  0.8759591E-01
        2   -1    0    0  501    0  0.00000000000E+00  0.00000000000E+00  0.90036860877E+03  0.90036860878E+03  0.25500000920E-02 0.  1.
       -2   -1    0    0    0  501  0.00000000000E+00  0.00000000000E+00 -0.80539087439E+03  0.80539087440E+03  0.25500000920E-02 0. -1.
    10030    2    1    2    0    0  0.00000000000E+00  0.00000000000E+00  0.94977734378E+02  0.17057594832E+04  0.17031132213E+04 0.  0.
        1    1    3    3  502    0  0.15210163814E+03  0.52248895956E+03  0.70350203578E+03  0.88940695723E+03  0.50400001928E-02 0.  1.
       -1    1    3    3    0  502 -0.15210163814E+03 -0.52248895956E+03 -0.60852430141E+03  0.81635252594E+03  0.50400001928E-02 0. -1.
</event>
<event>
 5   0  0.2966258E-05  0.1700801E+04  0.7818609E-02  0.8760908E-01
        1   -1    0    0  501    0  0.00000000000E+00  0.00000000000E+00  0.96960776298E+03  0.96960776299E+03  0.50400001928E-02 0.  1.
       -1   -1    0    0    0  501  0.00000000000E+00  0.00000000000E+00 -0.74584899497E+03  0.74584899499E+03  0.50400001928E-02 0. -1.
    10030    2    1    2    0    0  0.00000000000E+00  0.00000000000E+00  0.22375876801E+03  0.17154567580E+04  0.17008009590E+04 0.  0.
        4    1    3    3  502    0 -0.34215712889E+03  0.65174586959E+03 -0.31762472287E+03  0.80170521819E+03  0.12699999809E+01 0. -1.
       -4    1    3    3    0  502  0.34215712889E+03 -0.65174586959E+03  0.54138349088E+03  0.91375153980E+03  0.12699999809E+01 0.  1.
</event>
<event>
 5   0  0.5652631E-05  0.1710811E+04  0.7818609E-02  0.8755222E-01
        2   -1    0    0  501    0  0.00000000000E+00  0.00000000000E+00  0.99121097341E+03  0.99121097341E+03  0.25500000920E-02 0.  1.
       -2   -1    0    0    0  501  0.00000000000E+00  0.00000000000E+00 -0.73820693444E+03  0.73820693445E+03  0.25500000920E-02 0. -1.
    10030    2    1    2    0    0  0.00000000000E+00  0.00000000000E+00  0.25300403896E+03  0.17294179079E+04  0.17108112860E+04 0.  0.
        2    1    3    3  502    0  0.15296061163E+03 -0.83446812739E+03  0.23716781664E+03  0.88089873289E+03  0.25500000920E-02 0.  1.
       -2    1    3    3    0  502 -0.15296061163E+03  0.83446812739E+03  0.15836222319E+02  0.84851917497E+03  0.25500000920E-02 0. -1.
</event>
<event>
 5   0  0.2911632E-05  0.1698554E+04  0.7818609E-02  0.8762190E-01
       -1   -1    0    0    0  501  0.00000000000E+00  0.00000000000E+00  0.56394655804E+03  0.56394655806E+03  0.50400001928E-02 0.  1.
        1   -1    0    0  501    0  0.00000000000E+00  0.00000000000E+00 -0.12789706695E+04  0.12789706696E+04  0.50400001928E-02 0. -1.
    10030    2    1    2    0    0  0.00000000000E+00  0.00000000000E+00 -0.71502411151E+03  0.18429172276E+04  0.16985536282E+04 0.  0.
        1    1    3    3  502    0 -0.59887345014E+03 -0.28521832496E+02  0.29511604685E+03  0.66824874512E+03  0.50400001928E-02 0.  1.
       -1    1    3    3    0  502  0.59887345014E+03  0.28521832496E+02 -0.10101401584E+04  0.11746684825E+04  0.50400001928E-02 0. -1.
</event>
<event>
 5   0  0.5755321E-05  0.1710770E+04  0.7818609E-02  0.8755246E-01
        2   -1    0    0  501    0  0.00000000000E+00  0.00000000000E+00  0.51826119392E+03  0.51826119392E+03  0.25500000920E-02 0.  1.
       -2   -1    0    0    0  501  0.00000000000E+00  0.00000000000E+00 -0.14118043095E+04  0.14118043095E+04  0.25500000920E-02 0. -1.
    10030    2    1    2    0    0  0.00000000000E+00  0.00000000000E+00 -0.89354311553E+03  0.19300655034E+04  0.17107698700E+04 0.  0.
        4    1    3    3  502    0 -0.70013066239E+03 -0.38740765577E+03 -0.10566730059E+03  0.80711512654E+03  0.12699999809E+01 0.  1.
       -4    1    3    3    0  502  0.70013066239E+03  0.38740765577E+03 -0.78787581495E+03  0.11229503768E+04  0.12699999809E+01 0. -1.
</event>
<event>
 5   0  0.2966258E-05  0.1704006E+04  0.7818609E-02  0.8759083E-01
       -1   -1    0    0    0  501  0.00000000000E+00  0.00000000000E+00  0.36107927489E+03  0.36107927493E+03  0.50400001928E-02 0. -1.
        1   -1    0    0  501    0  0.00000000000E+00  0.00000000000E+00 -0.20103867743E+04  0.20103867743E+04  0.50400001928E-02 0.  1.
    10030    2    1    2    0    0  0.00000000000E+00  0.00000000000E+00 -0.16493074994E+04  0.23714660492E+04  0.17040058671E+04 0.  0.
        4    1    3    3  502    0  0.75057450349E+02 -0.40662658207E+03 -0.18613806681E+04  0.19067559892E+04  0.12699999809E+01 0.  1.
       -4    1    3    3    0  502 -0.75057450349E+02  0.40662658207E+03  0.21207316867E+03  0.46471006000E+03  0.12699999809E+01 0. -1.
</event>
<event>
 5   0  0.2098250E-05  0.1708393E+04  0.7818609E-02  0.8756592E-01
        4   -1    0    0  501    0  0.00000000000E+00  0.00000000000E+00  0.62879479716E+03  0.62879607969E+03  0.12699999809E+01 0.  1.
       -4   -1    0    0    0  501  0.00000000000E+00  0.00000000000E+00 -0.11603947962E+04  0.11603954912E+04  0.12699999809E+01 0. -1.
    10030    2    1    2    0    0  0.00000000000E+00  0.00000000000E+00 -0.53159999902E+03  0.17891915709E+04  0.17083933734E+04 0.  0.
        2    1    3    3  502    0  0.48112802615E+03 -0.35572581326E+03  0.37264363977E+03  0.70490305294E+03  0.25500000920E-02 0.  1.
       -2    1    3    3    0  502 -0.48112802615E+03  0.35572581326E+03 -0.90424363879E+03  0.10842885179E+04  0.25500000920E-02 0. -1.
</event>
<event>
 5   0  0.2966258E-05  0.1700356E+04  0.7818609E-02  0.8761161E-01
        1   -1    0    0  501    0  0.00000000000E+00  0.00000000000E+00  0.10762950849E+04  0.10762950849E+04  0.50400001928E-02 0.  1.
       -1   -1    0    0    0  501  0.00000000000E+00  0.00000000000E+00 -0.67156533522E+03  0.67156533524E+03  0.50400001928E-02 0. -1.
    10030    2    1    2    0    0  0.00000000000E+00  0.00000000000E+00  0.40472974971E+03  0.17478604202E+04  0.17003558093E+04 0.  0.
        4    1    3    3  502    0 -0.76021766300E+03  0.36069288130E+03  0.32729469314E+03  0.90285861507E+03  0.12699999809E+01 0.  1.
       -4    1    3    3    0  502  0.76021766300E+03 -0.36069288130E+03  0.77435056564E+02  0.84500180511E+03  0.12699999809E+01 0. -1.
</event>
<event>
 5   0  0.2987859E-05  0.1698600E+04  0.7818609E-02  0.8762163E-01
        1   -1    0    0  501    0  0.00000000000E+00  0.00000000000E+00  0.87237028364E+03  0.87237028366E+03  0.50400001928E-02 0.  1.
       -1   -1    0    0    0  501  0.00000000000E+00  0.00000000000E+00 -0.82683974257E+03  0.82683974259E+03  0.50400001928E-02 0. -1.
    10030    2    1    2    0    0  0.00000000000E+00  0.00000000000E+00  0.45530541072E+02  0.16992100262E+04  0.16985999185E+04 0.  0.
        5    1    3    3  502    0 -0.18349348706E+03 -0.56556837301E+03 -0.58387722173E+03  0.83334995313E+03  0.46999998093E+01 0. -1.
       -5    1    3    3    0  502  0.18349348706E+03  0.56556837301E+03  0.62940776280E+03  0.86586007311E+03  0.46999998093E+01 0.  1.
</event>
<event>
 5   0  0.5821584E-05  0.1702362E+04  0.7818609E-02  0.8760018E-01
       -2   -1    0    0    0  501  0.00000000000E+00  0.00000000000E+00  0.11769684819E+04  0.11769684819E+04  0.25500000920E-02 0.  1.
        2   -1    0    0  501    0  0.00000000000E+00  0.00000000000E+00 -0.61557251877E+03  0.61557251877E+03  0.25500000920E-02 0. -1.
    10030    2    1    2    0    0  0.00000000000E+00  0.00000000000E+00  0.56139596311E+03  0.17925410007E+04  0.17023624208E+04 0.  0.
        1    1    3    3  502    0  0.33525642383E+03  0.60939797008E+03 -0.23595298139E+03  0.73446345389E+03  0.50400001928E-02 0. -1.
       -1    1    3    3    0  502 -0.33525642383E+03 -0.60939797008E+03  0.79734894450E+03  0.10580775468E+04  0.50400001928E-02 0.  1.
</event>
<event>
 5   0  0.2987859E-05  0.1706041E+04  0.7818609E-02  0.8757926E-01
        1   -1    0    0  501    0  0.00000000000E+00  0.00000000000E+00  0.18279426865E+04  0.18279426865E+04  0.50400001928E-02 0. -1.
       -1   -1    0    0    0  501  0.00000000000E+00  0.00000000000E+00 -0.39806716428E+03  0.39806716431E+03  0.50400001928E-02 0.  1.
    10030    2    1    2    0    0  0.00000000000E+00  0.00000000000E+00  0.14298755222E+04  0.22260098508E+04  0.17060409863E+04 0.  0.
        5    1    3    3  502    0  0.43931684572E+03  0.51097582545E+03  0.13973348353E+04  0.15513421019E+04  0.46999998093E+01 0.  1.
       -5    1    3    3    0  502 -0.43931684572E+03 -0.51097582545E+03  0.32540686901E+02  0.67466774892E+03  0.46999998093E+01 0. -1.
</event>
<event>
 5   0  0.5821584E-05  0.1694954E+04  0.7818609E-02  0.8764247E-01
        2   -1    0    0  501    0  0.00000000000E+00  0.00000000000E+00  0.92048903364E+03  0.92048903365E+03  0.25500000920E-02 0.  1.
       -2   -1    0    0    0  501  0.00000000000E+00  0.00000000000E+00 -0.78025653477E+03  0.78025653478E+03  0.25500000920E-02 0. -1.
    10030    2    1    2    0    0  0.00000000000E+00  0.00000000000E+00  0.14023249887E+03  0.17007455684E+04  0.16949543754E+04 0.  0.
        1    1    3    3  502    0 -0.77009764545E+03  0.57509092656E+02  0.42039335483E+03  0.87925437279E+03  0.50400001928E-02 0.  1.
       -1    1    3    3    0  502  0.77009764545E+03 -0.57509092656E+02 -0.28016085596E+03  0.82149119563E+03  0.50400001928E-02 0. -1.
</event>
<event>
 5   0  0.2993769E-05  0.1700669E+04  0.7818609E-02  0.8760983E-01
        1   -1    0    0  501    0  0.00000000000E+00  0.00000000000E+00  0.17819586523E+04  0.17819586523E+04  0.50400001928E-02 0. -1.
       -1   -1    0    0    0  501  0.00000000000E+00  0.00000000000E+00 -0.40577195319E+03  0.40577195322E+03  0.50400001928E-02 0.  1.
    10030    2    1    2    0    0  0.00000000000E+00  0.00000000000E+00  0.13761866991E+04  0.21877306056E+04  0.17006690953E+04 0.  0.
        3    1    3    3  502    0  0.11569605324E+03 -0.78172252427E+03  0.28417145370E+03  0.83977920133E+03  0.10100000352E+00 0.  1.
       -3    1    3    3    0  502 -0.11569605324E+03  0.78172252427E+03  0.10920152454E+04  0.13479514042E+04  0.10100000352E+00 0. -1.
</event>
<event>
 5   0  0.2987859E-05  0.1701247E+04  0.7818609E-02  0.8760653E-01
        1   -1    0    0  501    0  0.00000000000E+00  0.00000000000E+00  0.84327333896E+03  0.84327333898E+03  0.50400001928E-02 0. -1.
       -1   -1    0    0    0  501  0.00000000000E+00  0.00000000000E+00 -0.85803774370E+03  0.85803774371E+03  0.50400001928E-02 0.  1.
    10030    2    1    2    0    0  0.00000000000E+00  0.00000000000E+00 -0.14764404737E+02  0.17013110827E+04  0.17012470169E+04 0.  0.
        5    1    3    3  502    0 -0.44063878422E+03  0.64110549365E+03 -0.35142927113E+03  0.85364126819E+03  0.46999998093E+01 0.  1.
       -5    1    3    3    0  502  0.44063878422E+03 -0.64110549365E+03  0.33666486639E+03  0.84766981450E+03  0.46999998093E+01 0. -1.
</event>
<event>
 5   0  0.5755321E-05  0.1701818E+04  0.7818609E-02  0.8760328E-01
       -2   -1    0    0    0  501  0.00000000000E+00  0.00000000000E+00  0.59658254400E+03  0.59658254400E+03  0.25500000920E-02 0.  1.
        2   -1    0    0  501    0  0.00000000000E+00  0.00000000000E+00 -0.12136562104E+04  0.12136562104E+04  0.25500000920E-02 0. -1.
    10030    2    1    2    0    0  0.00000000000E+00  0.00000000000E+00 -0.61707366640E+03  0.18102387544E+04  0.17018179803E+04 0.  0.
        4    1    3    3  502    0 -0.54049552696E+03 -0.32634919444E+03  0.29824846772E+03  0.69827857820E+03  0.12699999809E+01 0.  1.
       -4    1    3    3    0  502  0.54049552696E+03  0.32634919444E+03 -0.91532213411E+03  0.11119601762E+04  0.12699999809E+01 0. -1.
</event>
<event>
 5   0  0.5652631E-05  0.1699192E+04  0.7818609E-02  0.8761825E-01
        2   -1    0    0  501    0  0.00000000000E+00  0.00000000000E+00  0.10992630580E+04  0.10992630580E+04  0.25500000920E-02 0. -1.
       -2   -1    0    0    0  501  0.00000000000E+00  0.00000000000E+00 -0.65663390104E+03  0.65663390104E+03  0.25500000920E-02 0.  1.
    10030    2    1    2    0    0  0.00000000000E+00  0.00000000000E+00  0.44262915694E+03  0.17558969590E+04  0.16991920316E+04 0.  0.
        2    1    3    3  502    0 -0.15415932958E+03 -0.72456953209E+03  0.65118638052E+03  0.98631121250E+03  0.25500000920E-02 0. -1.
       -2    1    3    3    0  502  0.15415932958E+03  0.72456953209E+03 -0.20855722358E+03  0.76958574652E+03  0.25500000920E-02 0.  1.
</event>
<event>
 5   0  0.2966258E-05  0.1699513E+04  0.7818609E-02  0.8761642E-01
        1   -1    0    0  501    0  0.00000000000E+00  0.00000000000E+00  0.85540404830E+03  0.85540404831E+03  0.50400001928E-02 0.  1.
       -1   -1    0    0    0  501  0.00000000000E+00  0.00000000000E+00 -0.84414622850E+03  0.84414622851E+03  0.50400001928E-02 0. -1.
    10030    2    1    2    0    0  0.00000000000E+00  0.00000000000E+00  0.11257819798E+02  0.16995502768E+04  0.16995129905E+04 0.  0.
        4    1    3    3  502    0  0.26290740325E+03 -0.25946394271E+01 -0.80244664647E+03  0.84442244651E+03  0.12699999809E+01 0. -1.
       -4    1    3    3    0  502 -0.26290740325E+03  0.25946394271E+01  0.81370446627E+03  0.85512783031E+03  0.12699999809E+01 0.  1.
</event>
<event>
 5   0  0.5859822E-05  0.1704945E+04  0.7818609E-02  0.8758549E-01
        2   -1    0    0  501    0  0.00000000000E+00  0.00000000000E+00  0.12638014903E+04  0.12638014903E+04  0.25500000920E-02 0.  1.
       -2   -1    0    0    0  501  0.00000000000E+00  0.00000000000E+00 -0.57501855760E+03  0.57501855761E+03  0.25500000920E-02 0. -1.
    10030    2    1    2    0    0  0.00000000000E+00  0.00000000000E+00  0.68878293270E+03  0.18388200479E+04  0.17049449376E+04 0.  0.
        5    1    3    3  502    0  0.56486600710E+03 -0.62795800079E+03  0.46869015594E+03  0.96596967292E+03  0.46999998093E+01 0. -1.
       -5    1    3    3    0  502 -0.56486600710E+03  0.62795800079E+03  0.22009277677E+03  0.87285037499E+03  0.46999998093E+01 0.  1.
</event>
<event>
 5   0  0.2911632E-05  0.1693859E+04  0.7818609E-02  0.8764874E-01
       -1   -1    0    0    0  501  0.00000000000E+00  0.00000000000E+00  0.61856727736E+03  0.61856727738E+03  0.50400001928E-02 0.  1.
        1   -1    0    0  501    0  0.00000000000E+00  0.00000000000E+00 -0.11595987480E+04  0.11595987480E+04  0.50400001928E-02 0. -1.
    10030    2    1    2    0    0  0.00000000000E+00  0.00000000000E+00 -0.54103147062E+03  0.17781660254E+04  0.16938593099E+04 0.  0.
        1    1    3    3  502    0 -0.36938363017E+03  0.73990006319E+03 -0.46234981007E+03  0.94745116847E+03  0.50400001928E-02 0. -1.
       -1    1    3    3    0  502  0.36938363017E+03 -0.73990006319E+03 -0.78681660551E+02  0.83071485690E+03  0.50400001928E-02 0.  1.
</event>
<event>
 5   0  0.5755321E-05  0.1692996E+04  0.7818609E-02  0.8765369E-01
       -2   -1    0    0    0  501  0.00000000000E+00  0.00000000000E+00  0.12071364525E+04  0.12071364526E+04  0.25500000920E-02 0. -1.
        2   -1    0    0  501    0  0.00000000000E+00  0.00000000000E+00 -0.59360227494E+03  0.59360227494E+03  0.25500000920E-02 0.  1.
    10030    2    1    2    0    0  0.00000000000E+00  0.00000000000E+00  0.61353417761E+03  0.18007387275E+04  0.16929960950E+04 0.  0.
        4    1    3    3  502    0  0.15152327720E+03  0.20244568094E+03  0.11660236684E+04  0.11931288135E+04  0.12699999809E+01 0. -1.
       -4    1    3    3    0  502 -0.15152327720E+03 -0.20244568094E+03 -0.55248949082E+03  0.60760991403E+03  0.12699999809E+01 0.  1.
</event>
<event>
 5   0  0.2967704E-05  0.1700584E+04  0.7818609E-02  0.8761031E-01
        1   -1    0    0  501    0  0.00000000000E+00  0.00000000000E+00  0.21356801357E+04  0.21356801357E+04  0.50400001928E-02 0. -1.
       -1   -1    0    0    0  501  0.00000000000E+00  0.00000000000E+00 -0.33853238474E+03  0.33853238478E+03  0.50400001928E-02 0.  1.
    10030    2    1    2    0    0  0.00000000000E+00  0.00000000000E+00  0.17971477510E+04  0.24742125205E+04  0.17005844753E+04 0.  0.
        2    1    3    3  502    0  0.27651622739E+03 -0.68064451171E+03  0.15214061478E+04  0.16895013589E+04  0.25500000920E-02 0. -1.
       -2    1    3    3    0  502 -0.27651622739E+03  0.68064451171E+03  0.27574160317E+03  0.78471116154E+03  0.25500000920E-02 0.  1.
</event>
<event>
 5   0  0.2967704E-05  0.1698981E+04  0.7818609E-02  0.8761946E-01
        1   -1    0    0  501    0  0.00000000000E+00  0.00000000000E+00  0.21312218633E+04  0.21312218633E+04  0.50400001928E-02 0.  1.
       -1   -1    0    0    0  501  0.00000000000E+00  0.00000000000E+00 -0.33860102996E+03  0.33860102999E+03  0.50400001928E-02 0. -1.
    10030    2    1    2    0    0  0.00000000000E+00  0.00000000000E+00  0.17926208334E+04  0.24698228933E+04  0.16989807745E+04 0.  0.
        2    1    3    3  502    0  0.69180014625E+03  0.16236982569E+03  0.21962115983E+03  0.74376397903E+03  0.25500000920E-02 0. -1.
       -2    1    3    3    0  502 -0.69180014625E+03 -0.16236982569E+03  0.15729996735E+04  0.17260589143E+04  0.25500000920E-02 0.  1.
</event>
<event>
 5   0  0.5652631E-05  0.1699795E+04  0.7818609E-02  0.8761481E-01
       -2   -1    0    0    0  501  0.00000000000E+00  0.00000000000E+00  0.71972670678E+03  0.71972670678E+03  0.25500000920E-02 0. -1.
        2   -1    0    0  501    0  0.00000000000E+00  0.00000000000E+00 -0.10036113917E+04  0.10036113917E+04  0.25500000920E-02 0.  1.
    10030    2    1    2    0    0  0.00000000000E+00  0.00000000000E+00 -0.28388468495E+03  0.17233380985E+04  0.16997951898E+04 0.  0.
        2    1    3    3  502    0 -0.61362259817E+03 -0.39833940636E+03 -0.58050613601E+03  0.93391345937E+03  0.25500000920E-02 0.  1.
       -2    1    3    3    0  502  0.61362259817E+03  0.39833940636E+03  0.29662145106E+03  0.78942463914E+03  0.25500000920E-02 0. -1.
</event>
<event>
 5   0  0.2987859E-05  0.1700200E+04  0.7818609E-02  0.8761250E-01
       -1   -1    0    0    0  501  0.00000000000E+00  0.00000000000E+00  0.80981501135E+03  0.80981501136E+03  0.50400001928E-02 0. -1.
        1   -1    0    0  501    0  0.00000000000E+00  0.00000000000E+00 -0.89238946220E+03  0.89238946222E+03  0.50400001928E-02 0.  1.
    10030    2    1    2    0    0  0.00000000000E+00  0.00000000000E+00 -0.82574450854E+02  0.17022044736E+04  0.17002004382E+04 0.  0.
        5    1    3    3  502    0  0.74028960541E+03 -0.41778569228E+03 -0.49940788822E+02  0.85152202375E+03  0.46999998093E+01 0.  1.
       -5    1    3    3    0  502 -0.74028960541E+03  0.41778569228E+03 -0.32633662032E+02  0.85068244983E+03  0.46999998093E+01 0. -1.
</event>
<event>
 5   0  0.2966258E-05  0.1703002E+04  0.7818609E-02  0.8759654E-01
        1   -1    0    0  501    0  0.00000000000E+00  0.00000000000E+00  0.17389433045E+04  0.17389433045E+04  0.50400001928E-02 0. -1.
       -1   -1    0    0    0  501  0.00000000000E+00  0.00000000000E+00 -0.41695077405E+03  0.41695077408E+03  0.50400001928E-02 0.  1.
    10030    2    1    2    0    0  0.00000000000E+00  0.00000000000E+00  0.13219925304E+04  0.21558940786E+04  0.17030017697E+04 0.  0.
        4    1    3    3  502    0  0.34049490727E+03  0.75943108052E+03  0.43319854427E+03  0.93826165838E+03  0.12699999809E+01 0.  1.
       -4    1    3    3    0  502 -0.34049490727E+03 -0.75943108052E+03  0.88879398616E+03  0.12176324202E+04  0.12699999809E+01 0. -1.
</event>
<event>
 5   0  0.2987859E-05  0.1701239E+04  0.7818609E-02  0.8760658E-01
        1   -1    0    0  501    0  0.00000000000E+00  0.00000000000E+00  0.12440336615E+04  0.12440336616E+04  0.50400001928E-02 0.  1.
       -1   -1    0    0    0  501  0.00000000000E+00  0.00000000000E+00 -0.58161866424E+03  0.58161866426E+03  0.50400001928E-02 0. -1.
    10030    2    1    2    0    0  0.00000000000E+00  0.00000000000E+00  0.66241499730E+03  0.18256523258E+04  0.17012386035E+04 0.  0.
        5    1    3    3  502    0 -0.89367579079E+02 -0.60014864551E+03 -0.30851389071E+03  0.68071129831E+03  0.46999998093E+01 0. -1.
       -5    1    3    3    0  502  0.89367579079E+02  0.60014864551E+03  0.97092888801E+03  0.11449410275E+04  0.46999998093E+01 0.  1.
</event>
<event>
 5   0  0.5652631E-05  0.1684617E+04  0.7818609E-02  0.8770187E-01
       -2   -1    0    0    0  501  0.00000000000E+00  0.00000000000E+00  0.41977541540E+03  0.41977541541E+03  0.25500000920E-02 0.  1.
        2   -1    0    0  501    0  0.00000000000E+00  0.00000000000E+00 -0.16901500767E+04  0.16901500767E+04  0.25500000920E-02 0. -1.
    10030    2    1    2    0    0  0.00000000000E+00  0.00000000000E+00 -0.12703746613E+04  0.21099254921E+04  0.16846168117E+04 0.  0.
        2    1    3    3  502    0 -0.43412852806E+03 -0.65020041586E+02  0.26518535385E+03  0.51285325053E+03  0.25500000920E-02 0.  1.
       -2    1    3    3    0  502  0.43412852806E+03  0.65020041586E+02 -0.15355600151E+04  0.15970722415E+04  0.25500000920E-02 0. -1.
</event>
<event>
 5   0  0.5652631E-05  0.1699374E+04  0.7818609E-02  0.8761721E-01
       -2   -1    0    0    0  501  0.00000000000E+00  0.00000000000E+00  0.38386216903E+03  0.38386216904E+03  0.25500000920E-02 0. -1.
        2   -1    0    0  501    0  0.00000000000E+00  0.00000000000E+00 -0.18808009297E+04  0.18808009297E+04  0.25500000920E-02 0.  1.
    10030    2    1    2    0    0  0.00000000000E+00  0.00000000000E+00 -0.14969387606E+04  0.22646630987E+04  0.16993743842E+04 0.  0.
        2    1    3    3  502    0  0.22497993859E+03 -0.76804755559E+03 -0.11288113230E+04  0.13837369776E+04  0.25500000920E-02 0.  1.
       -2    1    3    3    0  502 -0.22497993859E+03  0.76804755559E+03 -0.36812743768E+03  0.88092612107E+03  0.25500000920E-02 0. -1.
</event>
<event>
 5   0  0.2911632E-05  0.1700043E+04  0.7818609E-02  0.8761340E-01
       -1   -1    0    0    0  501  0.00000000000E+00  0.00000000000E+00  0.45995452241E+03  0.45995452244E+03  0.50400001928E-02 0.  1.
        1   -1    0    0  501    0  0.00000000000E+00  0.00000000000E+00 -0.15708876905E+04  0.15708876905E+04  0.50400001928E-02 0. -1.
    10030    2    1    2    0    0  0.00000000000E+00  0.00000000000E+00 -0.11109331681E+04  0.20308422129E+04  0.17000434082E+04 0.  0.
        1    1    3    3  502    0  0.28865209654E+03 -0.71790445554E+03 -0.13509901001E+03  0.78546711112E+03  0.50400001928E-02 0. -1.
       -1    1    3    3    0  502 -0.28865209654E+03  0.71790445554E+03 -0.97583415806E+03  0.12453751018E+04  0.50400001928E-02 0.  1.
</event>
<event>
 5   0  0.5671132E-05  0.1701954E+04  0.7818609E-02  0.8760251E-01
        2   -1    0    0  501    0  0.00000000000E+00  0.00000000000E+00  0.76399948345E+03  0.76399948345E+03  0.25500000920E-02 0. -1.
       -2   -1    0    0    0  501  0.00000000000E+00  0.00000000000E+00 -0.94785686637E+03  0.94785686638E+03  0.25500000920E-02 0.  1.
    10030    2    1    2    0    0  0.00000000000E+00  0.00000000000E+00 -0.18385738293E+03  0.17118563498E+04  0.17019543546E+04 0.  0.
        3    1    3    3  502    0  0.76691225193E+03 -0.33141978356E+03  0.70779809270E+02  0.83845290070E+03  0.10100000352E+00 0. -1.
       -3    1    3    3    0  502 -0.76691225193E+03  0.33141978356E+03 -0.25463719220E+03  0.87340344913E+03  0.10100000352E+00 0.  1.
</event>
<event>
 5   0  0.5671132E-05  0.1699020E+04  0.7818609E-02  0.8761923E-01
       -2   -1    0    0    0  501  0.00000000000E+00  0.00000000000E+00  0.84727379743E+03  0.84727379743E+03  0.25500000920E-02 0. -1.
        2   -1    0    0  501    0  0.00000000000E+00  0.00000000000E+00 -0.85175251907E+03  0.85175251907E+03  0.25500000920E-02 0.  1.
    10030    2    1    2    0    0  0.00000000000E+00  0.00000000000E+00 -0.44787216412E+01  0.16990263165E+04  0.16990204134E+04 0.  0.
        3    1    3    3  502    0 -0.21973566678E+03  0.71284309674E+03  0.40425748479E+03  0.84844161145E+03  0.10100000352E+00 0.  1.
       -3    1    3    3    0  502  0.21973566678E+03 -0.71284309674E+03 -0.40873620644E+03  0.85058470505E+03  0.10100000352E+00 0. -1.
</event>
<event>
 5   0  0.5755321E-05  0.1672699E+04  0.7818609E-02  0.8777090E-01
       -2   -1    0    0    0  501  0.00000000000E+00  0.00000000000E+00  0.47091914410E+03  0.47091914411E+03  0.25500000920E-02 0. -1.
        2   -1    0    0  501    0  0.00000000000E+00  0.00000000000E+00 -0.14853515152E+04  0.14853515152E+04  0.25500000920E-02 0.  1.
    10030    2    1    2    0    0  0.00000000000E+00  0.00000000000E+00 -0.10144323711E+04  0.19562706594E+04  0.16726989738E+04 0.  0.
        4    1    3    3  502    0  0.30966952639E+03  0.61717413808E+03 -0.10591048618E+04  0.12643195219E+04  0.12699999809E+01 0.  1.
       -4    1    3    3    0  502 -0.30966952639E+03 -0.61717413808E+03  0.44672490663E+02  0.69195113744E+03  0.12699999809E+01 0. -1.
</event>
<event>
 5   0  0.2966258E-05  0.1658263E+04  0.7818609E-02  0.8785533E-01
        1   -1    0    0  501    0  0.00000000000E+00  0.00000000000E+00  0.16126181386E+04  0.16126181386E+04  0.50400001928E-02 0.  1.
       -1   -1    0    0    0  501  0.00000000000E+00  0.00000000000E+00 -0.42629980345E+03  0.42629980348E+03  0.50400001928E-02 0. -1.
    10030    2    1    2    0    0  0.00000000000E+00  0.00000000000E+00  0.11863183351E+04  0.20389179420E+04  0.16582627000E+04 0.  0.
        4    1    3    3  502    0 -0.81278736969E+03  0.17643621518E+01  0.39175756888E+03  0.90227602594E+03  0.12699999809E+01 0. -1.
       -4    1    3    3    0  502  0.81278736969E+03 -0.17643621518E+01  0.79456076623E+03  0.11366419161E+04  0.12699999809E+01 0.  1.
</event>
<event>
 5   0  0.2966258E-05  0.1700649E+04  0.7818609E-02  0.8760995E-01
       -1   -1    0    0    0  501  0.00000000000E+00  0.00000000000E+00  0.11103732049E+04  0.11103732049E+04  0.50400001928E-02 0.  1.
        1   -1    0    0  501    0  0.00000000000E+00  0.00000000000E+00 -0.65117875172E+03  0.65117875174E+03  0.50400001928E-02 0. -1.
    10030    2    1    2    0    0  0.00000000000E+00  0.00000000000E+00  0.45919445320E+03  0.17615519567E+04  0.17006486263E+04 0.  0.
        4    1    3    3  502    0  0.14377929692E+03  0.50898176715E+03 -0.46006593428E+03  0.70099729122E+03  0.12699999809E+01 0. -1.
       -4    1    3    3    0  502 -0.14377929692E+03 -0.50898176715E+03  0.91926038748E+03  0.10605546654E+04  0.12699999809E+01 0.  1.
</event>
<event>
 5   0  0.5859822E-05  0.1703627E+04  0.7818609E-02  0.8759299E-01
        2   -1    0    0  501    0  0.00000000000E+00  0.00000000000E+00  0.66107466839E+03  0.66107466840E+03  0.25500000920E-02 0. -1.
       -2   -1    0    0    0  501  0.00000000000E+00  0.00000000000E+00 -0.10975857844E+04  0.10975857844E+04  0.25500000920E-02 0.  1.
    10030    2    1    2    0    0  0.00000000000E+00  0.00000000000E+00 -0.43651111601E+03  0.17586604528E+04  0.17036269057E+04 0.  0.
        5    1    3    3  502    0 -0.26784868394E+02 -0.58224532594E+03 -0.85947909373E+03  0.10384861344E+04  0.46999998093E+01 0.  1.
       -5    1    3    3    0  502  0.26784868394E+02  0.58224532594E+03  0.42296797772E+03  0.72017431843E+03  0.46999998093E+01 0. -1.
</event>
<event>
 5   0  0.2966258E-05  0.1702667E+04  0.7818609E-02  0.8759845E-01
       -1   -1    0    0    0  501  0.00000000000E+00  0.00000000000E+00  0.97648652361E+03  0.97648652362E+03  0.50400001928E-02 0.  1.
        1   -1    0    0  501    0  0.00000000000E+00  0.00000000000E+00 -0.74222116930E+03  0.74222116932E+03  0.50400001928E-02 0. -1.
    10030    2    1    2    0    0  0.00000000000E+00  0.00000000000E+00  0.23426535431E+03  0.17187076929E+04  0.17026672833E+04 0.  0.
        4    1    3    3  502    0 -0.78360446527E+03 -0.16727892789E+03  0.40750420084E+03  0.89893241364E+03  0.12699999809E+01 0.  1.
       -4    1    3    3    0  502  0.78360446527E+03  0.16727892789E+03 -0.17323884653E+03  0.81977527930E+03  0.12699999809E+01 0. -1.
</event>
<event>
 5   0  0.5671132E-05  0.1699617E+04  0.7818609E-02  0.8761583E-01
        2   -1    0    0  501    0  0.00000000000E+00  0.00000000000E+00  0.24646562901E+04  0.24646562901E+04  0.25500000920E-02 0. -1.
       -2   -1    0    0    0  501  0.00000000000E+00  0.00000000000E+00 -0.29301223949E+03  0.29301223950E+03  0.25500000920E-02 0.  1.
    10030    2    1    2    0    0  0.00000000000E+00  0.00000000000E+00  0.21716440506E+04  0.27576685296E+04  0.16996169676E+04 0.  0.
        3    1    3    3  502    0 -0.15200769237E+03  0.75958621687E+03  0.51887392417E+03  0.93236672977E+03  0.10100000352E+00 0.  1.
       -3    1    3    3    0  502  0.15200769237E+03 -0.75958621687E+03  0.16527701264E+04  0.18253017998E+04  0.10100000352E+00 0. -1.
</event>
<event>
 5   0  0.5671132E-05  0.1740138E+04  0.7818609E-02  0.8738797E-01
        2   -1    0    0  501    0  0.00000000000E+00  0.00000000000E+00  0.12732352919E+04  0.12732352919E+04  0.25500000920E-02 0. -1.
       -2   -1    0    0    0  501  0.00000000000E+00  0.00000000000E+00 -0.59456429925E+03  0.59456429926E+03  0.25500000920E-02 0.  1.
    10030    2    1    2    0    0  0.00000000000E+00  0.00000000000E+00  0.67867099262E+03  0.18677995911E+04  0.17401382119E+04 0.  0.
        3    1    3    3  502    0  0.62585017129E+03  0.60389760568E+03  0.31219227880E+03  0.92403722013E+03  0.10100000352E+00 0. -1.
       -3    1    3    3    0  502 -0.62585017129E+03 -0.60389760568E+03  0.36647871382E+03  0.94376237101E+03  0.10100000352E+00 0.  1.
</event>
<event>
 5   0  0.2966258E-05  0.1701691E+04  0.7818609E-02  0.8760401E-01
        1   -1    0    0  501    0  0.00000000000E+00  0.00000000000E+00  0.12252124717E+04  0.12252124717E+04  0.50400001928E-02 0.  1.
       -1   -1    0    0    0  501  0.00000000000E+00  0.00000000000E+00 -0.59086723595E+03  0.59086723597E+03  0.50400001928E-02 0. -1.
    10030    2    1    2    0    0  0.00000000000E+00  0.00000000000E+00  0.63434523575E+03  0.18160797077E+04  0.17016908140E+04 0.  0.
        4    1    3    3  502    0 -0.43648357746E+03  0.72555354506E+03  0.40640167591E+03  0.93920700340E+03  0.12699999809E+01 0.  1.
       -4    1    3    3    0  502  0.43648357746E+03 -0.72555354506E+03  0.22794355984E+03  0.87687270428E+03  0.12699999809E+01 0. -1.
</event>
<event>
 5   0  0.2993769E-05  0.1698821E+04  0.7818609E-02  0.8762037E-01
        1   -1    0    0  501    0  0.00000000000E+00  0.00000000000E+00  0.77307091798E+03  0.77307091799E+03  0.50400001928E-02 0.  1.
       -1   -1    0    0    0  501  0.00000000000E+00  0.00000000000E+00 -0.93328845954E+03  0.93328845956E+03  0.50400001928E-02 0. -1.
    10030    2    1    2    0    0  0.00000000000E+00  0.00000000000E+00 -0.16021754157E+03  0.17063593776E+04  0.16988209631E+04 0.  0.
        3    1    3    3  502    0 -0.80187529670E+03 -0.27996538088E+03 -0.90812042032E+02  0.85418466570E+03  0.10100000352E+00 0. -1.
       -3    1    3    3    0  502  0.80187529670E+03  0.27996538088E+03 -0.69405499534E+02  0.85217471185E+03  0.10100000352E+00 0.  1.
</event>
<event>
 5   0  0.2966258E-05  0.1701629E+04  0.7818609E-02  0.8760436E-01
       -1   -1    0    0    0  501  0.00000000000E+00  0.00000000000E+00  0.85845668099E+03  0.85845668100E+03  0.50400001928E-02 0.  1.
        1   -1    0    0  501    0  0.00000000000E+00  0.00000000000E+00 -0.84323990205E+03  0.84323990207E+03  0.50400001928E-02 0. -1.
    10030    2    1    2    0    0  0.00000000000E+00  0.00000000000E+00  0.15216778936E+02  0.17016965831E+04  0.17016285466E+04 0.  0.
        4    1    3    3  502    0 -0.58012700839E+03 -0.26537093434E+03 -0.55536548119E+03  0.84581411034E+03  0.12699999809E+01 0. -1.
       -4    1    3    3    0  502  0.58012700839E+03  0.26537093434E+03  0.57058226012E+03  0.85588247273E+03  0.12699999809E+01 0.  1.
</event>
<event>
 5   0  0.5859822E-05  0.1702006E+04  0.7818609E-02  0.8760221E-01
       -2   -1    0    0    0  501  0.00000000000E+00  0.00000000000E+00  0.45530084309E+03  0.45530084309E+03  0.25500000920E-02 0. -1.
        2   -1    0    0  501    0  0.00000000000E+00  0.00000000000E+00 -0.15906104060E+04  0.15906104060E+04  0.25500000920E-02 0.  1.
    10030    2    1    2    0    0  0.00000000000E+00  0.00000000000E+00 -0.11353095629E+04  0.20459112491E+04  0.17020061796E+04 0.  0.
        5    1    3    3  502    0 -0.74953850487E+03  0.36616255430E+03 -0.36543299254E+03  0.91073945149E+03  0.46999998093E+01 0. -1.
       -5    1    3    3    0  502  0.74953850487E+03 -0.36616255430E+03 -0.76987657035E+03  0.11351717976E+04  0.46999998093E+01 0.  1.
</event>
<event>
 5   0  0.2966258E-05  0.1706054E+04  0.7818609E-02  0.8757919E-01
        1   -1    0    0  501    0  0.00000000000E+00  0.00000000000E+00  0.10150414129E+04  0.10150414129E+04  0.50400001928E-02 0. -1.
       -1   -1    0    0    0  501  0.00000000000E+00  0.00000000000E+00 -0.71687241710E+03  0.71687241711E+03  0.50400001928E-02 0.  1.
    10030    2    1    2    0    0  0.00000000000E+00  0.00000000000E+00  0.29816899578E+03  0.17319138300E+04  0.17060541505E+04 0.  0.
        4    1    3    3  502    0 -0.23607717822E+03 -0.26180354132E+03 -0.63946496797E+03  0.73019900471E+03  0.12699999809E+01 0.  1.
       -4    1    3    3    0  502  0.23607717822E+03  0.26180354132E+03  0.93763396375E+03  0.10017148253E+04  0.12699999809E+01 0. -1.
</event>
<event>
 5   0  0.2967704E-05  0.1699317E+04  0.7818609E-02  0.8761754E-01
        1   -1    0    0  501    0  0.00000000000E+00  0.00000000000E+00  0.15071344362E+04  0.15071344362E+04  0.50400001928E-02 0. -1.
       -1   -1    0    0    0  501  0.00000000000E+00  0.00000000000E+00 -0.47900116248E+03  0.47900116251E+03  0.50400001928E-02 0.  1.
    10030    2    1    2    0    0  0.00000000000E+00  0.00000000000E+00  0.10281332737E+04  0.19861355987E+04  0.16993165061E+04 0.  0.
        2    1    3    3  502    0  0.71216589004E+03  0.45972130084E+03  0.44596329470E+03  0.95781375518E+03  0.25500000920E-02 0.  1.
       -2    1    3    3    0  502 -0.71216589004E+03 -0.45972130084E+03  0.58216997898E+03  0.10283218435E+04  0.25500000920E-02 0. -1.
</event>
<event>
 5   0  0.2987859E-05  0.1696175E+04  0.7818609E-02  0.8763549E-01
        1   -1    0    0  501    0  0.00000000000E+00  0.00000000000E+00  0.10434201032E+04  0.10434201033E+04  0.50400001928E-02 0.  1.
       -1   -1    0    0    0  501  0.00000000000E+00  0.00000000000E+00 -0.68932219554E+03  0.68932219555E+03  0.50400001928E-02 0. -1.
    10030    2    1    2    0    0  0.00000000000E+00  0.00000000000E+00  0.35409790771E+03  0.17327422988E+04  0.16961752698E+04 0.  0.
        5    1    3    3  502    0 -0.31385806677E+02  0.54109049431E+03 -0.48929116748E+03  0.73019992363E+03  0.46999998093E+01 0. -1.
       -5    1    3    3    0  502  0.31385806677E+02 -0.54109049431E+03  0.84338907519E+03  0.10025423752E+04  0.46999998093E+01 0.  1.
</event>
<event>
 5   0  0.5652631E-05  0.1696776E+04  0.7818609E-02  0.8763205E-01
        2   -1    0    0  501    0  0.00000000000E+00  0.00000000000E+00  0.62601207116E+03  0.62601207116E+03  0.25500000920E-02 0. -1.
       -2   -1    0    0    0  501  0.00000000000E+00  0.00000000000E+00 -0.11497580987E+04  0.11497580987E+04  0.25500000920E-02 0.  1.
    10030    2    1    2    0    0  0.00000000000E+00  0.00000000000E+00 -0.52374602757E+03  0.17757701699E+04  0.16967762949E+04 0.  0.
        2    1    3    3  502    0  0.79692008929E+03  0.29096131753E+03 -0.25692736735E+03  0.88642641494E+03  0.25500000920E-02 0.  1.
       -2    1    3    3    0  502 -0.79692008929E+03 -0.29096131753E+03 -0.26681866022E+03  0.88934375495E+03  0.25500000920E-02 0. -1.
</event>
<event>
 5   0  0.5755321E-05  0.1702868E+04  0.7818609E-02  0.8759730E-01
        2   -1    0    0  501    0  0.00000000000E+00  0.00000000000E+00  0.21252346683E+04  0.21252346683E+04  0.25500000920E-02 0.  1.
       -2   -1    0    0    0  501  0.00000000000E+00  0.00000000000E+00 -0.34111062727E+03  0.34111062727E+03  0.25500000920E-02 0. -1.
    10030    2    1    2    0    0  0.00000000000E+00  0.00000000000E+00  0.17841240410E+04  0.24663452956E+04  0.17028683223E+04 0.  0.
        4    1    3    3  502    0 -0.78708463745E+03  0.15345087406E+03  0.47759887737E+03  0.93335507596E+03  0.12699999809E+01 0. -1.
       -4    1    3    3    0  502  0.78708463745E+03 -0.15345087406E+03  0.13065251637E+04  0.15329902196E+04  0.12699999809E+01 0.  1.
</event>
<event>
 5   0  0.5671132E-05  0.1701705E+04  0.7818609E-02  0.8760392E-01
        2   -1    0    0  501    0  0.00000000000E+00  0.00000000000E+00  0.81655917448E+03  0.81655917449E+03  0.25500000920E-02 0.  1.
       -2   -1    0    0    0  501  0.00000000000E+00  0.00000000000E+00 -0.88658642859E+03  0.88658642860E+03  0.25500000920E-02 0. -1.
    10030    2    1    2    0    0  0.00000000000E+00  0.00000000000E+00 -0.70027254112E+02  0.17031456031E+04  0.17017053590E+04 0.  0.
        3    1    3    3  502    0  0.20955083920E+03 -0.23454387243E+03 -0.82626979693E+03  0.88410642449E+03  0.10100000352E+00 0. -1.
       -3    1    3    3    0  502 -0.20955083920E+03  0.23454387243E+03  0.75624254282E+03  0.81903917859E+03  0.10100000352E+00 0.  1.
</event>
<event>
 5   0  0.2911632E-05  0.1702348E+04  0.7818609E-02  0.8760026E-01
       -1   -1    0    0    0  501  0.00000000000E+00  0.00000000000E+00  0.78725913682E+03  0.78725913683E+03  0.50400001928E-02 0.  1.
        1   -1    0    0  501    0  0.00000000000E+00  0.00000000000E+00 -0.92027760106E+03  0.92027760108E+03  0.50400001928E-02 0. -1.
    10030    2    1    2    0    0  0.00000000000E+00  0.00000000000E+00 -0.13301846425E+03  0.17075367379E+04  0.17023477317E+04 0.  0.
        1    1    3    3  502    0 -0.14128943651E+01 -0.22151734730E+03  0.75783831807E+03  0.78955104191E+03  0.50400001928E-02 0.  1.
       -1    1    3    3    0  502  0.14128943651E+01  0.22151734730E+03 -0.89085678232E+03  0.91798569600E+03  0.50400001928E-02 0. -1.
</event>
<event>
 5   0  0.2993769E-05  0.1703286E+04  0.7818609E-02  0.8759492E-01
       -1   -1    0    0    0  501  0.00000000000E+00  0.00000000000E+00  0.75143624319E+03  0.75143624321E+03  0.50400001928E-02 0. -1.
        1   -1    0    0  501    0  0.00000000000E+00  0.00000000000E+00 -0.96521306623E+03  0.96521306625E+03  0.50400001928E-02 0.  1.
    10030    2    1    2    0    0  0.00000000000E+00  0.00000000000E+00 -0.21377682304E+03  0.17166493095E+04  0.17032863299E+04 0.  0.
        3    1    3    3  502    0  0.78615193353E+03 -0.32599586392E+03 -0.13856594533E+03  0.86226950386E+03  0.10100000352E+00 0.  1.
       -3    1    3    3    0  502 -0.78615193353E+03  0.32599586392E+03 -0.75210877708E+02  0.85437980559E+03  0.10100000352E+00 0. -1.
</event>
<event>
 5   0  0.2987859E-05  0.1699832E+04  0.7818609E-02  0.8761460E-01
       -1   -1    0    0    0  501  0.00000000000E+00  0.00000000000E+00  0.53030906189E+03  0.53030906191E+03  0.50400001928E-02 0. -1.
        1   -1    0    0  501    0  0.00000000000E+00  0.00000000000E+00 -0.13621444603E+04  0.13621444603E+04  0.50400001928E-02 0.  1.
    10030    2    1    2    0    0  0.00000000000E+00  0.00000000000E+00 -0.83183539845E+03  0.18924535223E+04  0.16998324046E+04 0.  0.
        5    1    3    3  502    0 -0.69458746756E+03 -0.40904625455E+03 -0.11601364527E+03  0.81440275315E+03  0.46999998093E+01 0. -1.
       -5    1    3    3    0  502  0.69458746756E+03  0.40904625455E+03 -0.71582175318E+03  0.10780507691E+04  0.46999998093E+01 0.  1.
</event>
<event>
 5   0  0.2987859E-05  0.1701664E+04  0.7818609E-02  0.8760416E-01
       -1   -1    0    0    0  501  0.00000000000E+00  0.00000000000E+00  0.75134916696E+03  0.75134916697E+03  0.50400001928E-02 0.  1.
        1   -1    0    0  501    0  0.00000000000E+00  0.00000000000E+00 -0.96348722163E+03  0.96348722164E+03  0.50400001928E-02 0. -1.
    10030    2    1    2    0    0  0.00000000000E+00  0.00000000000E+00 -0.21213805467E+03  0.17148363886E+04  0.17016642693E+04 0.  0.
        5    1    3    3  502    0 -0.74206657113E+03  0.36409353077E+03 -0.30928897458E+03  0.88255801789E+03  0.46999998093E+01 0. -1.
       -5    1    3    3    0  502  0.74206657113E+03 -0.36409353077E+03  0.97150919905E+02  0.83227837073E+03  0.46999998093E+01 0.  1.
</event>
<event>
 5   0  0.5652631E-05  0.1703999E+04  0.7818609E-02  0.8759087E-01
        2   -1    0    0  501    0  0.00000000000E+00  0.00000000000E+00  0.84570089507E+03  0.84570089508E+03  0.25500000920E-02 0.  1.
       -2   -1    0    0    0  501  0.00000000000E+00  0.00000000000E+00 -0.85834491524E+03  0.85834491525E+03  0.25500000920E-02 0. -1.
    10030    2    1    2    0    0  0.00000000000E+00  0.00000000000E+00 -0.12644020169E+02  0.17040458103E+04  0.17039989004E+04 0.  0.
        2    1    3    3  502    0 -0.77030845856E+03  0.33776869778E+03  0.12947660508E+03  0.85101527942E+03  0.25500000920E-02 0.  1.
       -2    1    3    3    0  502  0.77030845856E+03 -0.33776869778E+03 -0.14212062525E+03  0.85303053091E+03  0.25500000920E-02 0. -1.
</event>
<event>
 5   0  0.5652631E-05  0.1697136E+04  0.7818609E-02  0.8763000E-01
        2   -1    0    0  501    0  0.00000000000E+00  0.00000000000E+00  0.22119228641E+04  0.22119228641E+04  0.25500000920E-02 0.  1.
       -2   -1    0    0    0  501  0.00000000000E+00  0.00000000000E+00 -0.32553913196E+03  0.32553913197E+03  0.25500000920E-02 0. -1.
    10030    2    1    2    0    0  0.00000000000E+00  0.00000000000E+00  0.18863837321E+04  0.25374619961E+04  0.16971357626E+04 0.  0.
        2    1    3    3  502    0  0.40935714803E+03 -0.73947950683E+03  0.10557180356E+04  0.13523844817E+04  0.25500000920E-02 0.  1.
       -2    1    3    3    0  502 -0.40935714803E+03  0.73947950683E+03  0.83066569655E+03  0.11850775144E+04  0.25500000920E-02 0. -1.
</event>
<event>
 5   0  0.2993769E-05  0.1699294E+04  0.7818609E-02  0.8761767E-01
       -1   -1    0    0    0  501  0.00000000000E+00  0.00000000000E+00  0.94867018649E+03  0.94867018650E+03  0.50400001928E-02 0. -1.
        1   -1    0    0  501    0  0.00000000000E+00  0.00000000000E+00 -0.76096012728E+03  0.76096012729E+03  0.50400001928E-02 0.  1.
    10030    2    1    2    0    0  0.00000000000E+00  0.00000000000E+00  0.18771005921E+03  0.17096303138E+04  0.16992941898E+04 0.  0.
        3    1    3    3  502    0  0.62861258650E+03 -0.18932441088E+03 -0.44877957128E+03  0.79523621036E+03  0.10100000352E+00 0.  1.
       -3    1    3    3    0  502 -0.62861258650E+03  0.18932441088E+03  0.63648963050E+03  0.91439410343E+03  0.10100000352E+00 0. -1.
</event>
<event>
 5   0  0.2911632E-05  0.1701618E+04  0.7818609E-02  0.8760442E-01
       -1   -1    0    0    0  501  0.00000000000E+00  0.00000000000E+00  0.11286760449E+04  0.11286760449E+04  0.50400001928E-02 0. -1.
        1   -1    0    0  501    0  0.00000000000E+00  0.00000000000E+00 -0.64134940322E+03  0.64134940324E+03  0.50400001928E-02 0.  1.
    10030    2    1    2    0    0  0.00000000000E+00  0.00000000000E+00  0.48732664164E+03  0.17700254481E+04  0.17016177101E+04 0.  0.
        1    1    3    3  502    0  0.26537652047E+03 -0.64798777725E+03 -0.25904884689E+03  0.74660509118E+03  0.50400001928E-02 0.  1.
       -1    1    3    3    0  502 -0.26537652047E+03  0.64798777725E+03  0.74637548852E+03  0.10234203569E+04  0.50400001928E-02 0. -1.
</event>
<event>
 5   0  0.5821584E-05  0.1699210E+04  0.7818609E-02  0.8761815E-01
       -2   -1    0    0    0  501  0.00000000000E+00  0.00000000000E+00  0.86883972934E+03  0.86883972935E+03  0.25500000920E-02 0. -1.
        2   -1    0    0  501    0  0.00000000000E+00  0.00000000000E+00 -0.83079633015E+03  0.83079633016E+03  0.25500000920E-02 0.  1.
    10030    2    1    2    0    0  0.00000000000E+00  0.00000000000E+00  0.38043399191E+02  0.16996360595E+04  0.16992102385E+04 0.  0.
        1    1    3    3  502    0  0.76297851578E+03 -0.37235820088E+03 -0.13266620727E+02  0.84909531182E+03  0.50400001928E-02 0. -1.
       -1    1    3    3    0  502 -0.76297851578E+03  0.37235820088E+03  0.51310019918E+02  0.85054074768E+03  0.50400001928E-02 0.  1.
</event>
<event>
 5   0  0.5859822E-05  0.1700917E+04  0.7818609E-02  0.8760842E-01
        2   -1    0    0  501    0  0.00000000000E+00  0.00000000000E+00  0.11070184774E+04  0.11070184774E+04  0.25500000920E-02 0.  1.
       -2   -1    0    0    0  501  0.00000000000E+00  0.00000000000E+00 -0.65335790013E+03  0.65335790014E+03  0.25500000920E-02 0. -1.
    10030    2    1    2    0    0  0.00000000000E+00  0.00000000000E+00  0.45366057728E+03  0.17603763776E+04  0.17009165386E+04 0.  0.
        5    1    3    3  502    0  0.16877289844E+03 -0.28690307771E+03 -0.58312532481E+03  0.67145729699E+03  0.46999998093E+01 0. -1.
       -5    1    3    3    0  502 -0.16877289844E+03  0.28690307771E+03  0.10367859021E+04  0.10889190806E+04  0.46999998093E+01 0.  1.
</event>
<event>
 5   0  0.2967704E-05  0.1693193E+04  0.7818609E-02  0.8765256E-01
       -1   -1    0    0    0  501  0.00000000000E+00  0.00000000000E+00  0.56401575980E+03  0.56401575982E+03  0.50400001928E-02 0. -1.
        1   -1    0    0  501    0  0.00000000000E+00  0.00000000000E+00 -0.12707553594E+04  0.12707553594E+04  0.50400001928E-02 0.  1.
    10030    2    1    2    0    0  0.00000000000E+00  0.00000000000E+00 -0.70673959957E+03  0.18347711192E+04  0.16931934911E+04 0.  0.
        2    1    3    3  502    0  0.17115144734E+03 -0.82806764117E+03 -0.39853478517E+03  0.93478276155E+03  0.25500000920E-02 0.  1.
       -2    1    3    3    0  502 -0.17115144734E+03  0.82806764117E+03 -0.30820481439E+03  0.89998835765E+03  0.25500000920E-02 0. -1.
</event>
<event>
 5   0  0.2967704E-05  0.1699888E+04  0.7818609E-02  0.8761428E-01
       -1   -1    0    0    0  501  0.00000000000E+00  0.00000000000E+00  0.11270734106E+04  0.11270734106E+04  0.50400001928E-02 0.  1.
        1   -1    0    0  501    0  0.00000000000E+00  0.00000000000E+00 -0.64095654822E+03  0.64095654824E+03  0.50400001928E-02 0. -1.
    10030    2    1    2    0    0  0.00000000000E+00  0.00000000000E+00  0.48611686234E+03  0.17680299588E+04  0.16998883291E+04 0.  0.
        2    1    3    3  502    0 -0.40229621635E+03  0.26927059101E+03 -0.48355619970E+03  0.68423350922E+03  0.25500000920E-02 0. -1.
       -2    1    3    3    0  502  0.40229621635E+03 -0.26927059101E+03  0.96967306204E+03  0.10837964496E+04  0.25500000920E-02 0.  1.
</event>
<event>
 5   0  0.2993769E-05  0.1699132E+04  0.7818609E-02  0.8761859E-01
       -1   -1    0    0    0  501  0.00000000000E+00  0.00000000000E+00  0.14473399200E+04  0.14473399200E+04  0.50400001928E-02 0.  1.
        1   -1    0    0  501    0  0.00000000000E+00  0.00000000000E+00 -0.49868216089E+03  0.49868216092E+03  0.50400001928E-02 0. -1.
    10030    2    1    2    0    0  0.00000000000E+00  0.00000000000E+00  0.94865775906E+03  0.19460220809E+04  0.16991322478E+04 0.  0.
        3    1    3    3  502    0 -0.40933265449E+03  0.57963845039E+02  0.13243644206E+04  0.13873911338E+04  0.10100000352E+00 0.  1.
       -3    1    3    3    0  502  0.40933265449E+03 -0.57963845039E+02 -0.37570666152E+03  0.55863094711E+03  0.10100000352E+00 0. -1.
</event>
<event>
 5   0  0.5671132E-05  0.1698522E+04  0.7818609E-02  0.8762208E-01
        2   -1    0    0  501    0  0.00000000000E+00  0.00000000000E+00  0.90071673107E+03  0.90071673108E+03  0.25500000920E-02 0. -1.
       -2   -1    0    0    0  501  0.00000000000E+00  0.00000000000E+00 -0.80074452377E+03  0.80074452377E+03  0.25500000920E-02 0.  1.
    10030    2    1    2    0    0  0.00000000000E+00  0.00000000000E+00  0.99972207302E+02  0.17014612549E+04  0.16985216983E+04 0.  0.
        3    1    3    3  502    0  0.41099672135E+03 -0.45875513974E+03  0.63569399757E+03  0.88514487625E+03  0.10100000352E+00 0. -1.
       -3    1    3    3    0  502 -0.41099672135E+03  0.45875513974E+03 -0.53572179027E+03  0.81631637860E+03  0.10100000352E+00 0.  1.
</event>
<event>
 5   0  0.2987859E-05  0.1701173E+04  0.7818609E-02  0.8760696E-01
        1   -1    0    0  501    0  0.00000000000E+00  0.00000000000E+00  0.61790152079E+03  0.61790152081E+03  0.50400001928E-02 0.  1.
       -1   -1    0    0    0  501  0.00000000000E+00  0.00000000000E+00 -0.11708937198E+04  0.11708937198E+04  0.50400001928E-02 0. -1.
    10030    2    1    2    0    0  0.00000000000E+00  0.00000000000E+00 -0.55299219899E+03  0.17887952406E+04  0.17011725488E+04 0.  0.
        5    1    3    3  502    0  0.74328177665E+03  0.20953302573E+03  0.98382129555E+02  0.77850691826E+03  0.46999998093E+01 0.  1.
       -5    1    3    3    0  502 -0.74328177665E+03 -0.20953302573E+03 -0.65137432854E+03  0.10102883223E+04  0.46999998093E+01 0. -1.
</event>
<event>
 5   0  0.2967704E-05  0.1706462E+04  0.7818609E-02  0.8757687E-01
        1   -1    0    0  501    0  0.00000000000E+00  0.00000000000E+00  0.15411434280E+04  0.15411434280E+04  0.50400001928E-02 0.  1.
       -1   -1    0    0    0  501  0.00000000000E+00  0.00000000000E+00 -0.47237863147E+03  0.47237863150E+03  0.50400001928E-02 0. -1.
    10030    2    1    2    0    0  0.00000000000E+00  0.00000000000E+00  0.10687647965E+04  0.20135220595E+04  0.17064620986E+04 0.  0.
        2    1    3    3  502    0  0.83311148979E+03 -0.44452315325E+02  0.32346524559E+03  0.89480753677E+03  0.25500000920E-02 0. -1.
       -2    1    3    3    0  502 -0.83311148979E+03  0.44452315325E+02  0.74529955095E+03  0.11187145227E+04  0.25500000920E-02 0.  1.
</event>
<event>
 5   0  0.5671132E-05  0.1699753E+04  0.7818609E-02  0.8761505E-01
       -2   -1    0    0    0  501  0.00000000000E+00  0.00000000000E+00  0.13440420161E+04  0.13440420161E+04  0.25500000920E-02 0. -1.
        2   -1    0    0  501    0  0.00000000000E+00  0.00000000000E+00 -0.53740157096E+03  0.53740157097E+03  0.25500000920E-02 0.  1.
    10030    2    1    2    0    0  0.00000000000E+00  0.00000000000E+00  0.80664044510E+03  0.18814435870E+04  0.16997532655E+04 0.  0.
        3    1    3    3  502    0 -0.11387627789E+03  0.11335601824E+03 -0.52043610041E+03  0.54467525954E+03  0.10100000352E+00 0.  1.
       -3    1    3    3    0  502  0.11387627789E+03 -0.11335601824E+03  0.13270765455E+04  0.13367683275E+04  0.10100000352E+00 0. -1.
</event>
<event>
 5   0  0.5859822E-05  0.1695906E+04  0.7818609E-02  0.8763703E-01
        2   -1    0    0  501    0  0.00000000000E+00  0.00000000000E+00  0.11655597908E+04  0.11655597908E+04  0.25500000920E-02 0.  1.
       -2   -1    0    0    0  501  0.00000000000E+00  0.00000000000E+00 -0.61689168213E+03  0.61689168214E+03  0.25500000920E-02 0. -1.
    10030    2    1    2    0    0  0.00000000000E+00  0.00000000000E+00  0.54866810869E+03  0.17824514730E+04  0.16959058228E+04 0.  0.
        5    1    3    3  502    0 -0.30655170524E+03 -0.31112426758E+03  0.10382180826E+04  0.11263619022E+04  0.46999998093E+01 0.  1.
       -5    1    3    3    0  502  0.30655170524E+03  0.31112426758E+03 -0.48954997388E+03  0.65608957071E+03  0.46999998093E+01 0. -1.
</event>
<event>
 5   0  0.5859822E-05  0.1698120E+04  0.7818609E-02  0.8762437E-01
       -2   -1    0    0    0  501  0.00000000000E+00  0.00000000000E+00  0.35555166188E+03  0.35555166189E+03  0.25500000920E-02 0. -1.
        2   -1    0    0  501    0  0.00000000000E+00  0.00000000000E+00 -0.20275624788E+04  0.20275624788E+04  0.25500000920E-02 0.  1.
    10030    2    1    2    0    0  0.00000000000E+00  0.00000000000E+00 -0.16720108169E+04  0.23831141407E+04  0.16981203831E+04 0.  0.
        5    1    3    3  502    0 -0.49019287142E+03  0.24865362336E+03 -0.17441620214E+04  0.18287265850E+04  0.46999998093E+01 0.  1.
       -5    1    3    3    0  502  0.49019287142E+03 -0.24865362336E+03  0.72151204523E+02  0.55438755570E+03  0.46999998093E+01 0. -1.
</event>
<event>
 5   0  0.5859822E-05  0.1701681E+04  0.7818609E-02  0.8760406E-01
        2   -1    0    0  501    0  0.00000000000E+00  0.00000000000E+00  0.11595865552E+04  0.11595865552E+04  0.25500000920E-02 0.  1.
       -2   -1    0    0    0  501  0.00000000000E+00  0.00000000000E+00 -0.62429961492E+03  0.62429961492E+03  0.25500000920E-02 0. -1.
    10030    2    1    2    0    0  0.00000000000E+00  0.00000000000E+00  0.53528694026E+03  0.17838861701E+04  0.17016808630E+04 0.  0.
        5    1    3    3  502    0  0.21192726585E+03 -0.81060083854E+03  0.11243554281E+03  0.84537017143E+03  0.46999998093E+01 0. -1.
       -5    1    3    3    0  502 -0.21192726585E+03  0.81060083854E+03  0.42285139745E+03  0.93851599868E+03  0.46999998093E+01 0.  1.
</event>
<event>
 5   0  0.5652631E-05  0.1700052E+04  0.7818609E-02  0.8761335E-01
        2   -1    0    0  501    0  0.00000000000E+00  0.00000000000E+00  0.12285734531E+04  0.12285734531E+04  0.25500000920E-02 0.  1.
       -2   -1    0    0    0  501  0.00000000000E+00  0.00000000000E+00 -0.58811619017E+03  0.58811619018E+03  0.25500000920E-02 0. -1.
    10030    2    1    2    0    0  0.00000000000E+00  0.00000000000E+00  0.64045726294E+03  0.18166896433E+04  0.17000516917E+04 0.  0.
        2    1    3    3  502    0  0.28935214772E+03 -0.48204538348E+02 -0.53231441206E+03  0.60778859499E+03  0.25500000920E-02 0. -1.
       -2    1    3    3    0  502 -0.28935214772E+03  0.48204538348E+02  0.11727716750E+04  0.12089010483E+04  0.25500000920E-02 0.  1.
</event>
<event>
 5   0  0.5755321E-05  0.1701451E+04  0.7818609E-02  0.8760537E-01
       -2   -1    0    0    0  501  0.00000000000E+00  0.00000000000E+00  0.62452762617E+03  0.62452762618E+03  0.25500000920E-02 0. -1.
        2   -1    0    0  501    0  0.00000000000E+00  0.00000000000E+00 -0.11588494695E+04  0.11588494695E+04  0.25500000920E-02 0.  1.
    10030    2    1    2    0    0  0.00000000000E+00  0.00000000000E+00 -0.53432184332E+03  0.17833770957E+04  0.17014505674E+04 0.  0.
        4    1    3    3  502    0 -0.95168968315E+02  0.37480187993E+03 -0.10614064986E+04  0.11296543498E+04  0.12699999809E+01 0.  1.
       -4    1    3    3    0  502  0.95168968315E+02 -0.37480187993E+03  0.52708465532E+03  0.65372274590E+03  0.12699999809E+01 0. -1.
</event>
<event>
 5   0  0.5671132E-05  0.1702322E+04  0.7818609E-02  0.8760041E-01
       -2   -1    0    0    0  501  0.00000000000E+00  0.00000000000E+00  0.19198276713E+04  0.19198276713E+04  0.25500000920E-02 0.  1.
        2   -1    0    0  501    0  0.00000000000E+00  0.00000000000E+00 -0.37736471085E+03  0.37736471085E+03  0.25500000920E-02 0. -1.
    10030    2    1    2    0    0  0.00000000000E+00  0.00000000000E+00  0.15424629604E+04  0.22971923821E+04  0.17023221952E+04 0.  0.
        3    1    3    3  502    0  0.70956040682E+03  0.40217161905E+03  0.10997245781E+04  0.13691647600E+04  0.10100000352E+00 0.  1.
       -3    1    3    3    0  502 -0.70956040682E+03 -0.40217161905E+03  0.44273838237E+03  0.92802762218E+03  0.10100000352E+00 0. -1.
</event>
<event>
 5   0  0.5859822E-05  0.1699442E+04  0.7818609E-02  0.8761683E-01
        2   -1    0    0  501    0  0.00000000000E+00  0.00000000000E+00  0.18014967614E+04  0.18014967614E+04  0.25500000920E-02 0. -1.
       -2   -1    0    0    0  501  0.00000000000E+00  0.00000000000E+00 -0.40079227798E+03  0.40079227799E+03  0.25500000920E-02 0.  1.
    10030    2    1    2    0    0  0.00000000000E+00  0.00000000000E+00  0.14007044834E+04  0.22022890394E+04  0.16994422506E+04 0.  0.
        5    1    3    3  502    0 -0.43790445845E+03  0.72737699540E+03  0.74460819180E+03  0.11292922817E+04  0.46999998093E+01 0. -1.
       -5    1    3    3    0  502  0.43790445845E+03 -0.72737699540E+03  0.65609629162E+03  0.10729967577E+04  0.46999998093E+01 0.  1.
</event>
<event>
 5   0  0.5821584E-05  0.1698106E+04  0.7818609E-02  0.8762445E-01
        2   -1    0    0  501    0  0.00000000000E+00  0.00000000000E+00  0.67338258528E+03  0.67338258528E+03  0.25500000920E-02 0.  1.
       -2   -1    0    0    0  501  0.00000000000E+00  0.00000000000E+00 -0.10705519924E+04  0.10705519924E+04  0.25500000920E-02 0. -1.
    10030    2    1    2    0    0  0.00000000000E+00  0.00000000000E+00 -0.39716940709E+03  0.17439345777E+04  0.16981060842E+04 0.  0.
        1    1    3    3  502    0  0.52674203975E+03  0.33293232913E+03  0.39368556984E+03  0.73708170520E+03  0.50400001928E-02 0.  1.
       -1    1    3    3    0  502 -0.52674203975E+03 -0.33293232913E+03 -0.79085497693E+03  0.10068528725E+04  0.50400001928E-02 0. -1.
</event>
<event>
 5   0  0.2098250E-05  0.1696642E+04  0.7818609E-02  0.8763282E-01
       -3   -1    0    0    0  501  0.00000000000E+00  0.00000000000E+00  0.51882686137E+03  0.51882687120E+03  0.10100000352E+00 0.  1.
        3   -1    0    0  501    0  0.00000000000E+00  0.00000000000E+00 -0.13870690664E+04  0.13870690701E+04  0.10100000352E+00 0. -1.
    10030    2    1    2    0    0  0.00000000000E+00  0.00000000000E+00 -0.86824220505E+03  0.19058959413E+04  0.16966422170E+04 0.  0.
        3    1    3    3  502    0  0.49005274033E+03 -0.67173949716E+03 -0.62297173737E+03  0.10389799979E+04  0.10100000352E+00 0. -1.
       -3    1    3    3    0  502 -0.49005274033E+03  0.67173949716E+03 -0.24527046768E+03  0.86691594337E+03  0.10100000352E+00 0.  1.
</event>
<event>
 5   0  0.5821584E-05  0.1698783E+04  0.7818609E-02  0.8762059E-01
       -2   -1    0    0    0  501  0.00000000000E+00  0.00000000000E+00  0.38262344781E+03  0.38262344782E+03  0.25500000920E-02 0.  1.
        2   -1    0    0  501    0  0.00000000000E+00  0.00000000000E+00 -0.18855767180E+04  0.18855767180E+04  0.25500000920E-02 0. -1.
    10030    2    1    2    0    0  0.00000000000E+00  0.00000000000E+00 -0.15029532702E+04  0.22682001659E+04  0.16987829349E+04 0.  0.
        1    1    3    3  502    0  0.26389500169E+03 -0.65267015978E+02  0.32297121932E+03  0.42215016739E+03  0.50400001928E-02 0.  1.
       -1    1    3    3    0  502 -0.26389500169E+03  0.65267015978E+02 -0.18259244895E+04  0.18460499985E+04  0.50400001928E-02 0. -1.
</event>
<event>
 5   0  0.2967704E-05  0.1699186E+04  0.7818609E-02  0.8761829E-01
        1   -1    0    0  501    0  0.00000000000E+00  0.00000000000E+00  0.39054121302E+03  0.39054121306E+03  0.50400001928E-02 0. -1.
       -1   -1    0    0    0  501  0.00000000000E+00  0.00000000000E+00 -0.18482258309E+04  0.18482258309E+04  0.50400001928E-02 0.  1.
    10030    2    1    2    0    0  0.00000000000E+00  0.00000000000E+00 -0.14576846179E+04  0.22387670440E+04  0.16991861087E+04 0.  0.
        2    1    3    3  502    0 -0.31398658694E+03 -0.25868828300E+03  0.25386217225E+03  0.47953436482E+03  0.25500000920E-02 0. -1.
       -2    1    3    3    0  502  0.31398658694E+03  0.25868828300E+03 -0.17115467901E+04  0.17592326791E+04  0.25500000920E-02 0.  1.
</event>
<event>
 5   0  0.5671132E-05  0.1686273E+04  0.7818609E-02  0.8769232E-01
        2   -1    0    0  501    0  0.00000000000E+00  0.00000000000E+00  0.63810856481E+03  0.63810856482E+03  0.25500000920E-02 0. -1.
       -2   -1    0    0    0  501  0.00000000000E+00  0.00000000000E+00 -0.11140408660E+04  0.11140408660E+04  0.25500000920E-02 0.  1.
    10030    2    1    2    0    0  0.00000000000E+00  0.00000000000E+00 -0.47593230122E+03  0.17521494309E+04  0.16862728346E+04 0.  0.
        3    1    3    3  502    0 -0.45576635092E+03  0.15261897234E+03  0.48181778988E+03  0.68056146687E+03  0.10100000352E+00 0. -1.
       -3    1    3    3    0  502  0.45576635092E+03 -0.15261897234E+03 -0.95775009110E+03  0.10715879640E+04  0.10100000352E+00 0.  1.
</event>
<event>
 5   0  0.2966258E-05  0.1713737E+04  0.7818609E-02  0.8753568E-01
        1   -1    0    0  501    0  0.00000000000E+00  0.00000000000E+00  0.97527776455E+03  0.97527776456E+03  0.50400001928E-02 0.  1.
       -1   -1    0    0    0  501  0.00000000000E+00  0.00000000000E+00 -0.75283511079E+03  0.75283511080E+03  0.50400001928E-02 0. -1.
    10030    2    1    2    0    0  0.00000000000E+00  0.00000000000E+00  0.22244265377E+03  0.17281128754E+04  0.17137366705E+04 0.  0.
        4    1    3    3  502    0 -0.82894191238E+03  0.17544820079E+03 -0.17501255132E+02  0.84748726957E+03  0.12699999809E+01 0. -1.
       -4    1    3    3    0  502  0.82894191238E+03 -0.17544820079E+03  0.23994390890E+03  0.88062560579E+03  0.12699999809E+01 0.  1.
</event>
<event>
 5   0  0.2911632E-05  0.1699984E+04  0.7818609E-02  0.8761374E-01
        1   -1    0    0  501    0  0.00000000000E+00  0.00000000000E+00  0.41514533907E+03  0.41514533910E+03  0.50400001928E-02 0.  1.
       -1   -1    0    0    0  501  0.00000000000E+00  0.00000000000E+00 -0.17403206427E+04  0.17403206427E+04  0.50400001928E-02 0. -1.
    10030    2    1    2    0    0  0.00000000000E+00  0.00000000000E+00 -0.13251753037E+04  0.21554659818E+04  0.16999835333E+04 0.  0.
        1    1    3    3  502    0 -0.64990631016E+03  0.16136579183E+03  0.11956377658E+01  0.66964062029E+03  0.50400001928E-02 0.  1.
       -1    1    3    3    0  502  0.64990631016E+03 -0.16136579183E+03 -0.13263709414E+04  0.14858253616E+04  0.50400001928E-02 0. -1.
</event>
<event>
 5   0  0.2987859E-05  0.1706709E+04  0.7818609E-02  0.8757547E-01
       -1   -1    0    0    0  501  0.00000000000E+00  0.00000000000E+00  0.46598189212E+03  0.46598189215E+03  0.50400001928E-02 0. -1.
        1   -1    0    0  501    0  0.00000000000E+00  0.00000000000E+00 -0.15627514303E+04  0.15627514303E+04  0.50400001928E-02 0.  1.
    10030    2    1    2    0    0  0.00000000000E+00  0.00000000000E+00 -0.10967695382E+04  0.20287333224E+04  0.17067089599E+04 0.  0.
        5    1    3    3  502    0 -0.65049567266E+03  0.48623174780E+03 -0.85977813003E+03  0.11827114845E+04  0.46999998093E+01 0.  1.
       -5    1    3    3    0  502  0.65049567266E+03 -0.48623174780E+03 -0.23699140813E+03  0.84602183792E+03  0.46999998093E+01 0. -1.
</event>
<event>
 5   0  0.5755321E-05  0.1700876E+04  0.7818609E-02  0.8760865E-01
        2   -1    0    0  501    0  0.00000000000E+00  0.00000000000E+00  0.75582291238E+03  0.75582291239E+03  0.25500000920E-02 0. -1.
       -2   -1    0    0    0  501  0.00000000000E+00  0.00000000000E+00 -0.95689691058E+03  0.95689691058E+03  0.25500000920E-02 0.  1.
    10030    2    1    2    0    0  0.00000000000E+00  0.00000000000E+00 -0.20107399819E+03  0.17127198230E+04  0.17008757860E+04 0.  0.
        4    1    3    3  502    0 -0.35716841686E+03 -0.14221611847E+03  0.66332847256E+03  0.76668179694E+03  0.12699999809E+01 0. -1.
       -4    1    3    3    0  502  0.35716841686E+03  0.14221611847E+03 -0.86440247075E+03  0.94603802603E+03  0.12699999809E+01 0.  1.
</event>
<event>
 5   0  0.2967704E-05  0.1707822E+04  0.7818609E-02  0.8756916E-01
       -1   -1    0    0    0  501  0.00000000000E+00  0.00000000000E+00  0.57889401783E+03  0.57889401785E+03  0.50400001928E-02 0.  1.
        1   -1    0    0  501    0  0.00000000000E+00  0.00000000000E+00 -0.12595804722E+04  0.12595804723E+04  0.50400001928E-02 0. -1.
    10030    2    1    2    0    0  0.00000000000E+00  0.00000000000E+00 -0.68068645441E+03  0.18384744901E+04  0.17078215368E+04 0.  0.
        2    1    3    3  502    0  0.57279034531E+03  0.47986956716E+03  0.10455336560E+03  0.75451639308E+03  0.25500000920E-02 0.  1.
       -2    1    3    3    0  502 -0.57279034531E+03 -0.47986956716E+03 -0.78523982001E+03  0.10839580970E+04  0.25500000920E-02 0. -1.
</event>
<event>
 5   0  0.5652631E-05  0.1700982E+04  0.7818609E-02  0.8760804E-01
        2   -1    0    0  501    0  0.00000000000E+00  0.00000000000E+00  0.21882291404E+04  0.21882291404E+04  0.25500000920E-02 0. -1.
       -2   -1    0    0    0  501  0.00000000000E+00  0.00000000000E+00 -0.33055726495E+03  0.33055726496E+03  0.25500000920E-02 0.  1.
    10030    2    1    2    0    0  0.00000000000E+00  0.00000000000E+00  0.18576718755E+04  0.25187864054E+04  0.17009821160E+04 0.  0.
        2    1    3    3  502    0 -0.42459659560E+03  0.52969311235E+03  0.17019193566E+03  0.69987310081E+03  0.25500000920E-02 0.  1.
       -2    1    3    3    0  502  0.42459659560E+03 -0.52969311235E+03  0.16874799398E+04  0.18189133046E+04  0.25500000920E-02 0. -1.
</event>
<event>
 5   0  0.5821584E-05  0.1698634E+04  0.7818609E-02  0.8762144E-01
        2   -1    0    0  501    0  0.00000000000E+00  0.00000000000E+00  0.15446287950E+04  0.15446287950E+04  0.25500000920E-02 0.  1.
       -2   -1    0    0    0  501  0.00000000000E+00  0.00000000000E+00 -0.46699866990E+03  0.46699866991E+03  0.25500000920E-02 0. -1.
    10030    2    1    2    0    0  0.00000000000E+00  0.00000000000E+00  0.10776301251E+04  0.20116274650E+04  0.16986342664E+04 0.  0.
        1    1    3    3  502    0 -0.44030985325E+03 -0.49856475799E+03 -0.86605187638E+02  0.67077570270E+03  0.50400001928E-02 0. -1.
       -1    1    3    3    0  502  0.44030985325E+03  0.49856475799E+03  0.11642353128E+04  0.13408517622E+04  0.50400001928E-02 0.  1.
</event>
<event>
 5   0  0.5859822E-05  0.1703092E+04  0.7818609E-02  0.8759603E-01
        2   -1    0    0  501    0  0.00000000000E+00  0.00000000000E+00  0.17071535462E+04  0.17071535462E+04  0.25500000920E-02 0. -1.
       -2   -1    0    0    0  501  0.00000000000E+00  0.00000000000E+00 -0.42476004069E+03  0.42476004069E+03  0.25500000920E-02 0.  1.
    10030    2    1    2    0    0  0.00000000000E+00  0.00000000000E+00  0.12823935055E+04  0.21319135869E+04  0.17030920230E+04 0.  0.
        5    1    3    3  502    0 -0.12605337738E+03  0.76834126584E+03  0.20960910006E+03  0.80634720782E+03  0.46999998093E+01 0.  1.
       -5    1    3    3    0  502  0.12605337738E+03 -0.76834126584E+03  0.10727844054E+04  0.13255663790E+04  0.46999998093E+01 0. -1.
</event>
<event>
 5   0  0.2967704E-05  0.1706478E+04  0.7818609E-02  0.8757679E-01
       -1   -1    0    0    0  501  0.00000000000E+00  0.00000000000E+00  0.52126127991E+03  0.52126127993E+03  0.50400001928E-02 0. -1.
        1   -1    0    0  501    0  0.00000000000E+00  0.00000000000E+00 -0.13966439814E+04  0.13966439815E+04  0.50400001928E-02 0.  1.
    10030    2    1    2    0    0  0.00000000000E+00  0.00000000000E+00 -0.87538270154E+03  0.19179052614E+04  0.17064775760E+04 0.  0.
        2    1    3    3  502    0  0.81388889216E+03 -0.25604623866E+03 -0.43044031854E+03  0.95564306775E+03  0.25500000920E-02 0.  1.
       -2    1    3    3    0  502 -0.81388889216E+03  0.25604623866E+03 -0.44494238299E+03  0.96226219364E+03  0.25500000920E-02 0. -1.
</event>
<event>
 5   0  0.2966258E-05  0.1699723E+04  0.7818609E-02  0.8761522E-01
       -1   -1    0    0    0  501  0.00000000000E+00  0.00000000000E+00  0.61344349242E+03  0.61344349245E+03  0.50400001928E-02 0.  1.
        1   -1    0    0  501    0  0.00000000000E+00  0.00000000000E+00 -0.11773935855E+04  0.11773935855E+04  0.50400001928E-02 0. -1.
    10030    2    1    2    0    0  0.00000000000E+00  0.00000000000E+00 -0.56395009308E+03  0.17908370780E+04  0.16997228398E+04 0.  0.
        4    1    3    3  502    0  0.24799173419E+03 -0.49596063300E+03 -0.96053776752E+03  0.11091038118E+04  0.12699999809E+01 0. -1.
       -4    1    3    3    0  502 -0.24799173419E+03  0.49596063300E+03  0.39658767444E+03  0.68173326612E+03  0.12699999809E+01 0.  1.
</event>
<event>
 5   0  0.5755321E-05  0.1698716E+04  0.7818609E-02  0.8762097E-01
        2   -1    0    0  501    0  0.00000000000E+00  0.00000000000E+00  0.23541540470E+04  0.23541540470E+04  0.25500000920E-02 0. -1.
       -2   -1    0    0    0  501  0.00000000000E+00  0.00000000000E+00 -0.30644077341E+03  0.30644077342E+03  0.25500000920E-02 0.  1.
    10030    2    1    2    0    0  0.00000000000E+00  0.00000000000E+00  0.20477132736E+04  0.26605948204E+04  0.16987157348E+04 0.  0.
        4    1    3    3  502    0  0.42663799043E+03 -0.46049312996E+03  0.12776358376E+03  0.64062394886E+03  0.12699999809E+01 0.  1.
       -4    1    3    3    0  502 -0.42663799043E+03  0.46049312996E+03  0.19199496898E+04  0.20199708716E+04  0.12699999809E+01 0. -1.
</event>
<event>
 5   0  0.5671132E-05  0.1683706E+04  0.7818609E-02  0.8770712E-01
       -2   -1    0    0    0  501  0.00000000000E+00  0.00000000000E+00  0.26494868421E+03  0.26494868422E+03  0.25500000920E-02 0.  1.
        2   -1    0    0  501    0  0.00000000000E+00  0.00000000000E+00 -0.26749203109E+04  0.26749203109E+04  0.25500000920E-02 0. -1.
    10030    2    1    2    0    0  0.00000000000E+00  0.00000000000E+00 -0.24099716267E+04  0.29398689951E+04  0.16837061700E+04 0.  0.
        3    1    3    3  502    0 -0.58699165841E+03 -0.46007353799E+03 -0.52314658266E+03  0.91099353705E+03  0.10100000352E+00 0.  1.
       -3    1    3    3    0  502  0.58699165841E+03  0.46007353799E+03 -0.18868250440E+04  0.20288754581E+04  0.10100000352E+00 0. -1.
</event>
<event>
 5   0  0.2911632E-05  0.1695614E+04  0.7818609E-02  0.8763870E-01
        1   -1    0    0  501    0  0.00000000000E+00  0.00000000000E+00  0.61702561743E+03  0.61702561745E+03  0.50400001928E-02 0. -1.
       -1   -1    0    0    0  501  0.00000000000E+00  0.00000000000E+00 -0.11649062091E+04  0.11649062091E+04  0.50400001928E-02 0.  1.
    10030    2    1    2    0    0  0.00000000000E+00  0.00000000000E+00 -0.54788059168E+03  0.17819318266E+04  0.16956143110E+04 0.  0.
        1    1    3    3  502    0  0.59375150029E+03 -0.58533510864E+03 -0.43544835846E+03  0.94062389211E+03  0.50400001928E-02 0. -1.
       -1    1    3    3    0  502 -0.59375150029E+03  0.58533510864E+03 -0.11243223322E+03  0.84130793446E+03  0.50400001928E-02 0.  1.
</event>
<event>
 5   0  0.2993769E-05  0.1699444E+04  0.7818609E-02  0.8761681E-01
        1   -1    0    0  501    0  0.00000000000E+00  0.00000000000E+00  0.52568228934E+03  0.52568228937E+03  0.50400001928E-02 0.  1.
       -1   -1    0    0    0  501  0.00000000000E+00  0.00000000000E+00 -0.13735056385E+04  0.13735056385E+04  0.50400001928E-02 0. -1.
    10030    2    1    2    0    0  0.00000000000E+00  0.00000000000E+00 -0.84782334915E+03  0.18991879279E+04  0.16994441309E+04 0.  0.
        3    1    3    3  502    0 -0.39322435725E+03  0.38985968534E+03  0.29636667998E+03  0.62805189960E+03  0.10100000352E+00 0.  1.
       -3    1    3    3    0  502  0.39322435725E+03 -0.38985968534E+03 -0.11441900291E+04  0.12711360283E+04  0.10100000352E+00 0. -1.
</event>
<event>
 5   0  0.2967704E-05  0.1699302E+04  0.7818609E-02  0.8761762E-01
       -1   -1    0    0    0  501  0.00000000000E+00  0.00000000000E+00  0.52285342664E+03  0.52285342666E+03  0.50400001928E-02 0.  1.
        1   -1    0    0  501    0  0.00000000000E+00  0.00000000000E+00 -0.13807066486E+04  0.13807066486E+04  0.50400001928E-02 0. -1.
    10030    2    1    2    0    0  0.00000000000E+00  0.00000000000E+00 -0.85785322192E+03  0.19035600752E+04  0.16993024480E+04 0.  0.
        2    1    3    3  502    0  0.55634052560E+03  0.34856288741E+03 -0.10331047812E+04  0.12240573336E+04  0.25500000920E-02 0. -1.
       -2    1    3    3    0  502 -0.55634052560E+03 -0.34856288741E+03  0.17525155927E+03  0.67950274167E+03  0.25500000920E-02 0.  1.
</event>
<event>
 5   0  0.2967704E-05  0.1701290E+04  0.7818609E-02  0.8760629E-01
       -1   -1    0    0    0  501  0.00000000000E+00  0.00000000000E+00  0.50906707227E+03  0.50906707229E+03  0.50400001928E-02 0. -1.
        1   -1    0    0  501    0  0.00000000000E+00  0.00000000000E+00 -0.14214178958E+04  0.14214178958E+04  0.50400001928E-02 0.  1.
    10030    2    1    2    0    0  0.00000000000E+00  0.00000000000E+00 -0.91235082352E+03  0.19304849681E+04  0.17012901536E+04 0.  0.
        2    1    3    3  502    0 -0.56507474664E+03 -0.47849634771E+03 -0.93130786363E+03  0.11897909736E+04  0.25500000920E-02 0.  1.
       -2    1    3    3    0  502  0.56507474664E+03  0.47849634771E+03  0.18957040106E+02  0.74069399446E+03  0.25500000920E-02 0. -1.
</event>
<event>
 5   0  0.5859822E-05  0.1697416E+04  0.7818609E-02  0.8762840E-01
       -2   -1    0    0    0  501  0.00000000000E+00  0.00000000000E+00  0.26897882545E+03  0.26897882546E+03  0.25500000920E-02 0.  1.
        2   -1    0    0  501    0  0.00000000000E+00  0.00000000000E+00 -0.26779251069E+04  0.26779251069E+04  0.25500000920E-02 0. -1.
    10030    2    1    2    0    0  0.00000000000E+00  0.00000000000E+00 -0.24089462814E+04  0.29469039323E+04  0.16974158594E+04 0.  0.
        5    1    3    3  502    0  0.91047681028E+02  0.13923287437E+03 -0.26493184250E+04  0.26545405781E+04  0.46999998093E+01 0. -1.
       -5    1    3    3    0  502 -0.91047681028E+02 -0.13923287437E+03  0.24037214357E+03  0.29236335428E+03  0.46999998093E+01 0.  1.
</event>
<event>
 5   0  0.2987859E-05  0.1698996E+04  0.7818609E-02  0.8761937E-01
       -1   -1    0    0    0  501  0.00000000000E+00  0.00000000000E+00  0.50814884514E+03  0.50814884516E+03  0.50400001928E-02 0.  1.
        1   -1    0    0  501    0  0.00000000000E+00  0.00000000000E+00 -0.14201481848E+04  0.14201481848E+04  0.50400001928E-02 0. -1.
    10030    2    1    2    0    0  0.00000000000E+00  0.00000000000E+00 -0.91199933970E+03  0.19282970300E+04  0.16989957741E+04 0.  0.
        5    1    3    3  502    0 -0.33724866663E+02 -0.36513362393E+03 -0.13256838709E+04  0.13754707360E+04  0.46999998093E+01 0. -1.
       -5    1    3    3    0  502  0.33724866663E+02  0.36513362393E+03  0.41368453124E+03  0.55282629400E+03  0.46999998093E+01 0.  1.
</event>
<event>
 5   0  0.2993769E-05  0.1700906E+04  0.7818609E-02  0.8760848E-01
       -1   -1    0    0    0  501  0.00000000000E+00  0.00000000000E+00  0.10931885824E+04  0.10931885824E+04  0.50400001928E-02 0. -1.
        1   -1    0    0  501    0  0.00000000000E+00  0.00000000000E+00 -0.66161553276E+03  0.66161553277E+03  0.50400001928E-02 0.  1.
    10030    2    1    2    0    0  0.00000000000E+00  0.00000000000E+00  0.43157304966E+03  0.17548041152E+04  0.17009062836E+04 0.  0.
        3    1    3    3  502    0  0.54281102967E+03  0.19360367757E+03  0.86101983956E+03  0.10360894615E+04  0.10100000352E+00 0. -1.
       -3    1    3    3    0  502 -0.54281102967E+03 -0.19360367757E+03 -0.42944678990E+03  0.71871465371E+03  0.10100000352E+00 0.  1.
</event>
<event>
 5   0  0.2987859E-05  0.1694459E+04  0.7818609E-02  0.8764531E-01
        1   -1    0    0  501    0  0.00000000000E+00  0.00000000000E+00  0.22402303155E+04  0.22402303155E+04  0.50400001928E-02 0. -1.
       -1   -1    0    0    0  501  0.00000000000E+00  0.00000000000E+00 -0.32041269407E+03  0.32041269411E+03  0.50400001928E-02 0.  1.
    10030    2    1    2    0    0  0.00000000000E+00  0.00000000000E+00  0.19198176214E+04  0.25606430096E+04  0.16944594782E+04 0.  0.
        5    1    3    3  502    0  0.85210633201E+01  0.35148504124E+03 -0.20494174431E+03  0.40698593501E+03  0.46999998093E+01 0.  1.
       -5    1    3    3    0  502 -0.85210633201E+01 -0.35148504124E+03  0.21247593657E+04  0.21536570746E+04  0.46999998093E+01 0. -1.
</event>
<event>
 5   0  0.2911632E-05  0.1699470E+04  0.7818609E-02  0.8761667E-01
        1   -1    0    0  501    0  0.00000000000E+00  0.00000000000E+00  0.89904378387E+03  0.89904378389E+03  0.50400001928E-02 0. -1.
       -1   -1    0    0    0  501  0.00000000000E+00  0.00000000000E+00 -0.80313057732E+03  0.80313057734E+03  0.50400001928E-02 0.  1.
    10030    2    1    2    0    0  0.00000000000E+00  0.00000000000E+00  0.95913206551E+02  0.17021743612E+04  0.16994699800E+04 0.  0.
        1    1    3    3  502    0  0.53461693008E+03 -0.66047986168E+03  0.47153099371E+02  0.85104190521E+03  0.50400001928E-02 0.  1.
       -1    1    3    3    0  502 -0.53461693008E+03  0.66047986168E+03  0.48760107180E+02  0.85113245602E+03  0.50400001928E-02 0. -1.
</event>
<event>
 5   0  0.5652631E-05  0.1699352E+04  0.7818609E-02  0.8761734E-01
       -2   -1    0    0    0  501  0.00000000000E+00  0.00000000000E+00  0.48724653895E+03  0.48724653896E+03  0.25500000920E-02 0. -1.
        2   -1    0    0  501    0  0.00000000000E+00  0.00000000000E+00 -0.14816912302E+04  0.14816912302E+04  0.25500000920E-02 0.  1.
    10030    2    1    2    0    0  0.00000000000E+00  0.00000000000E+00 -0.99444469128E+03  0.19689377692E+04  0.16993515513E+04 0.  0.
        2    1    3    3  502    0 -0.12779352352E+03 -0.68712737660E+03  0.62622581626E+02  0.70170991447E+03  0.25500000920E-02 0. -1.
       -2    1    3    3    0  502  0.12779352352E+03  0.68712737660E+03 -0.10570672729E+04  0.12672278547E+04  0.25500000920E-02 0.  1.
</event>
<event>
 5   0  0.5821584E-05  0.1700890E+04  0.7818609E-02  0.8760857E-01
        2   -1    0    0  501    0  0.00000000000E+00  0.00000000000E+00  0.63965957935E+03  0.63965957935E+03  0.25500000920E-02 0. -1.
       -2   -1    0    0    0  501  0.00000000000E+00  0.00000000000E+00 -0.11306898426E+04  0.11306898426E+04  0.25500000920E-02 0.  1.
    10030    2    1    2    0    0  0.00000000000E+00  0.00000000000E+00 -0.49103026325E+03  0.17703494220E+04  0.17008898719E+04 0.  0.
        1    1    3    3  502    0  0.71385946053E+03  0.38239622400E+03  0.24770841036E+02  0.81020725503E+03  0.50400001928E-02 0.  1.
       -1    1    3    3    0  502 -0.71385946053E+03 -0.38239622400E+03 -0.51580110429E+03  0.96014216693E+03  0.50400001928E-02 0. -1.
</event>
<event>
 5   0  0.2987859E-05  0.1699606E+04  0.7818609E-02  0.8761589E-01
        1   -1    0    0  501    0  0.00000000000E+00  0.00000000000E+00  0.66852219795E+03  0.66852219797E+03  0.50400001928E-02 0. -1.
       -1   -1    0    0    0  501  0.00000000000E+00  0.00000000000E+00 -0.10802415405E+04  0.10802415405E+04  0.50400001928E-02 0.  1.
    10030    2    1    2    0    0  0.00000000000E+00  0.00000000000E+00 -0.41171934257E+03  0.17487637385E+04  0.16996063650E+04 0.  0.
        5    1    3    3  502    0  0.76874743101E+03  0.21737980480E+03  0.92202706620E+02  0.80420769788E+03  0.46999998093E+01 0. -1.
       -5    1    3    3    0  502 -0.76874743101E+03 -0.21737980480E+03 -0.50392204919E+03  0.94455604062E+03  0.46999998093E+01 0.  1.
</event>
<event>
 5   0  0.2967704E-05  0.1701031E+04  0.7818609E-02  0.8760777E-01
       -1   -1    0    0    0  501  0.00000000000E+00  0.00000000000E+00  0.40285752413E+03  0.40285752416E+03  0.50400001928E-02 0. -1.
        1   -1    0    0  501    0  0.00000000000E+00  0.00000000000E+00 -0.17956139879E+04  0.17956139879E+04  0.50400001928E-02 0.  1.
    10030    2    1    2    0    0  0.00000000000E+00  0.00000000000E+00 -0.13927564638E+04  0.21984715121E+04  0.17010309880E+04 0.  0.
        2    1    3    3  502    0  0.48682771911E+03 -0.15434520297E+03 -0.15753791687E+04  0.16560927495E+04  0.25500000920E-02 0.  1.
       -2    1    3    3    0  502 -0.48682771911E+03  0.15434520297E+03  0.18262270489E+03  0.54237876261E+03  0.25500000920E-02 0. -1.
</event>
<event>
 5   0  0.2993769E-05  0.1700258E+04  0.7818609E-02  0.8761217E-01
       -1   -1    0    0    0  501  0.00000000000E+00  0.00000000000E+00  0.65419997598E+03  0.65419997600E+03  0.50400001928E-02 0. -1.
        1   -1    0    0  501    0  0.00000000000E+00  0.00000000000E+00 -0.11047380682E+04  0.11047380682E+04  0.50400001928E-02 0.  1.
    10030    2    1    2    0    0  0.00000000000E+00  0.00000000000E+00 -0.45053809217E+03  0.17589380442E+04  0.17002583541E+04 0.  0.
        3    1    3    3  502    0 -0.17974619449E+03 -0.18946476785E+03 -0.10622105405E+04  0.10938449777E+04  0.10100000352E+00 0.  1.
       -3    1    3    3    0  502  0.17974619449E+03  0.18946476785E+03  0.61167244838E+03  0.66509306642E+03  0.10100000352E+00 0. -1.
</event>
<event>
 5   0  0.5652631E-05  0.1700244E+04  0.7818609E-02  0.8761225E-01
        2   -1    0    0  501    0  0.00000000000E+00  0.00000000000E+00  0.14810947681E+04  0.14810947681E+04  0.25500000920E-02 0.  1.
       -2   -1    0    0    0  501  0.00000000000E+00  0.00000000000E+00 -0.48795496455E+03  0.48795496455E+03  0.25500000920E-02 0. -1.
    10030    2    1    2    0    0  0.00000000000E+00  0.00000000000E+00  0.99313980350E+03  0.19690497326E+04  0.17002441531E+04 0.  0.
        2    1    3    3  502    0  0.49231662177E+03  0.13080448791E+03  0.12847764146E+04  0.13820766642E+04  0.25500000920E-02 0.  1.
       -2    1    3    3    0  502 -0.49231662177E+03 -0.13080448791E+03 -0.29163661110E+03  0.58697306843E+03  0.25500000920E-02 0. -1.
</event>
<event>
 5   0  0.5821584E-05  0.1699492E+04  0.7818609E-02  0.8761654E-01
        2   -1    0    0  501    0  0.00000000000E+00  0.00000000000E+00  0.20074260263E+04  0.20074260263E+04  0.25500000920E-02 0.  1.
       -2   -1    0    0    0  501  0.00000000000E+00  0.00000000000E+00 -0.35969843211E+03  0.35969843212E+03  0.25500000920E-02 0. -1.
    10030    2    1    2    0    0  0.00000000000E+00  0.00000000000E+00  0.16477275942E+04  0.23671244584E+04  0.16994916819E+04 0.  0.
        1    1    3    3  502    0  0.10126512130E+03 -0.51351166036E+03 -0.10852876077E+03  0.53453469678E+03  0.50400001928E-02 0. -1.
       -1    1    3    3    0  502 -0.10126512130E+03  0.51351166036E+03  0.17562563549E+04  0.18325897616E+04  0.50400001928E-02 0.  1.
</event>
<event>
 5   0  0.2911632E-05  0.1699483E+04  0.7818609E-02  0.8761660E-01
       -1   -1    0    0    0  501  0.00000000000E+00  0.00000000000E+00  0.86759568031E+03  0.86759568033E+03  0.50400001928E-02 0.  1.
        1   -1    0    0  501    0  0.00000000000E+00  0.00000000000E+00 -0.83225431316E+03  0.83225431318E+03  0.50400001928E-02 0. -1.
    10030    2    1    2    0    0  0.00000000000E+00  0.00000000000E+00  0.35341367148E+02  0.16998499935E+04  0.16994825648E+04 0.  0.
        1    1    3    3  502    0 -0.55202454262E+03  0.43958319115E+03 -0.45581920972E+03  0.84008072801E+03  0.50400001928E-02 0. -1.
       -1    1    3    3    0  502  0.55202454262E+03 -0.43958319115E+03  0.49116057687E+03  0.85976926550E+03  0.50400001928E-02 0.  1.
</event>
<event>
 5   0  0.5652631E-05  0.1693343E+04  0.7818609E-02  0.8765170E-01
        2   -1    0    0  501    0  0.00000000000E+00  0.00000000000E+00  0.94575314800E+03  0.94575314801E+03  0.25500000920E-02 0.  1.
       -2   -1    0    0    0  501  0.00000000000E+00  0.00000000000E+00 -0.75796980545E+03  0.75796980546E+03  0.25500000920E-02 0. -1.
    10030    2    1    2    0    0  0.00000000000E+00  0.00000000000E+00  0.18778334255E+03  0.17037229535E+04  0.16933426465E+04 0.  0.
        2    1    3    3  502    0 -0.41855627280E+02 -0.58276138914E+03  0.71042006772E+03  0.91981487422E+03  0.25500000920E-02 0.  1.
       -2    1    3    3    0  502  0.41855627280E+02  0.58276138914E+03 -0.52263672516E+03  0.78390807925E+03  0.25500000920E-02 0. -1.
</event>
<event>
 5   0  0.2966258E-05  0.1698436E+04  0.7818609E-02  0.8762257E-01
       -1   -1    0    0    0  501  0.00000000000E+00  0.00000000000E+00  0.97367015906E+03  0.97367015907E+03  0.50400001928E-02 0.  1.
        1   -1    0    0  501    0  0.00000000000E+00  0.00000000000E+00 -0.74067291677E+03  0.74067291679E+03  0.50400001928E-02 0. -1.
    10030    2    1    2    0    0  0.00000000000E+00  0.00000000000E+00  0.23299724229E+03  0.17143430759E+04  0.16984358884E+04 0.  0.
        4    1    3    3  502    0  0.32589683132E+03 -0.21457754938E+03 -0.64483169688E+03  0.75369874589E+03  0.12699999809E+01 0. -1.
       -4    1    3    3    0  502 -0.32589683132E+03  0.21457754938E+03  0.87782893917E+03  0.96064432997E+03  0.12699999809E+01 0.  1.
</event>
<event>
 5   0  0.2993769E-05  0.1680188E+04  0.7818609E-02  0.8772745E-01
        1   -1    0    0  501    0  0.00000000000E+00  0.00000000000E+00  0.65919149021E+03  0.65919149023E+03  0.50400001928E-02 0. -1.
       -1   -1    0    0    0  501  0.00000000000E+00  0.00000000000E+00 -0.10706412118E+04  0.10706412118E+04  0.50400001928E-02 0.  1.
    10030    2    1    2    0    0  0.00000000000E+00  0.00000000000E+00 -0.41144972159E+03  0.17298327020E+04  0.16801875799E+04 0.  0.
        3    1    3    3  502    0  0.54689027071E+02 -0.77152415768E+03 -0.54331146516E+03  0.94521308388E+03  0.10100000352E+00 0.  1.
       -3    1    3    3    0  502 -0.54689027071E+02  0.77152415768E+03  0.13186174358E+03  0.78461961815E+03  0.10100000352E+00 0. -1.
</event>
<event>
 5   0  0.5859822E-05  0.1699605E+04  0.7818609E-02  0.8761589E-01
        2   -1    0    0  501    0  0.00000000000E+00  0.00000000000E+00  0.89728739368E+03  0.89728739369E+03  0.25500000920E-02 0.  1.
       -2   -1    0    0    0  501  0.00000000000E+00  0.00000000000E+00 -0.80483090319E+03  0.80483090319E+03  0.25500000920E-02 0. -1.
    10030    2    1    2    0    0  0.00000000000E+00  0.00000000000E+00  0.92456490494E+02  0.17021182969E+04  0.16996053936E+04 0.  0.
        5    1    3    3  502    0  0.20785609784E+03 -0.46757231439E+03 -0.63323969589E+03  0.81415147795E+03  0.46999998093E+01 0. -1.
       -5    1    3    3    0  502 -0.20785609784E+03  0.46757231439E+03  0.72569618639E+03  0.88796681893E+03  0.46999998093E+01 0.  1.
</event>
<event>
 5   0  0.5652631E-05  0.1701406E+04  0.7818609E-02  0.8760563E-01
        2   -1    0    0  501    0  0.00000000000E+00  0.00000000000E+00  0.21235759137E+04  0.21235759137E+04  0.25500000920E-02 0. -1.
       -2   -1    0    0    0  501  0.00000000000E+00  0.00000000000E+00 -0.34079108477E+03  0.34079108478E+03  0.25500000920E-02 0.  1.
    10030    2    1    2    0    0  0.00000000000E+00  0.00000000000E+00  0.17827848289E+04  0.24643669985E+04  0.17014061705E+04 0.  0.
        2    1    3    3  502    0 -0.23879904008E+02  0.71417323847E+02  0.21187388915E+04  0.21200766906E+04  0.25500000920E-02 0. -1.
       -2    1    3    3    0  502  0.23879904008E+02 -0.71417323847E+02 -0.33595406252E+03  0.34429030786E+03  0.25500000920E-02 0.  1.
</event>
<event>
 5   0  0.2098250E-05  0.1699894E+04  0.7818609E-02  0.8761425E-01
        3   -1    0    0  501    0  0.00000000000E+00  0.00000000000E+00  0.71305057900E+03  0.71305058616E+03  0.10100000352E+00 0. -1.
       -3   -1    0    0    0  501  0.00000000000E+00  0.00000000000E+00 -0.10131256121E+04  0.10131256171E+04  0.10100000352E+00 0.  1.
    10030    2    1    2    0    0  0.00000000000E+00  0.00000000000E+00 -0.30007503308E+03  0.17261762033E+04  0.16998938965E+04 0.  0.
        1    1    3    3  502    0 -0.43591251417E+02  0.38283340671E+03  0.61926944049E+03  0.72935331249E+03  0.50400001928E-02 0. -1.
       -1    1    3    3    0  502  0.43591251417E+02 -0.38283340671E+03 -0.91934447357E+03  0.99682289079E+03  0.50400001928E-02 0.  1.
</event>
<event>
 5   0  0.2987859E-05  0.1698963E+04  0.7818609E-02  0.8761956E-01
       -1   -1    0    0    0  501  0.00000000000E+00  0.00000000000E+00  0.63635279610E+03  0.63635279612E+03  0.50400001928E-02 0. -1.
        1   -1    0    0  501    0  0.00000000000E+00  0.00000000000E+00 -0.11339920749E+04  0.11339920749E+04  0.50400001928E-02 0.  1.
    10030    2    1    2    0    0  0.00000000000E+00  0.00000000000E+00 -0.49763927883E+03  0.17703448711E+04  0.16989632458E+04 0.  0.
        5    1    3    3  502    0  0.69971661487E+03  0.45025796963E+03 -0.42706618709E+03  0.93527707044E+03  0.46999998093E+01 0.  1.
       -5    1    3    3    0  502 -0.69971661487E+03 -0.45025796963E+03 -0.70573091741E+02  0.83506780061E+03  0.46999998093E+01 0. -1.
</event>
<event>
 5   0  0.2967704E-05  0.1700830E+04  0.7818609E-02  0.8760891E-01
        1   -1    0    0  501    0  0.00000000000E+00  0.00000000000E+00  0.15395726841E+04  0.15395726841E+04  0.50400001928E-02 0.  1.
       -1   -1    0    0    0  501  0.00000000000E+00  0.00000000000E+00 -0.46974443324E+03  0.46974443326E+03  0.50400001928E-02 0. -1.
    10030    2    1    2    0    0  0.00000000000E+00  0.00000000000E+00  0.10698282509E+04  0.20093171174E+04  0.17008300303E+04 0.  0.
        2    1    3    3  502    0  0.43555429482E+03 -0.68495956895E+03  0.23528127439E+03  0.84512391572E+03  0.25500000920E-02 0. -1.
       -2    1    3    3    0  502 -0.43555429482E+03  0.68495956895E+03  0.83454697647E+03  0.11641932017E+04  0.25500000920E-02 0.  1.
</event>
<event>
 5   0  0.2911632E-05  0.1699295E+04  0.7818609E-02  0.8761766E-01
       -1   -1    0    0    0  501  0.00000000000E+00  0.00000000000E+00  0.11731020194E+04  0.11731020194E+04  0.50400001928E-02 0. -1.
        1   -1    0    0  501    0  0.00000000000E+00  0.00000000000E+00 -0.61537786965E+03  0.61537786967E+03  0.50400001928E-02 0.  1.
    10030    2    1    2    0    0  0.00000000000E+00  0.00000000000E+00  0.55772414974E+03  0.17884798891E+04  0.16992951734E+04 0.  0.
        1    1    3    3  502    0  0.21397777366E+03  0.12918423828E+03 -0.57580753051E+03  0.62771758559E+03  0.50400001928E-02 0.  1.
       -1    1    3    3    0  502 -0.21397777366E+03 -0.12918423828E+03  0.11335316803E+04  0.11607623035E+04  0.50400001928E-02 0. -1.
</event>
<event>
 5   0  0.5652631E-05  0.1701175E+04  0.7818609E-02  0.8760695E-01
        2   -1    0    0  501    0  0.00000000000E+00  0.00000000000E+00  0.11014241235E+04  0.11014241235E+04  0.25500000920E-02 0.  1.
       -2   -1    0    0    0  501  0.00000000000E+00  0.00000000000E+00 -0.65687589051E+03  0.65687589052E+03  0.25500000920E-02 0. -1.
    10030    2    1    2    0    0  0.00000000000E+00  0.00000000000E+00  0.44454823300E+03  0.17583000140E+04  0.17011748317E+04 0.  0.
        2    1    3    3  502    0  0.54530218202E+03 -0.51471606701E+03  0.63726878292E+03  0.98407245721E+03  0.25500000920E-02 0.  1.
       -2    1    3    3    0  502 -0.54530218202E+03  0.51471606701E+03 -0.19272054993E+03  0.77422755681E+03  0.25500000920E-02 0. -1.
</event>
<event>
 5   0  0.2911632E-05  0.1699133E+04  0.7818609E-02  0.8761859E-01
       -1   -1    0    0    0  501  0.00000000000E+00  0.00000000000E+00  0.35886263065E+03  0.35886263068E+03  0.50400001928E-02 0.  1.
        1   -1    0    0  501    0  0.00000000000E+00  0.00000000000E+00 -0.20112529202E+04  0.20112529202E+04  0.50400001928E-02 0. -1.
    10030    2    1    2    0    0  0.00000000000E+00  0.00000000000E+00 -0.16523902896E+04  0.23701155509E+04  0.16991333248E+04 0.  0.
        1    1    3    3  502    0  0.78046991280E+03 -0.26422290905E+03 -0.53756109716E+03  0.98382872679E+03  0.50400001928E-02 0.  1.
       -1    1    3    3    0  502 -0.78046991280E+03  0.26422290905E+03 -0.11148291924E+04  0.13862868241E+04  0.50400001928E-02 0. -1.
</event>
<event>
 5   0  0.5859822E-05  0.1701883E+04  0.7818609E-02  0.8760291E-01
        2   -1    0    0  501    0  0.00000000000E+00  0.00000000000E+00  0.23810369929E+04  0.23810369929E+04  0.25500000920E-02 0.  1.
       -2   -1    0    0    0  501  0.00000000000E+00  0.00000000000E+00 -0.30411178685E+03  0.30411178686E+03  0.25500000920E-02 0. -1.
    10030    2    1    2    0    0  0.00000000000E+00  0.00000000000E+00  0.20769252060E+04  0.26851487797E+04  0.17018829742E+04 0.  0.
        5    1    3    3  502    0 -0.74438731233E+02  0.83924818854E+03  0.85044730063E+03  0.11971471705E+04  0.46999998093E+01 0. -1.
       -5    1    3    3    0  502  0.74438731233E+02 -0.83924818854E+03  0.12264779054E+04  0.14880016092E+04  0.46999998093E+01 0.  1.
</event>
<event>
 5   0  0.2993769E-05  0.1679606E+04  0.7818609E-02  0.8773082E-01
       -1   -1    0    0    0  501  0.00000000000E+00  0.00000000000E+00  0.12881433952E+04  0.12881433952E+04  0.50400001928E-02 0.  1.
        1   -1    0    0  501    0  0.00000000000E+00  0.00000000000E+00 -0.54750813167E+03  0.54750813169E+03  0.50400001928E-02 0. -1.
    10030    2    1    2    0    0  0.00000000000E+00  0.00000000000E+00  0.74063526348E+03  0.18356515269E+04  0.16796058867E+04 0.  0.
        3    1    3    3  502    0 -0.29691706624E+02 -0.45176674555E+03  0.11433462616E+04  0.12297217058E+04  0.10100000352E+00 0.  1.
       -3    1    3    3    0  502  0.29691706624E+02  0.45176674555E+03 -0.40271099807E+03  0.60592982101E+03  0.10100000352E+00 0. -1.
</event>
<event>
 5   0  0.2098250E-05  0.1701871E+04  0.7818609E-02  0.8760298E-01
       -3   -1    0    0    0  501  0.00000000000E+00  0.00000000000E+00  0.11305935056E+04  0.11305935101E+04  0.10100000352E+00 0.  1.
        3   -1    0    0  501    0  0.00000000000E+00  0.00000000000E+00 -0.64045219067E+03  0.64045219864E+03  0.10100000352E+00 0. -1.
    10030    2    1    2    0    0  0.00000000000E+00  0.00000000000E+00  0.49014131494E+03  0.17710457088E+04  0.17018708511E+04 0.  0.
        4    1    3    3  502    0 -0.83051819977E+03 -0.15878865581E+03  0.14571662147E+03  0.85802637724E+03  0.12699999809E+01 0. -1.
       -4    1    3    3    0  502  0.83051819977E+03  0.15878865581E+03  0.34442469347E+03  0.91301933152E+03  0.12699999809E+01 0.  1.
</event>
<event>
 5   0  0.2987859E-05  0.1698332E+04  0.7818609E-02  0.8762316E-01
        1   -1    0    0  501    0  0.00000000000E+00  0.00000000000E+00  0.14583507726E+04  0.14583507726E+04  0.50400001928E-02 0.  1.
       -1   -1    0    0    0  501  0.00000000000E+00  0.00000000000E+00 -0.49445086951E+03  0.49445086953E+03  0.50400001928E-02 0. -1.
    10030    2    1    2    0    0  0.00000000000E+00  0.00000000000E+00  0.96389990307E+03  0.19528016421E+04  0.16983318964E+04 0.  0.
        5    1    3    3  502    0 -0.84160901601E+02 -0.17933053314E+02 -0.48940966970E+03  0.49693919805E+03  0.46999998093E+01 0. -1.
       -5    1    3    3    0  502  0.84160901601E+02  0.17933053314E+02  0.14533095728E+04  0.14558624441E+04  0.46999998093E+01 0.  1.
</event>
<event>
 5   0  0.5652631E-05  0.1701318E+04  0.7818609E-02  0.8760613E-01
        2   -1    0    0  501    0  0.00000000000E+00  0.00000000000E+00  0.86913249871E+03  0.86913249871E+03  0.25500000920E-02 0.  1.
       -2   -1    0    0    0  501  0.00000000000E+00  0.00000000000E+00 -0.83257836409E+03  0.83257836409E+03  0.25500000920E-02 0. -1.
    10030    2    1    2    0    0  0.00000000000E+00  0.00000000000E+00  0.36554134623E+02  0.17017108628E+04  0.17013182112E+04 0.  0.
        2    1    3    3  502    0  0.21227838356E+03 -0.79684592113E+03 -0.19056618754E+03  0.84636930828E+03  0.25500000920E-02 0. -1.
       -2    1    3    3    0  502 -0.21227838356E+03  0.79684592113E+03  0.22712032216E+03  0.85534155453E+03  0.25500000920E-02 0.  1.
</event>
<event>
 5   0  0.2098250E-05  0.1702585E+04  0.7818609E-02  0.8759891E-01
       -3   -1    0    0    0  501  0.00000000000E+00  0.00000000000E+00  0.16753799073E+04  0.16753799104E+04  0.10100000352E+00 0.  1.
        3   -1    0    0  501    0  0.00000000000E+00  0.00000000000E+00 -0.43255807062E+03  0.43255808242E+03  0.10100000352E+00 0. -1.
    10030    2    1    2    0    0  0.00000000000E+00  0.00000000000E+00  0.12428218367E+04  0.21079379928E+04  0.17025852295E+04 0.  0.
        1    1    3    3  502    0  0.63483805449E+03 -0.25695725661E+03 -0.45888699806E+01  0.68488498663E+03  0.50400001928E-02 0. -1.
       -1    1    3    3    0  502 -0.63483805449E+03  0.25695725661E+03  0.12474107067E+04  0.14230530061E+04  0.50400001928E-02 0.  1.
</event>
<event>
 5   0  0.2911632E-05  0.1700420E+04  0.7818609E-02  0.8761125E-01
        1   -1    0    0  501    0  0.00000000000E+00  0.00000000000E+00  0.74846820949E+03  0.74846820951E+03  0.50400001928E-02 0. -1.
       -1   -1    0    0    0  501  0.00000000000E+00  0.00000000000E+00 -0.96578182970E+03  0.96578182971E+03  0.50400001928E-02 0.  1.
    10030    2    1    2    0    0  0.00000000000E+00  0.00000000000E+00 -0.21731362020E+03  0.17142500392E+04  0.17004199444E+04 0.  0.
        1    1    3    3  502    0 -0.78733930758E+03  0.30325486449E+03 -0.29695287058E+01  0.84372715745E+03  0.50400001928E-02 0.  1.
       -1    1    3    3    0  502  0.78733930758E+03 -0.30325486449E+03 -0.21434409150E+03  0.87052288177E+03  0.50400001928E-02 0. -1.
</event>
<event>
 5   0  0.5652631E-05  0.1701684E+04  0.7818609E-02  0.8760404E-01
        2   -1    0    0  501    0  0.00000000000E+00  0.00000000000E+00  0.17978336947E+04  0.17978336947E+04  0.25500000920E-02 0. -1.
       -2   -1    0    0    0  501  0.00000000000E+00  0.00000000000E+00 -0.40266919469E+03  0.40266919470E+03  0.25500000920E-02 0.  1.
    10030    2    1    2    0    0  0.00000000000E+00  0.00000000000E+00  0.13951645000E+04  0.22005028894E+04  0.17016841611E+04 0.  0.
        2    1    3    3  502    0  0.64929038006E+03 -0.36813352164E+03  0.16940144899E+03  0.76537385526E+03  0.25500000920E-02 0.  1.
       -2    1    3    3    0  502 -0.64929038006E+03  0.36813352164E+03  0.12257630510E+04  0.14351290341E+04  0.25500000920E-02 0. -1.
</event>
<event>
 5   0  0.2967704E-05  0.1699446E+04  0.7818609E-02  0.8761681E-01
       -1   -1    0    0    0  501  0.00000000000E+00  0.00000000000E+00  0.15676109249E+04  0.15676109249E+04  0.50400001928E-02 0. -1.
        1   -1    0    0  501    0  0.00000000000E+00  0.00000000000E+00 -0.46059196700E+03  0.46059196703E+03  0.50400001928E-02 0.  1.
    10030    2    1    2    0    0  0.00000000000E+00  0.00000000000E+00  0.11070189579E+04  0.20282028919E+04  0.16994457913E+04 0.  0.
        2    1    3    3  502    0  0.66931111865E+03  0.34894669971E+03  0.10192421191E+04  0.12683042499E+04  0.25500000920E-02 0. -1.
       -2    1    3    3    0  502 -0.66931111865E+03 -0.34894669971E+03  0.87776838767E+02  0.75989864207E+03  0.25500000920E-02 0.  1.
</event>
<event>
 5   0  0.2967704E-05  0.1696316E+04  0.7818609E-02  0.8763468E-01
       -1   -1    0    0    0  501  0.00000000000E+00  0.00000000000E+00  0.13690977783E+04  0.13690977783E+04  0.50400001928E-02 0. -1.
        1   -1    0    0  501    0  0.00000000000E+00  0.00000000000E+00 -0.52543482001E+03  0.52543482004E+03  0.50400001928E-02 0.  1.
    10030    2    1    2    0    0  0.00000000000E+00  0.00000000000E+00  0.84366295830E+03  0.18945325984E+04  0.16963155895E+04 0.  0.
        2    1    3    3  502    0 -0.62292269254E+02 -0.18303121261E+03  0.13441580427E+04  0.13579917508E+04  0.25500000920E-02 0. -1.
       -2    1    3    3    0  502  0.62292269254E+02  0.18303121261E+03 -0.50049508437E+03  0.53654084754E+03  0.25500000920E-02 0.  1.
</event>
<event>
 5   0  0.2966258E-05  0.1698880E+04  0.7818609E-02  0.8762003E-01
        1   -1    0    0  501    0  0.00000000000E+00  0.00000000000E+00  0.60131481935E+03  0.60131481937E+03  0.50400001928E-02 0. -1.
       -1   -1    0    0    0  501  0.00000000000E+00  0.00000000000E+00 -0.11999516536E+04  0.11999516536E+04  0.50400001928E-02 0.  1.
    10030    2    1    2    0    0  0.00000000000E+00  0.00000000000E+00 -0.59863683420E+03  0.18012664729E+04  0.16988804688E+04 0.  0.
        4    1    3    3  502    0 -0.16845396775E+03  0.24669309600E+03  0.54378559279E+03  0.62043420819E+03  0.12699999809E+01 0. -1.
       -4    1    3    3    0  502  0.16845396775E+03 -0.24669309600E+03 -0.11424224270E+04  0.11808322647E+04  0.12699999809E+01 0.  1.
</event>
<event>
 5   0  0.2966258E-05  0.1696795E+04  0.7818609E-02  0.8763194E-01
       -1   -1    0    0    0  501  0.00000000000E+00  0.00000000000E+00  0.15229847512E+04  0.15229847512E+04  0.50400001928E-02 0. -1.
        1   -1    0    0  501    0  0.00000000000E+00  0.00000000000E+00 -0.47261052315E+03  0.47261052318E+03  0.50400001928E-02 0.  1.
    10030    2    1    2    0    0  0.00000000000E+00  0.00000000000E+00  0.10503742280E+04  0.19955952744E+04  0.16967953560E+04 0.  0.
        4    1    3    3  502    0  0.29915579639E+02 -0.42453698300E+03 -0.33798320739E+03  0.54347111535E+03  0.12699999809E+01 0.  1.
       -4    1    3    3    0  502 -0.29915579639E+02  0.42453698300E+03  0.13883574354E+04  0.14521241590E+04  0.12699999809E+01 0. -1.
</event>
<event>
 5   0  0.2987859E-05  0.1698999E+04  0.7818609E-02  0.8761935E-01
       -1   -1    0    0    0  501  0.00000000000E+00  0.00000000000E+00  0.48369624542E+03  0.48369624545E+03  0.50400001928E-02 0.  1.
        1   -1    0    0  501    0  0.00000000000E+00  0.00000000000E+00 -0.14919481065E+04  0.14919481065E+04  0.50400001928E-02 0. -1.
    10030    2    1    2    0    0  0.00000000000E+00  0.00000000000E+00 -0.10082518611E+04  0.19756443519E+04  0.16989993496E+04 0.  0.
        5    1    3    3  502    0  0.77442820158E+03  0.13248529564E+03 -0.12851943633E+03  0.79613486827E+03  0.46999998093E+01 0. -1.
       -5    1    3    3    0  502 -0.77442820158E+03 -0.13248529564E+03 -0.87973242473E+03  0.11795094837E+04  0.46999998093E+01 0.  1.
</event>
<event>
 5   0  0.2993769E-05  0.1702027E+04  0.7818609E-02  0.8760209E-01
        1   -1    0    0  501    0  0.00000000000E+00  0.00000000000E+00  0.12442769457E+04  0.12442769457E+04  0.50400001928E-02 0. -1.
       -1   -1    0    0    0  501  0.00000000000E+00  0.00000000000E+00 -0.58204432588E+03  0.58204432590E+03  0.50400001928E-02 0.  1.
    10030    2    1    2    0    0  0.00000000000E+00  0.00000000000E+00  0.66223261982E+03  0.18263212716E+04  0.17020274217E+04 0.  0.
        3    1    3    3  502    0 -0.71163781211E+03 -0.31358724088E+03 -0.39752276300E+02  0.77868195493E+03  0.10100000352E+00 0.  1.
       -3    1    3    3    0  502  0.71163781211E+03  0.31358724088E+03  0.70198489612E+03  0.10476393167E+04  0.10100000352E+00 0. -1.
</event>
<event>
 5   0  0.5859822E-05  0.1699192E+04  0.7818609E-02  0.8761826E-01
        2   -1    0    0  501    0  0.00000000000E+00  0.00000000000E+00  0.23315359734E+04  0.23315359734E+04  0.25500000920E-02 0.  1.
       -2   -1    0    0    0  501  0.00000000000E+00  0.00000000000E+00 -0.30958692524E+03  0.30958692525E+03  0.25500000920E-02 0. -1.
    10030    2    1    2    0    0  0.00000000000E+00  0.00000000000E+00  0.20219490482E+04  0.26411228987E+04  0.16991916350E+04 0.  0.
        5    1    3    3  502    0 -0.58577100788E+03  0.60829191471E+03  0.86646064612E+03  0.12099268029E+04  0.46999998093E+01 0.  1.
       -5    1    3    3    0  502  0.58577100788E+03 -0.60829191471E+03  0.11554884021E+04  0.14311960958E+04  0.46999998093E+01 0. -1.
</event>
<event>
 5   0  0.2987859E-05  0.1700482E+04  0.7818609E-02  0.8761089E-01
        1   -1    0    0  501    0  0.00000000000E+00  0.00000000000E+00  0.91101401010E+03  0.91101401011E+03  0.50400001928E-02 0. -1.
       -1   -1    0    0    0  501  0.00000000000E+00  0.00000000000E+00 -0.79352224765E+03  0.79352224767E+03  0.50400001928E-02 0.  1.
    10030    2    1    2    0    0  0.00000000000E+00  0.00000000000E+00  0.11749176245E+03  0.17045362578E+04  0.17004821492E+04 0.  0.
        5    1    3    3  502    0 -0.14533193458E+03 -0.69596028711E+03  0.52612535158E+03  0.88448406883E+03  0.46999998093E+01 0. -1.
       -5    1    3    3    0  502  0.14533193458E+03  0.69596028711E+03 -0.40863358913E+03  0.82005218895E+03  0.46999998093E+01 0.  1.
</event>
<event>
 5   0  0.5821584E-05  0.1700619E+04  0.7818609E-02  0.8761012E-01
       -2   -1    0    0    0  501  0.00000000000E+00  0.00000000000E+00  0.92548213286E+03  0.92548213287E+03  0.25500000920E-02 0.  1.
        2   -1    0    0  501    0  0.00000000000E+00  0.00000000000E+00 -0.78124258400E+03  0.78124258400E+03  0.25500000920E-02 0. -1.
    10030    2    1    2    0    0  0.00000000000E+00  0.00000000000E+00  0.14423954886E+03  0.17067247169E+04  0.17006187732E+04 0.  0.
        1    1    3    3  502    0  0.40138178555E+03  0.65971139067E+03 -0.28510710051E+03  0.82317222714E+03  0.50400001928E-02 0.  1.
       -1    1    3    3    0  502 -0.40138178555E+03 -0.65971139067E+03  0.42934664937E+03  0.88355248973E+03  0.50400001928E-02 0. -1.
</event>
<event>
 5   0  0.2993769E-05  0.1700777E+04  0.7818609E-02  0.8760921E-01
        1   -1    0    0  501    0  0.00000000000E+00  0.00000000000E+00  0.19108499340E+04  0.19108499340E+04  0.50400001928E-02 0.  1.
       -1   -1    0    0    0  501  0.00000000000E+00  0.00000000000E+00 -0.37844986657E+03  0.37844986660E+03  0.50400001928E-02 0. -1.
    10030    2    1    2    0    0  0.00000000000E+00  0.00000000000E+00  0.15324000674E+04  0.22892998006E+04  0.17007773547E+04 0.  0.
        3    1    3    3  502    0 -0.14904606748E+03 -0.76796243269E+03  0.12150159762E+04  0.14450760744E+04  0.10100000352E+00 0.  1.
       -3    1    3    3    0  502  0.14904606748E+03  0.76796243269E+03  0.31738409121E+03  0.84422372616E+03  0.10100000352E+00 0. -1.
</event>
<event>
 5   0  0.2966258E-05  0.1702117E+04  0.7818609E-02  0.8760158E-01
        1   -1    0    0  501    0  0.00000000000E+00  0.00000000000E+00  0.14483318626E+04  0.14483318626E+04  0.50400001928E-02 0. -1.
       -1   -1    0    0    0  501  0.00000000000E+00  0.00000000000E+00 -0.50009323599E+03  0.50009323601E+03  0.50400001928E-02 0.  1.
    10030    2    1    2    0    0  0.00000000000E+00  0.00000000000E+00  0.94823862660E+03  0.19484250986E+04  0.17021174671E+04 0.  0.
        4    1    3    3  502    0  0.81742497386E+03  0.21976649926E+03  0.37290204750E+03  0.92495321612E+03  0.12699999809E+01 0.  1.
       -4    1    3    3    0  502 -0.81742497386E+03 -0.21976649926E+03  0.57533657910E+03  0.10234718825E+04  0.12699999809E+01 0. -1.
</event>
<event>
 5   0  0.5821584E-05  0.1697117E+04  0.7818609E-02  0.8763011E-01
       -2   -1    0    0    0  501  0.00000000000E+00  0.00000000000E+00  0.10864280741E+04  0.10864280741E+04  0.25500000920E-02 0.  1.
        2   -1    0    0  501    0  0.00000000000E+00  0.00000000000E+00 -0.66276931631E+03  0.66276931631E+03  0.25500000920E-02 0. -1.
    10030    2    1    2    0    0  0.00000000000E+00  0.00000000000E+00  0.42365875776E+03  0.17491973904E+04  0.16971166040E+04 0.  0.
        1    1    3    3  502    0 -0.62001651739E+03  0.30048954083E+03  0.72234429830E+03  0.99824632796E+03  0.50400001928E-02 0.  1.
       -1    1    3    3    0  502  0.62001651739E+03 -0.30048954083E+03 -0.29868554054E+03  0.75095106241E+03  0.50400001928E-02 0. -1.
</event>
<event>
 5   0  0.5671132E-05  0.1699508E+04  0.7818609E-02  0.8761645E-01
       -2   -1    0    0    0  501  0.00000000000E+00  0.00000000000E+00  0.57657184790E+03  0.57657184791E+03  0.25500000920E-02 0. -1.
        2   -1    0    0  501    0  0.00000000000E+00  0.00000000000E+00 -0.12523709197E+04  0.12523709197E+04  0.25500000920E-02 0.  1.
    10030    2    1    2    0    0  0.00000000000E+00  0.00000000000E+00 -0.67579907178E+03  0.18289427676E+04  0.16995079469E+04 0.  0.
        3    1    3    3  502    0  0.59799080571E+03  0.36862227954E+02 -0.98639652978E+03  0.11540926963E+04  0.10100000352E+00 0.  1.
       -3    1    3    3    0  502 -0.59799080571E+03 -0.36862227954E+02  0.31059745800E+03  0.67485007126E+03  0.10100000352E+00 0. -1.
</event>
<event>
 5   0  0.5821584E-05  0.1698832E+04  0.7818609E-02  0.8762031E-01
       -2   -1    0    0    0  501  0.00000000000E+00  0.00000000000E+00  0.36996791296E+03  0.36996791297E+03  0.25500000920E-02 0.  1.
        2   -1    0    0  501    0  0.00000000000E+00  0.00000000000E+00 -0.19501902473E+04  0.19501902473E+04  0.25500000920E-02 0. -1.
    10030    2    1    2    0    0  0.00000000000E+00  0.00000000000E+00 -0.15802223343E+04  0.23201581602E+04  0.16988323233E+04 0.  0.
        1    1    3    3  502    0 -0.69587007918E+03  0.29689455947E+03 -0.13175160564E+04  0.15192860512E+04  0.50400001928E-02 0. -1.
       -1    1    3    3    0  502  0.69587007918E+03 -0.29689455947E+03 -0.26270627791E+03  0.80087210903E+03  0.50400001928E-02 0.  1.
</event>
<event>
 5   0  0.5671132E-05  0.1696523E+04  0.7818609E-02  0.8763350E-01
       -2   -1    0    0    0  501  0.00000000000E+00  0.00000000000E+00  0.82779579826E+03  0.82779579826E+03  0.25500000920E-02 0.  1.
        2   -1    0    0  501    0  0.00000000000E+00  0.00000000000E+00 -0.86923335038E+03  0.86923335038E+03  0.25500000920E-02 0. -1.
    10030    2    1    2    0    0  0.00000000000E+00  0.00000000000E+00 -0.41437552120E+02  0.16970291486E+04  0.16965231683E+04 0.  0.
        3    1    3    3  502    0  0.35141506512E+03  0.28813448179E+03 -0.73719609108E+03  0.86600930392E+03  0.10100000352E+00 0. -1.
       -3    1    3    3    0  502 -0.35141506512E+03 -0.28813448179E+03  0.69575853896E+03  0.83101984472E+03  0.10100000352E+00 0.  1.
</event>
<event>
 5   0  0.5652631E-05  0.1699811E+04  0.7818609E-02  0.8761472E-01
        2   -1    0    0  501    0  0.00000000000E+00  0.00000000000E+00  0.10119923048E+04  0.10119923048E+04  0.25500000920E-02 0. -1.
       -2   -1    0    0    0  501  0.00000000000E+00  0.00000000000E+00 -0.71377982223E+03  0.71377982224E+03  0.25500000920E-02 0.  1.
    10030    2    1    2    0    0  0.00000000000E+00  0.00000000000E+00  0.29821248259E+03  0.17257721271E+04  0.16998113865E+04 0.  0.
        2    1    3    3  502    0 -0.98191415802E+02 -0.75415829214E+03  0.53429943111E+03  0.92944723671E+03  0.25500000920E-02 0. -1.
       -2    1    3    3    0  502  0.98191415802E+02  0.75415829214E+03 -0.23608694851E+03  0.79632489036E+03  0.25500000920E-02 0.  1.
</event>
<event>
 5   0  0.5821584E-05  0.1700777E+04  0.7818609E-02  0.8760921E-01
       -2   -1    0    0    0  501  0.00000000000E+00  0.00000000000E+00  0.40444332804E+03  0.40444332805E+03  0.25500000920E-02 0.  1.
        2   -1    0    0  501    0  0.00000000000E+00  0.00000000000E+00 -0.17880400549E+04  0.17880400549E+04  0.25500000920E-02 0. -1.
    10030    2    1    2    0    0  0.00000000000E+00  0.00000000000E+00 -0.13835967269E+04  0.21924833830E+04  0.17007773170E+04 0.  0.
        1    1    3    3  502    0 -0.13753862980E+03 -0.83102870628E+03 -0.54126908934E+03  0.10012481273E+04  0.50400001928E-02 0. -1.
       -1    1    3    3    0  502  0.13753862980E+03  0.83102870628E+03 -0.84232763755E+03  0.11912352557E+04  0.50400001928E-02 0.  1.
</event>
<event>
 5   0  0.2987859E-05  0.1699138E+04  0.7818609E-02  0.8761856E-01
       -1   -1    0    0    0  501  0.00000000000E+00  0.00000000000E+00  0.79698556775E+03  0.79698556776E+03  0.50400001928E-02 0. -1.
        1   -1    0    0  501    0  0.00000000000E+00  0.00000000000E+00 -0.90562125418E+03  0.90562125419E+03  0.50400001928E-02 0.  1.
    10030    2    1    2    0    0  0.00000000000E+00  0.00000000000E+00 -0.10863568643E+03  0.17026068220E+04  0.16991375100E+04 0.  0.
        5    1    3    3  502    0 -0.47071151385E+03 -0.66596198171E+03 -0.29285912897E+03  0.86652365794E+03  0.46999998093E+01 0.  1.
       -5    1    3    3    0  502  0.47071151385E+03  0.66596198171E+03  0.18422344254E+03  0.83608316401E+03  0.46999998093E+01 0. -1.
</event>
<event>
 5   0  0.2987859E-05  0.1691436E+04  0.7818609E-02  0.8766264E-01
        1   -1    0    0  501    0  0.00000000000E+00  0.00000000000E+00  0.60716549272E+03  0.60716549274E+03  0.50400001928E-02 0.  1.
       -1   -1    0    0    0  501  0.00000000000E+00  0.00000000000E+00 -0.11779967987E+04  0.11779967987E+04  0.50400001928E-02 0. -1.
    10030    2    1    2    0    0  0.00000000000E+00  0.00000000000E+00 -0.57083130595E+03  0.17851622914E+04  0.16914360842E+04 0.  0.
        5    1    3    3  502    0 -0.74605093382E+03 -0.19731699886E+03 -0.65055002799E+03  0.10093381112E+04  0.46999998093E+01 0. -1.
       -5    1    3    3    0  502  0.74605093382E+03  0.19731699886E+03  0.79718722039E+02  0.77582418017E+03  0.46999998093E+01 0.  1.
</event>
<event>
 5   0  0.5652631E-05  0.1703457E+04  0.7818609E-02  0.8759395E-01
       -2   -1    0    0    0  501  0.00000000000E+00  0.00000000000E+00  0.75602209811E+03  0.75602209812E+03  0.25500000920E-02 0.  1.
        2   -1    0    0  501    0  0.00000000000E+00  0.00000000000E+00 -0.95955013449E+03  0.95955013449E+03  0.25500000920E-02 0. -1.
    10030    2    1    2    0    0  0.00000000000E+00  0.00000000000E+00 -0.20352803638E+03  0.17155722326E+04  0.17034566105E+04 0.  0.
        2    1    3    3  502    0  0.40495609940E+03 -0.69802842978E+02  0.64958449080E+03  0.76864939343E+03  0.25500000920E-02 0.  1.
       -2    1    3    3    0  502 -0.40495609940E+03  0.69802842978E+02 -0.85311252718E+03  0.94692283918E+03  0.25500000920E-02 0. -1.
</event>
<event>
 5   0  0.2993769E-05  0.1701567E+04  0.7818609E-02  0.8760471E-01
        1   -1    0    0  501    0  0.00000000000E+00  0.00000000000E+00  0.14225041483E+04  0.14225041483E+04  0.50400001928E-02 0.  1.
       -1   -1    0    0    0  501  0.00000000000E+00  0.00000000000E+00 -0.50884361273E+03  0.50884361276E+03  0.50400001928E-02 0. -1.
    10030    2    1    2    0    0  0.00000000000E+00  0.00000000000E+00  0.91366053552E+03  0.19313477610E+04  0.17015665135E+04 0.  0.
        3    1    3    3  502    0  0.50455062586E+03  0.10439822300E+03 -0.31162000019E+03  0.60214396761E+03  0.10100000352E+00 0. -1.
       -3    1    3    3    0  502 -0.50455062586E+03 -0.10439822300E+03  0.12252805357E+04  0.13292037934E+04  0.10100000352E+00 0.  1.
</event>
<event>
 5   0  0.2987859E-05  0.1700287E+04  0.7818609E-02  0.8761201E-01
        1   -1    0    0  501    0  0.00000000000E+00  0.00000000000E+00  0.64074360888E+03  0.64074360890E+03  0.50400001928E-02 0. -1.
       -1   -1    0    0    0  501  0.00000000000E+00  0.00000000000E+00 -0.11279770731E+04  0.11279770731E+04  0.50400001928E-02 0.  1.
    10030    2    1    2    0    0  0.00000000000E+00  0.00000000000E+00 -0.48723346422E+03  0.17687206820E+04  0.17002871529E+04 0.  0.
        5    1    3    3  502    0 -0.72834796903E+03  0.40257952740E+03 -0.62957717014E+02  0.83459379580E+03  0.46999998093E+01 0. -1.
       -5    1    3    3    0  502  0.72834796903E+03 -0.40257952740E+03 -0.42427574720E+03  0.93412688620E+03  0.46999998093E+01 0.  1.
</event>
<event>
 5   0  0.2098250E-05  0.1704818E+04  0.7818609E-02  0.8758621E-01
        4   -1    0    0  501    0  0.00000000000E+00  0.00000000000E+00  0.67665167649E+03  0.67665286832E+03  0.12699999809E+01 0. -1.
       -4   -1    0    0    0  501  0.00000000000E+00  0.00000000000E+00 -0.10738164507E+04  0.10738172017E+04  0.12699999809E+01 0.  1.
    10030    2    1    2    0    0  0.00000000000E+00  0.00000000000E+00 -0.39716477417E+03  0.17504700700E+04  0.17048183505E+04 0.  0.
        4    1    3    3  502    0 -0.21599473712E+03 -0.26527544173E+03 -0.10002422732E+04  0.10571239305E+04  0.12699999809E+01 0.  1.
       -4    1    3    3    0  502  0.21599473712E+03  0.26527544173E+03  0.60307749902E+03  0.69334613950E+03  0.12699999809E+01 0. -1.
</event>
<event>
 5   0  0.5671132E-05  0.1701813E+04  0.7818609E-02  0.8760331E-01
       -2   -1    0    0    0  501  0.00000000000E+00  0.00000000000E+00  0.61679529307E+03  0.61679529307E+03  0.25500000920E-02 0. -1.
        2   -1    0    0  501    0  0.00000000000E+00  0.00000000000E+00 -0.11738770139E+04  0.11738770139E+04  0.25500000920E-02 0.  1.
    10030    2    1    2    0    0  0.00000000000E+00  0.00000000000E+00 -0.55708172082E+03  0.17906723070E+04  0.17018129354E+04 0.  0.
        3    1    3    3  502    0  0.68774434840E+03 -0.49861362550E+03 -0.22662955666E+03  0.87918644350E+03  0.10100000352E+00 0. -1.
       -3    1    3    3    0  502 -0.68774434840E+03  0.49861362550E+03 -0.33045216415E+03  0.91148586346E+03  0.10100000352E+00 0.  1.
</event>
<event>
 5   0  0.2987859E-05  0.1699917E+04  0.7818609E-02  0.8761412E-01
        1   -1    0    0  501    0  0.00000000000E+00  0.00000000000E+00  0.11315691659E+04  0.11315691659E+04  0.50400001928E-02 0.  1.
       -1   -1    0    0    0  501  0.00000000000E+00  0.00000000000E+00 -0.63843164183E+03  0.63843164185E+03  0.50400001928E-02 0. -1.
    10030    2    1    2    0    0  0.00000000000E+00  0.00000000000E+00  0.49313752411E+03  0.17700008078E+04  0.16999171280E+04 0.  0.
        5    1    3    3  502    0 -0.30660615423E+02  0.74764278458E+03 -0.17316052691E+03  0.76806019605E+03  0.46999998093E+01 0. -1.
       -5    1    3    3    0  502  0.30660615423E+02 -0.74764278458E+03  0.66629805102E+03  0.10019406117E+04  0.46999998093E+01 0.  1.
</event>
<event>
 5   0  0.5652631E-05  0.1695460E+04  0.7818609E-02  0.8763958E-01
        2   -1    0    0  501    0  0.00000000000E+00  0.00000000000E+00  0.17815404217E+04  0.17815404217E+04  0.25500000920E-02 0.  1.
       -2   -1    0    0    0  501  0.00000000000E+00  0.00000000000E+00 -0.40338458473E+03  0.40338458474E+03  0.25500000920E-02 0. -1.
    10030    2    1    2    0    0  0.00000000000E+00  0.00000000000E+00  0.13781558369E+04  0.21849250064E+04  0.16954597526E+04 0.  0.
        2    1    3    3  502    0  0.19552476470E+03 -0.67478486413E+03  0.77687186362E+02  0.70682377253E+03  0.25500000920E-02 0. -1.
       -2    1    3    3    0  502 -0.19552476470E+03  0.67478486413E+03  0.13004686506E+04  0.14781012339E+04  0.25500000920E-02 0.  1.
</event>
<event>
 5   0  0.2911632E-05  0.1700483E+04  0.7818609E-02  0.8761089E-01
       -1   -1    0    0    0  501  0.00000000000E+00  0.00000000000E+00  0.29915040067E+03  0.29915040071E+03  0.50400001928E-02 0. -1.
        1   -1    0    0  501    0  0.00000000000E+00  0.00000000000E+00 -0.24165458719E+04  0.24165458719E+04  0.50400001928E-02 0.  1.
    10030    2    1    2    0    0  0.00000000000E+00  0.00000000000E+00 -0.21173954713E+04  0.27156962726E+04  0.17004830677E+04 0.  0.
        1    1    3    3  502    0 -0.10203311138E+03  0.68796304708E+03 -0.18397778928E+04  0.19668468686E+04  0.50400001928E-02 0.  1.
       -1    1    3    3    0  502  0.10203311138E+03 -0.68796304708E+03 -0.27761757850E+03  0.74884940400E+03  0.50400001928E-02 0. -1.
</event>
<event>
 5   0  0.5671132E-05  0.1704961E+04  0.7818609E-02  0.8758540E-01
       -2   -1    0    0    0  501  0.00000000000E+00  0.00000000000E+00  0.44100390156E+03  0.44100390156E+03  0.25500000920E-02 0. -1.
        2   -1    0    0  501    0  0.00000000000E+00  0.00000000000E+00 -0.16478842678E+04  0.16478842678E+04  0.25500000920E-02 0.  1.
    10030    2    1    2    0    0  0.00000000000E+00  0.00000000000E+00 -0.12068803663E+04  0.20888881694E+04  0.17049614558E+04 0.  0.
        3    1    3    3  502    0  0.27433932710E+03  0.41617304148E+03  0.24385210089E+03  0.55491073530E+03  0.10100000352E+00 0. -1.
       -3    1    3    3    0  502 -0.27433932710E+03 -0.41617304148E+03 -0.14507324671E+04  0.15339774341E+04  0.10100000352E+00 0.  1.
</event>
<event>
 5   0  0.2967704E-05  0.1702660E+04  0.7818609E-02  0.8759849E-01
        1   -1    0    0  501    0  0.00000000000E+00  0.00000000000E+00  0.14124795028E+04  0.14124795028E+04  0.50400001928E-02 0.  1.
       -1   -1    0    0    0  501  0.00000000000E+00  0.00000000000E+00 -0.51311404394E+03  0.51311404396E+03  0.50400001928E-02 0. -1.
    10030    2    1    2    0    0  0.00000000000E+00  0.00000000000E+00  0.89936545885E+03  0.19255935468E+04  0.17026603533E+04 0.  0.
        2    1    3    3  502    0 -0.58718121151E+03 -0.39254470737E+03  0.98719087524E+03  0.12138446962E+04  0.25500000920E-02 0. -1.
       -2    1    3    3    0  502  0.58718121151E+03  0.39254470737E+03 -0.87825416390E+02  0.71174885051E+03  0.25500000920E-02 0.  1.
</event>
<event>
 5   0  0.2993769E-05  0.1704250E+04  0.7818609E-02  0.8758944E-01
       -1   -1    0    0    0  501  0.00000000000E+00  0.00000000000E+00  0.77912819366E+03  0.77912819367E+03  0.50400001928E-02 0.  1.
        1   -1    0    0  501    0  0.00000000000E+00  0.00000000000E+00 -0.93196072391E+03  0.93196072392E+03  0.50400001928E-02 0. -1.
    10030    2    1    2    0    0  0.00000000000E+00  0.00000000000E+00 -0.15283253025E+03  0.17110889176E+04  0.17042498354E+04 0.  0.
        3    1    3    3  502    0  0.80968536346E+03 -0.23948110961E+03  0.38827959685E+02  0.84525097475E+03  0.10100000352E+00 0.  1.
       -3    1    3    3    0  502 -0.80968536346E+03  0.23948110961E+03 -0.19166048994E+03  0.86583794284E+03  0.10100000352E+00 0. -1.
</event>
<event>
 5   0  0.2987859E-05  0.1699710E+04  0.7818609E-02  0.8761530E-01
        1   -1    0    0  501    0  0.00000000000E+00  0.00000000000E+00  0.73523824123E+03  0.73523824125E+03  0.50400001928E-02 0. -1.
       -1   -1    0    0    0  501  0.00000000000E+00  0.00000000000E+00 -0.98233937206E+03  0.98233937208E+03  0.50400001928E-02 0.  1.
    10030    2    1    2    0    0  0.00000000000E+00  0.00000000000E+00 -0.24710113083E+03  0.17175776133E+04  0.16997099426E+04 0.  0.
        5    1    3    3  502    0  0.80843431384E+03  0.21066742648E+03  0.33922700759E+02  0.83613374767E+03  0.46999998093E+01 0. -1.
       -5    1    3    3    0  502 -0.80843431384E+03 -0.21066742648E+03 -0.28102383159E+03  0.88144386565E+03  0.46999998093E+01 0.  1.
</event>
<event>
 5   0  0.2967704E-05  0.1705855E+04  0.7818609E-02  0.8758032E-01
        1   -1    0    0  501    0  0.00000000000E+00  0.00000000000E+00  0.10783311126E+04  0.10783311126E+04  0.50400001928E-02 0.  1.
       -1   -1    0    0    0  501  0.00000000000E+00  0.00000000000E+00 -0.67464004242E+03  0.67464004244E+03  0.50400001928E-02 0. -1.
    10030    2    1    2    0    0  0.00000000000E+00  0.00000000000E+00  0.40369107017E+03  0.17529711550E+04  0.17058550320E+04 0.  0.
        2    1    3    3  502    0 -0.36223174200E+03 -0.20682921467E+03 -0.56267573738E+03  0.70042426028E+03  0.25500000920E-02 0. -1.
       -2    1    3    3    0  502  0.36223174200E+03  0.20682921467E+03  0.96636680755E+03  0.10525468948E+04  0.25500000920E-02 0.  1.
</event>
<event>
 5   0  0.5755321E-05  0.1698030E+04  0.7818609E-02  0.8762489E-01
        2   -1    0    0  501    0  0.00000000000E+00  0.00000000000E+00  0.33461904915E+03  0.33461904916E+03  0.25500000920E-02 0.  1.
       -2   -1    0    0    0  501  0.00000000000E+00  0.00000000000E+00 -0.21541701595E+04  0.21541701595E+04  0.25500000920E-02 0. -1.
    10030    2    1    2    0    0  0.00000000000E+00  0.00000000000E+00 -0.18195511104E+04  0.24887892087E+04  0.16980298825E+04 0.  0.
        4    1    3    3  502    0 -0.41208164527E+03 -0.73606797782E+03 -0.10504927517E+04  0.13472727952E+04  0.12699999809E+01 0. -1.
       -4    1    3    3    0  502  0.41208164527E+03  0.73606797782E+03 -0.76905835868E+03  0.11415164135E+04  0.12699999809E+01 0.  1.
</event>
<event>
 5   0  0.2966258E-05  0.1692620E+04  0.7818609E-02  0.8765585E-01
        1   -1    0    0  501    0  0.00000000000E+00  0.00000000000E+00  0.11115431802E+04  0.11115431803E+04  0.50400001928E-02 0. -1.
       -1   -1    0    0    0  501  0.00000000000E+00  0.00000000000E+00 -0.64436566283E+03  0.64436566285E+03  0.50400001928E-02 0.  1.
    10030    2    1    2    0    0  0.00000000000E+00  0.00000000000E+00  0.46717751742E+03  0.17559088431E+04  0.16926195770E+04 0.  0.
        4    1    3    3  502    0 -0.10840151323E+03  0.33513743643E+03 -0.56471109145E+03  0.66555857674E+03  0.12699999809E+01 0.  1.
       -4    1    3    3    0  502  0.10840151323E+03 -0.33513743643E+03  0.10318886089E+04  0.10903502664E+04  0.12699999809E+01 0. -1.
</event>
<event>
 5   0  0.2987859E-05  0.1692223E+04  0.7818609E-02  0.8765812E-01
       -1   -1    0    0    0  501  0.00000000000E+00  0.00000000000E+00  0.84545549454E+03  0.84545549455E+03  0.50400001928E-02 0.  1.
        1   -1    0    0  501    0  0.00000000000E+00  0.00000000000E+00 -0.84676844417E+03  0.84676844418E+03  0.50400001928E-02 0. -1.
    10030    2    1    2    0    0  0.00000000000E+00  0.00000000000E+00 -0.13129496312E+01  0.16922239387E+04  0.16922234294E+04 0.  0.
        5    1    3    3  502    0  0.31337315350E+03 -0.31344708942E+03 -0.72137240029E+03  0.84667115287E+03  0.46999998093E+01 0. -1.
       -5    1    3    3    0  502 -0.31337315350E+03  0.31344708942E+03  0.72005945066E+03  0.84555278587E+03  0.46999998093E+01 0.  1.
</event>
<event>
 5   0  0.2098250E-05  0.1704817E+04  0.7818609E-02  0.8758622E-01
        4   -1    0    0  501    0  0.00000000000E+00  0.00000000000E+00  0.10341628699E+04  0.10341636497E+04  0.12699999809E+01 0.  1.
       -4   -1    0    0    0  501  0.00000000000E+00  0.00000000000E+00 -0.70259592770E+03  0.70259707552E+03  0.12699999809E+01 0. -1.
    10030    2    1    2    0    0  0.00000000000E+00  0.00000000000E+00  0.33156694220E+03  0.17367607252E+04  0.17048170516E+04 0.  0.
        5    1    3    3  502    0 -0.54226296185E+03 -0.32637537600E+03 -0.41588626758E+03  0.75733313900E+03  0.46999998093E+01 0. -1.
       -5    1    3    3    0  502  0.54226296185E+03  0.32637537600E+03  0.74745320978E+03  0.97942758623E+03  0.46999998093E+01 0.  1.
</event>
<event>
 5   0  0.5821584E-05  0.1699293E+04  0.7818609E-02  0.8761768E-01
        2   -1    0    0  501    0  0.00000000000E+00  0.00000000000E+00  0.19509983422E+04  0.19509983422E+04  0.25500000920E-02 0.  1.
       -2   -1    0    0    0  501  0.00000000000E+00  0.00000000000E+00 -0.37001510993E+03  0.37001510994E+03  0.25500000920E-02 0. -1.
    10030    2    1    2    0    0  0.00000000000E+00  0.00000000000E+00  0.15809832322E+04  0.23210134521E+04  0.16992926365E+04 0.  0.
        1    1    3    3  502    0  0.53168187814E+03 -0.20721003248E+03  0.16503146034E+04  0.17461843852E+04  0.50400001928E-02 0.  1.
       -1    1    3    3    0  502 -0.53168187814E+03  0.20721003248E+03 -0.69331371121E+02  0.57482906690E+03  0.50400001928E-02 0. -1.
</event>
<event>
 5   0  0.5671132E-05  0.1695504E+04  0.7818609E-02  0.8763933E-01
       -2   -1    0    0    0  501  0.00000000000E+00  0.00000000000E+00  0.73456261057E+03  0.73456261058E+03  0.25500000920E-02 0. -1.
        2   -1    0    0  501    0  0.00000000000E+00  0.00000000000E+00 -0.97838271743E+03  0.97838271743E+03  0.25500000920E-02 0.  1.
    10030    2    1    2    0    0  0.00000000000E+00  0.00000000000E+00 -0.24382010686E+03  0.17129453280E+04  0.16955038933E+04 0.  0.
        3    1    3    3  502    0  0.52704790207E+03  0.65787948849E+03 -0.21282711815E+03  0.86941377081E+03  0.10100000352E+00 0.  1.
       -3    1    3    3    0  502 -0.52704790207E+03 -0.65787948849E+03 -0.30992988708E+02  0.84353155720E+03  0.10100000352E+00 0. -1.
</event>
<event>
 5   0  0.5671132E-05  0.1700307E+04  0.7818609E-02  0.8761189E-01
       -2   -1    0    0    0  501  0.00000000000E+00  0.00000000000E+00  0.80709781660E+03  0.80709781661E+03  0.25500000920E-02 0. -1.
        2   -1    0    0  501    0  0.00000000000E+00  0.00000000000E+00 -0.89550637930E+03  0.89550637931E+03  0.25500000920E-02 0.  1.
    10030    2    1    2    0    0  0.00000000000E+00  0.00000000000E+00 -0.88408562702E+02  0.17026041959E+04  0.17003073175E+04 0.  0.
        3    1    3    3  502    0  0.12149687195E+03 -0.67626426789E+03 -0.54554655122E+03  0.87733454261E+03  0.10100000352E+00 0.  1.
       -3    1    3    3    0  502 -0.12149687195E+03  0.67626426789E+03  0.45713798852E+03  0.82526965330E+03  0.10100000352E+00 0. -1.
</event>
<event>
 5   0  0.2966258E-05  0.1705563E+04  0.7818609E-02  0.8758198E-01
       -1   -1    0    0    0  501  0.00000000000E+00  0.00000000000E+00  0.14231765388E+04  0.14231765388E+04  0.50400001928E-02 0.  1.
        1   -1    0    0  501    0  0.00000000000E+00  0.00000000000E+00 -0.51099536623E+03  0.51099536625E+03  0.50400001928E-02 0. -1.
    10030    2    1    2    0    0  0.00000000000E+00  0.00000000000E+00  0.91218117255E+03  0.19341719050E+04  0.17055633869E+04 0.  0.
        4    1    3    3  502    0  0.25482133465E+03 -0.42460048921E+03  0.12434222456E+04  0.13384020255E+04  0.12699999809E+01 0.  1.
       -4    1    3    3    0  502 -0.25482133465E+03  0.42460048921E+03 -0.33124107304E+03  0.59576987957E+03  0.12699999809E+01 0. -1.
</event>
<event>
 5   0  0.5821584E-05  0.1691259E+04  0.7818609E-02  0.8766365E-01
       -2   -1    0    0    0  501  0.00000000000E+00  0.00000000000E+00  0.52225235545E+03  0.52225235545E+03  0.25500000920E-02 0. -1.
        2   -1    0    0  501    0  0.00000000000E+00  0.00000000000E+00 -0.13692413798E+04  0.13692413798E+04  0.25500000920E-02 0.  1.
    10030    2    1    2    0    0  0.00000000000E+00  0.00000000000E+00 -0.84698902436E+03  0.18914937353E+04  0.16912593365E+04 0.  0.
        1    1    3    3  502    0 -0.51074307658E+03 -0.43245743249E+03 -0.10016203317E+04  0.12046249251E+04  0.50400001928E-02 0.  1.
       -1    1    3    3    0  502  0.51074307658E+03  0.43245743249E+03  0.15463130735E+03  0.68686881020E+03  0.50400001928E-02 0. -1.
</event>
<event>
 5   0  0.2967704E-05  0.1718065E+04  0.7818609E-02  0.8751128E-01
        1   -1    0    0  501    0  0.00000000000E+00  0.00000000000E+00  0.94412758733E+03  0.94412758734E+03  0.50400001928E-02 0.  1.
       -1   -1    0    0    0  501  0.00000000000E+00  0.00000000000E+00 -0.78160667790E+03  0.78160667791E+03  0.50400001928E-02 0. -1.
    10030    2    1    2    0    0  0.00000000000E+00  0.00000000000E+00  0.16252090943E+03  0.17257342653E+04  0.17180645239E+04 0.  0.
        2    1    3    3  502    0 -0.10549732934E+03 -0.70717406262E+03  0.55952843857E+03  0.90790798814E+03  0.25500000920E-02 0.  1.
       -2    1    3    3    0  502  0.10549732934E+03  0.70717406262E+03 -0.39700752914E+03  0.81782627712E+03  0.25500000920E-02 0. -1.
</event>
<event>
 5   0  0.2911632E-05  0.1711751E+04  0.7818609E-02  0.8754691E-01
       -1   -1    0    0    0  501  0.00000000000E+00  0.00000000000E+00  0.61714867298E+03  0.61714867300E+03  0.50400001928E-02 0. -1.
        1   -1    0    0  501    0  0.00000000000E+00  0.00000000000E+00 -0.11869468577E+04  0.11869468577E+04  0.50400001928E-02 0.  1.
    10030    2    1    2    0    0  0.00000000000E+00  0.00000000000E+00 -0.56979818467E+03  0.18040955307E+04  0.17117507741E+04 0.  0.
        1    1    3    3  502    0 -0.76889523796E+01  0.81334799626E+03 -0.56559086068E+03  0.99070031024E+03  0.50400001928E-02 0.  1.
       -1    1    3    3    0  502  0.76889523796E+01 -0.81334799626E+03 -0.42073239930E+01  0.81339522042E+03  0.50400001928E-02 0. -1.
</event>
<event>
 5   0  0.2987859E-05  0.1702470E+04  0.7818609E-02  0.8759957E-01
       -1   -1    0    0    0  501  0.00000000000E+00  0.00000000000E+00  0.54310856668E+03  0.54310856670E+03  0.50400001928E-02 0.  1.
        1   -1    0    0  501    0  0.00000000000E+00  0.00000000000E+00 -0.13341731501E+04  0.13341731501E+04  0.50400001928E-02 0. -1.
    10030    2    1    2    0    0  0.00000000000E+00  0.00000000000E+00 -0.79106458340E+03  0.18772817168E+04  0.17024698144E+04 0.  0.
        5    1    3    3  502    0  0.36387883074E+03  0.51785678411E+03 -0.10231849925E+04  0.12031263737E+04  0.46999998093E+01 0. -1.
       -5    1    3    3    0  502 -0.36387883074E+03 -0.51785678411E+03  0.23212040906E+03  0.67415534308E+03  0.46999998093E+01 0.  1.
</event>
<event>
 5   0  0.5652631E-05  0.1696304E+04  0.7818609E-02  0.8763475E-01
        2   -1    0    0  501    0  0.00000000000E+00  0.00000000000E+00  0.97874104300E+03  0.97874104300E+03  0.25500000920E-02 0.  1.
       -2   -1    0    0    0  501  0.00000000000E+00  0.00000000000E+00 -0.73498725514E+03  0.73498725514E+03  0.25500000920E-02 0. -1.
    10030    2    1    2    0    0  0.00000000000E+00  0.00000000000E+00  0.24375378786E+03  0.17137282981E+04  0.16963044452E+04 0.  0.
        2    1    3    3  502    0 -0.37350612056E+02  0.17170388229E+03 -0.71639591313E+03  0.73763161250E+03  0.25500000920E-02 0. -1.
       -2    1    3    3    0  502  0.37350612056E+02 -0.17170388229E+03  0.96014970099E+03  0.97609668564E+03  0.25500000920E-02 0.  1.
</event>
<event>
 5   0  0.5821584E-05  0.1701591E+04  0.7818609E-02  0.8760458E-01
        2   -1    0    0  501    0  0.00000000000E+00  0.00000000000E+00  0.96052571798E+03  0.96052571798E+03  0.25500000920E-02 0.  1.
       -2   -1    0    0    0  501  0.00000000000E+00  0.00000000000E+00 -0.75360056088E+03  0.75360056089E+03  0.25500000920E-02 0. -1.
    10030    2    1    2    0    0  0.00000000000E+00  0.00000000000E+00  0.20692515710E+03  0.17141262789E+04  0.17015906909E+04 0.  0.
        1    1    3    3  502    0  0.49866058562E+03 -0.68915401380E+03  0.11961458266E+03  0.85901297010E+03  0.50400001928E-02 0. -1.
       -1    1    3    3    0  502 -0.49866058562E+03  0.68915401380E+03  0.87310574434E+02  0.85511330877E+03  0.50400001928E-02 0.  1.
</event>
<event>
 5   0  0.5859822E-05  0.1700616E+04  0.7818609E-02  0.8761013E-01
        2   -1    0    0  501    0  0.00000000000E+00  0.00000000000E+00  0.13101801151E+04  0.13101801151E+04  0.25500000920E-02 0. -1.
       -2   -1    0    0    0  501  0.00000000000E+00  0.00000000000E+00 -0.55185077830E+03  0.55185077831E+03  0.25500000920E-02 0.  1.
    10030    2    1    2    0    0  0.00000000000E+00  0.00000000000E+00  0.75832933676E+03  0.18620308934E+04  0.17006162603E+04 0.  0.
        5    1    3    3  502    0 -0.67940951945E+03  0.81273148907E+01  0.93889937137E+03  0.11589725915E+04  0.46999998093E+01 0. -1.
       -5    1    3    3    0  502  0.67940951945E+03 -0.81273148907E+01 -0.18057003462E+03  0.70305830183E+03  0.46999998093E+01 0.  1.
</event>
<event>
 5   0  0.2098250E-05  0.1699966E+04  0.7818609E-02  0.8761384E-01
       -3   -1    0    0    0  501  0.00000000000E+00  0.00000000000E+00  0.10904551900E+04  0.10904551947E+04  0.10100000352E+00 0. -1.
        3   -1    0    0  501    0  0.00000000000E+00  0.00000000000E+00 -0.66254110926E+03  0.66254111696E+03  0.10100000352E+00 0.  1.
    10030    2    1    2    0    0  0.00000000000E+00  0.00000000000E+00  0.42791408078E+03  0.17529963117E+04  0.16999663550E+04 0.  0.
        3    1    3    3  502    0 -0.59416910698E+03  0.13327574616E+03  0.82547553516E+03  0.10257724999E+04  0.10100000352E+00 0. -1.
       -3    1    3    3    0  502  0.59416910698E+03 -0.13327574616E+03 -0.39756145438E+03  0.72722381178E+03  0.10100000352E+00 0.  1.
</event>
<event>
 5   0  0.2098250E-05  0.1702527E+04  0.7818609E-02  0.8759924E-01
        4   -1    0    0  501    0  0.00000000000E+00  0.00000000000E+00  0.16219676304E+04  0.16219681276E+04  0.12699999809E+01 0. -1.
       -4   -1    0    0    0  501  0.00000000000E+00  0.00000000000E+00 -0.44677067480E+03  0.44677247986E+03  0.12699999809E+01 0.  1.
    10030    2    1    2    0    0  0.00000000000E+00  0.00000000000E+00  0.11751969556E+04  0.20687406075E+04  0.17025274789E+04 0.  0.
        5    1    3    3  502    0  0.23253293575E+03  0.15973132613E+02 -0.40722698735E+03  0.46923620534E+03  0.46999998093E+01 0.  1.
       -5    1    3    3    0  502 -0.23253293575E+03 -0.15973132613E+02  0.15824239430E+04  0.15995044021E+04  0.46999998093E+01 0. -1.
</event>
<event>
 5   0  0.5755321E-05  0.1700009E+04  0.7818609E-02  0.8761359E-01
       -2   -1    0    0    0  501  0.00000000000E+00  0.00000000000E+00  0.98703253314E+03  0.98703253314E+03  0.25500000920E-02 0.  1.
        2   -1    0    0  501    0  0.00000000000E+00  0.00000000000E+00 -0.73199996764E+03  0.73199996765E+03  0.25500000920E-02 0. -1.
    10030    2    1    2    0    0  0.00000000000E+00  0.00000000000E+00  0.25503256550E+03  0.17190325008E+04  0.17000091557E+04 0.  0.
        4    1    3    3  502    0 -0.66719792620E+03 -0.44365881034E+03  0.41445198805E+03  0.90208551480E+03  0.12699999809E+01 0.  1.
       -4    1    3    3    0  502  0.66719792620E+03  0.44365881034E+03 -0.15941942255E+03  0.81694698598E+03  0.12699999809E+01 0. -1.
</event>
<event>
 5   0  0.5821584E-05  0.1697395E+04  0.7818609E-02  0.8762851E-01
        2   -1    0    0  501    0  0.00000000000E+00  0.00000000000E+00  0.22022639707E+04  0.22022639707E+04  0.25500000920E-02 0.  1.
       -2   -1    0    0    0  501  0.00000000000E+00  0.00000000000E+00 -0.32706680494E+03  0.32706680495E+03  0.25500000920E-02 0. -1.
    10030    2    1    2    0    0  0.00000000000E+00  0.00000000000E+00  0.18751971657E+04  0.25293307756E+04  0.16973949930E+04 0.  0.
        1    1    3    3  502    0  0.30704290437E+03  0.22692936181E+03  0.20670653531E+04  0.21020303172E+04  0.50400001928E-02 0.  1.
       -1    1    3    3    0  502 -0.30704290437E+03 -0.22692936181E+03 -0.19186818742E+03  0.42730045839E+03  0.50400001928E-02 0. -1.
</event>
<event>
 5   0  0.2911632E-05  0.1699489E+04  0.7818609E-02  0.8761656E-01
        1   -1    0    0  501    0  0.00000000000E+00  0.00000000000E+00  0.12959515402E+04  0.12959515402E+04  0.50400001928E-02 0. -1.
       -1   -1    0    0    0  501  0.00000000000E+00  0.00000000000E+00 -0.55717055987E+03  0.55717055990E+03  0.50400001928E-02 0.  1.
    10030    2    1    2    0    0  0.00000000000E+00  0.00000000000E+00  0.73878098030E+03  0.18531221001E+04  0.16994893883E+04 0.  0.
        1    1    3    3  502    0 -0.87268207675E+02  0.72456803695E+03  0.84399795224E+03  0.11157719855E+04  0.50400001928E-02 0. -1.
       -1    1    3    3    0  502  0.87268207675E+02 -0.72456803695E+03 -0.10521697194E+03  0.73735011457E+03  0.50400001928E-02 0.  1.
</event>
<event>
 5   0  0.2987859E-05  0.1699870E+04  0.7818609E-02  0.8761439E-01
       -1   -1    0    0    0  501  0.00000000000E+00  0.00000000000E+00  0.52830797155E+03  0.52830797158E+03  0.50400001928E-02 0.  1.
        1   -1    0    0  501    0  0.00000000000E+00  0.00000000000E+00 -0.13673640783E+04  0.13673640783E+04  0.50400001928E-02 0. -1.
    10030    2    1    2    0    0  0.00000000000E+00  0.00000000000E+00 -0.83905610672E+03  0.18956720499E+04  0.16998698098E+04 0.  0.
        5    1    3    3  502    0 -0.20193709964E+03 -0.70944472833E+03 -0.89039153241E+03  0.11562480641E+04  0.46999998093E+01 0.  1.
       -5    1    3    3    0  502  0.20193709964E+03  0.70944472833E+03  0.51335425689E+02  0.73942398575E+03  0.46999998093E+01 0. -1.
</event>
<event>
 5   0  0.5859822E-05  0.1701349E+04  0.7818609E-02  0.8760595E-01
        2   -1    0    0  501    0  0.00000000000E+00  0.00000000000E+00  0.93762028976E+03  0.93762028976E+03  0.25500000920E-02 0. -1.
       -2   -1    0    0    0  501  0.00000000000E+00  0.00000000000E+00 -0.77179120284E+03  0.77179120285E+03  0.25500000920E-02 0.  1.
    10030    2    1    2    0    0  0.00000000000E+00  0.00000000000E+00  0.16582908692E+03  0.17094114926E+04  0.17013489839E+04 0.  0.
        5    1    3    3  502    0  0.99347494764E+02 -0.37460866658E+03 -0.67792123645E+03  0.78089747766E+03  0.46999998093E+01 0.  1.
       -5    1    3    3    0  502 -0.99347494764E+02  0.37460866658E+03  0.84375032336E+03  0.92851401495E+03  0.46999998093E+01 0. -1.
</event>
<event>
 5   0  0.5859822E-05  0.1700582E+04  0.7818609E-02  0.8761032E-01
       -2   -1    0    0    0  501  0.00000000000E+00  0.00000000000E+00  0.60829843217E+03  0.60829843217E+03  0.25500000920E-02 0.  1.
        2   -1    0    0  501    0  0.00000000000E+00  0.00000000000E+00 -0.11885529344E+04  0.11885529344E+04  0.25500000920E-02 0. -1.
    10030    2    1    2    0    0  0.00000000000E+00  0.00000000000E+00 -0.58025450220E+03  0.17968513665E+04  0.17005821198E+04 0.  0.
        5    1    3    3  502    0  0.45846178410E+03  0.15938816730E+03  0.44752019583E+03  0.66021830558E+03  0.46999998093E+01 0.  1.
       -5    1    3    3    0  502 -0.45846178410E+03 -0.15938816730E+03 -0.10277746980E+04  0.11366330610E+04  0.46999998093E+01 0. -1.
</event>
<event>
 5   0  0.5859822E-05  0.1702604E+04  0.7818609E-02  0.8759880E-01
        2   -1    0    0  501    0  0.00000000000E+00  0.00000000000E+00  0.19926388930E+04  0.19926388930E+04  0.25500000920E-02 0.  1.
       -2   -1    0    0    0  501  0.00000000000E+00  0.00000000000E+00 -0.36369631593E+03  0.36369631594E+03  0.25500000920E-02 0. -1.
    10030    2    1    2    0    0  0.00000000000E+00  0.00000000000E+00  0.16289425771E+04  0.23563352089E+04  0.17026043867E+04 0.  0.
        5    1    3    3  502    0  0.28925945465E+02  0.16431998555E+03 -0.34082854664E+03  0.37950488294E+03  0.46999998093E+01 0. -1.
       -5    1    3    3    0  502 -0.28925945465E+02 -0.16431998555E+03  0.19697711237E+04  0.19768303260E+04  0.46999998093E+01 0.  1.
</event>
<event>
 5   0  0.5755321E-05  0.1699995E+04  0.7818609E-02  0.8761367E-01
        2   -1    0    0  501    0  0.00000000000E+00  0.00000000000E+00  0.18155926343E+04  0.18155926343E+04  0.25500000920E-02 0. -1.
       -2   -1    0    0    0  501  0.00000000000E+00  0.00000000000E+00 -0.39793930592E+03  0.39793930593E+03  0.25500000920E-02 0.  1.
    10030    2    1    2    0    0  0.00000000000E+00  0.00000000000E+00  0.14176533284E+04  0.22135319403E+04  0.16999949091E+04 0.  0.
        4    1    3    3  502    0 -0.21832521770E+03  0.66196087298E+03  0.75425955498E+02  0.70110540270E+03  0.12699999809E+01 0.  1.
       -4    1    3    3    0  502  0.21832521770E+03 -0.66196087298E+03  0.13422273729E+04  0.15124265376E+04  0.12699999809E+01 0. -1.
</event>
<event>
 5   0  0.5755321E-05  0.1696889E+04  0.7818609E-02  0.8763140E-01
       -2   -1    0    0    0  501  0.00000000000E+00  0.00000000000E+00  0.80518819764E+03  0.80518819764E+03  0.25500000920E-02 0.  1.
        2   -1    0    0  501    0  0.00000000000E+00  0.00000000000E+00 -0.89402503580E+03  0.89402503580E+03  0.25500000920E-02 0. -1.
    10030    2    1    2    0    0  0.00000000000E+00  0.00000000000E+00 -0.88836838156E+02  0.16992132334E+04  0.16968893980E+04 0.  0.
        4    1    3    3  502    0 -0.46551076460E+03  0.69451407210E+03 -0.18886132588E+03  0.85715825938E+03  0.12699999809E+01 0.  1.
       -4    1    3    3    0  502  0.46551076460E+03 -0.69451407210E+03  0.10002448773E+03  0.84205497407E+03  0.12699999809E+01 0. -1.
</event>
<event>
 5   0  0.2987859E-05  0.1698833E+04  0.7818609E-02  0.8762030E-01
       -1   -1    0    0    0  501  0.00000000000E+00  0.00000000000E+00  0.11182174342E+04  0.11182174342E+04  0.50400001928E-02 0. -1.
        1   -1    0    0  501    0  0.00000000000E+00  0.00000000000E+00 -0.64523063631E+03  0.64523063633E+03  0.50400001928E-02 0.  1.
    10030    2    1    2    0    0  0.00000000000E+00  0.00000000000E+00  0.47298679790E+03  0.17634480706E+04  0.16988327129E+04 0.  0.
        5    1    3    3  502    0 -0.76571702105E+03 -0.25724651300E+03 -0.36151887140E+02  0.80859592735E+03  0.46999998093E+01 0.  1.
       -5    1    3    3    0  502  0.76571702105E+03  0.25724651300E+03  0.50913868504E+03  0.95485214321E+03  0.46999998093E+01 0. -1.
</event>
<event>
 5   0  0.5671132E-05  0.1700085E+04  0.7818609E-02  0.8761316E-01
        2   -1    0    0  501    0  0.00000000000E+00  0.00000000000E+00  0.85885442390E+03  0.85885442391E+03  0.25500000920E-02 0.  1.
       -2   -1    0    0    0  501  0.00000000000E+00  0.00000000000E+00 -0.84132051774E+03  0.84132051775E+03  0.25500000920E-02 0. -1.
    10030    2    1    2    0    0  0.00000000000E+00  0.00000000000E+00  0.17533906159E+02  0.17001749417E+04  0.17000845257E+04 0.  0.
        3    1    3    3  502    0 -0.33014108977E+03 -0.29865016377E+03  0.73295101640E+03  0.85755598192E+03  0.10100000352E+00 0.  1.
       -3    1    3    3    0  502  0.33014108977E+03  0.29865016377E+03 -0.71541711025E+03  0.84261895974E+03  0.10100000352E+00 0. -1.
</event>
<event>
 5   0  0.5652631E-05  0.1698906E+04  0.7818609E-02  0.8761988E-01
        2   -1    0    0  501    0  0.00000000000E+00  0.00000000000E+00  0.16256007668E+04  0.16256007668E+04  0.25500000920E-02 0.  1.
       -2   -1    0    0    0  501  0.00000000000E+00  0.00000000000E+00 -0.44387926808E+03  0.44387926809E+03  0.25500000920E-02 0. -1.
    10030    2    1    2    0    0  0.00000000000E+00  0.00000000000E+00  0.11817214987E+04  0.20694800348E+04  0.16989060934E+04 0.  0.
        2    1    3    3  502    0  0.69974132183E+03  0.13265946596E+03  0.26914868349E+02  0.71271373042E+03  0.25500000920E-02 0. -1.
       -2    1    3    3    0  502 -0.69974132183E+03 -0.13265946596E+03  0.11548066303E+04  0.13567663044E+04  0.25500000920E-02 0.  1.
</event>
<event>
 5   0  0.2993769E-05  0.1700851E+04  0.7818609E-02  0.8760879E-01
        1   -1    0    0  501    0  0.00000000000E+00  0.00000000000E+00  0.15570876550E+04  0.15570876550E+04  0.50400001928E-02 0. -1.
       -1   -1    0    0    0  501  0.00000000000E+00  0.00000000000E+00 -0.46447207096E+03  0.46447207099E+03  0.50400001928E-02 0.  1.
    10030    2    1    2    0    0  0.00000000000E+00  0.00000000000E+00  0.10926155840E+04  0.20215597260E+04  0.17008512314E+04 0.  0.
        3    1    3    3  502    0  0.73285585723E+03 -0.43063952335E+03  0.51496025039E+03  0.99383709743E+03  0.10100000352E+00 0. -1.
       -3    1    3    3    0  502 -0.73285585723E+03  0.43063952335E+03  0.57765533360E+03  0.10277226285E+04  0.10100000352E+00 0.  1.
</event>
<event>
 5   0  0.5859822E-05  0.1697366E+04  0.7818609E-02  0.8762868E-01
        2   -1    0    0  501    0  0.00000000000E+00  0.00000000000E+00  0.13274229807E+04  0.13274229807E+04  0.25500000920E-02 0. -1.
       -2   -1    0    0    0  501  0.00000000000E+00  0.00000000000E+00 -0.54260240158E+03  0.54260240159E+03  0.25500000920E-02 0.  1.
    10030    2    1    2    0    0  0.00000000000E+00  0.00000000000E+00  0.78482057914E+03  0.18700253823E+04  0.16973660740E+04 0.  0.
        5    1    3    3  502    0 -0.21794342681E+03 -0.79494342190E+03  0.61496472972E+03  0.10284153296E+04  0.46999998093E+01 0. -1.
       -5    1    3    3    0  502  0.21794342681E+03  0.79494342190E+03  0.16985584942E+03  0.84161005275E+03  0.46999998093E+01 0.  1.
</event>
<event>
 5   0  0.5652631E-05  0.1700462E+04  0.7818609E-02  0.8761101E-01
        2   -1    0    0  501    0  0.00000000000E+00  0.00000000000E+00  0.24886849173E+04  0.24886849173E+04  0.25500000920E-02 0. -1.
       -2   -1    0    0    0  501  0.00000000000E+00  0.00000000000E+00 -0.29047178638E+03  0.29047178639E+03  0.25500000920E-02 0.  1.
    10030    2    1    2    0    0  0.00000000000E+00  0.00000000000E+00  0.21982131309E+04  0.27791567037E+04  0.17004620004E+04 0.  0.
        2    1    3    3  502    0  0.57513767936E+03 -0.37062415843E+02  0.21207225873E+04  0.21976399308E+04  0.25500000920E-02 0. -1.
       -2    1    3    3    0  502 -0.57513767936E+03  0.37062415843E+02  0.77490543629E+02  0.58151677297E+03  0.25500000920E-02 0.  1.
</event>
<event>
 5   0  0.2911632E-05  0.1697921E+04  0.7818609E-02  0.8762551E-01
        1   -1    0    0  501    0  0.00000000000E+00  0.00000000000E+00  0.10760110510E+04  0.10760110510E+04  0.50400001928E-02 0.  1.
       -1   -1    0    0    0  501  0.00000000000E+00  0.00000000000E+00 -0.66982006872E+03  0.66982006874E+03  0.50400001928E-02 0. -1.
    10030    2    1    2    0    0  0.00000000000E+00  0.00000000000E+00  0.40619098232E+03  0.17458311198E+04  0.16979208417E+04 0.  0.
        1    1    3    3  502    0 -0.33475123611E+02  0.80453537115E+03  0.47963818098E+03  0.93725691889E+03  0.50400001928E-02 0.  1.
       -1    1    3    3    0  502  0.33475123611E+02 -0.80453537115E+03 -0.73447198659E+02  0.80857420089E+03  0.50400001928E-02 0. -1.
</event>
<event>
 5   0  0.5859822E-05  0.1691431E+04  0.7818609E-02  0.8766267E-01
       -2   -1    0    0    0  501  0.00000000000E+00  0.00000000000E+00  0.46948634302E+03  0.46948634303E+03  0.25500000920E-02 0.  1.
        2   -1    0    0  501    0  0.00000000000E+00  0.00000000000E+00 -0.15234411653E+04  0.15234411653E+04  0.25500000920E-02 0. -1.
    10030    2    1    2    0    0  0.00000000000E+00  0.00000000000E+00 -0.10539548223E+04  0.19929275083E+04  0.16914311355E+04 0.  0.
        5    1    3    3  502    0  0.11866054283E+02 -0.69604650778E+03  0.38816844350E+02  0.69724485057E+03  0.46999998093E+01 0.  1.
       -5    1    3    3    0  502 -0.11866054283E+02  0.69604650778E+03 -0.10927716666E+04  0.12956826578E+04  0.46999998093E+01 0. -1.
</event>
<event>
 5   0  0.2098250E-05  0.1719253E+04  0.7818609E-02  0.8750459E-01
       -4   -1    0    0    0  501  0.00000000000E+00  0.00000000000E+00  0.69571270816E+03  0.69571386733E+03  0.12699999809E+01 0. -1.
        4   -1    0    0  501    0  0.00000000000E+00  0.00000000000E+00 -0.10621574827E+04  0.10621582420E+04  0.12699999809E+01 0.  1.
    10030    2    1    2    0    0  0.00000000000E+00  0.00000000000E+00 -0.36644477456E+03  0.17578721093E+04  0.17192534949E+04 0.  0.
        2    1    3    3  502    0  0.91915803111E+02  0.48323058431E+03 -0.90403870088E+03  0.10291969127E+04  0.25500000920E-02 0.  1.
       -2    1    3    3    0  502 -0.91915803111E+02 -0.48323058431E+03  0.53759392632E+03  0.72867519657E+03  0.25500000920E-02 0. -1.
</event>
<event>
 5   0  0.5671132E-05  0.1701380E+04  0.7818609E-02  0.8760578E-01
        2   -1    0    0  501    0  0.00000000000E+00  0.00000000000E+00  0.10533623358E+04  0.10533623358E+04  0.25500000920E-02 0.  1.
       -2   -1    0    0    0  501  0.00000000000E+00  0.00000000000E+00 -0.68701254950E+03  0.68701254950E+03  0.25500000920E-02 0. -1.
    10030    2    1    2    0    0  0.00000000000E+00  0.00000000000E+00  0.36634978628E+03  0.17403748853E+04  0.17013796094E+04 0.  0.
        3    1    3    3  502    0 -0.19444626021E+03 -0.82389801764E+03  0.97250591791E+02  0.85210033411E+03  0.10100000352E+00 0. -1.
       -3    1    3    3    0  502  0.19444626021E+03  0.82389801764E+03  0.26909919448E+03  0.88827455117E+03  0.10100000352E+00 0.  1.
</event>
<event>
 5   0  0.2967704E-05  0.1701332E+04  0.7818609E-02  0.8760605E-01
       -1   -1    0    0    0  501  0.00000000000E+00  0.00000000000E+00  0.85059024336E+03  0.85059024338E+03  0.50400001928E-02 0. -1.
        1   -1    0    0  501    0  0.00000000000E+00  0.00000000000E+00 -0.85074140412E+03  0.85074140413E+03  0.50400001928E-02 0.  1.
    10030    2    1    2    0    0  0.00000000000E+00  0.00000000000E+00 -0.15116075610E+00  0.17013316475E+04  0.17013316408E+04 0.  0.
        2    1    3    3  502    0  0.10141593956E+03  0.28508635865E+03  0.79495455634E+03  0.85059518652E+03  0.25500000920E-02 0. -1.
       -2    1    3    3    0  502 -0.10141593956E+03 -0.28508635865E+03 -0.79510571710E+03  0.85073646099E+03  0.25500000920E-02 0.  1.
</event>
<event>
 5   0  0.2987859E-05  0.1712574E+04  0.7818609E-02  0.8754226E-01
        1   -1    0    0  501    0  0.00000000000E+00  0.00000000000E+00  0.17127975100E+04  0.17127975100E+04  0.50400001928E-02 0.  1.
       -1   -1    0    0    0  501  0.00000000000E+00  0.00000000000E+00 -0.42808737996E+03  0.42808737999E+03  0.50400001928E-02 0. -1.
    10030    2    1    2    0    0  0.00000000000E+00  0.00000000000E+00  0.12847101300E+04  0.21408848900E+04  0.17125735003E+04 0.  0.
        5    1    3    3  502    0 -0.76204785906E+03 -0.25771009080E+03  0.27559775935E+03  0.85035736332E+03  0.46999998093E+01 0.  1.
       -5    1    3    3    0  502  0.76204785906E+03  0.25771009080E+03  0.10091123706E+04  0.12905275266E+04  0.46999998093E+01 0. -1.
</event>
<event>
 5   0  0.5652631E-05  0.1698182E+04  0.7818609E-02  0.8762402E-01
        2   -1    0    0  501    0  0.00000000000E+00  0.00000000000E+00  0.12502052606E+04  0.12502052606E+04  0.25500000920E-02 0. -1.
       -2   -1    0    0    0  501  0.00000000000E+00  0.00000000000E+00 -0.57666979431E+03  0.57666979432E+03  0.25500000920E-02 0.  1.
    10030    2    1    2    0    0  0.00000000000E+00  0.00000000000E+00  0.67353546627E+03  0.18268750549E+04  0.16981820992E+04 0.  0.
        2    1    3    3  502    0 -0.32981876448E+03  0.45794013277E+03  0.10192465890E+04  0.11650550167E+04  0.25500000920E-02 0. -1.
       -2    1    3    3    0  502  0.32981876448E+03 -0.45794013277E+03 -0.34571112276E+03  0.66182003824E+03  0.25500000920E-02 0.  1.
</event>
<event>
 5   0  0.5821584E-05  0.1704940E+04  0.7818609E-02  0.8758552E-01
       -2   -1    0    0    0  501  0.00000000000E+00  0.00000000000E+00  0.55809906999E+03  0.55809907000E+03  0.25500000920E-02 0.  1.
        2   -1    0    0  501    0  0.00000000000E+00  0.00000000000E+00 -0.13021079896E+04  0.13021079896E+04  0.25500000920E-02 0. -1.
    10030    2    1    2    0    0  0.00000000000E+00  0.00000000000E+00 -0.74400891961E+03  0.18602070596E+04  0.17049401843E+04 0.  0.
        1    1    3    3  502    0  0.33428496677E+03 -0.40256129596E+03  0.36226395397E+03  0.63642533606E+03  0.50400001928E-02 0.  1.
       -1    1    3    3    0  502 -0.33428496677E+03  0.40256129596E+03 -0.11062728736E+04  0.12237817235E+04  0.50400001928E-02 0. -1.
</event>
<event>
 5   0  0.2967704E-05  0.1700024E+04  0.7818609E-02  0.8761350E-01
       -1   -1    0    0    0  501  0.00000000000E+00  0.00000000000E+00  0.61411431727E+03  0.61411431729E+03  0.50400001928E-02 0. -1.
        1   -1    0    0  501    0  0.00000000000E+00  0.00000000000E+00 -0.11765248918E+04  0.11765248918E+04  0.50400001928E-02 0.  1.
    10030    2    1    2    0    0  0.00000000000E+00  0.00000000000E+00 -0.56241057457E+03  0.17906392091E+04  0.17000244477E+04 0.  0.
        2    1    3    3  502    0 -0.74756535265E+03  0.12584298414E+03 -0.68618638326E+03  0.10225175625E+04  0.25500000920E-02 0.  1.
       -2    1    3    3    0  502  0.74756535265E+03 -0.12584298414E+03  0.12377580869E+03  0.76812164659E+03  0.25500000920E-02 0. -1.
</event>
<event>
 5   0  0.2993769E-05  0.1702925E+04  0.7818609E-02  0.8759698E-01
        1   -1    0    0  501    0  0.00000000000E+00  0.00000000000E+00  0.85916216247E+03  0.85916216248E+03  0.50400001928E-02 0. -1.
       -1   -1    0    0    0  501  0.00000000000E+00  0.00000000000E+00 -0.84383196482E+03  0.84383196483E+03  0.50400001928E-02 0.  1.
    10030    2    1    2    0    0  0.00000000000E+00  0.00000000000E+00  0.15330197648E+02  0.17029941273E+04  0.17029251254E+04 0.  0.
        3    1    3    3  502    0  0.17848403795E+03 -0.80684664884E+03  0.21293037406E+03  0.85334484292E+03  0.10100000352E+00 0. -1.
       -3    1    3    3    0  502 -0.17848403795E+03  0.80684664884E+03 -0.19760017641E+03  0.84964928439E+03  0.10100000352E+00 0.  1.
</event>
<event>
 5   0  0.5652631E-05  0.1701240E+04  0.7818609E-02  0.8760658E-01
       -2   -1    0    0    0  501  0.00000000000E+00  0.00000000000E+00  0.38385977408E+03  0.38385977409E+03  0.25500000920E-02 0. -1.
        2   -1    0    0  501    0  0.00000000000E+00  0.00000000000E+00 -0.18849436819E+04  0.18849436820E+04  0.25500000920E-02 0.  1.
    10030    2    1    2    0    0  0.00000000000E+00  0.00000000000E+00 -0.15010839079E+04  0.22688034560E+04  0.17012396138E+04 0.  0.
        2    1    3    3  502    0 -0.66248221607E+03  0.45684132077E+03 -0.38296781059E+03  0.89120762055E+03  0.25500000920E-02 0.  1.
       -2    1    3    3    0  502  0.66248221607E+03 -0.45684132077E+03 -0.11181160973E+04  0.13775958355E+04  0.25500000920E-02 0. -1.
</event>
<event>
 5   0  0.2911632E-05  0.1736138E+04  0.7818609E-02  0.8741018E-01
        1   -1    0    0  501    0  0.00000000000E+00  0.00000000000E+00  0.14215891544E+04  0.14215891544E+04  0.50400001928E-02 0. -1.
       -1   -1    0    0    0  501  0.00000000000E+00  0.00000000000E+00 -0.53007129114E+03  0.53007129116E+03  0.50400001928E-02 0.  1.
    10030    2    1    2    0    0  0.00000000000E+00  0.00000000000E+00  0.89151786328E+03  0.19516604456E+04  0.17361377809E+04 0.  0.
        1    1    3    3  502    0  0.44232029750E+03 -0.89960674704E+02  0.12792938438E+04  0.13565887023E+04  0.50400001928E-02 0. -1.
       -1    1    3    3    0  502 -0.44232029750E+03  0.89960674704E+02 -0.38777598047E+03  0.59507174327E+03  0.50400001928E-02 0.  1.
</event>
<event>
 5   0  0.2911632E-05  0.1699936E+04  0.7818609E-02  0.8761401E-01
        1   -1    0    0  501    0  0.00000000000E+00  0.00000000000E+00  0.18570121663E+04  0.18570121663E+04  0.50400001928E-02 0. -1.
       -1   -1    0    0    0  501  0.00000000000E+00  0.00000000000E+00 -0.38903633514E+03  0.38903633517E+03  0.50400001928E-02 0.  1.
    10030    2    1    2    0    0  0.00000000000E+00  0.00000000000E+00  0.14679758312E+04  0.22460485015E+04  0.16999355371E+04 0.  0.
        1    1    3    3  502    0 -0.44675358502E+03  0.25153282497E+03 -0.16172918645E+03  0.53760009072E+03  0.50400001928E-02 0.  1.
       -1    1    3    3    0  502  0.44675358502E+03 -0.25153282497E+03  0.16297050176E+04  0.17084484108E+04  0.50400001928E-02 0. -1.
</event>
<event>
 5   0  0.2967704E-05  0.1691930E+04  0.7818609E-02  0.8765980E-01
       -1   -1    0    0    0  501  0.00000000000E+00  0.00000000000E+00  0.55589175674E+03  0.55589175677E+03  0.50400001928E-02 0. -1.
        1   -1    0    0  501    0  0.00000000000E+00  0.00000000000E+00 -0.12874031276E+04  0.12874031276E+04  0.50400001928E-02 0.  1.
    10030    2    1    2    0    0  0.00000000000E+00  0.00000000000E+00 -0.73151137088E+03  0.18432948844E+04  0.16919300060E+04 0.  0.
        2    1    3    3  502    0  0.80266219473E+02 -0.56932762788E+03  0.31030861560E+03  0.65335139915E+03  0.25500000920E-02 0. -1.
       -2    1    3    3    0  502 -0.80266219473E+02  0.56932762788E+03 -0.10418199865E+04  0.11899434853E+04  0.25500000920E-02 0.  1.
</event>
<event>
 5   0  0.5755321E-05  0.1702930E+04  0.7818609E-02  0.8759695E-01
       -2   -1    0    0    0  501  0.00000000000E+00  0.00000000000E+00  0.48841981071E+03  0.48841981072E+03  0.25500000920E-02 0.  1.
        2   -1    0    0  501    0  0.00000000000E+00  0.00000000000E+00 -0.14843641150E+04  0.14843641150E+04  0.25500000920E-02 0. -1.
    10030    2    1    2    0    0  0.00000000000E+00  0.00000000000E+00 -0.99594430429E+03  0.19727839257E+04  0.17029302277E+04 0.  0.
        4    1    3    3  502    0 -0.66364781201E+02 -0.53610116777E+03  0.26448967993E+03  0.60146915961E+03  0.12699999809E+01 0.  1.
       -4    1    3    3    0  502  0.66364781201E+02  0.53610116777E+03 -0.12604339842E+04  0.13713147661E+04  0.12699999809E+01 0. -1.
</event>
<event>
 5   0  0.2098250E-05  0.1701760E+04  0.7818609E-02  0.8760361E-01
        4   -1    0    0  501    0  0.00000000000E+00  0.00000000000E+00  0.56915366976E+03  0.56915508669E+03  0.12699999809E+01 0.  1.
       -4   -1    0    0    0  501  0.00000000000E+00  0.00000000000E+00 -0.12720552301E+04  0.12720558641E+04  0.12699999809E+01 0. -1.
    10030    2    1    2    0    0  0.00000000000E+00  0.00000000000E+00 -0.70290156036E+03  0.18412109508E+04  0.17017600188E+04 0.  0.
        4    1    3    3  502    0 -0.10681386615E+03 -0.60881620188E+02 -0.12623942193E+04  0.12683676721E+04  0.12699999809E+01 0. -1.
       -4    1    3    3    0  502  0.10681386615E+03  0.60881620188E+02  0.55949265894E+03  0.57284327873E+03  0.12699999809E+01 0.  1.
</event>
<event>
 5   0  0.5755321E-05  0.1697882E+04  0.7818609E-02  0.8762573E-01
        2   -1    0    0  501    0  0.00000000000E+00  0.00000000000E+00  0.20601025501E+04  0.20601025501E+04  0.25500000920E-02 0.  1.
       -2   -1    0    0    0  501  0.00000000000E+00  0.00000000000E+00 -0.34983744811E+03  0.34983744812E+03  0.25500000920E-02 0. -1.
    10030    2    1    2    0    0  0.00000000000E+00  0.00000000000E+00  0.17102651020E+04  0.24099399983E+04  0.16978822327E+04 0.  0.
        4    1    3    3  502    0  0.52618127459E+03 -0.28204984071E+03  0.17118086763E+04  0.18129284055E+04  0.12699999809E+01 0.  1.
       -4    1    3    3    0  502 -0.52618127459E+03  0.28204984071E+03 -0.15435742488E+01  0.59701159276E+03  0.12699999809E+01 0. -1.
</event>
<event>
 5   0  0.5821584E-05  0.1698985E+04  0.7818609E-02  0.8761944E-01
       -2   -1    0    0    0  501  0.00000000000E+00  0.00000000000E+00  0.40314895495E+03  0.40314895496E+03  0.25500000920E-02 0.  1.
        2   -1    0    0  501    0  0.00000000000E+00  0.00000000000E+00 -0.17900017383E+04  0.17900017383E+04  0.25500000920E-02 0. -1.
    10030    2    1    2    0    0  0.00000000000E+00  0.00000000000E+00 -0.13868527834E+04  0.21931506933E+04  0.16989847912E+04 0.  0.
        1    1    3    3  502    0 -0.44525305031E+03  0.20275448053E+03  0.20302668102E+03  0.52969754711E+03  0.50400001928E-02 0.  1.
       -1    1    3    3    0  502  0.44525305031E+03 -0.20275448053E+03 -0.15898794644E+04  0.16634531462E+04  0.50400001928E-02 0. -1.
</event>
<event>
 5   0  0.5859822E-05  0.1700562E+04  0.7818609E-02  0.8761044E-01
        2   -1    0    0  501    0  0.00000000000E+00  0.00000000000E+00  0.16971395954E+04  0.16971395954E+04  0.25500000920E-02 0. -1.
       -2   -1    0    0    0  501  0.00000000000E+00  0.00000000000E+00 -0.42599807189E+03  0.42599807190E+03  0.25500000920E-02 0.  1.
    10030    2    1    2    0    0  0.00000000000E+00  0.00000000000E+00  0.12711415235E+04  0.21231376673E+04  0.17005624898E+04 0.  0.
        5    1    3    3  502    0  0.64345719917E+03 -0.46011174226E+03  0.24629737968E+03  0.82850737581E+03  0.46999998093E+01 0. -1.
       -5    1    3    3    0  502 -0.64345719917E+03  0.46011174226E+03  0.10248441438E+04  0.12946302915E+04  0.46999998093E+01 0.  1.
</event>
<event>
 5   0  0.5671132E-05  0.1702381E+04  0.7818609E-02  0.8760007E-01
       -2   -1    0    0    0  501  0.00000000000E+00  0.00000000000E+00  0.92291539686E+03  0.92291539686E+03  0.25500000920E-02 0. -1.
        2   -1    0    0  501    0  0.00000000000E+00  0.00000000000E+00 -0.78504006251E+03  0.78504006251E+03  0.25500000920E-02 0.  1.
    10030    2    1    2    0    0  0.00000000000E+00  0.00000000000E+00  0.13787533435E+03  0.17079554594E+04  0.17023813449E+04 0.  0.
        3    1    3    3  502    0 -0.84272829913E+03 -0.30036725551E+02  0.18521520966E+03  0.86336427719E+03  0.10100000352E+00 0. -1.
       -3    1    3    3    0  502  0.84272829913E+03  0.30036725551E+02 -0.47339875309E+02  0.84459118219E+03  0.10100000352E+00 0.  1.
</event>
<event>
 5   0  0.5755321E-05  0.1699782E+04  0.7818609E-02  0.8761489E-01
       -2   -1    0    0    0  501  0.00000000000E+00  0.00000000000E+00  0.20158281519E+04  0.20158281519E+04  0.25500000920E-02 0.  1.
        2   -1    0    0  501    0  0.00000000000E+00  0.00000000000E+00 -0.35832148638E+03  0.35832148639E+03  0.25500000920E-02 0. -1.
    10030    2    1    2    0    0  0.00000000000E+00  0.00000000000E+00  0.16575066655E+04  0.23741496383E+04  0.16997817974E+04 0.  0.
        4    1    3    3  502    0 -0.35790114880E+03  0.76622045736E+03  0.94665906887E+03  0.12693904156E+04  0.12699999809E+01 0.  1.
       -4    1    3    3    0  502  0.35790114880E+03 -0.76622045736E+03  0.71084759665E+03  0.11047592227E+04  0.12699999809E+01 0. -1.
</event>
<event>
 5   0  0.2993769E-05  0.1682835E+04  0.7818609E-02  0.8771215E-01
       -1   -1    0    0    0  501  0.00000000000E+00  0.00000000000E+00  0.10966622850E+04  0.10966622850E+04  0.50400001928E-02 0. -1.
        1   -1    0    0  501    0  0.00000000000E+00  0.00000000000E+00 -0.64558032699E+03  0.64558032701E+03  0.50400001928E-02 0.  1.
    10030    2    1    2    0    0  0.00000000000E+00  0.00000000000E+00  0.45108195803E+03  0.17422426120E+04  0.16828352226E+04 0.  0.
        3    1    3    3  502    0 -0.42501717469E+03 -0.35469688774E+03 -0.43049590586E+03  0.70126757812E+03  0.10100000352E+00 0.  1.
       -3    1    3    3    0  502  0.42501717469E+03  0.35469688774E+03  0.88157786389E+03  0.10409750339E+04  0.10100000352E+00 0. -1.
</event>
<event>
 5   0  0.2967704E-05  0.1699198E+04  0.7818609E-02  0.8761822E-01
       -1   -1    0    0    0  501  0.00000000000E+00  0.00000000000E+00  0.19819635623E+04  0.19819635623E+04  0.50400001928E-02 0.  1.
        1   -1    0    0  501    0  0.00000000000E+00  0.00000000000E+00 -0.36419356072E+03  0.36419356075E+03  0.50400001928E-02 0. -1.
    10030    2    1    2    0    0  0.00000000000E+00  0.00000000000E+00  0.16177700016E+04  0.23461571230E+04  0.16991978896E+04 0.  0.
        2    1    3    3  502    0 -0.18088863564E+03  0.77926164709E+03  0.41386444102E+03  0.90069594685E+03  0.25500000920E-02 0. -1.
       -2    1    3    3    0  502  0.18088863564E+03 -0.77926164709E+03  0.12039055605E+04  0.14454611762E+04  0.25500000920E-02 0.  1.
</event>
<event>
 5   0  0.2987859E-05  0.1700217E+04  0.7818609E-02  0.8761241E-01
       -1   -1    0    0    0  501  0.00000000000E+00  0.00000000000E+00  0.70808597494E+03  0.70808597495E+03  0.50400001928E-02 0.  1.
        1   -1    0    0  501    0  0.00000000000E+00  0.00000000000E+00 -0.10206164658E+04  0.10206164658E+04  0.50400001928E-02 0. -1.
    10030    2    1    2    0    0  0.00000000000E+00  0.00000000000E+00 -0.31253049088E+03  0.17287024408E+04  0.17002166983E+04 0.  0.
        5    1    3    3  502    0 -0.18225272117E+03  0.76726554037E+03  0.16646357020E+03  0.80600538088E+03  0.46999998093E+01 0.  1.
       -5    1    3    3    0  502  0.18225272117E+03 -0.76726554037E+03 -0.47899406108E+03  0.92269705991E+03  0.46999998093E+01 0. -1.
</event>
<event>
 5   0  0.5755321E-05  0.1699614E+04  0.7818609E-02  0.8761584E-01
       -2   -1    0    0    0  501  0.00000000000E+00  0.00000000000E+00  0.30711130400E+03  0.30711130401E+03  0.25500000920E-02 0. -1.
        2   -1    0    0  501    0  0.00000000000E+00  0.00000000000E+00 -0.23514999804E+04  0.23514999804E+04  0.25500000920E-02 0.  1.
    10030    2    1    2    0    0  0.00000000000E+00  0.00000000000E+00 -0.20443886764E+04  0.26586112844E+04  0.16996143390E+04 0.  0.
        4    1    3    3  502    0 -0.75612908552E+03 -0.38785883297E+03 -0.10187161625E+04  0.13266310342E+04  0.12699999809E+01 0. -1.
       -4    1    3    3    0  502  0.75612908552E+03  0.38785883297E+03 -0.10256725139E+04  0.13319802502E+04  0.12699999809E+01 0.  1.
</event>
<event>
 5   0  0.2911632E-05  0.1702420E+04  0.7818609E-02  0.8759986E-01
        1   -1    0    0  501    0  0.00000000000E+00  0.00000000000E+00  0.13634484316E+04  0.13634484317E+04  0.50400001928E-02 0. -1.
       -1   -1    0    0    0  501  0.00000000000E+00  0.00000000000E+00 -0.53141589235E+03  0.53141589237E+03  0.50400001928E-02 0.  1.
    10030    2    1    2    0    0  0.00000000000E+00  0.00000000000E+00  0.83203253930E+03  0.18948643240E+04  0.17024196486E+04 0.  0.
        1    1    3    3  502    0  0.76082993463E+03  0.82537157347E+02  0.83081456985E+03  0.11295695735E+04  0.50400001928E-02 0.  1.
       -1    1    3    3    0  502 -0.76082993463E+03 -0.82537157347E+02  0.12179694532E+01  0.76529475057E+03  0.50400001928E-02 0. -1.
</event>
<event>
 5   0  0.2987859E-05  0.1697978E+04  0.7818609E-02  0.8762519E-01
       -1   -1    0    0    0  501  0.00000000000E+00  0.00000000000E+00  0.50869610307E+03  0.50869610309E+03  0.50400001928E-02 0.  1.
        1   -1    0    0  501    0  0.00000000000E+00  0.00000000000E+00 -0.14169206120E+04  0.14169206120E+04  0.50400001928E-02 0. -1.
    10030    2    1    2    0    0  0.00000000000E+00  0.00000000000E+00 -0.90822450896E+03  0.19256167151E+04  0.16979776132E+04 0.  0.
        5    1    3    3  502    0 -0.25999621306E+03 -0.22370396768E+02 -0.13702944842E+04  0.13949292200E+04  0.46999998093E+01 0. -1.
       -5    1    3    3    0  502  0.25999621306E+03  0.22370396768E+02  0.46206997523E+03  0.53068749511E+03  0.46999998093E+01 0.  1.
</event>
<event>
 5   0  0.2911632E-05  0.1710573E+04  0.7818609E-02  0.8755357E-01
       -1   -1    0    0    0  501  0.00000000000E+00  0.00000000000E+00  0.55695906601E+03  0.55695906603E+03  0.50400001928E-02 0.  1.
        1   -1    0    0  501    0  0.00000000000E+00  0.00000000000E+00 -0.13134095319E+04  0.13134095319E+04  0.50400001928E-02 0. -1.
    10030    2    1    2    0    0  0.00000000000E+00  0.00000000000E+00 -0.75645046588E+03  0.18703685979E+04  0.17105734082E+04 0.  0.
        1    1    3    3  502    0  0.14305242709E+03  0.28718946321E+03 -0.12451143305E+04  0.12857882721E+04  0.50400001928E-02 0. -1.
       -1    1    3    3    0  502 -0.14305242709E+03 -0.28718946321E+03  0.48866386464E+03  0.58458032579E+03  0.50400001928E-02 0.  1.
</event>
<event>
 5   0  0.2967704E-05  0.1697941E+04  0.7818609E-02  0.8762540E-01
       -1   -1    0    0    0  501  0.00000000000E+00  0.00000000000E+00  0.43939036930E+03  0.43939036933E+03  0.50400001928E-02 0. -1.
        1   -1    0    0  501    0  0.00000000000E+00  0.00000000000E+00 -0.16403424829E+04  0.16403424829E+04  0.50400001928E-02 0.  1.
    10030    2    1    2    0    0  0.00000000000E+00  0.00000000000E+00 -0.12009521136E+04  0.20797328522E+04  0.16979407403E+04 0.  0.
        2    1    3    3  502    0 -0.64468248474E+03 -0.33911390767E+03 -0.66381349381E+02  0.73145077213E+03  0.25500000920E-02 0.  1.
       -2    1    3    3    0  502  0.64468248474E+03  0.33911390767E+03 -0.11345707642E+04  0.13482820801E+04  0.25500000920E-02 0. -1.
</event>
<event>
 5   0  0.5859822E-05  0.1704489E+04  0.7818609E-02  0.8758808E-01
        2   -1    0    0  501    0  0.00000000000E+00  0.00000000000E+00  0.21738948263E+04  0.21738948263E+04  0.25500000920E-02 0. -1.
       -2   -1    0    0    0  501  0.00000000000E+00  0.00000000000E+00 -0.33411023984E+03  0.33411023985E+03  0.25500000920E-02 0.  1.
    10030    2    1    2    0    0  0.00000000000E+00  0.00000000000E+00  0.18397845864E+04  0.25080050661E+04  0.17044888052E+04 0.  0.
        5    1    3    3  502    0 -0.14367698470E+03 -0.32090116292E+03 -0.22239896487E+03  0.41605771459E+03  0.46999998093E+01 0.  1.
       -5    1    3    3    0  502  0.14367698470E+03  0.32090116292E+03  0.20621835513E+04  0.20919473515E+04  0.46999998093E+01 0. -1.
</event>
<event>
 5   0  0.5755321E-05  0.1698644E+04  0.7818609E-02  0.8762138E-01
       -2   -1    0    0    0  501  0.00000000000E+00  0.00000000000E+00  0.36419104580E+03  0.36419104581E+03  0.25500000920E-02 0. -1.
        2   -1    0    0  501    0  0.00000000000E+00  0.00000000000E+00 -0.19806863337E+04  0.19806863337E+04  0.25500000920E-02 0.  1.
    10030    2    1    2    0    0  0.00000000000E+00  0.00000000000E+00 -0.16164952879E+04  0.23448773795E+04  0.16986444328E+04 0.  0.
        4    1    3    3  502    0 -0.30769293955E+03 -0.42307468245E+03  0.11538920796E+03  0.53570832940E+03  0.12699999809E+01 0. -1.
       -4    1    3    3    0  502  0.30769293955E+03  0.42307468245E+03 -0.17318844959E+04  0.18091690501E+04  0.12699999809E+01 0.  1.
</event>
<event>
 5   0  0.2993769E-05  0.1698569E+04  0.7818609E-02  0.8762181E-01
       -1   -1    0    0    0  501  0.00000000000E+00  0.00000000000E+00  0.60768233172E+03  0.60768233174E+03  0.50400001928E-02 0. -1.
        1   -1    0    0  501    0  0.00000000000E+00  0.00000000000E+00 -0.11869427039E+04  0.11869427039E+04  0.50400001928E-02 0.  1.
    10030    2    1    2    0    0  0.00000000000E+00  0.00000000000E+00 -0.57926037219E+03  0.17946250357E+04  0.16985689388E+04 0.  0.
        3    1    3    3  502    0 -0.72038563847E+03 -0.13012684754E+03  0.16529533019E+03  0.75047386427E+03  0.10100000352E+00 0. -1.
       -3    1    3    3    0  502  0.72038563847E+03  0.13012684754E+03 -0.74455570238E+03  0.10441511714E+04  0.10100000352E+00 0.  1.
</event>
<event>
 5   0  0.2967704E-05  0.1706642E+04  0.7818609E-02  0.8757585E-01
        1   -1    0    0  501    0  0.00000000000E+00  0.00000000000E+00  0.10706809715E+04  0.10706809716E+04  0.50400001928E-02 0. -1.
       -1   -1    0    0    0  501  0.00000000000E+00  0.00000000000E+00 -0.68008732542E+03  0.68008732544E+03  0.50400001928E-02 0.  1.
    10030    2    1    2    0    0  0.00000000000E+00  0.00000000000E+00  0.39059364613E+03  0.17507682970E+04  0.17066418000E+04 0.  0.
        2    1    3    3  502    0 -0.65655173706E+03 -0.10324523242E+02  0.75435505549E+03  0.10001091585E+04  0.25500000920E-02 0. -1.
       -2    1    3    3    0  502  0.65655173706E+03  0.10324523242E+02 -0.36376140936E+03  0.75065913847E+03  0.25500000920E-02 0.  1.
</event>
<event>
 5   0  0.5755321E-05  0.1699264E+04  0.7818609E-02  0.8761784E-01
        2   -1    0    0  501    0  0.00000000000E+00  0.00000000000E+00  0.82868346195E+03  0.82868346195E+03  0.25500000920E-02 0.  1.
       -2   -1    0    0    0  501  0.00000000000E+00  0.00000000000E+00 -0.87110979348E+03  0.87110979349E+03  0.25500000920E-02 0. -1.
    10030    2    1    2    0    0  0.00000000000E+00  0.00000000000E+00 -0.42426331535E+02  0.16997932554E+04  0.16992636987E+04 0.  0.
        4    1    3    3  502    0 -0.82523492879E+03 -0.14804563442E+03 -0.15888769935E+03  0.85333294292E+03  0.12699999809E+01 0.  1.
       -4    1    3    3    0  502  0.82523492879E+03  0.14804563442E+03  0.11646136782E+03  0.84646031252E+03  0.12699999809E+01 0. -1.
</event>
<event>
 5   0  0.2911632E-05  0.1698592E+04  0.7818609E-02  0.8762168E-01
       -1   -1    0    0    0  501  0.00000000000E+00  0.00000000000E+00  0.15248835548E+04  0.15248835548E+04  0.50400001928E-02 0.  1.
        1   -1    0    0  501    0  0.00000000000E+00  0.00000000000E+00 -0.47302208295E+03  0.47302208298E+03  0.50400001928E-02 0. -1.
    10030    2    1    2    0    0  0.00000000000E+00  0.00000000000E+00  0.10518614719E+04  0.19979056378E+04  0.16985918820E+04 0.  0.
        1    1    3    3  502    0 -0.77779486884E+03  0.31271747357E+03  0.68611399804E+03  0.10832864324E+04  0.50400001928E-02 0. -1.
       -1    1    3    3    0  502  0.77779486884E+03 -0.31271747357E+03  0.36574747381E+03  0.91461920541E+03  0.50400001928E-02 0.  1.
</event>
<event>
 5   0  0.5821584E-05  0.1700004E+04  0.7818609E-02  0.8761362E-01
        2   -1    0    0  501    0  0.00000000000E+00  0.00000000000E+00  0.14682933979E+04  0.14682933979E+04  0.25500000920E-02 0.  1.
       -2   -1    0    0    0  501  0.00000000000E+00  0.00000000000E+00 -0.49207020256E+03  0.49207020257E+03  0.25500000920E-02 0. -1.
    10030    2    1    2    0    0  0.00000000000E+00  0.00000000000E+00  0.97622319530E+03  0.19603636004E+04  0.17000040350E+04 0.  0.
        1    1    3    3  502    0  0.45920513531E+03 -0.14653046026E+03 -0.31922919219E+03  0.57814168614E+03  0.50400001928E-02 0. -1.
       -1    1    3    3    0  502 -0.45920513531E+03  0.14653046026E+03  0.12954523875E+04  0.13822219143E+04  0.50400001928E-02 0.  1.
</event>
<event>
 5   0  0.2911632E-05  0.1705122E+04  0.7818609E-02  0.8758449E-01
        1   -1    0    0  501    0  0.00000000000E+00  0.00000000000E+00  0.95719312251E+03  0.95719312252E+03  0.50400001928E-02 0.  1.
       -1   -1    0    0    0  501  0.00000000000E+00  0.00000000000E+00 -0.75936617936E+03  0.75936617937E+03  0.50400001928E-02 0. -1.
    10030    2    1    2    0    0  0.00000000000E+00  0.00000000000E+00  0.19782694315E+03  0.17165593019E+04  0.17051217955E+04 0.  0.
        1    1    3    3  502    0 -0.68725306425E+03 -0.46463994014E+03 -0.99009048375E+02  0.83546983188E+03  0.50400001928E-02 0.  1.
       -1    1    3    3    0  502  0.68725306425E+03  0.46463994014E+03  0.29683599152E+03  0.88108947002E+03  0.50400001928E-02 0. -1.
</event>
<event>
 5   0  0.2911632E-05  0.1694849E+04  0.7818609E-02  0.8764307E-01
        1   -1    0    0  501    0  0.00000000000E+00  0.00000000000E+00  0.11405910410E+04  0.11405910410E+04  0.50400001928E-02 0. -1.
       -1   -1    0    0    0  501  0.00000000000E+00  0.00000000000E+00 -0.62961099493E+03  0.62961099495E+03  0.50400001928E-02 0.  1.
    10030    2    1    2    0    0  0.00000000000E+00  0.00000000000E+00  0.51098004604E+03  0.17702020359E+04  0.16948494448E+04 0.  0.
        1    1    3    3  502    0  0.38411756154E+03 -0.94268171836E+02  0.10382747187E+04  0.11110567856E+04  0.50400001928E-02 0. -1.
       -1    1    3    3    0  502 -0.38411756154E+03  0.94268171836E+02 -0.52729467261E+03  0.65914525038E+03  0.50400001928E-02 0.  1.
</event>
<event>
 5   0  0.5671132E-05  0.1706625E+04  0.7818609E-02  0.8757595E-01
        2   -1    0    0  501    0  0.00000000000E+00  0.00000000000E+00  0.24539957006E+04  0.24539957006E+04  0.25500000920E-02 0.  1.
       -2   -1    0    0    0  501  0.00000000000E+00  0.00000000000E+00 -0.29671706989E+03  0.29671706990E+03  0.25500000920E-02 0. -1.
    10030    2    1    2    0    0  0.00000000000E+00  0.00000000000E+00  0.21572786307E+04  0.27507127705E+04  0.17066252240E+04 0.  0.
        3    1    3    3  502    0 -0.39132704427E+03 -0.14062816984E+03 -0.12236137829E+03  0.43345755828E+03  0.10100000352E+00 0. -1.
       -3    1    3    3    0  502  0.39132704427E+03  0.14062816984E+03  0.22796400090E+04  0.23172552122E+04  0.10100000352E+00 0.  1.
</event>
<event>
 5   0  0.2987859E-05  0.1710317E+04  0.7818609E-02  0.8755502E-01
       -1   -1    0    0    0  501  0.00000000000E+00  0.00000000000E+00  0.66249613283E+03  0.66249613285E+03  0.50400001928E-02 0. -1.
        1   -1    0    0  501    0  0.00000000000E+00  0.00000000000E+00 -0.11038491313E+04  0.11038491313E+04  0.50400001928E-02 0.  1.
    10030    2    1    2    0    0  0.00000000000E+00  0.00000000000E+00 -0.44135299845E+03  0.17663452641E+04  0.17103166733E+04 0.  0.
        5    1    3    3  502    0 -0.40405494650E+03  0.75312359722E+03 -0.25021663024E+03  0.89055376285E+03  0.46999998093E+01 0. -1.
       -5    1    3    3    0  502  0.40405494650E+03 -0.75312359722E+03 -0.19113636820E+03  0.87579150129E+03  0.46999998093E+01 0.  1.
</event>
<event>
 5   0  0.5671132E-05  0.1698255E+04  0.7818609E-02  0.8762360E-01
       -2   -1    0    0    0  501  0.00000000000E+00  0.00000000000E+00  0.44832634814E+03  0.44832634815E+03  0.25500000920E-02 0. -1.
        2   -1    0    0  501    0  0.00000000000E+00  0.00000000000E+00 -0.16082419075E+04  0.16082419075E+04  0.25500000920E-02 0.  1.
    10030    2    1    2    0    0  0.00000000000E+00  0.00000000000E+00 -0.11599155594E+04  0.20565682557E+04  0.16982546586E+04 0.  0.
        3    1    3    3  502    0 -0.12090577181E+03 -0.21889787337E+03  0.40272310193E+03  0.47404682433E+03  0.10100000352E+00 0. -1.
       -3    1    3    3    0  502  0.12090577181E+03  0.21889787337E+03 -0.15626386613E+04  0.15825214314E+04  0.10100000352E+00 0.  1.
</event>
<event>
 5   0  0.5755321E-05  0.1699920E+04  0.7818609E-02  0.8761410E-01
        2   -1    0    0  501    0  0.00000000000E+00  0.00000000000E+00  0.18443498852E+04  0.18443498852E+04  0.25500000920E-02 0.  1.
       -2   -1    0    0    0  501  0.00000000000E+00  0.00000000000E+00 -0.39170001483E+03  0.39170001484E+03  0.25500000920E-02 0. -1.
    10030    2    1    2    0    0  0.00000000000E+00  0.00000000000E+00  0.14526498704E+04  0.22360499000E+04  0.16999198539E+04 0.  0.
        4    1    3    3  502    0  0.18716031239E+03  0.77389587297E+03  0.11176083634E+04  0.13722222384E+04  0.12699999809E+01 0.  1.
       -4    1    3    3    0  502 -0.18716031239E+03 -0.77389587297E+03  0.33504150699E+03  0.86382766166E+03  0.12699999809E+01 0. -1.
</event>
<event>
 5   0  0.5671132E-05  0.1710243E+04  0.7818609E-02  0.8755544E-01
       -2   -1    0    0    0  501  0.00000000000E+00  0.00000000000E+00  0.35151044993E+03  0.35151044994E+03  0.25500000920E-02 0. -1.
        2   -1    0    0  501    0  0.00000000000E+00  0.00000000000E+00 -0.20802589235E+04  0.20802589235E+04  0.25500000920E-02 0.  1.
    10030    2    1    2    0    0  0.00000000000E+00  0.00000000000E+00 -0.17287484736E+04  0.24317693734E+04  0.17102429654E+04 0.  0.
        3    1    3    3  502    0  0.83198041271E+03  0.69176956903E+01 -0.11451506103E+04  0.14154890293E+04  0.10100000352E+00 0.  1.
       -3    1    3    3    0  502 -0.83198041271E+03 -0.69176956903E+01 -0.58359786331E+03  0.10162803442E+04  0.10100000352E+00 0. -1.
</event>
<event>
 5   0  0.5821584E-05  0.1701312E+04  0.7818609E-02  0.8760617E-01
        2   -1    0    0  501    0  0.00000000000E+00  0.00000000000E+00  0.42972125895E+03  0.42972125896E+03  0.25500000920E-02 0.  1.
       -2   -1    0    0    0  501  0.00000000000E+00  0.00000000000E+00 -0.16839181523E+04  0.16839181523E+04  0.25500000920E-02 0. -1.
    10030    2    1    2    0    0  0.00000000000E+00  0.00000000000E+00 -0.12541968933E+04  0.21136394112E+04  0.17013117626E+04 0.  0.
        1    1    3    3  502    0 -0.70287831702E+01 -0.41726972607E+03 -0.15479971744E+04  0.16032650062E+04  0.50400001928E-02 0. -1.
       -1    1    3    3    0  502  0.70287831702E+01  0.41726972607E+03  0.29380028112E+03  0.51037440501E+03  0.50400001928E-02 0.  1.
</event>
<event>
 5   0  0.2967704E-05  0.1700841E+04  0.7818609E-02  0.8760885E-01
       -1   -1    0    0    0  501  0.00000000000E+00  0.00000000000E+00  0.82043350050E+03  0.82043350052E+03  0.50400001928E-02 0. -1.
        1   -1    0    0  501    0  0.00000000000E+00  0.00000000000E+00 -0.88150305465E+03  0.88150305466E+03  0.50400001928E-02 0.  1.
    10030    2    1    2    0    0  0.00000000000E+00  0.00000000000E+00 -0.61069554144E+02  0.17019365552E+04  0.17008405414E+04 0.  0.
        2    1    3    3  502    0 -0.72294314588E+03 -0.26218178970E+03 -0.39385076622E+03  0.86400492423E+03  0.25500000920E-02 0.  1.
       -2    1    3    3    0  502  0.72294314588E+03  0.26218178970E+03  0.33278121208E+03  0.83793163095E+03  0.25500000920E-02 0. -1.
</event>
<event>
 5   0  0.2966258E-05  0.1699009E+04  0.7818609E-02  0.8761930E-01
       -1   -1    0    0    0  501  0.00000000000E+00  0.00000000000E+00  0.85598921625E+03  0.85598921626E+03  0.50400001928E-02 0. -1.
        1   -1    0    0  501    0  0.00000000000E+00  0.00000000000E+00 -0.84306877639E+03  0.84306877640E+03  0.50400001928E-02 0.  1.
    10030    2    1    2    0    0  0.00000000000E+00  0.00000000000E+00  0.12920439859E+02  0.16990579927E+04  0.16990088654E+04 0.  0.
        4    1    3    3  502    0 -0.15049435464E+03  0.20320845116E+03 -0.80455887932E+03  0.84336162386E+03  0.12699999809E+01 0.  1.
       -4    1    3    3    0  502  0.15049435464E+03 -0.20320845116E+03  0.81747931918E+03  0.85569636881E+03  0.12699999809E+01 0. -1.
</event>
<event>
 5   0  0.5859822E-05  0.1704345E+04  0.7818609E-02  0.8758890E-01
        2   -1    0    0  501    0  0.00000000000E+00  0.00000000000E+00  0.14476831494E+04  0.14476831494E+04  0.25500000920E-02 0.  1.
       -2   -1    0    0    0  501  0.00000000000E+00  0.00000000000E+00 -0.50162758586E+03  0.50162758586E+03  0.25500000920E-02 0. -1.
    10030    2    1    2    0    0  0.00000000000E+00  0.00000000000E+00  0.94605556352E+03  0.19493107352E+04  0.17043448047E+04 0.  0.
        5    1    3    3  502    0 -0.22212722800E+03  0.68906703056E+03  0.98709838473E+03  0.12241483526E+04  0.46999998093E+01 0.  1.
       -5    1    3    3    0  502  0.22212722800E+03 -0.68906703056E+03 -0.41042821211E+02  0.72516238264E+03  0.46999998093E+01 0. -1.
</event>
<event>
 5   0  0.2911632E-05  0.1701010E+04  0.7818609E-02  0.8760788E-01
        1   -1    0    0  501    0  0.00000000000E+00  0.00000000000E+00  0.11482772780E+04  0.11482772780E+04  0.50400001928E-02 0. -1.
       -1   -1    0    0    0  501  0.00000000000E+00  0.00000000000E+00 -0.62995141464E+03  0.62995141466E+03  0.50400001928E-02 0.  1.
    10030    2    1    2    0    0  0.00000000000E+00  0.00000000000E+00  0.51832586333E+03  0.17782286926E+04  0.17010101654E+04 0.  0.
        1    1    3    3  502    0  0.25120760063E+03 -0.58899518695E+03  0.84434020457E+03  0.10596843728E+04  0.50400001928E-02 0. -1.
       -1    1    3    3    0  502 -0.25120760063E+03  0.58899518695E+03 -0.32601434124E+03  0.71854431985E+03  0.50400001928E-02 0.  1.
</event>
<event>
 5   0  0.2966258E-05  0.1703588E+04  0.7818609E-02  0.8759320E-01
        1   -1    0    0  501    0  0.00000000000E+00  0.00000000000E+00  0.10770189007E+04  0.10770189007E+04  0.50400001928E-02 0.  1.
       -1   -1    0    0    0  501  0.00000000000E+00  0.00000000000E+00 -0.67366808308E+03  0.67366808310E+03  0.50400001928E-02 0. -1.
    10030    2    1    2    0    0  0.00000000000E+00  0.00000000000E+00  0.40335081758E+03  0.17506869838E+04  0.17035882816E+04 0.  0.
        4    1    3    3  502    0 -0.11348064148E+03  0.63124999826E+03  0.77770531828E+03  0.10080583273E+04  0.12699999809E+01 0.  1.
       -4    1    3    3    0  502  0.11348064148E+03 -0.63124999826E+03 -0.37435450070E+03  0.74262865645E+03  0.12699999809E+01 0. -1.
</event>
<event>
 5   0  0.2987859E-05  0.1702177E+04  0.7818609E-02  0.8760124E-01
       -1   -1    0    0    0  501  0.00000000000E+00  0.00000000000E+00  0.50878984969E+03  0.50878984971E+03  0.50400001928E-02 0. -1.
        1   -1    0    0  501    0  0.00000000000E+00  0.00000000000E+00 -0.14236753792E+04  0.14236753792E+04  0.50400001928E-02 0.  1.
    10030    2    1    2    0    0  0.00000000000E+00  0.00000000000E+00 -0.91488552955E+03  0.19324652290E+04  0.17021769382E+04 0.  0.
        5    1    3    3  502    0  0.76554942468E+03 -0.12208038748E+03 -0.58698841346E+02  0.77745558498E+03  0.46999998093E+01 0. -1.
       -5    1    3    3    0  502 -0.76554942468E+03  0.12208038748E+03 -0.85618668820E+03  0.11550096440E+04  0.46999998093E+01 0.  1.
</event>
<event>
 5   0  0.5755321E-05  0.1700951E+04  0.7818609E-02  0.8760822E-01
        2   -1    0    0  501    0  0.00000000000E+00  0.00000000000E+00  0.94844975691E+03  0.94844975691E+03  0.25500000920E-02 0. -1.
       -2   -1    0    0    0  501  0.00000000000E+00  0.00000000000E+00 -0.76262220736E+03  0.76262220736E+03  0.25500000920E-02 0.  1.
    10030    2    1    2    0    0  0.00000000000E+00  0.00000000000E+00  0.18582754956E+03  0.17110719643E+04  0.17009513187E+04 0.  0.
        4    1    3    3  502    0 -0.69332230317E+03  0.36004946880E+03 -0.24520485510E+03  0.81881528438E+03  0.12699999809E+01 0.  1.
       -4    1    3    3    0  502  0.69332230317E+03 -0.36004946880E+03  0.43103240465E+03  0.89225667990E+03  0.12699999809E+01 0. -1.
</event>
<event>
 5   0  0.2911632E-05  0.1696840E+04  0.7818609E-02  0.8763169E-01
       -1   -1    0    0    0  501  0.00000000000E+00  0.00000000000E+00  0.76375115030E+03  0.76375115032E+03  0.50400001928E-02 0.  1.
        1   -1    0    0  501    0  0.00000000000E+00  0.00000000000E+00 -0.94247511131E+03  0.94247511132E+03  0.50400001928E-02 0. -1.
    10030    2    1    2    0    0  0.00000000000E+00  0.00000000000E+00 -0.17872396101E+03  0.17062262616E+04  0.16968399458E+04 0.  0.
        1    1    3    3  502    0  0.13880829555E+03  0.14268257361E+03  0.73993672752E+03  0.76624566588E+03  0.50400001928E-02 0.  1.
       -1    1    3    3    0  502 -0.13880829555E+03 -0.14268257361E+03 -0.91866068853E+03  0.93998059575E+03  0.50400001928E-02 0. -1.
</event>
<event>
 5   0  0.5652631E-05  0.1698096E+04  0.7818609E-02  0.8762451E-01
       -2   -1    0    0    0  501  0.00000000000E+00  0.00000000000E+00  0.43629362349E+03  0.43629362349E+03  0.25500000920E-02 0. -1.
        2   -1    0    0  501    0  0.00000000000E+00  0.00000000000E+00 -0.16522872317E+04  0.16522872317E+04  0.25500000920E-02 0.  1.
    10030    2    1    2    0    0  0.00000000000E+00  0.00000000000E+00 -0.12159936082E+04  0.20885808552E+04  0.16980958552E+04 0.  0.
        2    1    3    3  502    0  0.17690683515E+03  0.15958181157E+03  0.39433698438E+03  0.46072121740E+03  0.25500000920E-02 0. -1.
       -2    1    3    3    0  502 -0.17690683515E+03 -0.15958181157E+03 -0.16103305926E+04  0.16278596378E+04  0.25500000920E-02 0.  1.
</event>
<event>
 5   0  0.5859822E-05  0.1705489E+04  0.7818609E-02  0.8758240E-01
       -2   -1    0    0    0  501  0.00000000000E+00  0.00000000000E+00  0.11815948334E+04  0.11815948334E+04  0.25500000920E-02 0.  1.
        2   -1    0    0  501    0  0.00000000000E+00  0.00000000000E+00 -0.61541638927E+03  0.61541638928E+03  0.25500000920E-02 0. -1.
    10030    2    1    2    0    0  0.00000000000E+00  0.00000000000E+00  0.56617844408E+03  0.17970112226E+04  0.17054885821E+04 0.  0.
        5    1    3    3  502    0 -0.42353371588E+03  0.28243263078E+03 -0.43772891444E+03  0.67139980038E+03  0.46999998093E+01 0. -1.
       -5    1    3    3    0  502  0.42353371588E+03 -0.28243263078E+03  0.10039073585E+04  0.11256114223E+04  0.46999998093E+01 0.  1.
</event>
<event>
 5   0  0.2993769E-05  0.1700933E+04  0.7818609E-02  0.8760832E-01
       -1   -1    0    0    0  501  0.00000000000E+00  0.00000000000E+00  0.75209544322E+03  0.75209544324E+03  0.50400001928E-02 0. -1.
        1   -1    0    0  501    0  0.00000000000E+00  0.00000000000E+00 -0.96170422437E+03  0.96170422439E+03  0.50400001928E-02 0.  1.
    10030    2    1    2    0    0  0.00000000000E+00  0.00000000000E+00 -0.20960878115E+03  0.17137996676E+04  0.17009331144E+04 0.  0.
        3    1    3    3  502    0 -0.82057204147E+03  0.15273421589E+03  0.59608198623E+02  0.83679111103E+03  0.10100000352E+00 0. -1.
       -3    1    3    3    0  502  0.82057204147E+03 -0.15273421589E+03 -0.26921697978E+03  0.87700855660E+03  0.10100000352E+00 0.  1.
</event>
<event>
 5   0  0.2987859E-05  0.1697772E+04  0.7818609E-02  0.8762636E-01
       -1   -1    0    0    0  501  0.00000000000E+00  0.00000000000E+00  0.83836058538E+03  0.83836058539E+03  0.50400001928E-02 0.  1.
        1   -1    0    0  501    0  0.00000000000E+00  0.00000000000E+00 -0.85954319141E+03  0.85954319142E+03  0.50400001928E-02 0. -1.
    10030    2    1    2    0    0  0.00000000000E+00  0.00000000000E+00 -0.21182606026E+02  0.16979037768E+04  0.16977716373E+04 0.  0.
        5    1    3    3  502    0  0.21549911073E+03  0.66765446764E+03 -0.48852251166E+03  0.85491443389E+03  0.46999998093E+01 0.  1.
       -5    1    3    3    0  502 -0.21549911073E+03 -0.66765446764E+03  0.46733990563E+03  0.84298934292E+03  0.46999998093E+01 0. -1.
</event>
<event>
 5   0  0.5652631E-05  0.1693434E+04  0.7818609E-02  0.8765118E-01
       -2   -1    0    0    0  501  0.00000000000E+00  0.00000000000E+00  0.77811832491E+03  0.77811832491E+03  0.25500000920E-02 0. -1.
        2   -1    0    0  501    0  0.00000000000E+00  0.00000000000E+00 -0.92136334709E+03  0.92136334710E+03  0.25500000920E-02 0.  1.
    10030    2    1    2    0    0  0.00000000000E+00  0.00000000000E+00 -0.14324502218E+03  0.16994816720E+04  0.16934340309E+04 0.  0.
        2    1    3    3  502    0  0.99932641208E+02  0.71580806107E+03  0.37104454609E+03  0.81242954664E+03  0.25500000920E-02 0. -1.
       -2    1    3    3    0  502 -0.99932641208E+02 -0.71580806107E+03 -0.51428956827E+03  0.88705212536E+03  0.25500000920E-02 0.  1.
</event>
<event>
 5   0  0.2966258E-05  0.1699023E+04  0.7818609E-02  0.8761922E-01
        1   -1    0    0  501    0  0.00000000000E+00  0.00000000000E+00  0.80320758715E+03  0.80320758716E+03  0.50400001928E-02 0.  1.
       -1   -1    0    0    0  501  0.00000000000E+00  0.00000000000E+00 -0.89848496779E+03  0.89848496780E+03  0.50400001928E-02 0. -1.
    10030    2    1    2    0    0  0.00000000000E+00  0.00000000000E+00 -0.95277380642E+02  0.17016925550E+04  0.16990231818E+04 0.  0.
        4    1    3    3  502    0  0.28832006941E+03 -0.58358575365E+02  0.75056645813E+03  0.80615495205E+03  0.12699999809E+01 0.  1.
       -4    1    3    3    0  502 -0.28832006941E+03  0.58358575365E+02 -0.84584383877E+03  0.89553760292E+03  0.12699999809E+01 0. -1.
</event>
<event>
 5   0  0.5671132E-05  0.1694624E+04  0.7818609E-02  0.8764436E-01
       -2   -1    0    0    0  501  0.00000000000E+00  0.00000000000E+00  0.11527335157E+04  0.11527335157E+04  0.25500000920E-02 0. -1.
        2   -1    0    0  501    0  0.00000000000E+00  0.00000000000E+00 -0.62281329536E+03  0.62281329537E+03  0.25500000920E-02 0.  1.
    10030    2    1    2    0    0  0.00000000000E+00  0.00000000000E+00  0.52992022034E+03  0.17755468111E+04  0.16946241584E+04 0.  0.
        3    1    3    3  502    0  0.18492367820E+03 -0.45467480861E+03  0.98860132657E+03  0.11037474990E+04  0.10100000352E+00 0. -1.
       -3    1    3    3    0  502 -0.18492367820E+03  0.45467480861E+03 -0.45868110624E+03  0.67179931212E+03  0.10100000352E+00 0.  1.
</event>
<event>
 5   0  0.5859822E-05  0.1700958E+04  0.7818609E-02  0.8760818E-01
       -2   -1    0    0    0  501  0.00000000000E+00  0.00000000000E+00  0.51276836721E+03  0.51276836722E+03  0.25500000920E-02 0.  1.
        2   -1    0    0  501    0  0.00000000000E+00  0.00000000000E+00 -0.14106059689E+04  0.14106059689E+04  0.25500000920E-02 0. -1.
    10030    2    1    2    0    0  0.00000000000E+00  0.00000000000E+00 -0.89783760169E+03  0.19233743361E+04  0.17009575179E+04 0.  0.
        5    1    3    3  502    0 -0.12208708888E+03 -0.60239561558E+03  0.21573934508E+03  0.65142251262E+03  0.46999998093E+01 0.  1.
       -5    1    3    3    0  502  0.12208708888E+03  0.60239561558E+03 -0.11135769468E+04  0.12719518235E+04  0.46999998093E+01 0. -1.
</event>
<event>
 5   0  0.5821584E-05  0.1701912E+04  0.7818609E-02  0.8760274E-01
       -2   -1    0    0    0  501  0.00000000000E+00  0.00000000000E+00  0.58755221302E+03  0.58755221303E+03  0.25500000920E-02 0. -1.
        2   -1    0    0  501    0  0.00000000000E+00  0.00000000000E+00 -0.12324461425E+04  0.12324461425E+04  0.25500000920E-02 0.  1.
    10030    2    1    2    0    0  0.00000000000E+00  0.00000000000E+00 -0.64489392943E+03  0.18199983555E+04  0.17019124048E+04 0.  0.
        1    1    3    3  502    0  0.61874422989E+03 -0.57895059670E+03 -0.23893741276E+03  0.88040859985E+03  0.50400001928E-02 0.  1.
       -1    1    3    3    0  502 -0.61874422989E+03  0.57895059670E+03 -0.40595651667E+03  0.93958975563E+03  0.50400001928E-02 0. -1.
</event>
<event>
 5   0  0.2966258E-05  0.1701511E+04  0.7818609E-02  0.8760503E-01
        1   -1    0    0  501    0  0.00000000000E+00  0.00000000000E+00  0.17050629979E+04  0.17050629979E+04  0.50400001928E-02 0. -1.
       -1   -1    0    0    0  501  0.00000000000E+00  0.00000000000E+00 -0.42449174176E+03  0.42449174179E+03  0.50400001928E-02 0.  1.
    10030    2    1    2    0    0  0.00000000000E+00  0.00000000000E+00  0.12805712562E+04  0.21295547397E+04  0.17015112833E+04 0.  0.
        4    1    3    3  502    0 -0.72094216283E+03 -0.36146890868E+03  0.97928735677E+03  0.12686302511E+04  0.12699999809E+01 0. -1.
       -4    1    3    3    0  502  0.72094216283E+03  0.36146890868E+03  0.30128389940E+03  0.86092448858E+03  0.12699999809E+01 0.  1.
</event>
<event>
 5   0  0.5821584E-05  0.1683403E+04  0.7818609E-02  0.8770887E-01
       -2   -1    0    0    0  501  0.00000000000E+00  0.00000000000E+00  0.75290083431E+03  0.75290083431E+03  0.25500000920E-02 0.  1.
        2   -1    0    0  501    0  0.00000000000E+00  0.00000000000E+00 -0.94097579898E+03  0.94097579898E+03  0.25500000920E-02 0. -1.
    10030    2    1    2    0    0  0.00000000000E+00  0.00000000000E+00 -0.18807496467E+03  0.16938766333E+04  0.16834030582E+04 0.  0.
        1    1    3    3  502    0 -0.25562206920E+03 -0.80181970117E+03 -0.10840880222E+03  0.84853399689E+03  0.50400001928E-02 0.  1.
       -1    1    3    3    0  502  0.25562206920E+03  0.80181970117E+03 -0.79666162452E+02  0.84534263640E+03  0.50400001928E-02 0. -1.
</event>
<event>
 5   0  0.2911632E-05  0.1705403E+04  0.7818609E-02  0.8758289E-01
        1   -1    0    0  501    0  0.00000000000E+00  0.00000000000E+00  0.94552690738E+03  0.94552690739E+03  0.50400001928E-02 0.  1.
       -1   -1    0    0    0  501  0.00000000000E+00  0.00000000000E+00 -0.76898891755E+03  0.76898891757E+03  0.50400001928E-02 0. -1.
    10030    2    1    2    0    0  0.00000000000E+00  0.00000000000E+00  0.17653798983E+03  0.17145158250E+04  0.17054028416E+04 0.  0.
        1    1    3    3  502    0  0.47671052252E+02 -0.75793557506E+03  0.47810495583E+03  0.89739802428E+03  0.50400001928E-02 0.  1.
       -1    1    3    3    0  502 -0.47671052252E+02  0.75793557506E+03 -0.30156696601E+03  0.81711780067E+03  0.50400001928E-02 0. -1.
</event>
<event>
 5   0  0.5755321E-05  0.1699096E+04  0.7818609E-02  0.8761880E-01
       -2   -1    0    0    0  501  0.00000000000E+00  0.00000000000E+00  0.79366802383E+03  0.79366802383E+03  0.25500000920E-02 0. -1.
        2   -1    0    0  501    0  0.00000000000E+00  0.00000000000E+00 -0.90936254775E+03  0.90936254776E+03  0.25500000920E-02 0.  1.
    10030    2    1    2    0    0  0.00000000000E+00  0.00000000000E+00 -0.11569452393E+03  0.17030305716E+04  0.16990962024E+04 0.  0.
        4    1    3    3  502    0  0.35555198816E+03  0.75588023632E+03 -0.21299009128E+03  0.86205483575E+03  0.12699999809E+01 0.  1.
       -4    1    3    3    0  502 -0.35555198816E+03 -0.75588023632E+03  0.97295567351E+02  0.84097573584E+03  0.12699999809E+01 0. -1.
</event>
<event>
 5   0  0.2911632E-05  0.1699729E+04  0.7818609E-02  0.8761519E-01
       -1   -1    0    0    0  501  0.00000000000E+00  0.00000000000E+00  0.47236555845E+03  0.47236555848E+03  0.50400001928E-02 0. -1.
        1   -1    0    0  501    0  0.00000000000E+00  0.00000000000E+00 -0.15290478797E+04  0.15290478797E+04  0.50400001928E-02 0.  1.
    10030    2    1    2    0    0  0.00000000000E+00  0.00000000000E+00 -0.10566823212E+04  0.20014134382E+04  0.16997288674E+04 0.  0.
        1    1    3    3  502    0  0.10664056244E+03 -0.96888115814E+02  0.45787952252E+03  0.48001372242E+03  0.50400001928E-02 0. -1.
       -1    1    3    3    0  502 -0.10664056244E+03  0.96888115814E+02 -0.15145618438E+04  0.15213997158E+04  0.50400001928E-02 0.  1.
</event>
<event>
 5   0  0.5859822E-05  0.1700405E+04  0.7818609E-02  0.8761133E-01
       -2   -1    0    0    0  501  0.00000000000E+00  0.00000000000E+00  0.54614071810E+03  0.54614071811E+03  0.25500000920E-02 0. -1.
        2   -1    0    0  501    0  0.00000000000E+00  0.00000000000E+00 -0.13235500497E+04  0.13235500497E+04  0.25500000920E-02 0.  1.
    10030    2    1    2    0    0  0.00000000000E+00  0.00000000000E+00 -0.77740933157E+03  0.18696907678E+04  0.17004053335E+04 0.  0.
        5    1    3    3  502    0 -0.49633689733E+03 -0.18496104869E+02  0.37001287910E+03  0.61937391150E+03  0.46999998093E+01 0. -1.
       -5    1    3    3    0  502  0.49633689733E+03  0.18496104869E+02 -0.11474222107E+04  0.12503168563E+04  0.46999998093E+01 0.  1.
</event>
<event>
 5   0  0.5859822E-05  0.1697354E+04  0.7818609E-02  0.8762875E-01
       -2   -1    0    0    0  501  0.00000000000E+00  0.00000000000E+00  0.47776326519E+03  0.47776326519E+03  0.25500000920E-02 0. -1.
        2   -1    0    0  501    0  0.00000000000E+00  0.00000000000E+00 -0.15075504689E+04  0.15075504689E+04  0.25500000920E-02 0.  1.
    10030    2    1    2    0    0  0.00000000000E+00  0.00000000000E+00 -0.10297872037E+04  0.19853137341E+04  0.16973535100E+04 0.  0.
        5    1    3    3  502    0 -0.80232487535E+03 -0.37794713864E+02 -0.83537944398E+03  0.11588936756E+04  0.46999998093E+01 0.  1.
       -5    1    3    3    0  502  0.80232487535E+03  0.37794713864E+02 -0.19440775974E+03  0.82642005847E+03  0.46999998093E+01 0. -1.
</event>
<event>
 5   0  0.5652631E-05  0.1689057E+04  0.7818609E-02  0.8767630E-01
       -2   -1    0    0    0  501  0.00000000000E+00  0.00000000000E+00  0.65598403738E+03  0.65598403738E+03  0.25500000920E-02 0.  1.
        2   -1    0    0  501    0  0.00000000000E+00  0.00000000000E+00 -0.10872651840E+04  0.10872651840E+04  0.25500000920E-02 0. -1.
    10030    2    1    2    0    0  0.00000000000E+00  0.00000000000E+00 -0.43128114664E+03  0.17432492214E+04  0.16890572579E+04 0.  0.
        2    1    3    3  502    0  0.28446951084E+03  0.36328763086E+03  0.51439231370E+03  0.69101393454E+03  0.25500000920E-02 0.  1.
       -2    1    3    3    0  502 -0.28446951084E+03 -0.36328763086E+03 -0.94567346034E+03  0.10522352869E+04  0.25500000920E-02 0. -1.
</event>
<event>
 5   0  0.5652631E-05  0.1707461E+04  0.7818609E-02  0.8757120E-01
       -2   -1    0    0    0  501  0.00000000000E+00  0.00000000000E+00  0.44711269338E+03  0.44711269339E+03  0.25500000920E-02 0.  1.
        2   -1    0    0  501    0  0.00000000000E+00  0.00000000000E+00 -0.16301392395E+04  0.16301392395E+04  0.25500000920E-02 0. -1.
    10030    2    1    2    0    0  0.00000000000E+00  0.00000000000E+00 -0.11830265461E+04  0.20772519329E+04  0.17074612101E+04 0.  0.
        2    1    3    3  502    0 -0.42176953928E+03  0.12089222043E+03  0.29945669248E+03  0.53120503000E+03  0.25500000920E-02 0.  1.
       -2    1    3    3    0  502  0.42176953928E+03 -0.12089222043E+03 -0.14824832386E+04  0.15460469029E+04  0.25500000920E-02 0. -1.
</event>
<event>
 5   0  0.5821584E-05  0.1710042E+04  0.7818609E-02  0.8755658E-01
       -2   -1    0    0    0  501  0.00000000000E+00  0.00000000000E+00  0.32396626496E+03  0.32396626497E+03  0.25500000920E-02 0. -1.
        2   -1    0    0  501    0  0.00000000000E+00  0.00000000000E+00 -0.22565955996E+04  0.22565955996E+04  0.25500000920E-02 0.  1.
    10030    2    1    2    0    0  0.00000000000E+00  0.00000000000E+00 -0.19326293346E+04  0.25805618646E+04  0.17100419269E+04 0.  0.
        1    1    3    3  502    0 -0.29969670219E+03  0.88636909965E+02  0.23468206593E+03  0.39083281234E+03  0.50400001928E-02 0. -1.
       -1    1    3    3    0  502  0.29969670219E+03 -0.88636909965E+02 -0.21673114005E+04  0.21897290522E+04  0.50400001928E-02 0.  1.
</event>
<event>
 5   0  0.2987859E-05  0.1701480E+04  0.7818609E-02  0.8760521E-01
       -1   -1    0    0    0  501  0.00000000000E+00  0.00000000000E+00  0.64249943541E+03  0.64249943543E+03  0.50400001928E-02 0. -1.
        1   -1    0    0  501    0  0.00000000000E+00  0.00000000000E+00 -0.11264731977E+04  0.11264731977E+04  0.50400001928E-02 0.  1.
    10030    2    1    2    0    0  0.00000000000E+00  0.00000000000E+00 -0.48397376227E+03  0.17689726331E+04  0.17014798189E+04 0.  0.
        5    1    3    3  502    0  0.81963456133E+03  0.18315194754E+02 -0.47815395239E+03  0.94909933762E+03  0.46999998093E+01 0.  1.
       -5    1    3    3    0  502 -0.81963456133E+03 -0.18315194754E+02 -0.58198098765E+01  0.81987329550E+03  0.46999998093E+01 0. -1.
</event>
<event>
 5   0  0.2993769E-05  0.1708185E+04  0.7818609E-02  0.8756710E-01
       -1   -1    0    0    0  501  0.00000000000E+00  0.00000000000E+00  0.10499091562E+04  0.10499091562E+04  0.50400001928E-02 0. -1.
        1   -1    0    0  501    0  0.00000000000E+00  0.00000000000E+00 -0.69479708018E+03  0.69479708020E+03  0.50400001928E-02 0.  1.
    10030    2    1    2    0    0  0.00000000000E+00  0.00000000000E+00  0.35511207599E+03  0.17447062364E+04  0.17081847865E+04 0.  0.
        3    1    3    3  502    0 -0.11822222744E+02 -0.80310182993E+03  0.47421644572E+03  0.93273445405E+03  0.10100000352E+00 0. -1.
       -3    1    3    3    0  502  0.11822222744E+02  0.80310182993E+03 -0.11910436973E+03  0.81197178232E+03  0.10100000352E+00 0.  1.
</event>
<event>
 5   0  0.5671132E-05  0.1699900E+04  0.7818609E-02  0.8761421E-01
        2   -1    0    0  501    0  0.00000000000E+00  0.00000000000E+00  0.19470584080E+04  0.19470584080E+04  0.25500000920E-02 0.  1.
       -2   -1    0    0    0  501  0.00000000000E+00  0.00000000000E+00 -0.37102914060E+03  0.37102914061E+03  0.25500000920E-02 0. -1.
    10030    2    1    2    0    0  0.00000000000E+00  0.00000000000E+00  0.15760292674E+04  0.23180875486E+04  0.16999004769E+04 0.  0.
        3    1    3    3  502    0 -0.60130043965E+02  0.40027201204E+03  0.18071921693E+04  0.18519656727E+04  0.10100000352E+00 0.  1.
       -3    1    3    3    0  502  0.60130043965E+02 -0.40027201204E+03 -0.23116290190E+03  0.46612187593E+03  0.10100000352E+00 0. -1.
</event>
<event>
 5   0  0.2911632E-05  0.1699430E+04  0.7818609E-02  0.8761690E-01
       -1   -1    0    0    0  501  0.00000000000E+00  0.00000000000E+00  0.53841373416E+03  0.53841373418E+03  0.50400001928E-02 0.  1.
        1   -1    0    0  501    0  0.00000000000E+00  0.00000000000E+00 -0.13410043507E+04  0.13410043507E+04  0.50400001928E-02 0. -1.
    10030    2    1    2    0    0  0.00000000000E+00  0.00000000000E+00 -0.80259061656E+03  0.18794180849E+04  0.16994295043E+04 0.  0.
        1    1    3    3  502    0  0.20542901691E+03  0.76397773079E+03 -0.58369913038E+02  0.79326546685E+03  0.50400001928E-02 0.  1.
       -1    1    3    3    0  502 -0.20542901691E+03 -0.76397773079E+03 -0.74422070352E+03  0.10861526181E+04  0.50400001928E-02 0. -1.
</event>
<event>
 5   0  0.5652631E-05  0.1695471E+04  0.7818609E-02  0.8763952E-01
       -2   -1    0    0    0  501  0.00000000000E+00  0.00000000000E+00  0.12949625779E+04  0.12949625779E+04  0.25500000920E-02 0.  1.
        2   -1    0    0  501    0  0.00000000000E+00  0.00000000000E+00 -0.55496219789E+03  0.55496219790E+03  0.25500000920E-02 0. -1.
    10030    2    1    2    0    0  0.00000000000E+00  0.00000000000E+00  0.74000037996E+03  0.18499247758E+04  0.16954707646E+04 0.  0.
        2    1    3    3  502    0  0.30175083608E+03  0.33291010973E+03 -0.41435629237E+03  0.61120687600E+03  0.25500000920E-02 0. -1.
       -2    1    3    3    0  502 -0.30175083608E+03 -0.33291010973E+03  0.11543566723E+04  0.12387178998E+04  0.25500000920E-02 0.  1.
</event>
<event>
 5   0  0.2966258E-05  0.1702760E+04  0.7818609E-02  0.8759792E-01
        1   -1    0    0  501    0  0.00000000000E+00  0.00000000000E+00  0.61961494842E+03  0.61961494844E+03  0.50400001928E-02 0.  1.
       -1   -1    0    0    0  501  0.00000000000E+00  0.00000000000E+00 -0.11698358698E+04  0.11698358698E+04  0.50400001928E-02 0. -1.
    10030    2    1    2    0    0  0.00000000000E+00  0.00000000000E+00 -0.55022092138E+03  0.17894508182E+04  0.17027598682E+04 0.  0.
        4    1    3    3  502    0 -0.11575703313E+03 -0.78709841059E+03  0.43512790450E+02  0.79675502791E+03  0.12699999809E+01 0.  1.
       -4    1    3    3    0  502  0.11575703313E+03  0.78709841059E+03 -0.59373371183E+03  0.99269579033E+03  0.12699999809E+01 0. -1.
</event>
<event>
 5   0  0.2911632E-05  0.1663995E+04  0.7818609E-02  0.8782170E-01
        1   -1    0    0  501    0  0.00000000000E+00  0.00000000000E+00  0.87021519226E+03  0.87021519227E+03  0.50400001928E-02 0. -1.
       -1   -1    0    0    0  501  0.00000000000E+00  0.00000000000E+00 -0.79545793646E+03  0.79545793648E+03  0.50400001928E-02 0.  1.
    10030    2    1    2    0    0  0.00000000000E+00  0.00000000000E+00  0.74757255792E+02  0.16656731288E+04  0.16639946889E+04 0.  0.
        1    1    3    3  502    0  0.66165976903E+03  0.24348885034E+03 -0.40481247977E+03  0.81299053746E+03  0.50400001928E-02 0.  1.
       -1    1    3    3    0  502 -0.66165976903E+03 -0.24348885034E+03  0.47956973556E+03  0.85268259129E+03  0.50400001928E-02 0. -1.
</event>
<event>
 5   0  0.2967704E-05  0.1702100E+04  0.7818609E-02  0.8760168E-01
        1   -1    0    0  501    0  0.00000000000E+00  0.00000000000E+00  0.13865257765E+04  0.13865257765E+04  0.50400001928E-02 0.  1.
       -1   -1    0    0    0  501  0.00000000000E+00  0.00000000000E+00 -0.52237463290E+03  0.52237463292E+03  0.50400001928E-02 0. -1.
    10030    2    1    2    0    0  0.00000000000E+00  0.00000000000E+00  0.86415114356E+03  0.19089004094E+04  0.17020997544E+04 0.  0.
        2    1    3    3  502    0  0.44091062841E+03  0.61327107915E+03  0.87187172929E+03  0.11535440655E+04  0.25500000920E-02 0. -1.
       -2    1    3    3    0  502 -0.44091062841E+03 -0.61327107915E+03 -0.77205857319E+01  0.75535634386E+03  0.25500000920E-02 0.  1.
</event>
<event>
 5   0  0.2993769E-05  0.1700324E+04  0.7818609E-02  0.8761180E-01
       -1   -1    0    0    0  501  0.00000000000E+00  0.00000000000E+00  0.44344756085E+03  0.44344756088E+03  0.50400001928E-02 0. -1.
        1   -1    0    0  501    0  0.00000000000E+00  0.00000000000E+00 -0.16299007070E+04  0.16299007070E+04  0.50400001928E-02 0.  1.
    10030    2    1    2    0    0  0.00000000000E+00  0.00000000000E+00 -0.11864531461E+04  0.20733482679E+04  0.17003240785E+04 0.  0.
        3    1    3    3  502    0 -0.19113986008E+03 -0.80132539584E+03 -0.33710176603E+03  0.89010923318E+03  0.10100000352E+00 0. -1.
       -3    1    3    3    0  502  0.19113986008E+03  0.80132539584E+03 -0.84935138011E+03  0.11832390347E+04  0.10100000352E+00 0.  1.
</event>
<event>
 5   0  0.5755321E-05  0.1701281E+04  0.7818609E-02  0.8760634E-01
       -2   -1    0    0    0  501  0.00000000000E+00  0.00000000000E+00  0.59469558891E+03  0.59469558891E+03  0.25500000920E-02 0.  1.
        2   -1    0    0  501    0  0.00000000000E+00  0.00000000000E+00 -0.12167390391E+04  0.12167390391E+04  0.25500000920E-02 0. -1.
    10030    2    1    2    0    0  0.00000000000E+00  0.00000000000E+00 -0.62204345023E+03  0.18114346280E+04  0.17012810931E+04 0.  0.
        4    1    3    3  502    0 -0.48192169125E+02 -0.77946645700E+03 -0.67004419873E+03  0.10290049970E+04  0.12699999809E+01 0. -1.
       -4    1    3    3    0  502  0.48192169125E+02  0.77946645700E+03  0.48000748502E+02  0.78242963102E+03  0.12699999809E+01 0.  1.
</event>
<event>
 5   0  0.5755321E-05  0.1701113E+04  0.7818609E-02  0.8760730E-01
        2   -1    0    0  501    0  0.00000000000E+00  0.00000000000E+00  0.65939664553E+03  0.65939664554E+03  0.25500000920E-02 0. -1.
       -2   -1    0    0    0  501  0.00000000000E+00  0.00000000000E+00 -0.10971333972E+04  0.10971333972E+04  0.25500000920E-02 0.  1.
    10030    2    1    2    0    0  0.00000000000E+00  0.00000000000E+00 -0.43773675162E+03  0.17565300427E+04  0.17011126733E+04 0.  0.
        4    1    3    3  502    0 -0.43011436883E+03  0.55588359767E+03 -0.71347123089E+03  0.10015227180E+04  0.12699999809E+01 0.  1.
       -4    1    3    3    0  502  0.43011436883E+03 -0.55588359767E+03  0.27573447926E+03  0.75500732472E+03  0.12699999809E+01 0. -1.
</event>
<event>
 5   0  0.2967704E-05  0.1697662E+04  0.7818609E-02  0.8762699E-01
        1   -1    0    0  501    0  0.00000000000E+00  0.00000000000E+00  0.74054977122E+03  0.74054977124E+03  0.50400001928E-02 0. -1.
       -1   -1    0    0    0  501  0.00000000000E+00  0.00000000000E+00 -0.97294471778E+03  0.97294471780E+03  0.50400001928E-02 0.  1.
    10030    2    1    2    0    0  0.00000000000E+00  0.00000000000E+00 -0.23239494656E+03  0.17134944890E+04  0.16976619077E+04 0.  0.
        2    1    3    3  502    0 -0.23142324095E+03  0.27422066605E+03 -0.89263125037E+03  0.96205209801E+03  0.25500000920E-02 0.  1.
       -2    1    3    3    0  502  0.23142324095E+03 -0.27422066605E+03  0.66023630381E+03  0.75144239102E+03  0.25500000920E-02 0. -1.
</event>
<event>
 5   0  0.5755321E-05  0.1700691E+04  0.7818609E-02  0.8760971E-01
       -2   -1    0    0    0  501  0.00000000000E+00  0.00000000000E+00  0.57105248168E+03  0.57105248169E+03  0.25500000920E-02 0. -1.
        2   -1    0    0  501    0  0.00000000000E+00  0.00000000000E+00 -0.12662360200E+04  0.12662360200E+04  0.25500000920E-02 0.  1.
    10030    2    1    2    0    0  0.00000000000E+00  0.00000000000E+00 -0.69518353831E+03  0.18372885017E+04  0.17006907086E+04 0.  0.
        4    1    3    3  502    0  0.20947011266E+03 -0.74801426386E+03  0.26146370845E+02  0.77723118353E+03  0.12699999809E+01 0.  1.
       -4    1    3    3    0  502 -0.20947011266E+03  0.74801426386E+03 -0.72132990915E+03  0.10600573182E+04  0.12699999809E+01 0. -1.
</event>
<event>
 5   0  0.5821584E-05  0.1699673E+04  0.7818609E-02  0.8761551E-01
       -2   -1    0    0    0  501  0.00000000000E+00  0.00000000000E+00  0.40435499265E+03  0.40435499266E+03  0.25500000920E-02 0.  1.
        2   -1    0    0  501    0  0.00000000000E+00  0.00000000000E+00 -0.17861095518E+04  0.17861095518E+04  0.25500000920E-02 0. -1.
    10030    2    1    2    0    0  0.00000000000E+00  0.00000000000E+00 -0.13817545591E+04  0.21904645444E+04  0.16996732800E+04 0.  0.
        1    1    3    3  502    0  0.64780889909E+03 -0.54590423532E+03 -0.77785172107E+03  0.11500961281E+04  0.50400001928E-02 0. -1.
       -1    1    3    3    0  502 -0.64780889909E+03  0.54590423532E+03 -0.60390283806E+03  0.10403684163E+04  0.50400001928E-02 0.  1.
</event>
<event>
 5   0  0.5755321E-05  0.1694679E+04  0.7818609E-02  0.8764405E-01
        2   -1    0    0  501    0  0.00000000000E+00  0.00000000000E+00  0.11269784325E+04  0.11269784325E+04  0.25500000920E-02 0. -1.
       -2   -1    0    0    0  501  0.00000000000E+00  0.00000000000E+00 -0.63708813613E+03  0.63708813614E+03  0.25500000920E-02 0.  1.
    10030    2    1    2    0    0  0.00000000000E+00  0.00000000000E+00  0.48989029640E+03  0.17640665687E+04  0.16946794258E+04 0.  0.
        4    1    3    3  502    0  0.26638735843E+03 -0.35078099897E+03  0.99844305506E+03  0.10912835017E+04  0.12699999809E+01 0. -1.
       -4    1    3    3    0  502 -0.26638735843E+03  0.35078099897E+03 -0.50855275866E+03  0.67278306698E+03  0.12699999809E+01 0.  1.
</event>
<event>
 5   0  0.2987859E-05  0.1705808E+04  0.7818609E-02  0.8758059E-01
       -1   -1    0    0    0  501  0.00000000000E+00  0.00000000000E+00  0.49285947200E+03  0.49285947202E+03  0.50400001928E-02 0.  1.
        1   -1    0    0  501    0  0.00000000000E+00  0.00000000000E+00 -0.14759688293E+04  0.14759688293E+04  0.50400001928E-02 0. -1.
    10030    2    1    2    0    0  0.00000000000E+00  0.00000000000E+00 -0.98310935734E+03  0.19688283014E+04  0.17058079821E+04 0.  0.
        5    1    3    3  502    0  0.43469854495E+03  0.66040012951E+03 -0.86077310997E+03  0.11687786757E+04  0.46999998093E+01 0. -1.
       -5    1    3    3    0  502 -0.43469854495E+03 -0.66040012951E+03 -0.12233624737E+03  0.80004962562E+03  0.46999998093E+01 0.  1.
</event>
<event>
 5   0  0.5859822E-05  0.1699607E+04  0.7818609E-02  0.8761589E-01
        2   -1    0    0  501    0  0.00000000000E+00  0.00000000000E+00  0.81436914231E+03  0.81436914231E+03  0.25500000920E-02 0.  1.
       -2   -1    0    0    0  501  0.00000000000E+00  0.00000000000E+00 -0.88677945797E+03  0.88677945797E+03  0.25500000920E-02 0. -1.
    10030    2    1    2    0    0  0.00000000000E+00  0.00000000000E+00 -0.72410315663E+02  0.17011486003E+04  0.16996068094E+04 0.  0.
        5    1    3    3  502    0 -0.31570121613E+03  0.15032743217E+03 -0.81142576464E+03  0.88357198702E+03  0.46999998093E+01 0. -1.
       -5    1    3    3    0  502  0.31570121613E+03 -0.15032743217E+03  0.73901544898E+03  0.81757661326E+03  0.46999998093E+01 0.  1.
</event>
<event>
 5   0  0.2987859E-05  0.1698300E+04  0.7818609E-02  0.8762334E-01
       -1   -1    0    0    0  501  0.00000000000E+00  0.00000000000E+00  0.11782754262E+04  0.11782754262E+04  0.50400001928E-02 0.  1.
        1   -1    0    0  501    0  0.00000000000E+00  0.00000000000E+00 -0.61195861103E+03  0.61195861105E+03  0.50400001928E-02 0. -1.
    10030    2    1    2    0    0  0.00000000000E+00  0.00000000000E+00  0.56631681514E+03  0.17902340372E+04  0.16983000833E+04 0.  0.
        5    1    3    3  502    0 -0.76221081894E+03 -0.35709842226E+03  0.16507158053E+03  0.85776181565E+03  0.46999998093E+01 0. -1.
       -5    1    3    3    0  502  0.76221081894E+03  0.35709842226E+03  0.40124523461E+03  0.93247222157E+03  0.46999998093E+01 0.  1.
</event>
<event>
 5   0  0.2993769E-05  0.1699338E+04  0.7818609E-02  0.8761742E-01
        1   -1    0    0  501    0  0.00000000000E+00  0.00000000000E+00  0.10295676304E+04  0.10295676304E+04  0.50400001928E-02 0. -1.
       -1   -1    0    0    0  501  0.00000000000E+00  0.00000000000E+00 -0.70120445910E+03  0.70120445912E+03  0.50400001928E-02 0.  1.
    10030    2    1    2    0    0  0.00000000000E+00  0.00000000000E+00  0.32836317127E+03  0.17307720895E+04  0.16993380045E+04 0.  0.
        3    1    3    3  502    0  0.31518666582E+03 -0.25281385866E+03  0.92545672025E+03  0.10098156429E+04  0.10100000352E+00 0. -1.
       -3    1    3    3    0  502 -0.31518666582E+03  0.25281385866E+03 -0.59709354898E+03  0.72095644659E+03  0.10100000352E+00 0.  1.
</event>
<event>
 5   0  0.5671132E-05  0.1713918E+04  0.7818609E-02  0.8753466E-01
       -2   -1    0    0    0  501  0.00000000000E+00  0.00000000000E+00  0.16007174935E+04  0.16007174935E+04  0.25500000920E-02 0. -1.
        2   -1    0    0  501    0  0.00000000000E+00  0.00000000000E+00 -0.45878077184E+03  0.45878077184E+03  0.25500000920E-02 0.  1.
    10030    2    1    2    0    0  0.00000000000E+00  0.00000000000E+00  0.11419367216E+04  0.20594982653E+04  0.17139176260E+04 0.  0.
        3    1    3    3  502    0 -0.45777041044E+03 -0.57450456864E+03  0.11012805001E+04  0.13237930345E+04  0.10100000352E+00 0. -1.
       -3    1    3    3    0  502  0.45777041044E+03  0.57450456864E+03  0.40656221487E+02  0.73570523079E+03  0.10100000352E+00 0.  1.
</event>
<event>
 5   0  0.2911632E-05  0.1699609E+04  0.7818609E-02  0.8761587E-01
        1   -1    0    0  501    0  0.00000000000E+00  0.00000000000E+00  0.15332693962E+04  0.15332693962E+04  0.50400001928E-02 0. -1.
       -1   -1    0    0    0  501  0.00000000000E+00  0.00000000000E+00 -0.47099873853E+03  0.47099873856E+03  0.50400001928E-02 0.  1.
    10030    2    1    2    0    0  0.00000000000E+00  0.00000000000E+00  0.10622706576E+04  0.20042681347E+04  0.16996093098E+04 0.  0.
        1    1    3    3  502    0  0.49644374971E+03 -0.31476254694E+03  0.12548505204E+04  0.13857062048E+04  0.50400001928E-02 0. -1.
       -1    1    3    3    0  502 -0.49644374971E+03  0.31476254694E+03 -0.19257986273E+03  0.61856192992E+03  0.50400001928E-02 0.  1.
</event>
<event>
 5   0  0.2966258E-05  0.1700012E+04  0.7818609E-02  0.8761358E-01
       -1   -1    0    0    0  501  0.00000000000E+00  0.00000000000E+00  0.85805109892E+03  0.85805109893E+03  0.50400001928E-02 0.  1.
        1   -1    0    0  501    0  0.00000000000E+00  0.00000000000E+00 -0.84203602791E+03  0.84203602793E+03  0.50400001928E-02 0. -1.
    10030    2    1    2    0    0  0.00000000000E+00  0.00000000000E+00  0.16015071007E+02  0.17000871269E+04  0.17000116930E+04 0.  0.
        4    1    3    3  502    0  0.34642239855E+03  0.23521631762E+03  0.74775187777E+03  0.85701206403E+03  0.12699999809E+01 0.  1.
       -4    1    3    3    0  502 -0.34642239855E+03 -0.23521631762E+03 -0.73173680676E+03  0.84307506283E+03  0.12699999809E+01 0. -1.
</event>
<event>
 5   0  0.2987859E-05  0.1698599E+04  0.7818609E-02  0.8762164E-01
       -1   -1    0    0    0  501  0.00000000000E+00  0.00000000000E+00  0.97808385230E+03  0.97808385232E+03  0.50400001928E-02 0. -1.
        1   -1    0    0  501    0  0.00000000000E+00  0.00000000000E+00 -0.73747198948E+03  0.73747198949E+03  0.50400001928E-02 0.  1.
    10030    2    1    2    0    0  0.00000000000E+00  0.00000000000E+00  0.24061186283E+03  0.17155558418E+04  0.16985987689E+04 0.  0.
        5    1    3    3  502    0  0.29302315047E+02 -0.70337689047E+03  0.60011660324E+03  0.92507280968E+03  0.46999998093E+01 0. -1.
       -5    1    3    3    0  502 -0.29302315047E+02  0.70337689047E+03 -0.35950474041E+03  0.79048303213E+03  0.46999998093E+01 0.  1.
</event>
<event>
 5   0  0.2966258E-05  0.1699378E+04  0.7818609E-02  0.8761719E-01
       -1   -1    0    0    0  501  0.00000000000E+00  0.00000000000E+00  0.63354507341E+03  0.63354507343E+03  0.50400001928E-02 0. -1.
        1   -1    0    0  501    0  0.00000000000E+00  0.00000000000E+00 -0.11395736875E+04  0.11395736875E+04  0.50400001928E-02 0.  1.
    10030    2    1    2    0    0  0.00000000000E+00  0.00000000000E+00 -0.50602861406E+03  0.17731187609E+04  0.16993778809E+04 0.  0.
        4    1    3    3  502    0 -0.85979468394E+02 -0.40154352303E+03 -0.10291611614E+04  0.11080631656E+04  0.12699999809E+01 0.  1.
       -4    1    3    3    0  502  0.85979468394E+02  0.40154352303E+03  0.52313254735E+03  0.66505559533E+03  0.12699999809E+01 0. -1.
</event>
<event>
 5   0  0.2911632E-05  0.1703517E+04  0.7818609E-02  0.8759361E-01
       -1   -1    0    0    0  501  0.00000000000E+00  0.00000000000E+00  0.12440550714E+04  0.12440550714E+04  0.50400001928E-02 0. -1.
        1   -1    0    0  501    0  0.00000000000E+00  0.00000000000E+00 -0.58316737373E+03  0.58316737376E+03  0.50400001928E-02 0.  1.
    10030    2    1    2    0    0  0.00000000000E+00  0.00000000000E+00  0.66088769770E+03  0.18272224452E+04  0.17035167493E+04 0.  0.
        1    1    3    3  502    0 -0.26031258272E+03  0.57718904607E+03  0.94153720109E+03  0.11346374472E+04  0.50400001928E-02 0. -1.
       -1    1    3    3    0  502  0.26031258272E+03 -0.57718904607E+03 -0.28064950339E+03  0.69258499796E+03  0.50400001928E-02 0.  1.
</event>
<event>
 5   0  0.5755321E-05  0.1701122E+04  0.7818609E-02  0.8760725E-01
       -2   -1    0    0    0  501  0.00000000000E+00  0.00000000000E+00  0.44464579073E+03  0.44464579074E+03  0.25500000920E-02 0. -1.
        2   -1    0    0  501    0  0.00000000000E+00  0.00000000000E+00 -0.16270346586E+04  0.16270346586E+04  0.25500000920E-02 0.  1.
    10030    2    1    2    0    0  0.00000000000E+00  0.00000000000E+00 -0.11823888679E+04  0.20716804494E+04  0.17011221148E+04 0.  0.
        4    1    3    3  502    0 -0.82906052913E+03  0.74331799134E+02 -0.80417896711E+03  0.11573988083E+04  0.12699999809E+01 0. -1.
       -4    1    3    3    0  502  0.82906052913E+03 -0.74331799134E+02 -0.37820990079E+03  0.91428164111E+03  0.12699999809E+01 0.  1.
</event>
<event>
 5   0  0.2966258E-05  0.1697383E+04  0.7818609E-02  0.8762858E-01
       -1   -1    0    0    0  501  0.00000000000E+00  0.00000000000E+00  0.32895572228E+03  0.32895572232E+03  0.50400001928E-02 0.  1.
        1   -1    0    0  501    0  0.00000000000E+00  0.00000000000E+00 -0.21895874192E+04  0.21895874192E+04  0.50400001928E-02 0. -1.
    10030    2    1    2    0    0  0.00000000000E+00  0.00000000000E+00 -0.18606316969E+04  0.25185431415E+04  0.16973830576E+04 0.  0.
        4    1    3    3  502    0 -0.22447027535E+01 -0.84731104565E+03 -0.10020094749E+04  0.13122368870E+04  0.12699999809E+01 0. -1.
       -4    1    3    3    0  502  0.22447027535E+01  0.84731104565E+03 -0.85862222194E+03  0.12063062545E+04  0.12699999809E+01 0.  1.
</event>
<event>
 5   0  0.2911632E-05  0.1700627E+04  0.7818609E-02  0.8761007E-01
       -1   -1    0    0    0  501  0.00000000000E+00  0.00000000000E+00  0.73274046467E+03  0.73274046469E+03  0.50400001928E-02 0. -1.
        1   -1    0    0  501    0  0.00000000000E+00  0.00000000000E+00 -0.98675213796E+03  0.98675213797E+03  0.50400001928E-02 0.  1.
    10030    2    1    2    0    0  0.00000000000E+00  0.00000000000E+00 -0.25401167329E+03  0.17194926027E+04  0.17006272021E+04 0.  0.
        1    1    3    3  502    0  0.26673117713E+03 -0.48001120055E+03  0.52940856808E+03  0.76277762519E+03  0.50400001928E-02 0. -1.
       -1    1    3    3    0  502 -0.26673117713E+03  0.48001120055E+03 -0.78342024137E+03  0.95671497747E+03  0.50400001928E-02 0.  1.
</event>
<event>
 5   0  0.2993769E-05  0.1699687E+04  0.7818609E-02  0.8761543E-01
        1   -1    0    0  501    0  0.00000000000E+00  0.00000000000E+00  0.63745024070E+03  0.63745024072E+03  0.50400001928E-02 0.  1.
       -1   -1    0    0    0  501  0.00000000000E+00  0.00000000000E+00 -0.11330044730E+04  0.11330044730E+04  0.50400001928E-02 0. -1.
    10030    2    1    2    0    0  0.00000000000E+00  0.00000000000E+00 -0.49555423226E+03  0.17704547137E+04  0.16996869995E+04 0.  0.
        3    1    3    3  502    0 -0.77297875149E+03 -0.26212438584E+03 -0.49433610054E+03  0.95423976778E+03  0.10100000352E+00 0. -1.
       -3    1    3    3    0  502  0.77297875149E+03  0.26212438584E+03 -0.12181317182E+01  0.81621494592E+03  0.10100000352E+00 0.  1.
</event>
<event>
 5   0  0.2993769E-05  0.1699358E+04  0.7818609E-02  0.8761731E-01
        1   -1    0    0  501    0  0.00000000000E+00  0.00000000000E+00  0.82278312968E+03  0.82278312969E+03  0.50400001928E-02 0. -1.
       -1   -1    0    0    0  501  0.00000000000E+00  0.00000000000E+00 -0.87745397264E+03  0.87745397266E+03  0.50400001928E-02 0.  1.
    10030    2    1    2    0    0  0.00000000000E+00  0.00000000000E+00 -0.54670842966E+02  0.17002371024E+04  0.16993579091E+04 0.  0.
        3    1    3    3  502    0  0.49348613008E+03  0.61980207369E+03  0.27985949291E+03  0.84024074949E+03  0.10100000352E+00 0. -1.
       -3    1    3    3    0  502 -0.49348613008E+03 -0.61980207369E+03 -0.33453033588E+03  0.85999635287E+03  0.10100000352E+00 0.  1.
</event>
<event>
 5   0  0.5755321E-05  0.1739848E+04  0.7818609E-02  0.8738958E-01
        2   -1    0    0  501    0  0.00000000000E+00  0.00000000000E+00  0.13469047125E+04  0.13469047125E+04  0.25500000920E-02 0. -1.
       -2   -1    0    0    0  501  0.00000000000E+00  0.00000000000E+00 -0.56185699017E+03  0.56185699018E+03  0.25500000920E-02 0.  1.
    10030    2    1    2    0    0  0.00000000000E+00  0.00000000000E+00  0.78504772237E+03  0.19087617027E+04  0.17398480714E+04 0.  0.
        4    1    3    3  502    0  0.36537837545E+03  0.63745010253E+03 -0.11844261945E+03  0.74422728884E+03  0.12699999809E+01 0.  1.
       -4    1    3    3    0  502 -0.36537837545E+03 -0.63745010253E+03  0.90349034182E+03  0.11645344139E+04  0.12699999809E+01 0. -1.
</event>
<event>
 5   0  0.2967704E-05  0.1647823E+04  0.7818609E-02  0.8791695E-01
        1   -1    0    0  501    0  0.00000000000E+00  0.00000000000E+00  0.11641075917E+04  0.11641075917E+04  0.50400001928E-02 0.  1.
       -1   -1    0    0    0  501  0.00000000000E+00  0.00000000000E+00 -0.58313347028E+03  0.58313347030E+03  0.50400001928E-02 0. -1.
    10030    2    1    2    0    0  0.00000000000E+00  0.00000000000E+00  0.58097412139E+03  0.17472410620E+04  0.16478229271E+04 0.  0.
        2    1    3    3  502    0 -0.78306553810E+03 -0.37740211126E+01  0.18859169440E+02  0.78330169697E+03  0.25500000920E-02 0. -1.
       -2    1    3    3    0  502  0.78306553810E+03  0.37740211126E+01  0.56211495195E+03  0.96393936501E+03  0.25500000920E-02 0.  1.
</event>
<event>
 5   0  0.2966258E-05  0.1711719E+04  0.7818609E-02  0.8754709E-01
        1   -1    0    0  501    0  0.00000000000E+00  0.00000000000E+00  0.15513219110E+04  0.15513219110E+04  0.50400001928E-02 0. -1.
       -1   -1    0    0    0  501  0.00000000000E+00  0.00000000000E+00 -0.47217481590E+03  0.47217481592E+03  0.50400001928E-02 0.  1.
    10030    2    1    2    0    0  0.00000000000E+00  0.00000000000E+00  0.10791470951E+04  0.20234967269E+04  0.17117185958E+04 0.  0.
        4    1    3    3  502    0  0.10187189055E+03 -0.67837974699E+03 -0.65421219057E+02  0.68909978378E+03  0.12699999809E+01 0.  1.
       -4    1    3    3    0  502 -0.10187189055E+03  0.67837974699E+03  0.11445683142E+04  0.13343969432E+04  0.12699999809E+01 0. -1.
</event>
<event>
 5   0  0.5755321E-05  0.1699558E+04  0.7818609E-02  0.8761616E-01
        2   -1    0    0  501    0  0.00000000000E+00  0.00000000000E+00  0.13567674257E+04  0.13567674257E+04  0.25500000920E-02 0.  1.
       -2   -1    0    0    0  501  0.00000000000E+00  0.00000000000E+00 -0.53223897843E+03  0.53223897844E+03  0.25500000920E-02 0. -1.
    10030    2    1    2    0    0  0.00000000000E+00  0.00000000000E+00  0.82452844730E+03  0.18890064042E+04  0.16995581881E+04 0.  0.
        4    1    3    3  502    0  0.27092779288E+03  0.72648743023E+03  0.25739693946E+02  0.77578992001E+03  0.12699999809E+01 0.  1.
       -4    1    3    3    0  502 -0.27092779288E+03 -0.72648743023E+03  0.79878875336E+03  0.11132164842E+04  0.12699999809E+01 0. -1.
</event>
<event>
 5   0  0.5859822E-05  0.1703018E+04  0.7818609E-02  0.8759645E-01
        2   -1    0    0  501    0  0.00000000000E+00  0.00000000000E+00  0.10753053780E+04  0.10753053780E+04  0.25500000920E-02 0. -1.
       -2   -1    0    0    0  501  0.00000000000E+00  0.00000000000E+00 -0.67429017137E+03  0.67429017138E+03  0.25500000920E-02 0.  1.
    10030    2    1    2    0    0  0.00000000000E+00  0.00000000000E+00  0.40101520661E+03  0.17495955494E+04  0.17030183177E+04 0.  0.
        5    1    3    3  502    0 -0.61217379954E+02 -0.73614538057E+03  0.63563381346E+03  0.97453066845E+03  0.46999998093E+01 0.  1.
       -5    1    3    3    0  502  0.61217379954E+02  0.73614538057E+03 -0.23461860685E+03  0.77506488091E+03  0.46999998093E+01 0. -1.
</event>
<event>
 5   0  0.2966258E-05  0.1699259E+04  0.7818609E-02  0.8761787E-01
        1   -1    0    0  501    0  0.00000000000E+00  0.00000000000E+00  0.14901427073E+04  0.14901427073E+04  0.50400001928E-02 0.  1.
       -1   -1    0    0    0  501  0.00000000000E+00  0.00000000000E+00 -0.48443058262E+03  0.48443058265E+03  0.50400001928E-02 0. -1.
    10030    2    1    2    0    0  0.00000000000E+00  0.00000000000E+00  0.10057121247E+04  0.19745732900E+04  0.16992594857E+04 0.  0.
        4    1    3    3  502    0 -0.27107094293E+03  0.86332217956E+02  0.14331517683E+04  0.14611154341E+04  0.12699999809E+01 0.  1.
       -4    1    3    3    0  502  0.27107094293E+03 -0.86332217956E+02 -0.42743964358E+03  0.51345785587E+03  0.12699999809E+01 0. -1.
</event>
<event>
 5   0  0.5755321E-05  0.1699588E+04  0.7818609E-02  0.8761600E-01
        2   -1    0    0  501    0  0.00000000000E+00  0.00000000000E+00  0.17912042279E+04  0.17912042279E+04  0.25500000920E-02 0.  1.
       -2   -1    0    0    0  501  0.00000000000E+00  0.00000000000E+00 -0.40316429795E+03  0.40316429795E+03  0.25500000920E-02 0. -1.
    10030    2    1    2    0    0  0.00000000000E+00  0.00000000000E+00  0.13880399300E+04  0.21943685259E+04  0.16995877089E+04 0.  0.
        4    1    3    3  502    0 -0.10029741069E+03  0.30615245004E+03  0.17093011970E+04  0.17393967599E+04  0.12699999809E+01 0.  1.
       -4    1    3    3    0  502  0.10029741069E+03 -0.30615245004E+03 -0.32126126704E+03  0.45497176600E+03  0.12699999809E+01 0. -1.
</event>
<event>
 5   0  0.5671132E-05  0.1698725E+04  0.7818609E-02  0.8762092E-01
       -2   -1    0    0    0  501  0.00000000000E+00  0.00000000000E+00  0.43815737587E+03  0.43815737587E+03  0.25500000920E-02 0.  1.
        2   -1    0    0  501    0  0.00000000000E+00  0.00000000000E+00 -0.16464789535E+04  0.16464789536E+04  0.25500000920E-02 0. -1.
    10030    2    1    2    0    0  0.00000000000E+00  0.00000000000E+00 -0.12083215777E+04  0.20846363294E+04  0.16987252841E+04 0.  0.
        3    1    3    3  502    0 -0.69348037225E+03 -0.18979134002E+03 -0.49236484791E+02  0.72066637294E+03  0.10100000352E+00 0.  1.
       -3    1    3    3    0  502  0.69348037225E+03  0.18979134002E+03 -0.11590850929E+04  0.13639699565E+04  0.10100000352E+00 0. -1.
</event>
<event>
 5   0  0.2987859E-05  0.1702251E+04  0.7818609E-02  0.8760081E-01
        1   -1    0    0  501    0  0.00000000000E+00  0.00000000000E+00  0.19016503492E+04  0.19016503493E+04  0.50400001928E-02 0.  1.
       -1   -1    0    0    0  501  0.00000000000E+00  0.00000000000E+00 -0.38094012924E+03  0.38094012927E+03  0.50400001928E-02 0. -1.
    10030    2    1    2    0    0  0.00000000000E+00  0.00000000000E+00  0.15207102200E+04  0.22825904785E+04  0.17022513679E+04 0.  0.
        5    1    3    3  502    0 -0.38178296022E+03 -0.67121897810E+03  0.12402856167E+04  0.14610351284E+04  0.46999998093E+01 0. -1.
       -5    1    3    3    0  502  0.38178296022E+03  0.67121897810E+03  0.28042460330E+03  0.82155535018E+03  0.46999998093E+01 0.  1.
</event>
<event>
 5   0  0.5652631E-05  0.1699434E+04  0.7818609E-02  0.8761687E-01
        2   -1    0    0  501    0  0.00000000000E+00  0.00000000000E+00  0.12780047433E+04  0.12780047433E+04  0.25500000920E-02 0.  1.
       -2   -1    0    0    0  501  0.00000000000E+00  0.00000000000E+00 -0.56495778689E+03  0.56495778689E+03  0.25500000920E-02 0. -1.
    10030    2    1    2    0    0  0.00000000000E+00  0.00000000000E+00  0.71304695640E+03  0.18429625302E+04  0.16994337073E+04 0.  0.
        2    1    3    3  502    0 -0.33365008409E+03 -0.71503345027E+03  0.69846893672E+03  0.10537808450E+04  0.25500000920E-02 0.  1.
       -2    1    3    3    0  502  0.33365008409E+03  0.71503345027E+03  0.14578019674E+02  0.78918168522E+03  0.25500000920E-02 0. -1.
</event>
<event>
 5   0  0.2098250E-05  0.1699952E+04  0.7818609E-02  0.8761392E-01
       -3   -1    0    0    0  501  0.00000000000E+00  0.00000000000E+00  0.41735683154E+03  0.41735684376E+03  0.10100000352E+00 0. -1.
        3   -1    0    0  501    0  0.00000000000E+00  0.00000000000E+00 -0.17310351870E+04  0.17310351899E+04  0.10100000352E+00 0.  1.
    10030    2    1    2    0    0  0.00000000000E+00  0.00000000000E+00 -0.13136783554E+04  0.21483920337E+04  0.16999522078E+04 0.  0.
        2    1    3    3  502    0  0.14484207541E+03  0.31087107302E+03  0.32603252556E+03  0.47319896299E+03  0.25500000920E-02 0. -1.
       -2    1    3    3    0  502 -0.14484207541E+03 -0.31087107302E+03 -0.16397108810E+04  0.16751930707E+04  0.25500000920E-02 0.  1.
</event>
<event>
 5   0  0.5652631E-05  0.1699699E+04  0.7818609E-02  0.8761536E-01
        2   -1    0    0  501    0  0.00000000000E+00  0.00000000000E+00  0.10237867060E+04  0.10237867060E+04  0.25500000920E-02 0. -1.
       -2   -1    0    0    0  501  0.00000000000E+00  0.00000000000E+00 -0.70546368226E+03  0.70546368227E+03  0.25500000920E-02 0.  1.
    10030    2    1    2    0    0  0.00000000000E+00  0.00000000000E+00  0.31832302369E+03  0.17292503882E+04  0.16996991963E+04 0.  0.
        2    1    3    3  502    0 -0.81426638395E+03 -0.60058475403E+02 -0.80750940861E+02  0.82046174741E+03  0.25500000920E-02 0.  1.
       -2    1    3    3    0  502  0.81426638395E+03  0.60058475403E+02  0.39907396456E+03  0.90878864082E+03  0.25500000920E-02 0. -1.
</event>
<event>
 5   0  0.2993769E-05  0.1700242E+04  0.7818609E-02  0.8761226E-01
        1   -1    0    0  501    0  0.00000000000E+00  0.00000000000E+00  0.54734546922E+03  0.54734546925E+03  0.50400001928E-02 0.  1.
       -1   -1    0    0    0  501  0.00000000000E+00  0.00000000000E+00 -0.13203833586E+04  0.13203833586E+04  0.50400001928E-02 0. -1.
    10030    2    1    2    0    0  0.00000000000E+00  0.00000000000E+00 -0.77303788940E+03  0.18677288279E+04  0.17002421581E+04 0.  0.
        3    1    3    3  502    0  0.59272034067E+03 -0.19817695241E+03 -0.10195818265E+04  0.11958840319E+04  0.10100000352E+00 0. -1.
       -3    1    3    3    0  502 -0.59272034067E+03  0.19817695241E+03  0.24654393710E+03  0.67184479594E+03  0.10100000352E+00 0.  1.
</event>
<event>
 5   0  0.5671132E-05  0.1701204E+04  0.7818609E-02  0.8760678E-01
        2   -1    0    0  501    0  0.00000000000E+00  0.00000000000E+00  0.10336845124E+04  0.10336845124E+04  0.25500000920E-02 0.  1.
       -2   -1    0    0    0  501  0.00000000000E+00  0.00000000000E+00 -0.69994671170E+03  0.69994671171E+03  0.25500000920E-02 0. -1.
    10030    2    1    2    0    0  0.00000000000E+00  0.00000000000E+00  0.33373780068E+03  0.17336312241E+04  0.17012043680E+04 0.  0.
        3    1    3    3  502    0 -0.74793687795E+03 -0.40343960389E+03  0.12941264653E+03  0.85960498525E+03  0.10100000352E+00 0. -1.
       -3    1    3    3    0  502  0.74793687795E+03  0.40343960389E+03  0.20432515415E+03  0.87402623885E+03  0.10100000352E+00 0.  1.
</event>
<event>
 5   0  0.2966258E-05  0.1702500E+04  0.7818609E-02  0.8759940E-01
        1   -1    0    0  501    0  0.00000000000E+00  0.00000000000E+00  0.11300849473E+04  0.11300849473E+04  0.50400001928E-02 0. -1.
       -1   -1    0    0    0  501  0.00000000000E+00  0.00000000000E+00 -0.64121453706E+03  0.64121453708E+03  0.50400001928E-02 0.  1.
    10030    2    1    2    0    0  0.00000000000E+00  0.00000000000E+00  0.48887041023E+03  0.17712994844E+04  0.17025003922E+04 0.  0.
        4    1    3    3  502    0 -0.52573108042E+03  0.44421667871E+03 -0.27670942980E+03  0.74181624949E+03  0.12699999809E+01 0.  1.
       -4    1    3    3    0  502  0.52573108042E+03 -0.44421667871E+03  0.76557984003E+03  0.10294832349E+04  0.12699999809E+01 0. -1.
</event>
<event>
 5   0  0.2911632E-05  0.1700079E+04  0.7818609E-02  0.8761319E-01
       -1   -1    0    0    0  501  0.00000000000E+00  0.00000000000E+00  0.79310215648E+03  0.79310215650E+03  0.50400001928E-02 0. -1.
        1   -1    0    0  501    0  0.00000000000E+00  0.00000000000E+00 -0.91106423075E+03  0.91106423076E+03  0.50400001928E-02 0.  1.
    10030    2    1    2    0    0  0.00000000000E+00  0.00000000000E+00 -0.11796207426E+03  0.17041663873E+04  0.17000788289E+04 0.  0.
        1    1    3    3  502    0 -0.38887473383E+02  0.67927246076E+03  0.45179654280E+03  0.81672726637E+03  0.50400001928E-02 0. -1.
       -1    1    3    3    0  502  0.38887473383E+02 -0.67927246076E+03 -0.56975861707E+03  0.88743912088E+03  0.50400001928E-02 0.  1.
</event>
<event>
 5   0  0.5652631E-05  0.1701395E+04  0.7818609E-02  0.8760569E-01
       -2   -1    0    0    0  501  0.00000000000E+00  0.00000000000E+00  0.78886084395E+03  0.78886084396E+03  0.25500000920E-02 0. -1.
        2   -1    0    0  501    0  0.00000000000E+00  0.00000000000E+00 -0.91738156621E+03  0.91738156622E+03  0.25500000920E-02 0.  1.
    10030    2    1    2    0    0  0.00000000000E+00  0.00000000000E+00 -0.12852072226E+03  0.17062424102E+04  0.17013951881E+04 0.  0.
        2    1    3    3  502    0  0.52322414726E+02 -0.58885867938E+03 -0.67771727875E+03  0.89932913290E+03  0.25500000920E-02 0.  1.
       -2    1    3    3    0  502 -0.52322414726E+02  0.58885867938E+03  0.54919655649E+03  0.80691327727E+03  0.25500000920E-02 0. -1.
</event>
<event>
 5   0  0.2993769E-05  0.1701715E+04  0.7818609E-02  0.8760387E-01
       -1   -1    0    0    0  501  0.00000000000E+00  0.00000000000E+00  0.65868065513E+03  0.65868065514E+03  0.50400001928E-02 0.  1.
        1   -1    0    0  501    0  0.00000000000E+00  0.00000000000E+00 -0.10991037533E+04  0.10991037534E+04  0.50400001928E-02 0. -1.
    10030    2    1    2    0    0  0.00000000000E+00  0.00000000000E+00 -0.44042309822E+03  0.17577844085E+04  0.17017148766E+04 0.  0.
        3    1    3    3  502    0 -0.21971192089E+03  0.30043921104E+03 -0.10105499440E+04  0.10769160818E+04  0.10100000352E+00 0. -1.
       -3    1    3    3    0  502  0.21971192089E+03 -0.30043921104E+03  0.57012684583E+03  0.68086832666E+03  0.10100000352E+00 0.  1.
</event>
<event>
 5   0  0.5755321E-05  0.1699279E+04  0.7818609E-02  0.8761776E-01
        2   -1    0    0  501    0  0.00000000000E+00  0.00000000000E+00  0.92128200620E+03  0.92128200620E+03  0.25500000920E-02 0. -1.
       -2   -1    0    0    0  501  0.00000000000E+00  0.00000000000E+00 -0.78356834323E+03  0.78356834324E+03  0.25500000920E-02 0.  1.
    10030    2    1    2    0    0  0.00000000000E+00  0.00000000000E+00  0.13771366297E+03  0.17048503494E+04  0.16992791592E+04 0.  0.
        4    1    3    3  502    0  0.29417642816E+03 -0.62862284232E+03 -0.42283089517E+03  0.81270783654E+03  0.12699999809E+01 0.  1.
       -4    1    3    3    0  502 -0.29417642816E+03  0.62862284232E+03  0.56054455813E+03  0.89214251290E+03  0.12699999809E+01 0. -1.
</event>
<event>
 5   0  0.5671132E-05  0.1700839E+04  0.7818609E-02  0.8760886E-01
       -2   -1    0    0    0  501  0.00000000000E+00  0.00000000000E+00  0.41492375788E+03  0.41492375789E+03  0.25500000920E-02 0.  1.
        2   -1    0    0  501    0  0.00000000000E+00  0.00000000000E+00 -0.17430029373E+04  0.17430029373E+04  0.25500000920E-02 0. -1.
    10030    2    1    2    0    0  0.00000000000E+00  0.00000000000E+00 -0.13280791794E+04  0.21579266952E+04  0.17008390033E+04 0.  0.
        3    1    3    3  502    0 -0.10126107377E+02  0.11524469764E+03 -0.17329725904E+04  0.17368298384E+04  0.10100000352E+00 0. -1.
       -3    1    3    3    0  502  0.10126107377E+02 -0.11524469764E+03  0.40489341094E+03  0.42109685680E+03  0.10100000352E+00 0.  1.
</event>
<event>
 5   0  0.5859822E-05  0.1703822E+04  0.7818609E-02  0.8759187E-01
        2   -1    0    0  501    0  0.00000000000E+00  0.00000000000E+00  0.83882151193E+03  0.83882151193E+03  0.25500000920E-02 0.  1.
       -2   -1    0    0    0  501  0.00000000000E+00  0.00000000000E+00 -0.86520482807E+03  0.86520482807E+03  0.25500000920E-02 0. -1.
    10030    2    1    2    0    0  0.00000000000E+00  0.00000000000E+00 -0.26383316143E+02  0.17040263400E+04  0.17038220823E+04 0.  0.
        5    1    3    3  502    0  0.19112840701E+03 -0.61954922071E+03  0.53946759110E+03  0.84345638696E+03  0.46999998093E+01 0.  1.
       -5    1    3    3    0  502 -0.19112840701E+03  0.61954922071E+03 -0.56585090725E+03  0.86056995304E+03  0.46999998093E+01 0. -1.
</event>
<event>
 5   0  0.2966258E-05  0.1702195E+04  0.7818609E-02  0.8760113E-01
        1   -1    0    0  501    0  0.00000000000E+00  0.00000000000E+00  0.38757844805E+03  0.38757844808E+03  0.50400001928E-02 0.  1.
       -1   -1    0    0    0  501  0.00000000000E+00  0.00000000000E+00 -0.18689557212E+04  0.18689557212E+04  0.50400001928E-02 0. -1.
    10030    2    1    2    0    0  0.00000000000E+00  0.00000000000E+00 -0.14813772731E+04  0.22565341693E+04  0.17021950040E+04 0.  0.
        4    1    3    3  502    0  0.60022858383E+02  0.82913538974E+03 -0.49878864492E+03  0.96946375035E+03  0.12699999809E+01 0.  1.
       -4    1    3    3    0  502 -0.60022858383E+02 -0.82913538974E+03 -0.98258862820E+03  0.12870704189E+04  0.12699999809E+01 0. -1.
</event>
<event>
 5   0  0.2993769E-05  0.1697673E+04  0.7818609E-02  0.8762693E-01
       -1   -1    0    0    0  501  0.00000000000E+00  0.00000000000E+00  0.68128604184E+03  0.68128604186E+03  0.50400001928E-02 0.  1.
        1   -1    0    0  501    0  0.00000000000E+00  0.00000000000E+00 -0.10575925379E+04  0.10575925379E+04  0.50400001928E-02 0. -1.
    10030    2    1    2    0    0  0.00000000000E+00  0.00000000000E+00 -0.37630649603E+03  0.17388785797E+04  0.16976725645E+04 0.  0.
        3    1    3    3  502    0  0.16914088915E+03 -0.74659845371E+03  0.18749793040E+03  0.78814552944E+03  0.10100000352E+00 0.  1.
       -3    1    3    3    0  502 -0.16914088915E+03  0.74659845371E+03 -0.56380442644E+03  0.95073305030E+03  0.10100000352E+00 0. -1.
</event>
<event>
 5   0  0.2987859E-05  0.1698669E+04  0.7818609E-02  0.8762124E-01
        1   -1    0    0  501    0  0.00000000000E+00  0.00000000000E+00  0.11157483350E+04  0.11157483350E+04  0.50400001928E-02 0.  1.
       -1   -1    0    0    0  501  0.00000000000E+00  0.00000000000E+00 -0.64653424133E+03  0.64653424135E+03  0.50400001928E-02 0. -1.
    10030    2    1    2    0    0  0.00000000000E+00  0.00000000000E+00  0.46921409365E+03  0.17622825764E+04  0.16986694832E+04 0.  0.
        5    1    3    3  502    0 -0.39428619155E+03 -0.36620891453E+03  0.91631182205E+03  0.10626476439E+04  0.46999998093E+01 0.  1.
       -5    1    3    3    0  502  0.39428619155E+03  0.36620891453E+03 -0.44709772840E+03  0.69963493242E+03  0.46999998093E+01 0. -1.
</event>
<event>
 5   0  0.5755321E-05  0.1702907E+04  0.7818609E-02  0.8759708E-01
        2   -1    0    0  501    0  0.00000000000E+00  0.00000000000E+00  0.11424229843E+04  0.11424229843E+04  0.25500000920E-02 0.  1.
       -2   -1    0    0    0  501  0.00000000000E+00  0.00000000000E+00 -0.63459285377E+03  0.63459285377E+03  0.25500000920E-02 0. -1.
    10030    2    1    2    0    0  0.00000000000E+00  0.00000000000E+00  0.50783013055E+03  0.17770158381E+04  0.17029074688E+04 0.  0.
        4    1    3    3  502    0 -0.67021554244E+03 -0.11025003115E+03 -0.28187658157E+03  0.73539102716E+03  0.12699999809E+01 0. -1.
       -4    1    3    3    0  502  0.67021554244E+03  0.11025003115E+03  0.78970671212E+03  0.10416248109E+04  0.12699999809E+01 0.  1.
</event>
<event>
 5   0  0.5821584E-05  0.1703321E+04  0.7818609E-02  0.8759472E-01
        2   -1    0    0  501    0  0.00000000000E+00  0.00000000000E+00  0.79942996643E+03  0.79942996643E+03  0.25500000920E-02 0. -1.
       -2   -1    0    0    0  501  0.00000000000E+00  0.00000000000E+00 -0.90730401142E+03  0.90730401143E+03  0.25500000920E-02 0.  1.
    10030    2    1    2    0    0  0.00000000000E+00  0.00000000000E+00 -0.10787404499E+03  0.17067339779E+04  0.17033214792E+04 0.  0.
        1    1    3    3  502    0  0.70545577530E+01 -0.60627588551E+03  0.54534631418E+03  0.81548931235E+03  0.50400001928E-02 0. -1.
       -1    1    3    3    0  502 -0.70545577530E+01  0.60627588551E+03 -0.65322035917E+03  0.89124466551E+03  0.50400001928E-02 0.  1.
</event>
<event>
 5   0  0.5859822E-05  0.1695989E+04  0.7818609E-02  0.8763655E-01
        2   -1    0    0  501    0  0.00000000000E+00  0.00000000000E+00  0.99883312035E+03  0.99883312035E+03  0.25500000920E-02 0.  1.
       -2   -1    0    0    0  501  0.00000000000E+00  0.00000000000E+00 -0.71993492571E+03  0.71993492572E+03  0.25500000920E-02 0. -1.
    10030    2    1    2    0    0  0.00000000000E+00  0.00000000000E+00  0.27889819464E+03  0.17187680461E+04  0.16959892079E+04 0.  0.
        5    1    3    3  502    0 -0.11646906628E+03 -0.23514973947E+03 -0.67773852902E+03  0.72678198044E+03  0.46999998093E+01 0. -1.
       -5    1    3    3    0  502  0.11646906628E+03  0.23514973947E+03  0.95663672365E+03  0.99198606563E+03  0.46999998093E+01 0.  1.
</event>
<event>
 5   0  0.5755321E-05  0.1699764E+04  0.7818609E-02  0.8761499E-01
        2   -1    0    0  501    0  0.00000000000E+00  0.00000000000E+00  0.13961120472E+04  0.13961120472E+04  0.25500000920E-02 0.  1.
       -2   -1    0    0    0  501  0.00000000000E+00  0.00000000000E+00 -0.51736487317E+03  0.51736487317E+03  0.25500000920E-02 0. -1.
    10030    2    1    2    0    0  0.00000000000E+00  0.00000000000E+00  0.87874717399E+03  0.19134769203E+04  0.16997639039E+04 0.  0.
        4    1    3    3  502    0 -0.76137077280E+02 -0.43380679933E+03 -0.37886523226E+03  0.58096959542E+03  0.12699999809E+01 0. -1.
       -4    1    3    3    0  502  0.76137077280E+02  0.43380679933E+03  0.12576124063E+04  0.13325073249E+04  0.12699999809E+01 0.  1.
</event>
<event>
 5   0  0.5652631E-05  0.1700713E+04  0.7818609E-02  0.8760958E-01
       -2   -1    0    0    0  501  0.00000000000E+00  0.00000000000E+00  0.68965829960E+03  0.68965829961E+03  0.25500000920E-02 0.  1.
        2   -1    0    0  501    0  0.00000000000E+00  0.00000000000E+00 -0.10484989896E+04  0.10484989896E+04  0.25500000920E-02 0. -1.
    10030    2    1    2    0    0  0.00000000000E+00  0.00000000000E+00 -0.35884068998E+03  0.17381572892E+04  0.17007128274E+04 0.  0.
        2    1    3    3  502    0 -0.16481773222E+03  0.51338509716E+02 -0.10304024163E+04  0.10447629716E+04  0.25500000920E-02 0. -1.
       -2    1    3    3    0  502  0.16481773222E+03 -0.51338509716E+02  0.67156172628E+03  0.69339431757E+03  0.25500000920E-02 0.  1.
</event>
<event>
 5   0  0.5859822E-05  0.1698492E+04  0.7818609E-02  0.8762225E-01
       -2   -1    0    0    0  501  0.00000000000E+00  0.00000000000E+00  0.63546451902E+03  0.63546451903E+03  0.25500000920E-02 0.  1.
        2   -1    0    0  501    0  0.00000000000E+00  0.00000000000E+00 -0.11349468143E+04  0.11349468144E+04  0.25500000920E-02 0. -1.
    10030    2    1    2    0    0  0.00000000000E+00  0.00000000000E+00 -0.49948229533E+03  0.17704113334E+04  0.16984916032E+04 0.  0.
        5    1    3    3  502    0  0.18647487838E+03 -0.17215102239E+03  0.59499914903E+03  0.64688092577E+03  0.46999998093E+01 0.  1.
       -5    1    3    3    0  502 -0.18647487838E+03  0.17215102239E+03 -0.10944814444E+04  0.11235304076E+04  0.46999998093E+01 0. -1.
</event>
<event>
 5   0  0.5859822E-05  0.1700310E+04  0.7818609E-02  0.8761187E-01
       -2   -1    0    0    0  501  0.00000000000E+00  0.00000000000E+00  0.87113538166E+03  0.87113538167E+03  0.25500000920E-02 0. -1.
        2   -1    0    0  501    0  0.00000000000E+00  0.00000000000E+00 -0.82968037793E+03  0.82968037793E+03  0.25500000920E-02 0.  1.
    10030    2    1    2    0    0  0.00000000000E+00  0.00000000000E+00  0.41455003737E+02  0.17008157596E+04  0.17003104807E+04 0.  0.
        5    1    3    3  502    0 -0.61102997382E+03 -0.58968077981E+03 -0.20037420831E+02  0.84941429186E+03  0.46999998093E+01 0. -1.
       -5    1    3    3    0  502  0.61102997382E+03  0.58968077981E+03  0.61492424568E+02  0.85140146774E+03  0.46999998093E+01 0.  1.
</event>
<event>
 5   0  0.2967704E-05  0.1694204E+04  0.7818609E-02  0.8764677E-01
        1   -1    0    0  501    0  0.00000000000E+00  0.00000000000E+00  0.62038044230E+03  0.62038044232E+03  0.50400001928E-02 0.  1.
       -1   -1    0    0    0  501  0.00000000000E+00  0.00000000000E+00 -0.11566802970E+04  0.11566802970E+04  0.50400001928E-02 0. -1.
    10030    2    1    2    0    0  0.00000000000E+00  0.00000000000E+00 -0.53629985468E+03  0.17770607393E+04  0.16942040423E+04 0.  0.
        2    1    3    3  502    0 -0.34075101790E+03  0.77966416850E+02  0.54120308749E+03  0.64427540716E+03  0.25500000920E-02 0.  1.
       -2    1    3    3    0  502  0.34075101790E+03 -0.77966416850E+02 -0.10775029422E+04  0.11327853322E+04  0.25500000920E-02 0. -1.
</event>
<event>
 5   0  0.2967704E-05  0.1705473E+04  0.7818609E-02  0.8758249E-01
        1   -1    0    0  501    0  0.00000000000E+00  0.00000000000E+00  0.12841224954E+04  0.12841224954E+04  0.50400001928E-02 0.  1.
       -1   -1    0    0    0  501  0.00000000000E+00  0.00000000000E+00 -0.56626956982E+03  0.56626956985E+03  0.50400001928E-02 0. -1.
    10030    2    1    2    0    0  0.00000000000E+00  0.00000000000E+00  0.71785292560E+03  0.18503920653E+04  0.17054729469E+04 0.  0.
        2    1    3    3  502    0 -0.40080515588E+03 -0.45553972429E+03 -0.29115099469E+03  0.67300082846E+03  0.25500000920E-02 0. -1.
       -2    1    3    3    0  502  0.40080515588E+03  0.45553972429E+03  0.10090039203E+04  0.11773912368E+04  0.25500000920E-02 0.  1.
</event>
<event>
 5   0  0.2098250E-05  0.1699430E+04  0.7818609E-02  0.8761690E-01
        4   -1    0    0  501    0  0.00000000000E+00  0.00000000000E+00  0.23749656925E+04  0.23749660320E+04  0.12699999809E+01 0. -1.
       -4   -1    0    0    0  501  0.00000000000E+00  0.00000000000E+00 -0.30400916542E+03  0.30401181813E+03  0.12699999809E+01 0.  1.
    10030    2    1    2    0    0  0.00000000000E+00  0.00000000000E+00  0.20709565270E+04  0.26789778502E+04  0.16994297234E+04 0.  0.
        5    1    3    3  502    0  0.83700966739E+03 -0.83167334370E+01  0.12657560129E+04  0.15175027926E+04  0.46999998093E+01 0.  1.
       -5    1    3    3    0  502 -0.83700966739E+03  0.83167334370E+01  0.80520051415E+03  0.11614750576E+04  0.46999998093E+01 0. -1.
</event>
<event>
 5   0  0.2987859E-05  0.1687750E+04  0.7818609E-02  0.8768382E-01
       -1   -1    0    0    0  501  0.00000000000E+00  0.00000000000E+00  0.66521369563E+03  0.66521369565E+03  0.50400001928E-02 0. -1.
        1   -1    0    0  501    0  0.00000000000E+00  0.00000000000E+00 -0.10705208862E+04  0.10705208862E+04  0.50400001928E-02 0.  1.
    10030    2    1    2    0    0  0.00000000000E+00  0.00000000000E+00 -0.40530719054E+03  0.17357345818E+04  0.16877501651E+04 0.  0.
        5    1    3    3  502    0 -0.53804107094E+03 -0.36890169545E+03 -0.75315380184E+03  0.99641326473E+03  0.46999998093E+01 0.  1.
       -5    1    3    3    0  502  0.53804107094E+03  0.36890169545E+03  0.34784661130E+03  0.73932131709E+03  0.46999998093E+01 0. -1.
</event>
<event>
 5   0  0.5671132E-05  0.1700891E+04  0.7818609E-02  0.8760857E-01
        2   -1    0    0  501    0  0.00000000000E+00  0.00000000000E+00  0.15121085687E+04  0.15121085687E+04  0.25500000920E-02 0.  1.
       -2   -1    0    0    0  501  0.00000000000E+00  0.00000000000E+00 -0.47831031598E+03  0.47831031599E+03  0.25500000920E-02 0. -1.
    10030    2    1    2    0    0  0.00000000000E+00  0.00000000000E+00  0.10337982527E+04  0.19904188847E+04  0.17008905048E+04 0.  0.
        3    1    3    3  502    0  0.43329685189E+03  0.51380547751E+03 -0.92869323613E+02  0.67850346503E+03  0.10100000352E+00 0. -1.
       -3    1    3    3    0  502 -0.43329685189E+03 -0.51380547751E+03  0.11266675763E+04  0.13119154197E+04  0.10100000352E+00 0.  1.
</event>
<event>
 5   0  0.2911632E-05  0.1701537E+04  0.7818609E-02  0.8760488E-01
        1   -1    0    0  501    0  0.00000000000E+00  0.00000000000E+00  0.18405877278E+04  0.18405877278E+04  0.50400001928E-02 0. -1.
       -1   -1    0    0    0  501  0.00000000000E+00  0.00000000000E+00 -0.39324767299E+03  0.39324767302E+03  0.50400001928E-02 0.  1.
    10030    2    1    2    0    0  0.00000000000E+00  0.00000000000E+00  0.14473400548E+04  0.22338354008E+04  0.17015367653E+04 0.  0.
        1    1    3    3  502    0 -0.84852643753E+03 -0.26350948701E+01  0.64271188294E+03  0.10644635379E+04  0.50400001928E-02 0.  1.
       -1    1    3    3    0  502  0.84852643753E+03  0.26350948701E+01  0.80462817186E+03  0.11693718630E+04  0.50400001928E-02 0. -1.
</event>
<event>
 5   0  0.2967704E-05  0.1701070E+04  0.7818609E-02  0.8760754E-01
        1   -1    0    0  501    0  0.00000000000E+00  0.00000000000E+00  0.94708267292E+03  0.94708267293E+03  0.50400001928E-02 0. -1.
       -1   -1    0    0    0  501  0.00000000000E+00  0.00000000000E+00 -0.76382973744E+03  0.76382973745E+03  0.50400001928E-02 0.  1.
    10030    2    1    2    0    0  0.00000000000E+00  0.00000000000E+00  0.18325293548E+03  0.17109124104E+04  0.17010701448E+04 0.  0.
        2    1    3    3  502    0  0.22502295784E+02 -0.81303599015E+03 -0.15856171446E+03  0.82865897201E+03  0.25500000920E-02 0.  1.
       -2    1    3    3    0  502 -0.22502295784E+02  0.81303599015E+03  0.34181464994E+03  0.88225343837E+03  0.25500000920E-02 0. -1.
</event>
<event>
 5   0  0.2987859E-05  0.1700720E+04  0.7818609E-02  0.8760954E-01
       -1   -1    0    0    0  501  0.00000000000E+00  0.00000000000E+00  0.58664556376E+03  0.58664556378E+03  0.50400001928E-02 0.  1.
        1   -1    0    0  501    0  0.00000000000E+00  0.00000000000E+00 -0.12326218515E+04  0.12326218515E+04  0.50400001928E-02 0. -1.
    10030    2    1    2    0    0  0.00000000000E+00  0.00000000000E+00 -0.64597628776E+03  0.18192674153E+04  0.17007200134E+04 0.  0.
        5    1    3    3  502    0 -0.21555996361E+03  0.26847633276E+03 -0.11547094448E+04  0.12049571076E+04  0.46999998093E+01 0. -1.
       -5    1    3    3    0  502  0.21555996361E+03 -0.26847633276E+03  0.50873315703E+03  0.61431030776E+03  0.46999998093E+01 0.  1.
</event>
<event>
 5   0  0.5652631E-05  0.1698227E+04  0.7818609E-02  0.8762376E-01
        2   -1    0    0  501    0  0.00000000000E+00  0.00000000000E+00  0.93448728883E+03  0.93448728883E+03  0.25500000920E-02 0. -1.
       -2   -1    0    0    0  501  0.00000000000E+00  0.00000000000E+00 -0.77153927703E+03  0.77153927704E+03  0.25500000920E-02 0.  1.
    10030    2    1    2    0    0  0.00000000000E+00  0.00000000000E+00  0.16294801180E+03  0.17060265659E+04  0.16982268956E+04 0.  0.
        2    1    3    3  502    0 -0.27737861841E+03  0.54975002308E+03 -0.50587325439E+03  0.79691388202E+03  0.25500000920E-02 0.  1.
       -2    1    3    3    0  502  0.27737861841E+03 -0.54975002308E+03  0.66882126619E+03  0.90911268386E+03  0.25500000920E-02 0. -1.
</event>
<event>
 5   0  0.5755321E-05  0.1701261E+04  0.7818609E-02  0.8760645E-01
       -2   -1    0    0    0  501  0.00000000000E+00  0.00000000000E+00  0.44124057142E+03  0.44124057142E+03  0.25500000920E-02 0. -1.
        2   -1    0    0  501    0  0.00000000000E+00  0.00000000000E+00 -0.16398589857E+04  0.16398589857E+04  0.25500000920E-02 0.  1.
    10030    2    1    2    0    0  0.00000000000E+00  0.00000000000E+00 -0.11986184143E+04  0.20810995572E+04  0.17012610804E+04 0.  0.
        4    1    3    3  502    0 -0.47305893205E+03 -0.20489107290E+03  0.22837075170E+03  0.56384387740E+03  0.12699999809E+01 0. -1.
       -4    1    3    3    0  502  0.47305893205E+03  0.20489107290E+03 -0.14269891660E+04  0.15172556798E+04  0.12699999809E+01 0.  1.
</event>
<event>
 5   0  0.2993769E-05  0.1705046E+04  0.7818609E-02  0.8758492E-01
        1   -1    0    0  501    0  0.00000000000E+00  0.00000000000E+00  0.85500083281E+03  0.85500083282E+03  0.50400001928E-02 0. -1.
       -1   -1    0    0    0  501  0.00000000000E+00  0.00000000000E+00 -0.85005242010E+03  0.85005242011E+03  0.50400001928E-02 0.  1.
    10030    2    1    2    0    0  0.00000000000E+00  0.00000000000E+00  0.49484127088E+01  0.17050532529E+04  0.17050460723E+04 0.  0.
        3    1    3    3  502    0 -0.60896356059E+03 -0.37033717963E+03  0.47024671003E+03  0.85388419779E+03  0.10100000352E+00 0. -1.
       -3    1    3    3    0  502  0.60896356059E+03  0.37033717963E+03 -0.46529829732E+03  0.85116905514E+03  0.10100000352E+00 0.  1.
</event>
<event>
 5   0  0.5652631E-05  0.1700150E+04  0.7818609E-02  0.8761279E-01
        2   -1    0    0  501    0  0.00000000000E+00  0.00000000000E+00  0.17151636837E+04  0.17151636837E+04  0.25500000920E-02 0. -1.
       -2   -1    0    0    0  501  0.00000000000E+00  0.00000000000E+00 -0.42131695668E+03  0.42131695669E+03  0.25500000920E-02 0.  1.
    10030    2    1    2    0    0  0.00000000000E+00  0.00000000000E+00  0.12938467270E+04  0.21364806404E+04  0.17001500445E+04 0.  0.
        2    1    3    3  502    0  0.46368697614E+03 -0.55884744569E+03  0.91562107635E+02  0.73191508999E+03  0.25500000920E-02 0.  1.
       -2    1    3    3    0  502 -0.46368697614E+03  0.55884744569E+03  0.12022846194E+04  0.14045655504E+04  0.25500000920E-02 0. -1.
</event>
<event>
 5   0  0.2987859E-05  0.1700586E+04  0.7818609E-02  0.8761030E-01
        1   -1    0    0  501    0  0.00000000000E+00  0.00000000000E+00  0.13201092981E+04  0.13201092981E+04  0.50400001928E-02 0.  1.
       -1   -1    0    0    0  501  0.00000000000E+00  0.00000000000E+00 -0.54768035119E+03  0.54768035121E+03  0.50400001928E-02 0. -1.
    10030    2    1    2    0    0  0.00000000000E+00  0.00000000000E+00  0.77242894691E+03  0.18677896493E+04  0.17005856921E+04 0.  0.
        5    1    3    3  502    0 -0.62843920362E+03  0.42159375200E+03 -0.39586911415E+02  0.75780362754E+03  0.46999998093E+01 0. -1.
       -5    1    3    3    0  502  0.62843920362E+03 -0.42159375200E+03  0.81201585833E+03  0.11099860218E+04  0.46999998093E+01 0.  1.
</event>
<event>
 5   0  0.2966258E-05  0.1701221E+04  0.7818609E-02  0.8760668E-01
        1   -1    0    0  501    0  0.00000000000E+00  0.00000000000E+00  0.12942449309E+04  0.12942449309E+04  0.50400001928E-02 0. -1.
       -1   -1    0    0    0  501  0.00000000000E+00  0.00000000000E+00 -0.55904255582E+03  0.55904255584E+03  0.50400001928E-02 0.  1.
    10030    2    1    2    0    0  0.00000000000E+00  0.00000000000E+00  0.73520237510E+03  0.18532874868E+04  0.17012207312E+04 0.  0.
        4    1    3    3  502    0 -0.19874809290E+03  0.20883429834E+02 -0.53310465989E+03  0.56933216435E+03  0.12699999809E+01 0.  1.
       -4    1    3    3    0  502  0.19874809290E+03 -0.20883429834E+02  0.12683070350E+04  0.12839553224E+04  0.12699999809E+01 0. -1.
</event>
<event>
 5   0  0.2967704E-05  0.1702013E+04  0.7818609E-02  0.8760217E-01
        1   -1    0    0  501    0  0.00000000000E+00  0.00000000000E+00  0.13891221197E+04  0.13891221198E+04  0.50400001928E-02 0. -1.
       -1   -1    0    0    0  501  0.00000000000E+00  0.00000000000E+00 -0.52134523515E+03  0.52134523517E+03  0.50400001928E-02 0.  1.
    10030    2    1    2    0    0  0.00000000000E+00  0.00000000000E+00  0.86777688459E+03  0.19104673549E+04  0.17020131588E+04 0.  0.
        2    1    3    3  502    0  0.50416702840E+03 -0.42344514793E+03 -0.17133489463E+03  0.68032773864E+03  0.25500000920E-02 0.  1.
       -2    1    3    3    0  502 -0.50416702840E+03  0.42344514793E+03  0.10391117792E+04  0.12301396163E+04  0.25500000920E-02 0. -1.
</event>
<event>
 5   0  0.2987859E-05  0.1660680E+04  0.7818609E-02  0.8784113E-01
       -1   -1    0    0    0  501  0.00000000000E+00  0.00000000000E+00  0.65340623243E+03  0.65340623244E+03  0.50400001928E-02 0.  1.
        1   -1    0    0  501    0  0.00000000000E+00  0.00000000000E+00 -0.10551856308E+04  0.10551856308E+04  0.50400001928E-02 0. -1.
    10030    2    1    2    0    0  0.00000000000E+00  0.00000000000E+00 -0.40177939836E+03  0.17085918632E+04  0.16606804239E+04 0.  0.
        5    1    3    3  502    0 -0.38624512230E+01 -0.13334107537E+02  0.65327314154E+03  0.65343752908E+03  0.46999998093E+01 0.  1.
       -5    1    3    3    0  502  0.38624512230E+01  0.13334107537E+02 -0.10550525399E+04  0.10551543342E+04  0.46999998093E+01 0. -1.
</event>
<event>
 5   0  0.2911632E-05  0.1700005E+04  0.7818609E-02  0.8761361E-01
        1   -1    0    0  501    0  0.00000000000E+00  0.00000000000E+00  0.15181660762E+04  0.15181660762E+04  0.50400001928E-02 0. -1.
       -1   -1    0    0    0  501  0.00000000000E+00  0.00000000000E+00 -0.47590608593E+03  0.47590608596E+03  0.50400001928E-02 0.  1.
    10030    2    1    2    0    0  0.00000000000E+00  0.00000000000E+00  0.10422599903E+04  0.19940721622E+04  0.17000052649E+04 0.  0.
        1    1    3    3  502    0 -0.23737734825E+03 -0.80947441532E+03  0.64363561567E+03  0.10610672176E+04  0.50400001928E-02 0.  1.
       -1    1    3    3    0  502  0.23737734825E+03  0.80947441532E+03  0.39862437461E+03  0.93300494456E+03  0.50400001928E-02 0. -1.
</event>
<event>
 5   0  0.5671132E-05  0.1707013E+04  0.7818609E-02  0.8757375E-01
        2   -1    0    0  501    0  0.00000000000E+00  0.00000000000E+00  0.15424611579E+04  0.15424611579E+04  0.25500000920E-02 0. -1.
       -2   -1    0    0    0  501  0.00000000000E+00  0.00000000000E+00 -0.47227975276E+03  0.47227975277E+03  0.25500000920E-02 0.  1.
    10030    2    1    2    0    0  0.00000000000E+00  0.00000000000E+00  0.10701814052E+04  0.20147409107E+04  0.17070127994E+04 0.  0.
        3    1    3    3  502    0  0.21972270120E+03  0.52392908077E+03  0.12868545006E+04  0.14066891139E+04  0.10100000352E+00 0. -1.
       -3    1    3    3    0  502 -0.21972270120E+03 -0.52392908077E+03 -0.21667309548E+03  0.60805179681E+03  0.10100000352E+00 0.  1.
</event>
<event>
 5   0  0.5671132E-05  0.1700759E+04  0.7818609E-02  0.8760932E-01
        2   -1    0    0  501    0  0.00000000000E+00  0.00000000000E+00  0.74092367227E+03  0.74092367227E+03  0.25500000920E-02 0. -1.
       -2   -1    0    0    0  501  0.00000000000E+00  0.00000000000E+00 -0.97600526474E+03  0.97600526474E+03  0.25500000920E-02 0.  1.
    10030    2    1    2    0    0  0.00000000000E+00  0.00000000000E+00 -0.23508159247E+03  0.17169289370E+04  0.17007591304E+04 0.  0.
        3    1    3    3  502    0 -0.30442724748E+03 -0.78809289351E+03 -0.21530697280E+03  0.87185059532E+03  0.10100000352E+00 0. -1.
       -3    1    3    3    0  502  0.30442724748E+03  0.78809289351E+03 -0.19774619667E+02  0.84507834170E+03  0.10100000352E+00 0.  1.
</event>
<event>
 5   0  0.2987859E-05  0.1712357E+04  0.7818609E-02  0.8754348E-01
        1   -1    0    0  501    0  0.00000000000E+00  0.00000000000E+00  0.14112105700E+04  0.14112105700E+04  0.50400001928E-02 0.  1.
       -1   -1    0    0    0  501  0.00000000000E+00  0.00000000000E+00 -0.51944168435E+03  0.51944168438E+03  0.50400001928E-02 0. -1.
    10030    2    1    2    0    0  0.00000000000E+00  0.00000000000E+00  0.89176888568E+03  0.19306522544E+04  0.17123569669E+04 0.  0.
        5    1    3    3  502    0 -0.15980890709E+03 -0.81158919871E+03  0.19680628675E+03  0.85027684830E+03  0.46999998093E+01 0. -1.
       -5    1    3    3    0  502  0.15980890709E+03  0.81158919871E+03  0.69496259893E+03  0.10803754061E+04  0.46999998093E+01 0.  1.
</event>
<event>
 5   0  0.2993769E-05  0.1701433E+04  0.7818609E-02  0.8760548E-01
       -1   -1    0    0    0  501  0.00000000000E+00  0.00000000000E+00  0.62004039610E+03  0.62004039612E+03  0.50400001928E-02 0. -1.
        1   -1    0    0  501    0  0.00000000000E+00  0.00000000000E+00 -0.11672119123E+04  0.11672119123E+04  0.50400001928E-02 0.  1.
    10030    2    1    2    0    0  0.00000000000E+00  0.00000000000E+00 -0.54717151615E+03  0.17872523084E+04  0.17014329683E+04 0.  0.
        3    1    3    3  502    0 -0.61306506180E+03 -0.24859517543E+03  0.28824735112E+03  0.72161962062E+03  0.10100000352E+00 0. -1.
       -3    1    3    3    0  502  0.61306506180E+03  0.24859517543E+03 -0.83541886726E+03  0.10656326878E+04  0.10100000352E+00 0.  1.
</event>
<event>
 5   0  0.2993769E-05  0.1701277E+04  0.7818609E-02  0.8760636E-01
       -1   -1    0    0    0  501  0.00000000000E+00  0.00000000000E+00  0.10666737542E+04  0.10666737542E+04  0.50400001928E-02 0. -1.
        1   -1    0    0  501    0  0.00000000000E+00  0.00000000000E+00 -0.67835722552E+03  0.67835722554E+03  0.50400001928E-02 0.  1.
    10030    2    1    2    0    0  0.00000000000E+00  0.00000000000E+00  0.38831652869E+03  0.17450309798E+04  0.17012769892E+04 0.  0.
        3    1    3    3  502    0 -0.51904858383E+03 -0.22513665987E+03 -0.45738515989E+03  0.72752947891E+03  0.10100000352E+00 0.  1.
       -3    1    3    3    0  502  0.51904858383E+03  0.22513665987E+03  0.84570168858E+03  0.10175015009E+04  0.10100000352E+00 0. -1.
</event>
<event>
 5   0  0.5652631E-05  0.1702678E+04  0.7818609E-02  0.8759839E-01
       -2   -1    0    0    0  501  0.00000000000E+00  0.00000000000E+00  0.30935312722E+03  0.30935312723E+03  0.25500000920E-02 0.  1.
        2   -1    0    0  501    0  0.00000000000E+00  0.00000000000E+00 -0.23428825384E+04  0.23428825384E+04  0.25500000920E-02 0. -1.
    10030    2    1    2    0    0  0.00000000000E+00  0.00000000000E+00 -0.20335294112E+04  0.26522356656E+04  0.17026779378E+04 0.  0.
        2    1    3    3  502    0  0.78159528182E+02 -0.78818525567E+03 -0.53054457994E+03  0.95332180317E+03  0.25500000920E-02 0.  1.
       -2    1    3    3    0  502 -0.78159528182E+02  0.78818525567E+03 -0.15029848312E+04  0.16989138624E+04  0.25500000920E-02 0. -1.
</event>
<event>
 5   0  0.5652631E-05  0.1695924E+04  0.7818609E-02  0.8763693E-01
        2   -1    0    0  501    0  0.00000000000E+00  0.00000000000E+00  0.66563027980E+03  0.66563027980E+03  0.25500000920E-02 0.  1.
       -2   -1    0    0    0  501  0.00000000000E+00  0.00000000000E+00 -0.10802385629E+04  0.10802385629E+04  0.25500000920E-02 0. -1.
    10030    2    1    2    0    0  0.00000000000E+00  0.00000000000E+00 -0.41460828306E+03  0.17458688427E+04  0.16959239333E+04 0.  0.
        2    1    3    3  502    0 -0.32962284216E+03 -0.61063677527E+03  0.29439934176E+03  0.75379006482E+03  0.25500000920E-02 0.  1.
       -2    1    3    3    0  502  0.32962284216E+03  0.61063677527E+03 -0.70900762482E+03  0.99207877784E+03  0.25500000920E-02 0. -1.
</event>
<event>
 5   0  0.2966258E-05  0.1700954E+04  0.7818609E-02  0.8760821E-01
        1   -1    0    0  501    0  0.00000000000E+00  0.00000000000E+00  0.16416067977E+04  0.16416067977E+04  0.50400001928E-02 0. -1.
       -1   -1    0    0    0  501  0.00000000000E+00  0.00000000000E+00 -0.44061148702E+03  0.44061148705E+03  0.50400001928E-02 0.  1.
    10030    2    1    2    0    0  0.00000000000E+00  0.00000000000E+00  0.12009953107E+04  0.20822182847E+04  0.17009536293E+04 0.  0.
        4    1    3    3  502    0 -0.81662165060E+03  0.21500342694E+03  0.72420202757E+03  0.11124601492E+04  0.12699999809E+01 0. -1.
       -4    1    3    3    0  502  0.81662165060E+03 -0.21500342694E+03  0.47679328309E+03  0.96975813558E+03  0.12699999809E+01 0.  1.
</event>
<event>
 5   0  0.5821584E-05  0.1697615E+04  0.7818609E-02  0.8762726E-01
        2   -1    0    0  501    0  0.00000000000E+00  0.00000000000E+00  0.21667535003E+04  0.21667535004E+04  0.25500000920E-02 0. -1.
       -2   -1    0    0    0  501  0.00000000000E+00  0.00000000000E+00 -0.33251304161E+03  0.33251304162E+03  0.25500000920E-02 0.  1.
    10030    2    1    2    0    0  0.00000000000E+00  0.00000000000E+00  0.18342404587E+04  0.24992665420E+04  0.16976145579E+04 0.  0.
        1    1    3    3  502    0  0.92690183068E+02 -0.44622818366E+03  0.19713413481E+04  0.20233382744E+04  0.50400001928E-02 0. -1.
       -1    1    3    3    0  502 -0.92690183068E+02  0.44622818366E+03 -0.13710088940E+03  0.47592826752E+03  0.50400001928E-02 0.  1.
</event>
<event>
 5   0  0.2098250E-05  0.1704857E+04  0.7818609E-02  0.8758599E-01
        3   -1    0    0  501    0  0.00000000000E+00  0.00000000000E+00  0.72255175350E+03  0.72255176056E+03  0.10100000352E+00 0.  1.
       -3   -1    0    0    0  501  0.00000000000E+00  0.00000000000E+00 -0.10056502958E+04  0.10056503009E+04  0.10100000352E+00 0. -1.
    10030    2    1    2    0    0  0.00000000000E+00  0.00000000000E+00 -0.28309854233E+03  0.17282020615E+04  0.17048570558E+04 0.  0.
        5    1    3    3  502    0 -0.32641525773E+03 -0.83788532191E+02  0.65214396194E+03  0.73408533271E+03  0.46999998093E+01 0.  1.
       -5    1    3    3    0  502  0.32641525773E+03  0.83788532191E+02 -0.93524250427E+03  0.99411672876E+03  0.46999998093E+01 0. -1.
</event>
<event>
 5   0  0.5859822E-05  0.1699445E+04  0.7818609E-02  0.8761681E-01
       -2   -1    0    0    0  501  0.00000000000E+00  0.00000000000E+00  0.83957232867E+03  0.83957232867E+03  0.25500000920E-02 0. -1.
        2   -1    0    0  501    0  0.00000000000E+00  0.00000000000E+00 -0.85999498851E+03  0.85999498851E+03  0.25500000920E-02 0.  1.
    10030    2    1    2    0    0  0.00000000000E+00  0.00000000000E+00 -0.20422659845E+02  0.16995673172E+04  0.16994446095E+04 0.  0.
        5    1    3    3  502    0 -0.42457378841E+03 -0.55067285170E+03  0.47819102156E+03  0.84391482657E+03  0.46999998093E+01 0. -1.
       -5    1    3    3    0  502  0.42457378841E+03  0.55067285170E+03 -0.49861368140E+03  0.85565249061E+03  0.46999998093E+01 0.  1.
</event>
<event>
 5   0  0.5859822E-05  0.1699950E+04  0.7818609E-02  0.8761393E-01
       -2   -1    0    0    0  501  0.00000000000E+00  0.00000000000E+00  0.86952986904E+03  0.86952986904E+03  0.25500000920E-02 0. -1.
        2   -1    0    0  501    0  0.00000000000E+00  0.00000000000E+00 -0.83086003698E+03  0.83086003698E+03  0.25500000920E-02 0.  1.
    10030    2    1    2    0    0  0.00000000000E+00  0.00000000000E+00  0.38669832061E+02  0.17003899060E+04  0.16999501394E+04 0.  0.
        5    1    3    3  502    0  0.68102119478E+03 -0.31823694302E+03 -0.37746773240E+03  0.84117096874E+03  0.46999998093E+01 0.  1.
       -5    1    3    3    0  502 -0.68102119478E+03  0.31823694302E+03  0.41613756446E+03  0.85921893729E+03  0.46999998093E+01 0. -1.
</event>
<event>
 5   0  0.5652631E-05  0.1688424E+04  0.7818609E-02  0.8767994E-01
       -2   -1    0    0    0  501  0.00000000000E+00  0.00000000000E+00  0.70979197252E+03  0.70979197253E+03  0.25500000920E-02 0.  1.
        2   -1    0    0  501    0  0.00000000000E+00  0.00000000000E+00 -0.10040881356E+04  0.10040881357E+04  0.25500000920E-02 0. -1.
    10030    2    1    2    0    0  0.00000000000E+00  0.00000000000E+00 -0.29429616312E+03  0.17138801082E+04  0.16884237601E+04 0.  0.
        2    1    3    3  502    0  0.27652020352E+03 -0.75065559220E+03  0.12663392837E+03  0.80992801709E+03  0.25500000920E-02 0.  1.
       -2    1    3    3    0  502 -0.27652020352E+03  0.75065559220E+03 -0.42093009149E+03  0.90395209109E+03  0.25500000920E-02 0. -1.
</event>
<event>
 5   0  0.2987859E-05  0.1699058E+04  0.7818609E-02  0.8761902E-01
        1   -1    0    0  501    0  0.00000000000E+00  0.00000000000E+00  0.97422217138E+03  0.97422217139E+03  0.50400001928E-02 0. -1.
       -1   -1    0    0    0  501  0.00000000000E+00  0.00000000000E+00 -0.74079567084E+03  0.74079567085E+03  0.50400001928E-02 0.  1.
    10030    2    1    2    0    0  0.00000000000E+00  0.00000000000E+00  0.23342650054E+03  0.17150178422E+04  0.16990580532E+04 0.  0.
        5    1    3    3  502    0  0.68088341518E+03  0.19095096964E+03 -0.35846660460E+03  0.79283345949E+03  0.46999998093E+01 0.  1.
       -5    1    3    3    0  502 -0.68088341518E+03 -0.19095096964E+03  0.59189310514E+03  0.92218438275E+03  0.46999998093E+01 0. -1.
</event>
<event>
 5   0  0.5671132E-05  0.1696948E+04  0.7818609E-02  0.8763107E-01
       -2   -1    0    0    0  501  0.00000000000E+00  0.00000000000E+00  0.11736991733E+04  0.11736991733E+04  0.25500000920E-02 0. -1.
        2   -1    0    0  501    0  0.00000000000E+00  0.00000000000E+00 -0.61336717718E+03  0.61336717719E+03  0.25500000920E-02 0.  1.
    10030    2    1    2    0    0  0.00000000000E+00  0.00000000000E+00  0.56033199614E+03  0.17870663505E+04  0.16969484952E+04 0.  0.
        3    1    3    3  502    0  0.82029993054E+03 -0.18414790883E+03  0.15960441982E+03  0.85573127172E+03  0.10100000352E+00 0. -1.
       -3    1    3    3    0  502 -0.82029993054E+03  0.18414790883E+03  0.40072757632E+03  0.93133507880E+03  0.10100000352E+00 0.  1.
</event>
<event>
 5   0  0.2993769E-05  0.1699956E+04  0.7818609E-02  0.8761389E-01
        1   -1    0    0  501    0  0.00000000000E+00  0.00000000000E+00  0.42911616974E+03  0.42911616977E+03  0.50400001928E-02 0.  1.
       -1   -1    0    0    0  501  0.00000000000E+00  0.00000000000E+00 -0.16836063382E+04  0.16836063382E+04  0.50400001928E-02 0. -1.
    10030    2    1    2    0    0  0.00000000000E+00  0.00000000000E+00 -0.12544901684E+04  0.21127225079E+04  0.16999561209E+04 0.  0.
        3    1    3    3  502    0 -0.24441054476E+03  0.31382472582E+03  0.30630316257E+03  0.50203994914E+03  0.10100000352E+00 0.  1.
       -3    1    3    3    0  502  0.24441054476E+03 -0.31382472582E+03 -0.15607933310E+04  0.16106825588E+04  0.10100000352E+00 0. -1.
</event>
<event>
 5   0  0.5755321E-05  0.1700612E+04  0.7818609E-02  0.8761016E-01
        2   -1    0    0  501    0  0.00000000000E+00  0.00000000000E+00  0.16762532744E+04  0.16762532744E+04  0.25500000920E-02 0. -1.
       -2   -1    0    0    0  501  0.00000000000E+00  0.00000000000E+00 -0.43133093937E+03  0.43133093937E+03  0.25500000920E-02 0.  1.
    10030    2    1    2    0    0  0.00000000000E+00  0.00000000000E+00  0.12449223350E+04  0.21075842138E+04  0.17006115364E+04 0.  0.
        4    1    3    3  502    0 -0.43467646158E+03 -0.45404819453E+03 -0.87215275927E+02  0.63459554558E+03  0.12699999809E+01 0.  1.
       -4    1    3    3    0  502  0.43467646158E+03  0.45404819453E+03  0.13321376110E+04  0.14729886682E+04  0.12699999809E+01 0. -1.
</event>
<event>
 5   0  0.2967704E-05  0.1700459E+04  0.7818609E-02  0.8761102E-01
       -1   -1    0    0    0  501  0.00000000000E+00  0.00000000000E+00  0.30162239726E+03  0.30162239730E+03  0.50400001928E-02 0.  1.
        1   -1    0    0  501    0  0.00000000000E+00  0.00000000000E+00 -0.23966734856E+04  0.23966734856E+04  0.50400001928E-02 0. -1.
    10030    2    1    2    0    0  0.00000000000E+00  0.00000000000E+00 -0.20950510883E+04  0.26982958829E+04  0.17004592347E+04 0.  0.
        2    1    3    3  502    0 -0.38960294161E+03 -0.44938015018E+03 -0.20116412396E+04  0.20977210130E+04  0.25500000920E-02 0. -1.
       -2    1    3    3    0  502  0.38960294161E+03  0.44938015018E+03 -0.83409848734E+02  0.60057486991E+03  0.25500000920E-02 0.  1.
</event>
<event>
 5   0  0.2911632E-05  0.1701334E+04  0.7818609E-02  0.8760604E-01
       -1   -1    0    0    0  501  0.00000000000E+00  0.00000000000E+00  0.78730568992E+03  0.78730568994E+03  0.50400001928E-02 0. -1.
        1   -1    0    0  501    0  0.00000000000E+00  0.00000000000E+00 -0.91912749320E+03  0.91912749321E+03  0.50400001928E-02 0.  1.
    10030    2    1    2    0    0  0.00000000000E+00  0.00000000000E+00 -0.13182180327E+03  0.17064331831E+04  0.17013339533E+04 0.  0.
        1    1    3    3  502    0  0.36155646963E+03  0.24726990760E+02 -0.83782773474E+03  0.91284709450E+03  0.50400001928E-02 0.  1.
       -1    1    3    3    0  502 -0.36155646963E+03 -0.24726990760E+02  0.70600593147E+03  0.79358608865E+03  0.50400001928E-02 0. -1.
</event>
<event>
 5   0  0.5859822E-05  0.1705981E+04  0.7818609E-02  0.8757960E-01
        2   -1    0    0  501    0  0.00000000000E+00  0.00000000000E+00  0.95735649905E+03  0.95735649905E+03  0.25500000920E-02 0. -1.
       -2   -1    0    0    0  501  0.00000000000E+00  0.00000000000E+00 -0.76000216120E+03  0.76000216120E+03  0.25500000920E-02 0.  1.
    10030    2    1    2    0    0  0.00000000000E+00  0.00000000000E+00  0.19735433785E+03  0.17173586603E+04  0.17059812523E+04 0.  0.
        5    1    3    3  502    0  0.39131270028E+03 -0.11303807652E+03 -0.65576589145E+03  0.77198071902E+03  0.46999998093E+01 0.  1.
       -5    1    3    3    0  502 -0.39131270028E+03  0.11303807652E+03  0.85312022930E+03  0.94537794124E+03  0.46999998093E+01 0. -1.
</event>
<event>
 5   0  0.2987859E-05  0.1697616E+04  0.7818609E-02  0.8762725E-01
       -1   -1    0    0    0  501  0.00000000000E+00  0.00000000000E+00  0.67378663645E+03  0.67378663647E+03  0.50400001928E-02 0.  1.
        1   -1    0    0  501    0  0.00000000000E+00  0.00000000000E+00 -0.10692930572E+04  0.10692930572E+04  0.50400001928E-02 0. -1.
    10030    2    1    2    0    0  0.00000000000E+00  0.00000000000E+00 -0.39550642074E+03  0.17430796937E+04  0.16976164142E+04 0.  0.
        5    1    3    3  502    0  0.63562130018E+03  0.20199094323E+03 -0.73682625948E+03  0.99385602833E+03  0.46999998093E+01 0. -1.
       -5    1    3    3    0  502 -0.63562130018E+03 -0.20199094323E+03  0.34131983874E+03  0.74922366534E+03  0.46999998093E+01 0.  1.
</event>
<event>
 5   0  0.5671132E-05  0.1701098E+04  0.7818609E-02  0.8760738E-01
       -2   -1    0    0    0  501  0.00000000000E+00  0.00000000000E+00  0.35039539667E+03  0.35039539668E+03  0.25500000920E-02 0.  1.
        2   -1    0    0  501    0  0.00000000000E+00  0.00000000000E+00 -0.20646203975E+04  0.20646203975E+04  0.25500000920E-02 0. -1.
    10030    2    1    2    0    0  0.00000000000E+00  0.00000000000E+00 -0.17142250008E+04  0.24150157942E+04  0.17010978610E+04 0.  0.
        3    1    3    3  502    0 -0.41539924802E+03  0.22080727002E+03 -0.18631053808E+04  0.19215811344E+04  0.10100000352E+00 0. -1.
       -3    1    3    3    0  502  0.41539924802E+03 -0.22080727002E+03  0.14888037999E+03  0.49343465980E+03  0.10100000352E+00 0.  1.
</event>
<event>
 5   0  0.5821584E-05  0.1697713E+04  0.7818609E-02  0.8762670E-01
       -2   -1    0    0    0  501  0.00000000000E+00  0.00000000000E+00  0.44617825883E+03  0.44617825884E+03  0.25500000920E-02 0. -1.
        2   -1    0    0  501    0  0.00000000000E+00  0.00000000000E+00 -0.16149540039E+04  0.16149540039E+04  0.25500000920E-02 0.  1.
    10030    2    1    2    0    0  0.00000000000E+00  0.00000000000E+00 -0.11687757450E+04  0.20611322627E+04  0.16977130094E+04 0.  0.
        1    1    3    3  502    0  0.17921760944E+03 -0.72416563497E+03 -0.10760801198E+04  0.13093827716E+04  0.50400001928E-02 0.  1.
       -1    1    3    3    0  502 -0.17921760944E+03  0.72416563497E+03 -0.92695625275E+02  0.75174949110E+03  0.50400001928E-02 0. -1.
</event>
<event>
 5   0  0.2967704E-05  0.1695206E+04  0.7818609E-02  0.8764103E-01
       -1   -1    0    0    0  501  0.00000000000E+00  0.00000000000E+00  0.81671230698E+03  0.81671230699E+03  0.50400001928E-02 0.  1.
        1   -1    0    0  501    0  0.00000000000E+00  0.00000000000E+00 -0.87966242893E+03  0.87966242894E+03  0.50400001928E-02 0. -1.
    10030    2    1    2    0    0  0.00000000000E+00  0.00000000000E+00 -0.62950121952E+02  0.16963747359E+04  0.16952063376E+04 0.  0.
        2    1    3    3  502    0  0.76787570934E+03  0.24800408716E+03  0.22811074694E+03  0.83855449740E+03  0.25500000920E-02 0.  1.
       -2    1    3    3    0  502 -0.76787570934E+03 -0.24800408716E+03 -0.29106086889E+03  0.85782023854E+03  0.25500000920E-02 0. -1.
</event>
<event>
 5   0  0.2967704E-05  0.1696053E+04  0.7818609E-02  0.8763618E-01
        1   -1    0    0  501    0  0.00000000000E+00  0.00000000000E+00  0.15837909656E+04  0.15837909656E+04  0.50400001928E-02 0. -1.
       -1   -1    0    0    0  501  0.00000000000E+00  0.00000000000E+00 -0.45406829124E+03  0.45406829127E+03  0.50400001928E-02 0.  1.
    10030    2    1    2    0    0  0.00000000000E+00  0.00000000000E+00  0.11297226744E+04  0.20378592569E+04  0.16960533688E+04 0.  0.
        2    1    3    3  502    0 -0.51205461598E+03  0.67488109223E+03  0.51856204350E+03  0.99326281083E+03  0.25500000920E-02 0. -1.
       -2    1    3    3    0  502  0.51205461598E+03 -0.67488109223E+03  0.61116063086E+03  0.10445964461E+04  0.25500000920E-02 0.  1.
</event>
<event>
 5   0  0.5671132E-05  0.1698625E+04  0.7818609E-02  0.8762149E-01
       -2   -1    0    0    0  501  0.00000000000E+00  0.00000000000E+00  0.42378536580E+03  0.42378536581E+03  0.25500000920E-02 0. -1.
        2   -1    0    0  501    0  0.00000000000E+00  0.00000000000E+00 -0.17021153197E+04  0.17021153197E+04  0.25500000920E-02 0.  1.
    10030    2    1    2    0    0  0.00000000000E+00  0.00000000000E+00 -0.12783299539E+04  0.21259006856E+04  0.16986248125E+04 0.  0.
        3    1    3    3  502    0  0.30182056061E+03  0.47430338687E+03 -0.14359091850E+04  0.15420423313E+04  0.10100000352E+00 0.  1.
       -3    1    3    3    0  502 -0.30182056061E+03 -0.47430338687E+03  0.15757923107E+03  0.58385835429E+03  0.10100000352E+00 0. -1.
</event>
<event>
 5   0  0.5671132E-05  0.1702604E+04  0.7818609E-02  0.8759881E-01
        2   -1    0    0  501    0  0.00000000000E+00  0.00000000000E+00  0.13449564728E+04  0.13449564728E+04  0.25500000920E-02 0.  1.
       -2   -1    0    0    0  501  0.00000000000E+00  0.00000000000E+00 -0.53883898385E+03  0.53883898386E+03  0.25500000920E-02 0. -1.
    10030    2    1    2    0    0  0.00000000000E+00  0.00000000000E+00  0.80611748893E+03  0.18837954566E+04  0.17026038637E+04 0.  0.
        3    1    3    3  502    0  0.25982497507E+03 -0.59775329683E+03 -0.20284851115E+03  0.68261669349E+03  0.10100000352E+00 0. -1.
       -3    1    3    3    0  502 -0.25982497507E+03  0.59775329683E+03  0.10089660001E+04  0.12011787632E+04  0.10100000352E+00 0.  1.
</event>
<event>
 5   0  0.2966258E-05  0.1699736E+04  0.7818609E-02  0.8761515E-01
        1   -1    0    0  501    0  0.00000000000E+00  0.00000000000E+00  0.13727160105E+04  0.13727160105E+04  0.50400001928E-02 0.  1.
       -1   -1    0    0    0  501  0.00000000000E+00  0.00000000000E+00 -0.52616555247E+03  0.52616555249E+03  0.50400001928E-02 0. -1.
    10030    2    1    2    0    0  0.00000000000E+00  0.00000000000E+00  0.84655045803E+03  0.18988815630E+04  0.16997363067E+04 0.  0.
        4    1    3    3  502    0 -0.11849002809E+03 -0.73771507183E+03  0.87570650338E+03  0.11511415668E+04  0.12699999809E+01 0.  1.
       -4    1    3    3    0  502  0.11849002809E+03  0.73771507183E+03 -0.29156045354E+02  0.74773999615E+03  0.12699999809E+01 0. -1.
</event>
<event>
 5   0  0.2966258E-05  0.1699593E+04  0.7818609E-02  0.8761597E-01
       -1   -1    0    0    0  501  0.00000000000E+00  0.00000000000E+00  0.60921747908E+03  0.60921747910E+03  0.50400001928E-02 0.  1.
        1   -1    0    0  501    0  0.00000000000E+00  0.00000000000E+00 -0.11853794577E+04  0.11853794577E+04  0.50400001928E-02 0. -1.
    10030    2    1    2    0    0  0.00000000000E+00  0.00000000000E+00 -0.57616197859E+03  0.17945969368E+04  0.16995927571E+04 0.  0.
        4    1    3    3  502    0  0.13687734410E+02  0.52658410129E+03  0.41603299353E+03  0.67124007211E+03  0.12699999809E+01 0.  1.
       -4    1    3    3    0  502 -0.13687734410E+02 -0.52658410129E+03 -0.99219497212E+03  0.11233568647E+04  0.12699999809E+01 0. -1.
</event>
<event>
 5   0  0.2911632E-05  0.1702791E+04  0.7818609E-02  0.8759774E-01
       -1   -1    0    0    0  501  0.00000000000E+00  0.00000000000E+00  0.33722691922E+03  0.33722691926E+03  0.50400001928E-02 0.  1.
        1   -1    0    0  501    0  0.00000000000E+00  0.00000000000E+00 -0.21495154027E+04  0.21495154027E+04  0.50400001928E-02 0. -1.
    10030    2    1    2    0    0  0.00000000000E+00  0.00000000000E+00 -0.18122884834E+04  0.24867423219E+04  0.17027911876E+04 0.  0.
        1    1    3    3  502    0 -0.32158363843E+03 -0.37331802368E+03  0.10784742853E+03  0.50439414269E+03  0.50400001928E-02 0.  1.
       -1    1    3    3    0  502  0.32158363843E+03  0.37331802368E+03 -0.19201359120E+04  0.19823481792E+04  0.50400001928E-02 0. -1.
</event>
<event>
 5   0  0.2911632E-05  0.1698084E+04  0.7818609E-02  0.8762458E-01
       -1   -1    0    0    0  501  0.00000000000E+00  0.00000000000E+00  0.45910884209E+03  0.45910884212E+03  0.50400001928E-02 0. -1.
        1   -1    0    0  501    0  0.00000000000E+00  0.00000000000E+00 -0.15701547240E+04  0.15701547240E+04  0.50400001928E-02 0.  1.
    10030    2    1    2    0    0  0.00000000000E+00  0.00000000000E+00 -0.11110458819E+04  0.20292635661E+04  0.16980835283E+04 0.  0.
        1    1    3    3  502    0 -0.37525596121E+03 -0.54901721257E+03 -0.11863309928E+04  0.13600066767E+04  0.50400001928E-02 0.  1.
       -1    1    3    3    0  502  0.37525596121E+03  0.54901721257E+03  0.75285110898E+02  0.66925688944E+03  0.50400001928E-02 0. -1.
</event>
<event>
 5   0  0.2967704E-05  0.1700698E+04  0.7818609E-02  0.8760966E-01
        1   -1    0    0  501    0  0.00000000000E+00  0.00000000000E+00  0.12367604325E+04  0.12367604325E+04  0.50400001928E-02 0. -1.
       -1   -1    0    0    0  501  0.00000000000E+00  0.00000000000E+00 -0.58466743972E+03  0.58466743974E+03  0.50400001928E-02 0.  1.
    10030    2    1    2    0    0  0.00000000000E+00  0.00000000000E+00  0.65209299278E+03  0.18214278723E+04  0.17006981574E+04 0.  0.
        2    1    3    3  502    0  0.23773690281E+03  0.30680793196E+03  0.11363563016E+04  0.12008145511E+04  0.25500000920E-02 0. -1.
       -2    1    3    3    0  502 -0.23773690281E+03 -0.30680793196E+03 -0.48426330881E+03  0.62061332111E+03  0.25500000920E-02 0.  1.
</event>
<event>
 5   0  0.2987859E-05  0.1704244E+04  0.7818609E-02  0.8758947E-01
       -1   -1    0    0    0  501  0.00000000000E+00  0.00000000000E+00  0.37552528688E+03  0.37552528692E+03  0.50400001928E-02 0. -1.
        1   -1    0    0  501    0  0.00000000000E+00  0.00000000000E+00 -0.19335904813E+04  0.19335904813E+04  0.50400001928E-02 0.  1.
    10030    2    1    2    0    0  0.00000000000E+00  0.00000000000E+00 -0.15580651944E+04  0.23091157682E+04  0.17042442551E+04 0.  0.
        5    1    3    3  502    0 -0.51574714268E+03  0.45283473331E+03 -0.94783412976E+02  0.69286390889E+03  0.46999998093E+01 0. -1.
       -5    1    3    3    0  502  0.51574714268E+03 -0.45283473331E+03 -0.14632817814E+04  0.16162518593E+04  0.46999998093E+01 0.  1.
</event>
<event>
 5   0  0.2967704E-05  0.1703583E+04  0.7818609E-02  0.8759324E-01
        1   -1    0    0  501    0  0.00000000000E+00  0.00000000000E+00  0.20789911133E+04  0.20789911133E+04  0.50400001928E-02 0. -1.
       -1   -1    0    0    0  501  0.00000000000E+00  0.00000000000E+00 -0.34899063477E+03  0.34899063481E+03  0.50400001928E-02 0.  1.
    10030    2    1    2    0    0  0.00000000000E+00  0.00000000000E+00  0.17300004785E+04  0.24279817481E+04  0.17035826113E+04 0.  0.
        2    1    3    3  502    0 -0.71564736943E+03  0.75814659150E+02  0.15144530015E+04  0.16767429480E+04  0.25500000920E-02 0. -1.
       -2    1    3    3    0  502  0.71564736943E+03 -0.75814659150E+02  0.21554747699E+03  0.75123880008E+03  0.25500000920E-02 0.  1.
</event>
<event>
 5   0  0.5821584E-05  0.1691193E+04  0.7818609E-02  0.8766404E-01
       -2   -1    0    0    0  501  0.00000000000E+00  0.00000000000E+00  0.80965025504E+03  0.80965025504E+03  0.25500000920E-02 0.  1.
        2   -1    0    0  501    0  0.00000000000E+00  0.00000000000E+00 -0.88313827377E+03  0.88313827377E+03  0.25500000920E-02 0. -1.
    10030    2    1    2    0    0  0.00000000000E+00  0.00000000000E+00 -0.73488018734E+02  0.16927885288E+04  0.16911926308E+04 0.  0.
        1    1    3    3  502    0  0.33903626517E+03 -0.38516044589E+03  0.63600552932E+03  0.81718858995E+03  0.50400001928E-02 0.  1.
       -1    1    3    3    0  502 -0.33903626517E+03  0.38516044589E+03 -0.70949354806E+03  0.87559993887E+03  0.50400001928E-02 0. -1.
</event>
<event>
 5   0  0.5821584E-05  0.1700283E+04  0.7818609E-02  0.8761203E-01
        2   -1    0    0  501    0  0.00000000000E+00  0.00000000000E+00  0.22025784650E+04  0.22025784650E+04  0.25500000920E-02 0.  1.
       -2   -1    0    0    0  501  0.00000000000E+00  0.00000000000E+00 -0.32813376452E+03  0.32813376453E+03  0.25500000920E-02 0. -1.
    10030    2    1    2    0    0  0.00000000000E+00  0.00000000000E+00  0.18744447005E+04  0.25307122296E+04  0.17002827570E+04 0.  0.
        1    1    3    3  502    0 -0.12077863819E+03 -0.13590981355E+03 -0.29885563644E+03  0.34981945103E+03  0.50400001928E-02 0. -1.
       -1    1    3    3    0  502  0.12077863819E+03  0.13590981355E+03  0.21733003369E+04  0.21808927785E+04  0.50400001928E-02 0.  1.
</event>
<event>
 5   0  0.5652631E-05  0.1699437E+04  0.7818609E-02  0.8761685E-01
        2   -1    0    0  501    0  0.00000000000E+00  0.00000000000E+00  0.26194178968E+04  0.26194178968E+04  0.25500000920E-02 0. -1.
       -2   -1    0    0    0  501  0.00000000000E+00  0.00000000000E+00 -0.27564213504E+03  0.27564213505E+03  0.25500000920E-02 0.  1.
    10030    2    1    2    0    0  0.00000000000E+00  0.00000000000E+00  0.23437757617E+04  0.28950600318E+04  0.16994374853E+04 0.  0.
        2    1    3    3  502    0 -0.39281339371E+03  0.52259405696E+03  0.24723265100E+03  0.69894985111E+03  0.25500000920E-02 0.  1.
       -2    1    3    3    0  502  0.39281339371E+03 -0.52259405696E+03  0.20965431107E+04  0.21961101807E+04  0.25500000920E-02 0. -1.
</event>
<event>
 5   0  0.2966258E-05  0.1701795E+04  0.7818609E-02  0.8760341E-01
       -1   -1    0    0    0  501  0.00000000000E+00  0.00000000000E+00  0.69381064062E+03  0.69381064064E+03  0.50400001928E-02 0. -1.
        1   -1    0    0  501    0  0.00000000000E+00  0.00000000000E+00 -0.10435502941E+04  0.10435502941E+04  0.50400001928E-02 0.  1.
    10030    2    1    2    0    0  0.00000000000E+00  0.00000000000E+00 -0.34973965348E+03  0.17373609348E+04  0.17017946975E+04 0.  0.
        4    1    3    3  502    0 -0.44805152082E+03  0.72005969926E+03 -0.24551538661E+03  0.88290178037E+03  0.12699999809E+01 0. -1.
       -4    1    3    3    0  502  0.44805152082E+03 -0.72005969926E+03 -0.10422426687E+03  0.85445915439E+03  0.12699999809E+01 0.  1.
</event>
<event>
 5   0  0.2966258E-05  0.1695687E+04  0.7818609E-02  0.8763828E-01
       -1   -1    0    0    0  501  0.00000000000E+00  0.00000000000E+00  0.70706344412E+03  0.70706344413E+03  0.50400001928E-02 0.  1.
        1   -1    0    0  501    0  0.00000000000E+00  0.00000000000E+00 -0.10166539530E+04  0.10166539530E+04  0.50400001928E-02 0. -1.
    10030    2    1    2    0    0  0.00000000000E+00  0.00000000000E+00 -0.30959050892E+03  0.17237173972E+04  0.16956872890E+04 0.  0.
        4    1    3    3  502    0 -0.61207641383E+03 -0.75867031627E+02  0.43658066887E+03  0.75564385539E+03  0.12699999809E+01 0.  1.
       -4    1    3    3    0  502  0.61207641383E+03  0.75867031627E+02 -0.74617117779E+03  0.96807354180E+03  0.12699999809E+01 0. -1.
</event>
<event>
 5   0  0.2911632E-05  0.1700668E+04  0.7818609E-02  0.8760983E-01
        1   -1    0    0  501    0  0.00000000000E+00  0.00000000000E+00  0.10569550516E+04  0.10569550516E+04  0.50400001928E-02 0. -1.
       -1   -1    0    0    0  501  0.00000000000E+00  0.00000000000E+00 -0.68410503329E+03  0.68410503331E+03  0.50400001928E-02 0.  1.
    10030    2    1    2    0    0  0.00000000000E+00  0.00000000000E+00  0.37285001826E+03  0.17410600849E+04  0.17006684224E+04 0.  0.
        1    1    3    3  502    0  0.77094134184E+03  0.23808272032E+03  0.46119157842E+03  0.92937161906E+03  0.50400001928E-02 0. -1.
       -1    1    3    3    0  502 -0.77094134184E+03 -0.23808272032E+03 -0.88341560151E+02  0.81168846583E+03  0.50400001928E-02 0.  1.
</event>
<event>
 5   0  0.2967704E-05  0.1699054E+04  0.7818609E-02  0.8761904E-01
       -1   -1    0    0    0  501  0.00000000000E+00  0.00000000000E+00  0.56455544995E+03  0.56455544997E+03  0.50400001928E-02 0. -1.
        1   -1    0    0  501    0  0.00000000000E+00  0.00000000000E+00 -0.12783437730E+04  0.12783437730E+04  0.50400001928E-02 0.  1.
    10030    2    1    2    0    0  0.00000000000E+00  0.00000000000E+00 -0.71378832302E+03  0.18428992230E+04  0.16990537884E+04 0.  0.
        2    1    3    3  502    0 -0.39864600053E+03  0.68623052206E+03 -0.68564695616E+03  0.10487815367E+04  0.25500000920E-02 0.  1.
       -2    1    3    3    0  502  0.39864600053E+03 -0.68623052206E+03 -0.28141366861E+02  0.79411768629E+03  0.25500000920E-02 0. -1.
</event>
<event>
 5   0  0.2967704E-05  0.1697187E+04  0.7818609E-02  0.8762970E-01
        1   -1    0    0  501    0  0.00000000000E+00  0.00000000000E+00  0.11732549300E+04  0.11732549300E+04  0.50400001928E-02 0. -1.
       -1   -1    0    0    0  501  0.00000000000E+00  0.00000000000E+00 -0.61377212833E+03  0.61377212835E+03  0.50400001928E-02 0.  1.
    10030    2    1    2    0    0  0.00000000000E+00  0.00000000000E+00  0.55948280169E+03  0.17870270584E+04  0.16971872914E+04 0.  0.
        2    1    3    3  502    0 -0.34511876239E+03 -0.71612511897E+03  0.59239208773E+03  0.99139827102E+03  0.25500000920E-02 0. -1.
       -2    1    3    3    0  502  0.34511876239E+03  0.71612511897E+03 -0.32909286040E+02  0.79562878736E+03  0.25500000920E-02 0.  1.
</event>
<event>
 5   0  0.5671132E-05  0.1700303E+04  0.7818609E-02  0.8761192E-01
        2   -1    0    0  501    0  0.00000000000E+00  0.00000000000E+00  0.94855783264E+03  0.94855783264E+03  0.25500000920E-02 0. -1.
       -2   -1    0    0    0  501  0.00000000000E+00  0.00000000000E+00 -0.76195380836E+03  0.76195380837E+03  0.25500000920E-02 0.  1.
    10030    2    1    2    0    0  0.00000000000E+00  0.00000000000E+00  0.18660402427E+03  0.17105116410E+04  0.17003026237E+04 0.  0.
        3    1    3    3  502    0  0.48324964941E+03  0.66672555606E+03 -0.11940081108E+03  0.83205153365E+03  0.10100000352E+00 0.  1.
       -3    1    3    3    0  502 -0.48324964941E+03 -0.66672555606E+03  0.30600483535E+03  0.87846010736E+03  0.10100000352E+00 0. -1.
</event>
<event>
 5   0  0.5821584E-05  0.1694853E+04  0.7818609E-02  0.8764305E-01
       -2   -1    0    0    0  501  0.00000000000E+00  0.00000000000E+00  0.99789182168E+03  0.99789182168E+03  0.25500000920E-02 0. -1.
        2   -1    0    0  501    0  0.00000000000E+00  0.00000000000E+00 -0.71964894558E+03  0.71964894559E+03  0.25500000920E-02 0.  1.
    10030    2    1    2    0    0  0.00000000000E+00  0.00000000000E+00  0.27824287609E+03  0.17175407673E+04  0.16948531468E+04 0.  0.
        1    1    3    3  502    0  0.16116586352E+03 -0.69496794344E+03 -0.32435948308E+03  0.78368613122E+03  0.50400001928E-02 0.  1.
       -1    1    3    3    0  502 -0.16116586352E+03  0.69496794344E+03  0.60260235917E+03  0.93385463605E+03  0.50400001928E-02 0. -1.
</event>
<event>
 5   0  0.5671132E-05  0.1697999E+04  0.7818609E-02  0.8762506E-01
       -2   -1    0    0    0  501  0.00000000000E+00  0.00000000000E+00  0.63609887345E+03  0.63609887346E+03  0.25500000920E-02 0.  1.
        2   -1    0    0  501    0  0.00000000000E+00  0.00000000000E+00 -0.11331575794E+04  0.11331575794E+04  0.25500000920E-02 0. -1.
    10030    2    1    2    0    0  0.00000000000E+00  0.00000000000E+00 -0.49705870595E+03  0.17692564529E+04  0.16979991280E+04 0.  0.
        3    1    3    3  502    0  0.35743342805E+03  0.21824774920E+03 -0.10180400831E+04  0.11008162229E+04  0.10100000352E+00 0. -1.
       -3    1    3    3    0  502 -0.35743342805E+03 -0.21824774920E+03  0.52098137716E+03  0.66844022999E+03  0.10100000352E+00 0.  1.
</event>
<event>
 5   0  0.2911632E-05  0.1700315E+04  0.7818609E-02  0.8761185E-01
       -1   -1    0    0    0  501  0.00000000000E+00  0.00000000000E+00  0.46523719179E+03  0.46523719182E+03  0.50400001928E-02 0.  1.
        1   -1    0    0  501    0  0.00000000000E+00  0.00000000000E+00 -0.15535467309E+04  0.15535467309E+04  0.50400001928E-02 0. -1.
    10030    2    1    2    0    0  0.00000000000E+00  0.00000000000E+00 -0.10883095391E+04  0.20187839227E+04  0.17003149337E+04 0.  0.
        1    1    3    3  502    0 -0.27617971114E+03 -0.42062367437E+03  0.26944311728E+03  0.57078814087E+03  0.50400001928E-02 0.  1.
       -1    1    3    3    0  502  0.27617971114E+03  0.42062367437E+03 -0.13577526564E+04  0.14479957818E+04  0.50400001928E-02 0. -1.
</event>
<event>
 5   0  0.5652631E-05  0.1704268E+04  0.7818609E-02  0.8758934E-01
        2   -1    0    0  501    0  0.00000000000E+00  0.00000000000E+00  0.48690802688E+03  0.48690802688E+03  0.25500000920E-02 0.  1.
       -2   -1    0    0    0  501  0.00000000000E+00  0.00000000000E+00 -0.14913135689E+04  0.14913135689E+04  0.25500000920E-02 0. -1.
    10030    2    1    2    0    0  0.00000000000E+00  0.00000000000E+00 -0.10044055420E+04  0.19782215958E+04  0.17042682269E+04 0.  0.
        2    1    3    3  502    0 -0.38221827565E+03 -0.68753744239E+03 -0.88248466935E+03  0.11821919204E+04  0.25500000920E-02 0. -1.
       -2    1    3    3    0  502  0.38221827565E+03  0.68753744239E+03 -0.12192087265E+03  0.79602967540E+03  0.25500000920E-02 0.  1.
</event>
<event>
 5   0  0.5652631E-05  0.1701396E+04  0.7818609E-02  0.8760569E-01
       -2   -1    0    0    0  501  0.00000000000E+00  0.00000000000E+00  0.74169448555E+03  0.74169448555E+03  0.25500000920E-02 0.  1.
        2   -1    0    0  501    0  0.00000000000E+00  0.00000000000E+00 -0.97572107739E+03  0.97572107740E+03  0.25500000920E-02 0. -1.
    10030    2    1    2    0    0  0.00000000000E+00  0.00000000000E+00 -0.23402659184E+03  0.17174155630E+04  0.17013958300E+04 0.  0.
        2    1    3    3  502    0 -0.31852963241E+03  0.78331462549E+03 -0.23164707784E+02  0.84591934185E+03  0.25500000920E-02 0. -1.
       -2    1    3    3    0  502  0.31852963241E+03 -0.78331462549E+03 -0.21086188406E+03  0.87149622110E+03  0.25500000920E-02 0.  1.
</event>
<event>
 5   0  0.2911632E-05  0.1699270E+04  0.7818609E-02  0.8761781E-01
        1   -1    0    0  501    0  0.00000000000E+00  0.00000000000E+00  0.13833113345E+04  0.13833113345E+04  0.50400001928E-02 0. -1.
       -1   -1    0    0    0  501  0.00000000000E+00  0.00000000000E+00 -0.52184883590E+03  0.52184883593E+03  0.50400001928E-02 0.  1.
    10030    2    1    2    0    0  0.00000000000E+00  0.00000000000E+00  0.86146249862E+03  0.19051601705E+04  0.16992697368E+04 0.  0.
        1    1    3    3  502    0  0.64036002988E+03  0.45077253066E+03  0.61218691578E+02  0.78549638477E+03  0.50400001928E-02 0.  1.
       -1    1    3    3    0  502 -0.64036002988E+03 -0.45077253066E+03  0.80024380704E+03  0.11196637857E+04  0.50400001928E-02 0. -1.
</event>
<event>
 5   0  0.2966258E-05  0.1700358E+04  0.7818609E-02  0.8761160E-01
       -1   -1    0    0    0  501  0.00000000000E+00  0.00000000000E+00  0.70605678641E+03  0.70605678642E+03  0.50400001928E-02 0.  1.
        1   -1    0    0  501    0  0.00000000000E+00  0.00000000000E+00 -0.10237198178E+04  0.10237198178E+04  0.50400001928E-02 0. -1.
    10030    2    1    2    0    0  0.00000000000E+00  0.00000000000E+00 -0.31766303136E+03  0.17297766042E+04  0.17003579914E+04 0.  0.
        4    1    3    3  502    0  0.66355058188E+03 -0.19577614881E+03 -0.66152155837E+03  0.95720429389E+03  0.12699999809E+01 0. -1.
       -4    1    3    3    0  502 -0.66355058188E+03  0.19577614881E+03  0.34385852702E+03  0.77257231031E+03  0.12699999809E+01 0.  1.
</event>
<event>
 5   0  0.2987859E-05  0.1713175E+04  0.7818609E-02  0.8753886E-01
        1   -1    0    0  501    0  0.00000000000E+00  0.00000000000E+00  0.57880442934E+03  0.57880442936E+03  0.50400001928E-02 0. -1.
       -1   -1    0    0    0  501  0.00000000000E+00  0.00000000000E+00 -0.12676861201E+04  0.12676861202E+04  0.50400001928E-02 0.  1.
    10030    2    1    2    0    0  0.00000000000E+00  0.00000000000E+00 -0.68888169080E+03  0.18464905495E+04  0.17131752291E+04 0.  0.
        5    1    3    3  502    0  0.34702536812E+03 -0.53705039087E+03 -0.95876905271E+03  0.11524365123E+04  0.46999998093E+01 0. -1.
       -5    1    3    3    0  502 -0.34702536812E+03  0.53705039087E+03  0.26988736191E+03  0.69405403721E+03  0.46999998093E+01 0.  1.
</event>
<event>
 5   0  0.5755321E-05  0.1704258E+04  0.7818609E-02  0.8758940E-01
       -2   -1    0    0    0  501  0.00000000000E+00  0.00000000000E+00  0.48670332148E+03  0.48670332148E+03  0.25500000920E-02 0.  1.
        2   -1    0    0  501    0  0.00000000000E+00  0.00000000000E+00 -0.14919224661E+04  0.14919224661E+04  0.25500000920E-02 0. -1.
    10030    2    1    2    0    0  0.00000000000E+00  0.00000000000E+00 -0.10052191446E+04  0.19786257876E+04  0.17042577501E+04 0.  0.
        4    1    3    3  502    0 -0.94186252956E+01 -0.69934753945E+02  0.48330414875E+03  0.48843023393E+03  0.12699999809E+01 0.  1.
       -4    1    3    3    0  502  0.94186252956E+01  0.69934753945E+02 -0.14885232934E+04  0.14901955537E+04  0.12699999809E+01 0. -1.
</event>
<event>
 5   0  0.2987859E-05  0.1709208E+04  0.7818609E-02  0.8756130E-01
        1   -1    0    0  501    0  0.00000000000E+00  0.00000000000E+00  0.75483496192E+03  0.75483496193E+03  0.50400001928E-02 0. -1.
       -1   -1    0    0    0  501  0.00000000000E+00  0.00000000000E+00 -0.96756035422E+03  0.96756035423E+03  0.50400001928E-02 0.  1.
    10030    2    1    2    0    0  0.00000000000E+00  0.00000000000E+00 -0.21272539230E+03  0.17223953162E+04  0.17092084521E+04 0.  0.
        5    1    3    3  502    0 -0.38117624952E+03  0.17023039697E+03 -0.85780515597E+03  0.95400497738E+03  0.46999998093E+01 0.  1.
       -5    1    3    3    0  502  0.38117624952E+03 -0.17023039697E+03  0.64507976367E+03  0.76839033879E+03  0.46999998093E+01 0. -1.
</event>
<event>
 5   0  0.5821584E-05  0.1697673E+04  0.7818609E-02  0.8762693E-01
       -2   -1    0    0    0  501  0.00000000000E+00  0.00000000000E+00  0.46789417167E+03  0.46789417167E+03  0.25500000920E-02 0.  1.
        2   -1    0    0  501    0  0.00000000000E+00  0.00000000000E+00 -0.15399282188E+04  0.15399282188E+04  0.25500000920E-02 0. -1.
    10030    2    1    2    0    0  0.00000000000E+00  0.00000000000E+00 -0.10720340471E+04  0.20078223905E+04  0.16976730408E+04 0.  0.
        1    1    3    3  502    0  0.15154279157E+03  0.44251843544E+03  0.30172195556E+03  0.55661829100E+03  0.50400001928E-02 0.  1.
       -1    1    3    3    0  502 -0.15154279157E+03 -0.44251843544E+03 -0.13737560027E+04  0.14512040995E+04  0.50400001928E-02 0. -1.
</event>
<event>
 5   0  0.2987859E-05  0.1701388E+04  0.7818609E-02  0.8760573E-01
       -1   -1    0    0    0  501  0.00000000000E+00  0.00000000000E+00  0.56617146303E+03  0.56617146305E+03  0.50400001928E-02 0. -1.
        1   -1    0    0  501    0  0.00000000000E+00  0.00000000000E+00 -0.12781995331E+04  0.12781995331E+04  0.50400001928E-02 0.  1.
    10030    2    1    2    0    0  0.00000000000E+00  0.00000000000E+00 -0.71202807007E+03  0.18443709962E+04  0.17013877862E+04 0.  0.
        5    1    3    3  502    0 -0.65001537235E+03 -0.31277260798E+03 -0.84480790925E+03  0.11108866648E+04  0.46999998093E+01 0.  1.
       -5    1    3    3    0  502  0.65001537235E+03  0.31277260798E+03  0.13277983918E+03  0.73348433131E+03  0.46999998093E+01 0. -1.
</event>
<event>
 5   0  0.2993769E-05  0.1697504E+04  0.7818609E-02  0.8762789E-01
        1   -1    0    0  501    0  0.00000000000E+00  0.00000000000E+00  0.10301724729E+04  0.10301724729E+04  0.50400001928E-02 0. -1.
       -1   -1    0    0    0  501  0.00000000000E+00  0.00000000000E+00 -0.69928107995E+03  0.69928107997E+03  0.50400001928E-02 0.  1.
    10030    2    1    2    0    0  0.00000000000E+00  0.00000000000E+00  0.33089139296E+03  0.17294535529E+04  0.16975041908E+04 0.  0.
        3    1    3    3  502    0  0.17906495981E+03  0.80215768448E+03 -0.50339849547E+02  0.82344114621E+03  0.10100000352E+00 0.  1.
       -3    1    3    3    0  502 -0.17906495981E+03 -0.80215768448E+03  0.38123124250E+03  0.90601240669E+03  0.10100000352E+00 0. -1.
</event>
<event>
 5   0  0.2993769E-05  0.1685933E+04  0.7818609E-02  0.8769428E-01
       -1   -1    0    0    0  501  0.00000000000E+00  0.00000000000E+00  0.56705777672E+03  0.56705777674E+03  0.50400001928E-02 0. -1.
        1   -1    0    0  501    0  0.00000000000E+00  0.00000000000E+00 -0.12531221600E+04  0.12531221600E+04  0.50400001928E-02 0.  1.
    10030    2    1    2    0    0  0.00000000000E+00  0.00000000000E+00 -0.68606438331E+03  0.18201799368E+04  0.16859331731E+04 0.  0.
        3    1    3    3  502    0  0.36855753158E+03  0.14628762128E+03 -0.11461458970E+04  0.12128005400E+04  0.10100000352E+00 0.  1.
       -3    1    3    3    0  502 -0.36855753158E+03 -0.14628762128E+03  0.46008151372E+03  0.60737939683E+03  0.10100000352E+00 0. -1.
</event>
<event>
 5   0  0.2987859E-05  0.1704875E+04  0.7818609E-02  0.8758589E-01
       -1   -1    0    0    0  501  0.00000000000E+00  0.00000000000E+00  0.57483543869E+03  0.57483543871E+03  0.50400001928E-02 0.  1.
        1   -1    0    0  501    0  0.00000000000E+00  0.00000000000E+00 -0.12640996317E+04  0.12640996317E+04  0.50400001928E-02 0. -1.
    10030    2    1    2    0    0  0.00000000000E+00  0.00000000000E+00 -0.68926419297E+03  0.18389350704E+04  0.17048745014E+04 0.  0.
        5    1    3    3  502    0  0.82728074255E+03  0.19043282982E+03 -0.42796718911E+03  0.95070294763E+03  0.46999998093E+01 0.  1.
       -5    1    3    3    0  502 -0.82728074255E+03 -0.19043282982E+03 -0.26129700386E+03  0.88823212276E+03  0.46999998093E+01 0. -1.
</event>
<event>
 5   0  0.5755321E-05  0.1692011E+04  0.7818609E-02  0.8765934E-01
        2   -1    0    0  501    0  0.00000000000E+00  0.00000000000E+00  0.83799361488E+03  0.83799361488E+03  0.25500000920E-02 0.  1.
       -2   -1    0    0    0  501  0.00000000000E+00  0.00000000000E+00 -0.85409433454E+03  0.85409433454E+03  0.25500000920E-02 0. -1.
    10030    2    1    2    0    0  0.00000000000E+00  0.00000000000E+00 -0.16100719657E+02  0.16920879494E+04  0.16920113461E+04 0.  0.
        4    1    3    3  502    0  0.44226207265E+03  0.61626659033E+03 -0.38269211229E+03  0.84960880231E+03  0.12699999809E+01 0. -1.
       -4    1    3    3    0  502 -0.44226207265E+03 -0.61626659033E+03  0.36659139264E+03  0.84247914711E+03  0.12699999809E+01 0.  1.
</event>
<event>
 5   0  0.5671132E-05  0.1706731E+04  0.7818609E-02  0.8757535E-01
       -2   -1    0    0    0  501  0.00000000000E+00  0.00000000000E+00  0.66760460975E+03  0.66760460976E+03  0.25500000920E-02 0. -1.
        2   -1    0    0  501    0  0.00000000000E+00  0.00000000000E+00 -0.10908146354E+04  0.10908146354E+04  0.25500000920E-02 0.  1.
    10030    2    1    2    0    0  0.00000000000E+00  0.00000000000E+00 -0.42321002568E+03  0.17584192452E+04  0.17067312372E+04 0.  0.
        3    1    3    3  502    0 -0.34712160350E+03  0.77216252254E+03 -0.32211236292E+03  0.90580613454E+03  0.10100000352E+00 0.  1.
       -3    1    3    3    0  502  0.34712160350E+03 -0.77216252254E+03 -0.10109766276E+03  0.85261311064E+03  0.10100000352E+00 0. -1.
</event>
<event>
 5   0  0.5652631E-05  0.1696842E+04  0.7818609E-02  0.8763168E-01
        2   -1    0    0  501    0  0.00000000000E+00  0.00000000000E+00  0.63078892121E+03  0.63078892122E+03  0.25500000920E-02 0. -1.
       -2   -1    0    0    0  501  0.00000000000E+00  0.00000000000E+00 -0.11411391114E+04  0.11411391114E+04  0.25500000920E-02 0.  1.
    10030    2    1    2    0    0  0.00000000000E+00  0.00000000000E+00 -0.51035019021E+03  0.17719280326E+04  0.16968416650E+04 0.  0.
        2    1    3    3  502    0  0.22358617992E+03 -0.78567325240E+03 -0.49454474932E+03  0.95490719365E+03  0.25500000920E-02 0.  1.
       -2    1    3    3    0  502 -0.22358617992E+03  0.78567325240E+03 -0.15805440898E+02  0.81702083900E+03  0.25500000920E-02 0. -1.
</event>
<event>
 5   0  0.5821584E-05  0.1700194E+04  0.7818609E-02  0.8761254E-01
       -2   -1    0    0    0  501  0.00000000000E+00  0.00000000000E+00  0.44691477088E+03  0.44691477088E+03  0.25500000920E-02 0.  1.
        2   -1    0    0  501    0  0.00000000000E+00  0.00000000000E+00 -0.16170090505E+04  0.16170090505E+04  0.25500000920E-02 0. -1.
    10030    2    1    2    0    0  0.00000000000E+00  0.00000000000E+00 -0.11700942796E+04  0.20639238213E+04  0.17001943763E+04 0.  0.
        1    1    3    3  502    0  0.67570616315E+03 -0.56483075501E+02 -0.12074722965E+04  0.13848315795E+04  0.50400001928E-02 0. -1.
       -1    1    3    3    0  502 -0.67570616315E+03  0.56483075501E+02  0.37378016944E+02  0.67909224183E+03  0.50400001928E-02 0.  1.
</event>
<event>
 5   0  0.5859822E-05  0.1697267E+04  0.7818609E-02  0.8762925E-01
       -2   -1    0    0    0  501  0.00000000000E+00  0.00000000000E+00  0.53491591342E+03  0.53491591343E+03  0.25500000920E-02 0. -1.
        2   -1    0    0  501    0  0.00000000000E+00  0.00000000000E+00 -0.13463394934E+04  0.13463394934E+04  0.25500000920E-02 0.  1.
    10030    2    1    2    0    0  0.00000000000E+00  0.00000000000E+00 -0.81142357998E+03  0.18812554068E+04  0.16972665317E+04 0.  0.
        5    1    3    3  502    0 -0.15016429330E+03 -0.23910602842E+03  0.48131217199E+03  0.55803629337E+03  0.46999998093E+01 0. -1.
       -5    1    3    3    0  502  0.15016429330E+03  0.23910602842E+03 -0.12927357520E+04  0.13232191135E+04  0.46999998093E+01 0.  1.
</event>
<event>
 5   0  0.5671132E-05  0.1699650E+04  0.7818609E-02  0.8761564E-01
        2   -1    0    0  501    0  0.00000000000E+00  0.00000000000E+00  0.11780133276E+04  0.11780133276E+04  0.25500000920E-02 0. -1.
       -2   -1    0    0    0  501  0.00000000000E+00  0.00000000000E+00 -0.61306791046E+03  0.61306791047E+03  0.25500000920E-02 0.  1.
    10030    2    1    2    0    0  0.00000000000E+00  0.00000000000E+00  0.56494541715E+03  0.17910812381E+04  0.16996495748E+04 0.  0.
        3    1    3    3  502    0  0.11796060669E+03 -0.26927964233E+03  0.11227215747E+04  0.11605731235E+04  0.10100000352E+00 0. -1.
       -3    1    3    3    0  502 -0.11796060669E+03  0.26927964233E+03 -0.55777615751E+03  0.63050811461E+03  0.10100000352E+00 0.  1.
</event>
<event>
 5   0  0.2911632E-05  0.1702854E+04  0.7818609E-02  0.8759739E-01
        1   -1    0    0  501    0  0.00000000000E+00  0.00000000000E+00  0.13580892967E+04  0.13580892967E+04  0.50400001928E-02 0. -1.
       -1   -1    0    0    0  501  0.00000000000E+00  0.00000000000E+00 -0.53378493793E+03  0.53378493795E+03  0.50400001928E-02 0.  1.
    10030    2    1    2    0    0  0.00000000000E+00  0.00000000000E+00  0.82430435878E+03  0.18918742347E+04  0.17028536179E+04 0.  0.
        1    1    3    3  502    0  0.75795687279E+03  0.31429245246E+03  0.15966058084E+03  0.83592455867E+03  0.50400001928E-02 0.  1.
       -1    1    3    3    0  502 -0.75795687279E+03 -0.31429245246E+03  0.66464377794E+03  0.10559496760E+04  0.50400001928E-02 0. -1.
</event>
<event>
 5   0  0.2993769E-05  0.1678619E+04  0.7818609E-02  0.8773653E-01
        1   -1    0    0  501    0  0.00000000000E+00  0.00000000000E+00  0.20473738214E+04  0.20473738214E+04  0.50400001928E-02 0. -1.
       -1   -1    0    0    0  501  0.00000000000E+00  0.00000000000E+00 -0.34407033225E+03  0.34407033229E+03  0.50400001928E-02 0.  1.
    10030    2    1    2    0    0  0.00000000000E+00  0.00000000000E+00  0.17033034891E+04  0.23914441537E+04  0.16786191838E+04 0.  0.
        3    1    3    3  502    0  0.53707577548E+03 -0.62475016713E+03  0.62336338819E+03  0.10331239441E+04  0.10100000352E+00 0.  1.
       -3    1    3    3    0  502 -0.53707577548E+03  0.62475016713E+03  0.10799401009E+04  0.13583202096E+04  0.10100000352E+00 0. -1.
</event>
<event>
 5   0  0.2987859E-05  0.1704362E+04  0.7818609E-02  0.8758880E-01
       -1   -1    0    0    0  501  0.00000000000E+00  0.00000000000E+00  0.46706235757E+03  0.46706235760E+03  0.50400001928E-02 0.  1.
        1   -1    0    0  501    0  0.00000000000E+00  0.00000000000E+00 -0.15548519144E+04  0.15548519144E+04  0.50400001928E-02 0. -1.
    10030    2    1    2    0    0  0.00000000000E+00  0.00000000000E+00 -0.10877895568E+04  0.20219142720E+04  0.17043624038E+04 0.  0.
        5    1    3    3  502    0  0.56489631834E+03 -0.32777785371E+03 -0.11932823548E+04  0.13603275488E+04  0.46999998093E+01 0. -1.
       -5    1    3    3    0  502 -0.56489631834E+03  0.32777785371E+03  0.10549279798E+03  0.66158672317E+03  0.46999998093E+01 0.  1.
</event>
<event>
 5   0  0.2993769E-05  0.1699468E+04  0.7818609E-02  0.8761668E-01
       -1   -1    0    0    0  501  0.00000000000E+00  0.00000000000E+00  0.88064536551E+03  0.88064536552E+03  0.50400001928E-02 0. -1.
        1   -1    0    0  501    0  0.00000000000E+00  0.00000000000E+00 -0.81990722666E+03  0.81990722667E+03  0.50400001928E-02 0.  1.
    10030    2    1    2    0    0  0.00000000000E+00  0.00000000000E+00  0.60738138850E+02  0.17005525922E+04  0.16994675629E+04 0.  0.
        3    1    3    3  502    0  0.83573133750E+03  0.21550909305E+02  0.18257199676E+03  0.85571248348E+03  0.10100000352E+00 0.  1.
       -3    1    3    3    0  502 -0.83573133750E+03 -0.21550909305E+02 -0.12183385791E+03  0.84484010872E+03  0.10100000352E+00 0. -1.
</event>
<event>
 5   0  0.5652631E-05  0.1707291E+04  0.7818609E-02  0.8757217E-01
       -2   -1    0    0    0  501  0.00000000000E+00  0.00000000000E+00  0.47215106338E+03  0.47215106339E+03  0.25500000920E-02 0. -1.
        2   -1    0    0  501    0  0.00000000000E+00  0.00000000000E+00 -0.15433842426E+04  0.15433842426E+04  0.25500000920E-02 0.  1.
    10030    2    1    2    0    0  0.00000000000E+00  0.00000000000E+00 -0.10712331792E+04  0.20155353060E+04  0.17072908497E+04 0.  0.
        2    1    3    3  502    0 -0.12698621905E+02  0.58044715240E+03  0.20317352048E+03  0.61510944649E+03  0.25500000920E-02 0. -1.
       -2    1    3    3    0  502  0.12698621905E+02 -0.58044715240E+03 -0.12744066997E+04  0.14004258595E+04  0.25500000920E-02 0.  1.
</event>
<event>
 5   0  0.5671132E-05  0.1717458E+04  0.7818609E-02  0.8751470E-01
       -2   -1    0    0    0  501  0.00000000000E+00  0.00000000000E+00  0.41137283939E+03  0.41137283940E+03  0.25500000920E-02 0.  1.
        2   -1    0    0  501    0  0.00000000000E+00  0.00000000000E+00 -0.17925714058E+04  0.17925714058E+04  0.25500000920E-02 0. -1.
    10030    2    1    2    0    0  0.00000000000E+00  0.00000000000E+00 -0.13811985664E+04  0.22039442452E+04  0.17174576432E+04 0.  0.
        3    1    3    3  502    0 -0.19573662093E+03 -0.12674502694E+03 -0.17511636174E+04  0.17666213945E+04  0.10100000352E+00 0. -1.
       -3    1    3    3    0  502  0.19573662093E+03  0.12674502694E+03  0.36996505093E+03  0.43732285069E+03  0.10100000352E+00 0.  1.
</event>
<event>
 5   0  0.2993769E-05  0.1700426E+04  0.7818609E-02  0.8761122E-01
       -1   -1    0    0    0  501  0.00000000000E+00  0.00000000000E+00  0.58754512871E+03  0.58754512873E+03  0.50400001928E-02 0. -1.
        1   -1    0    0  501    0  0.00000000000E+00  0.00000000000E+00 -0.12303086386E+04  0.12303086386E+04  0.50400001928E-02 0.  1.
    10030    2    1    2    0    0  0.00000000000E+00  0.00000000000E+00 -0.64276350986E+03  0.18178537673E+04  0.17004256496E+04 0.  0.
        3    1    3    3  502    0 -0.26039147120E+03  0.80928440503E+03 -0.30982451371E+03  0.90484043124E+03  0.10100000352E+00 0.  1.
       -3    1    3    3    0  502  0.26039147120E+03 -0.80928440503E+03 -0.33293899615E+03  0.91301333608E+03  0.10100000352E+00 0. -1.
</event>
<event>
 5   0  0.2967704E-05  0.1702009E+04  0.7818609E-02  0.8760220E-01
        1   -1    0    0  501    0  0.00000000000E+00  0.00000000000E+00  0.10501556567E+04  0.10501556567E+04  0.50400001928E-02 0.  1.
       -1   -1    0    0    0  501  0.00000000000E+00  0.00000000000E+00 -0.68961999437E+03  0.68961999439E+03  0.50400001928E-02 0. -1.
    10030    2    1    2    0    0  0.00000000000E+00  0.00000000000E+00  0.36053566230E+03  0.17397756511E+04  0.17020086229E+04 0.  0.
        2    1    3    3  502    0  0.14584784877E+03  0.36065158904E+03  0.95394264878E+03  0.10302173270E+04  0.25500000920E-02 0.  1.
       -2    1    3    3    0  502 -0.14584784877E+03 -0.36065158904E+03 -0.59340698648E+03  0.70955832409E+03  0.25500000920E-02 0. -1.
</event>
<event>
 5   0  0.5652631E-05  0.1700153E+04  0.7818609E-02  0.8761277E-01
       -2   -1    0    0    0  501  0.00000000000E+00  0.00000000000E+00  0.36118612792E+03  0.36118612793E+03  0.25500000920E-02 0. -1.
        2   -1    0    0  501    0  0.00000000000E+00  0.00000000000E+00 -0.20007134433E+04  0.20007134433E+04  0.25500000920E-02 0.  1.
    10030    2    1    2    0    0  0.00000000000E+00  0.00000000000E+00 -0.16395273154E+04  0.23618995713E+04  0.17001528657E+04 0.  0.
        2    1    3    3  502    0 -0.37997490161E+03  0.76015951781E+03 -0.84777385637E+03  0.12003932397E+04  0.25500000920E-02 0. -1.
       -2    1    3    3    0  502  0.37997490161E+03 -0.76015951781E+03 -0.79175345903E+03  0.11615063316E+04  0.25500000920E-02 0.  1.
</event>
<event>
 5   0  0.2966258E-05  0.1700108E+04  0.7818609E-02  0.8761303E-01
       -1   -1    0    0    0  501  0.00000000000E+00  0.00000000000E+00  0.73516006431E+03  0.73516006432E+03  0.50400001928E-02 0.  1.
        1   -1    0    0  501    0  0.00000000000E+00  0.00000000000E+00 -0.98290419635E+03  0.98290419636E+03  0.50400001928E-02 0. -1.
    10030    2    1    2    0    0  0.00000000000E+00  0.00000000000E+00 -0.24774413204E+03  0.17180642607E+04  0.17001081286E+04 0.  0.
        4    1    3    3  502    0 -0.57039981903E+02 -0.75081777130E+03  0.27476786004E+03  0.80154842340E+03  0.12699999809E+01 0.  1.
       -4    1    3    3    0  502  0.57039981903E+02  0.75081777130E+03 -0.52251199208E+03  0.91651583729E+03  0.12699999809E+01 0. -1.
</event>
<event>
 5   0  0.5821584E-05  0.1704379E+04  0.7818609E-02  0.8758871E-01
       -2   -1    0    0    0  501  0.00000000000E+00  0.00000000000E+00  0.46507105558E+03  0.46507105559E+03  0.25500000920E-02 0.  1.
        2   -1    0    0  501    0  0.00000000000E+00  0.00000000000E+00 -0.15615398063E+04  0.15615398063E+04  0.25500000920E-02 0. -1.
    10030    2    1    2    0    0  0.00000000000E+00  0.00000000000E+00 -0.10964687507E+04  0.20266108619E+04  0.17043790260E+04 0.  0.
        1    1    3    3  502    0  0.55273478487E+03  0.51200197375E+03 -0.10217214501E+04  0.12694788242E+04  0.50400001928E-02 0. -1.
       -1    1    3    3    0  502 -0.55273478487E+03 -0.51200197375E+03 -0.74747300661E+02  0.75713203770E+03  0.50400001928E-02 0.  1.
</event>
<event>
 5   0  0.2966258E-05  0.1692910E+04  0.7818609E-02  0.8765419E-01
        1   -1    0    0  501    0  0.00000000000E+00  0.00000000000E+00  0.60930548404E+03  0.60930548406E+03  0.50400001928E-02 0. -1.
       -1   -1    0    0    0  501  0.00000000000E+00  0.00000000000E+00 -0.11759056369E+04  0.11759056369E+04  0.50400001928E-02 0.  1.
    10030    2    1    2    0    0  0.00000000000E+00  0.00000000000E+00 -0.56660015288E+03  0.17852111210E+04  0.16929096294E+04 0.  0.
        4    1    3    3  502    0 -0.57841790288E+03 -0.32239916073E+03  0.27267994569E+03  0.71614555426E+03  0.12699999809E+01 0.  1.
       -4    1    3    3    0  502  0.57841790288E+03  0.32239916073E+03 -0.83928009857E+03  0.10690655667E+04  0.12699999809E+01 0. -1.
</event>
<event>
 5   0  0.2993769E-05  0.1697814E+04  0.7818609E-02  0.8762612E-01
        1   -1    0    0  501    0  0.00000000000E+00  0.00000000000E+00  0.13166122887E+04  0.13166122887E+04  0.50400001928E-02 0.  1.
       -1   -1    0    0    0  501  0.00000000000E+00  0.00000000000E+00 -0.54734651751E+03  0.54734651754E+03  0.50400001928E-02 0. -1.
    10030    2    1    2    0    0  0.00000000000E+00  0.00000000000E+00  0.76926577118E+03  0.18639588062E+04  0.16978140666E+04 0.  0.
        3    1    3    3  502    0 -0.23080009811E+03  0.52036532245E+03  0.10760171076E+04  0.12173173703E+04  0.10100000352E+00 0.  1.
       -3    1    3    3    0  502  0.23080009811E+03 -0.52036532245E+03 -0.30675133637E+03  0.64664143593E+03  0.10100000352E+00 0. -1.
</event>
<event>
 5   0  0.2967704E-05  0.1699266E+04  0.7818609E-02  0.8761783E-01
        1   -1    0    0  501    0  0.00000000000E+00  0.00000000000E+00  0.69758195044E+03  0.69758195046E+03  0.50400001928E-02 0. -1.
       -1   -1    0    0    0  501  0.00000000000E+00  0.00000000000E+00 -0.10348261168E+04  0.10348261168E+04  0.50400001928E-02 0.  1.
    10030    2    1    2    0    0  0.00000000000E+00  0.00000000000E+00 -0.33724416636E+03  0.17324080673E+04  0.16992657484E+04 0.  0.
        2    1    3    3  502    0  0.26761880654E+02 -0.37637440597E+03 -0.94471981084E+03  0.10172853153E+04  0.25500000920E-02 0.  1.
       -2    1    3    3    0  502 -0.26761880654E+02  0.37637440597E+03  0.60747564449E+03  0.71512275197E+03  0.25500000920E-02 0. -1.
</event>
<event>
 5   0  0.5821584E-05  0.1700121E+04  0.7818609E-02  0.8761296E-01
       -2   -1    0    0    0  501  0.00000000000E+00  0.00000000000E+00  0.37701558319E+03  0.37701558320E+03  0.25500000920E-02 0.  1.
        2   -1    0    0  501    0  0.00000000000E+00  0.00000000000E+00 -0.19166386148E+04  0.19166386148E+04  0.25500000920E-02 0. -1.
    10030    2    1    2    0    0  0.00000000000E+00  0.00000000000E+00 -0.15396230316E+04  0.22936541979E+04  0.17001207311E+04 0.  0.
        1    1    3    3  502    0  0.47753648469E+03  0.70270495500E+03 -0.73244141271E+03  0.11217422926E+04  0.50400001928E-02 0. -1.
       -1    1    3    3    0  502 -0.47753648469E+03 -0.70270495500E+03 -0.80718161885E+03  0.11719119053E+04  0.50400001928E-02 0.  1.
</event>
<event>
 5   0  0.5859822E-05  0.1696134E+04  0.7818609E-02  0.8763572E-01
       -2   -1    0    0    0  501  0.00000000000E+00  0.00000000000E+00  0.14280229716E+04  0.14280229716E+04  0.25500000920E-02 0.  1.
        2   -1    0    0  501    0  0.00000000000E+00  0.00000000000E+00 -0.50364589907E+03  0.50364589907E+03  0.25500000920E-02 0. -1.
    10030    2    1    2    0    0  0.00000000000E+00  0.00000000000E+00  0.92437707255E+03  0.19316688707E+04  0.16961343266E+04 0.  0.
        5    1    3    3  502    0  0.73276356311E+03 -0.80050618930E+02 -0.15382300427E+02  0.73729861398E+03  0.46999998093E+01 0.  1.
       -5    1    3    3    0  502 -0.73276356311E+03  0.80050618930E+02  0.93975937297E+03  0.11943702567E+04  0.46999998093E+01 0. -1.
</event>
<event>
 5   0  0.2987859E-05  0.1706716E+04  0.7818609E-02  0.8757543E-01
        1   -1    0    0  501    0  0.00000000000E+00  0.00000000000E+00  0.76082854441E+03  0.76082854443E+03  0.50400001928E-02 0.  1.
       -1   -1    0    0    0  501  0.00000000000E+00  0.00000000000E+00 -0.95714050223E+03  0.95714050224E+03  0.50400001928E-02 0. -1.
    10030    2    1    2    0    0  0.00000000000E+00  0.00000000000E+00 -0.19631195782E+03  0.17179690467E+04  0.17067159285E+04 0.  0.
        5    1    3    3  502    0  0.58976106653E+03 -0.16636289998E+03 -0.69595977265E+03  0.92729543579E+03  0.46999998093E+01 0. -1.
       -5    1    3    3    0  502 -0.58976106653E+03  0.16636289998E+03  0.49964781484E+03  0.79067361089E+03  0.46999998093E+01 0.  1.
</event>
<event>
 5   0  0.5755321E-05  0.1698451E+04  0.7818609E-02  0.8762248E-01
       -2   -1    0    0    0  501  0.00000000000E+00  0.00000000000E+00  0.99724667815E+03  0.99724667816E+03  0.25500000920E-02 0. -1.
        2   -1    0    0  501    0  0.00000000000E+00  0.00000000000E+00 -0.72317496557E+03  0.72317496557E+03  0.25500000920E-02 0.  1.
    10030    2    1    2    0    0  0.00000000000E+00  0.00000000000E+00  0.27407171259E+03  0.17204216437E+04  0.16984508614E+04 0.  0.
        4    1    3    3  502    0  0.17936611653E+03 -0.28475499640E+03  0.92681702156E+03  0.98602688406E+03  0.12699999809E+01 0. -1.
       -4    1    3    3    0  502 -0.17936611653E+03  0.28475499640E+03 -0.65274530898E+03  0.73439475967E+03  0.12699999809E+01 0.  1.
</event>
<event>
 5   0  0.2911632E-05  0.1696350E+04  0.7818609E-02  0.8763449E-01
       -1   -1    0    0    0  501  0.00000000000E+00  0.00000000000E+00  0.93121650559E+03  0.93121650560E+03  0.50400001928E-02 0. -1.
        1   -1    0    0  501    0  0.00000000000E+00  0.00000000000E+00 -0.77253896581E+03  0.77253896582E+03  0.50400001928E-02 0.  1.
    10030    2    1    2    0    0  0.00000000000E+00  0.00000000000E+00  0.15867753978E+03  0.17037554714E+04  0.16963502424E+04 0.  0.
        1    1    3    3  502    0 -0.82289124299E+03 -0.87489549094E+02 -0.10747485883E+03  0.83447903766E+03  0.50400001928E-02 0.  1.
       -1    1    3    3    0  502  0.82289124299E+03  0.87489549094E+02  0.26615239862E+03  0.86927643377E+03  0.50400001928E-02 0. -1.
</event>
<event>
 5   0  0.2987859E-05  0.1699787E+04  0.7818609E-02  0.8761486E-01
        1   -1    0    0  501    0  0.00000000000E+00  0.00000000000E+00  0.11122893807E+04  0.11122893807E+04  0.50400001928E-02 0. -1.
       -1   -1    0    0    0  501  0.00000000000E+00  0.00000000000E+00 -0.64939808576E+03  0.64939808578E+03  0.50400001928E-02 0.  1.
    10030    2    1    2    0    0  0.00000000000E+00  0.00000000000E+00  0.46289129497E+03  0.17616874665E+04  0.16997865686E+04 0.  0.
        5    1    3    3  502    0 -0.22929809994E+03 -0.37204090012E+03 -0.52400517783E+03  0.68234563558E+03  0.46999998093E+01 0.  1.
       -5    1    3    3    0  502  0.22929809994E+03  0.37204090012E+03  0.98689647281E+03  0.10793418310E+04  0.46999998093E+01 0. -1.
</event>
<event>
 5   0  0.2967704E-05  0.1703577E+04  0.7818609E-02  0.8759327E-01
        1   -1    0    0  501    0  0.00000000000E+00  0.00000000000E+00  0.12110199717E+04  0.12110199717E+04  0.50400001928E-02 0. -1.
       -1   -1    0    0    0  501  0.00000000000E+00  0.00000000000E+00 -0.59911751729E+03  0.59911751731E+03  0.50400001928E-02 0.  1.
    10030    2    1    2    0    0  0.00000000000E+00  0.00000000000E+00  0.61190245437E+03  0.18101374890E+04  0.17035765657E+04 0.  0.
        2    1    3    3  502    0 -0.18340627611E+03 -0.40175777487E+03  0.10798622035E+04  0.11666831405E+04  0.25500000920E-02 0. -1.
       -2    1    3    3    0  502  0.18340627611E+03  0.40175777487E+03 -0.46795974912E+03  0.64345434849E+03  0.25500000920E-02 0.  1.
</event>
<event>
 5   0  0.2967704E-05  0.1655753E+04  0.7818609E-02  0.8787011E-01
       -1   -1    0    0    0  501  0.00000000000E+00  0.00000000000E+00  0.49044577171E+03  0.49044577174E+03  0.50400001928E-02 0. -1.
        1   -1    0    0  501    0  0.00000000000E+00  0.00000000000E+00 -0.13974617696E+04  0.13974617697E+04  0.50400001928E-02 0.  1.
    10030    2    1    2    0    0  0.00000000000E+00  0.00000000000E+00 -0.90701599793E+03  0.18879075414E+04  0.16557526580E+04 0.  0.
        2    1    3    3  502    0  0.53055616038E+03  0.27291338012E+03 -0.11079212879E+04  0.12583565205E+04  0.25500000920E-02 0.  1.
       -2    1    3    3    0  502 -0.53055616038E+03 -0.27291338012E+03  0.20090529001E+03  0.62955102091E+03  0.25500000920E-02 0. -1.
</event>
<event>
 5   0  0.2987859E-05  0.1698151E+04  0.7818609E-02  0.8762420E-01
       -1   -1    0    0    0  501  0.00000000000E+00  0.00000000000E+00  0.11593046086E+04  0.11593046086E+04  0.50400001928E-02 0. -1.
        1   -1    0    0  501    0  0.00000000000E+00  0.00000000000E+00 -0.62186331588E+03  0.62186331590E+03  0.50400001928E-02 0.  1.
    10030    2    1    2    0    0  0.00000000000E+00  0.00000000000E+00  0.53744129270E+03  0.17811679245E+04  0.16981507684E+04 0.  0.
        5    1    3    3  502    0  0.43540996351E+03 -0.65546937836E+03 -0.65749233675E+02  0.78966258239E+03  0.46999998093E+01 0.  1.
       -5    1    3    3    0  502 -0.43540996351E+03  0.65546937836E+03  0.60319052637E+03  0.99150534209E+03  0.46999998093E+01 0. -1.
</event>
<event>
 5   0  0.2987859E-05  0.1700417E+04  0.7818609E-02  0.8761127E-01
        1   -1    0    0  501    0  0.00000000000E+00  0.00000000000E+00  0.90812339671E+03  0.90812339672E+03  0.50400001928E-02 0.  1.
       -1   -1    0    0    0  501  0.00000000000E+00  0.00000000000E+00 -0.79598710924E+03  0.79598710926E+03  0.50400001928E-02 0. -1.
    10030    2    1    2    0    0  0.00000000000E+00  0.00000000000E+00  0.11213628747E+03  0.17041105060E+04  0.17004170282E+04 0.  0.
        5    1    3    3  502    0 -0.52515371087E+03 -0.46225143325E+03  0.54020090004E+03  0.88391284071E+03  0.46999998093E+01 0. -1.
       -5    1    3    3    0  502  0.52515371087E+03  0.46225143325E+03 -0.42806461257E+03  0.82019766527E+03  0.46999998093E+01 0.  1.
</event>
<event>
 5   0  0.2967704E-05  0.1698962E+04  0.7818609E-02  0.8761957E-01
       -1   -1    0    0    0  501  0.00000000000E+00  0.00000000000E+00  0.90418632836E+03  0.90418632838E+03  0.50400001928E-02 0.  1.
        1   -1    0    0  501    0  0.00000000000E+00  0.00000000000E+00 -0.79808514600E+03  0.79808514601E+03  0.50400001928E-02 0. -1.
    10030    2    1    2    0    0  0.00000000000E+00  0.00000000000E+00  0.10610118237E+03  0.17022714744E+04  0.16989616569E+04 0.  0.
        2    1    3    3  502    0  0.49794045691E+03  0.51515566349E+03 -0.40422389927E+03  0.82263419391E+03  0.25500000920E-02 0. -1.
       -2    1    3    3    0  502 -0.49794045691E+03 -0.51515566349E+03  0.51032508164E+03  0.87963728048E+03  0.25500000920E-02 0.  1.
</event>
<event>
 5   0  0.2967704E-05  0.1711074E+04  0.7818609E-02  0.8755074E-01
       -1   -1    0    0    0  501  0.00000000000E+00  0.00000000000E+00  0.42519727620E+03  0.42519727623E+03  0.50400001928E-02 0. -1.
        1   -1    0    0  501    0  0.00000000000E+00  0.00000000000E+00 -0.17214209699E+04  0.17214209700E+04  0.50400001928E-02 0.  1.
    10030    2    1    2    0    0  0.00000000000E+00  0.00000000000E+00 -0.12962236937E+04  0.21466182462E+04  0.17110739407E+04 0.  0.
        2    1    3    3  502    0 -0.41957628609E+03  0.69853925815E+02 -0.15793689391E+04  0.16356436276E+04  0.25500000920E-02 0.  1.
       -2    1    3    3    0  502  0.41957628609E+03 -0.69853925815E+02  0.28314524537E+03  0.51097461853E+03  0.25500000920E-02 0. -1.
</event>
<event>
 5   0  0.2098250E-05  0.1700389E+04  0.7818609E-02  0.8761142E-01
       -4   -1    0    0    0  501  0.00000000000E+00  0.00000000000E+00  0.47082603911E+03  0.47082775194E+03  0.12699999809E+01 0. -1.
        4   -1    0    0  501    0  0.00000000000E+00  0.00000000000E+00 -0.15352349818E+04  0.15352355071E+04  0.12699999809E+01 0.  1.
    10030    2    1    2    0    0  0.00000000000E+00  0.00000000000E+00 -0.10644089427E+04  0.20060632591E+04  0.17003891913E+04 0.  0.
        5    1    3    3  502    0 -0.39603827588E+03  0.47285578832E+03  0.15810533555E+03  0.63675607546E+03  0.46999998093E+01 0. -1.
       -5    1    3    3    0  502  0.39603827588E+03 -0.47285578832E+03 -0.12225142783E+04  0.13693071836E+04  0.46999998093E+01 0.  1.
</event>
<event>
 5   0  0.5821584E-05  0.1701049E+04  0.7818609E-02  0.8760766E-01
       -2   -1    0    0    0  501  0.00000000000E+00  0.00000000000E+00  0.95223393322E+03  0.95223393322E+03  0.25500000920E-02 0. -1.
        2   -1    0    0  501    0  0.00000000000E+00  0.00000000000E+00 -0.75967857384E+03  0.75967857385E+03  0.25500000920E-02 0.  1.
    10030    2    1    2    0    0  0.00000000000E+00  0.00000000000E+00  0.19255535937E+03  0.17119125071E+04  0.17010487546E+04 0.  0.
        1    1    3    3  502    0  0.10625715396E+03  0.73371595126E+03 -0.32323225722E+03  0.80876991292E+03  0.50400001928E-02 0.  1.
       -1    1    3    3    0  502 -0.10625715396E+03 -0.73371595126E+03  0.51578761660E+03  0.90314259415E+03  0.50400001928E-02 0. -1.
</event>
<event>
 5   0  0.2987859E-05  0.1700470E+04  0.7818609E-02  0.8761097E-01
        1   -1    0    0  501    0  0.00000000000E+00  0.00000000000E+00  0.11007176174E+04  0.11007176174E+04  0.50400001928E-02 0. -1.
       -1   -1    0    0    0  501  0.00000000000E+00  0.00000000000E+00 -0.65675273738E+03  0.65675273740E+03  0.50400001928E-02 0.  1.
    10030    2    1    2    0    0  0.00000000000E+00  0.00000000000E+00  0.44396488000E+03  0.17574703548E+04  0.17004697096E+04 0.  0.
        5    1    3    3  502    0  0.32237119957E+03 -0.20284447457E+03  0.10075995589E+04  0.10771945192E+04  0.46999998093E+01 0. -1.
       -5    1    3    3    0  502 -0.32237119957E+03  0.20284447457E+03 -0.56363467890E+03  0.68027583555E+03  0.46999998093E+01 0.  1.
</event>
<event>
 5   0  0.2967704E-05  0.1701201E+04  0.7818609E-02  0.8760680E-01
       -1   -1    0    0    0  501  0.00000000000E+00  0.00000000000E+00  0.56535030909E+03  0.56535030912E+03  0.50400001928E-02 0.  1.
        1   -1    0    0  501    0  0.00000000000E+00  0.00000000000E+00 -0.12797744251E+04  0.12797744251E+04  0.50400001928E-02 0. -1.
    10030    2    1    2    0    0  0.00000000000E+00  0.00000000000E+00 -0.71442411597E+03  0.18451247342E+04  0.17012005958E+04 0.  0.
        2    1    3    3  502    0  0.21696978059E+03  0.53129915432E+03 -0.10381536929E+04  0.11862199489E+04  0.25500000920E-02 0. -1.
       -2    1    3    3    0  502 -0.21696978059E+03 -0.53129915432E+03  0.32372957694E+03  0.65890478528E+03  0.25500000920E-02 0.  1.
</event>
<event>
 5   0  0.2911632E-05  0.1697456E+04  0.7818609E-02  0.8762817E-01
        1   -1    0    0  501    0  0.00000000000E+00  0.00000000000E+00  0.75972891353E+03  0.75972891354E+03  0.50400001928E-02 0. -1.
       -1   -1    0    0    0  501  0.00000000000E+00  0.00000000000E+00 -0.94815266372E+03  0.94815266373E+03  0.50400001928E-02 0.  1.
    10030    2    1    2    0    0  0.00000000000E+00  0.00000000000E+00 -0.18842375019E+03  0.17078815773E+04  0.16974557350E+04 0.  0.
        1    1    3    3  502    0  0.16037141193E+03 -0.35589115445E+02  0.74358093017E+03  0.76151045602E+03  0.50400001928E-02 0. -1.
       -1    1    3    3    0  502 -0.16037141193E+03  0.35589115445E+02 -0.93200468036E+03  0.94637112125E+03  0.50400001928E-02 0.  1.
</event>
<event>
 5   0  0.5859822E-05  0.1710347E+04  0.7818609E-02  0.8755485E-01
        2   -1    0    0  501    0  0.00000000000E+00  0.00000000000E+00  0.95486011605E+03  0.95486011605E+03  0.25500000920E-02 0.  1.
       -2   -1    0    0    0  501  0.00000000000E+00  0.00000000000E+00 -0.76589380570E+03  0.76589380570E+03  0.25500000920E-02 0. -1.
    10030    2    1    2    0    0  0.00000000000E+00  0.00000000000E+00  0.18896631035E+03  0.17207539218E+04  0.17103466879E+04 0.  0.
        5    1    3    3  502    0  0.81776350040E+03 -0.24326596708E+03  0.35958022520E+02  0.85394996499E+03  0.46999998093E+01 0.  1.
       -5    1    3    3    0  502 -0.81776350040E+03  0.24326596708E+03  0.15300828783E+03  0.86680395677E+03  0.46999998093E+01 0. -1.
</event>
<event>
 5   0  0.5859822E-05  0.1702691E+04  0.7818609E-02  0.8759831E-01
        2   -1    0    0  501    0  0.00000000000E+00  0.00000000000E+00  0.93336373229E+03  0.93336373229E+03  0.25500000920E-02 0. -1.
       -2   -1    0    0    0  501  0.00000000000E+00  0.00000000000E+00 -0.77653448490E+03  0.77653448490E+03  0.25500000920E-02 0.  1.
    10030    2    1    2    0    0  0.00000000000E+00  0.00000000000E+00  0.15682924739E+03  0.17098982172E+04  0.17026909585E+04 0.  0.
        5    1    3    3  502    0  0.58313614199E+03  0.51095701880E+03  0.43153094501E+03  0.88733639712E+03  0.46999998093E+01 0. -1.
       -5    1    3    3    0  502 -0.58313614199E+03 -0.51095701880E+03 -0.27470169762E+03  0.82256182007E+03  0.46999998093E+01 0.  1.
</event>
<event>
 5   0  0.5755321E-05  0.1701995E+04  0.7818609E-02  0.8760227E-01
       -2   -1    0    0    0  501  0.00000000000E+00  0.00000000000E+00  0.10078216230E+04  0.10078216230E+04  0.25500000920E-02 0.  1.
        2   -1    0    0  501    0  0.00000000000E+00  0.00000000000E+00 -0.71857669678E+03  0.71857669679E+03  0.25500000920E-02 0. -1.
    10030    2    1    2    0    0  0.00000000000E+00  0.00000000000E+00  0.28924492622E+03  0.17263983198E+04  0.17019954557E+04 0.  0.
        4    1    3    3  502    0 -0.23092898730E+03 -0.74836593647E+03 -0.19304043944E+03  0.80662630518E+03  0.12699999809E+01 0. -1.
       -4    1    3    3    0  502  0.23092898730E+03  0.74836593647E+03  0.48228536566E+03  0.91977201462E+03  0.12699999809E+01 0.  1.
</event>
<event>
 5   0  0.2987859E-05  0.1698640E+04  0.7818609E-02  0.8762141E-01
       -1   -1    0    0    0  501  0.00000000000E+00  0.00000000000E+00  0.51557191941E+03  0.51557191944E+03  0.50400001928E-02 0.  1.
        1   -1    0    0  501    0  0.00000000000E+00  0.00000000000E+00 -0.13991145555E+04  0.13991145555E+04  0.50400001928E-02 0. -1.
    10030    2    1    2    0    0  0.00000000000E+00  0.00000000000E+00 -0.88354263611E+03  0.19146864750E+04  0.16986396639E+04 0.  0.
        5    1    3    3  502    0 -0.22166856362E+03  0.73503298023E+03 -0.85116203401E+03  0.11462588417E+04  0.46999998093E+01 0.  1.
       -5    1    3    3    0  502  0.22166856362E+03 -0.73503298023E+03 -0.32380602108E+02  0.76842763323E+03  0.46999998093E+01 0. -1.
</event>
<event>
 5   0  0.5652631E-05  0.1699879E+04  0.7818609E-02  0.8761433E-01
        2   -1    0    0  501    0  0.00000000000E+00  0.00000000000E+00  0.20074823055E+04  0.20074823055E+04  0.25500000920E-02 0. -1.
       -2   -1    0    0    0  501  0.00000000000E+00  0.00000000000E+00 -0.35985240310E+03  0.35985240311E+03  0.25500000920E-02 0.  1.
    10030    2    1    2    0    0  0.00000000000E+00  0.00000000000E+00  0.16476299024E+04  0.23673347086E+04  0.16998792096E+04 0.  0.
        2    1    3    3  502    0  0.57431590778E+03  0.55369038264E+03  0.12321853833E+04  0.14678871280E+04  0.25500000920E-02 0. -1.
       -2    1    3    3    0  502 -0.57431590778E+03 -0.55369038264E+03  0.41544451908E+03  0.89944758058E+03  0.25500000920E-02 0.  1.
</event>
<event>
 5   0  0.2967704E-05  0.1705854E+04  0.7818609E-02  0.8758033E-01
        1   -1    0    0  501    0  0.00000000000E+00  0.00000000000E+00  0.11256199503E+04  0.11256199503E+04  0.50400001928E-02 0. -1.
       -1   -1    0    0    0  501  0.00000000000E+00  0.00000000000E+00 -0.64629660168E+03  0.64629660170E+03  0.50400001928E-02 0.  1.
    10030    2    1    2    0    0  0.00000000000E+00  0.00000000000E+00  0.47932334866E+03  0.17719165520E+04  0.17058538609E+04 0.  0.
        2    1    3    3  502    0  0.11602048239E+03  0.82432230153E+03  0.46681004851E+02  0.83375483528E+03  0.25500000920E-02 0.  1.
       -2    1    3    3    0  502 -0.11602048239E+03 -0.82432230153E+03  0.43264234381E+03  0.93816171676E+03  0.25500000920E-02 0. -1.
</event>
<event>
 5   0  0.5652631E-05  0.1697431E+04  0.7818609E-02  0.8762831E-01
       -2   -1    0    0    0  501  0.00000000000E+00  0.00000000000E+00  0.48027501565E+03  0.48027501566E+03  0.25500000920E-02 0.  1.
        2   -1    0    0  501    0  0.00000000000E+00  0.00000000000E+00 -0.14998031056E+04  0.14998031056E+04  0.25500000920E-02 0. -1.
    10030    2    1    2    0    0  0.00000000000E+00  0.00000000000E+00 -0.10195280900E+04  0.19800781213E+04  0.16974309530E+04 0.  0.
        2    1    3    3  502    0 -0.33396605341E+03 -0.67352534361E+03 -0.50287185733E+02  0.75345770576E+03  0.25500000920E-02 0.  1.
       -2    1    3    3    0  502  0.33396605341E+03  0.67352534361E+03 -0.96924090425E+03  0.12266204155E+04  0.25500000920E-02 0. -1.
</event>
<event>
 5   0  0.2987859E-05  0.1699144E+04  0.7818609E-02  0.8761853E-01
       -1   -1    0    0    0  501  0.00000000000E+00  0.00000000000E+00  0.52128529717E+03  0.52128529720E+03  0.50400001928E-02 0. -1.
        1   -1    0    0  501    0  0.00000000000E+00  0.00000000000E+00 -0.13846016382E+04  0.13846016383E+04  0.50400001928E-02 0.  1.
    10030    2    1    2    0    0  0.00000000000E+00  0.00000000000E+00 -0.86331634107E+03  0.19058869355E+04  0.16991438744E+04 0.  0.
        5    1    3    3  502    0 -0.83079253717E+03 -0.16777843889E+03 -0.36640269780E+03  0.92338446561E+03  0.46999998093E+01 0.  1.
       -5    1    3    3    0  502  0.83079253717E+03  0.16777843889E+03 -0.49691364327E+03  0.98250246984E+03  0.46999998093E+01 0. -1.
</event>
<event>
 5   0  0.5755321E-05  0.1690279E+04  0.7818609E-02  0.8766928E-01
        2   -1    0    0  501    0  0.00000000000E+00  0.00000000000E+00  0.83864314485E+03  0.83864314486E+03  0.25500000920E-02 0. -1.
       -2   -1    0    0    0  501  0.00000000000E+00  0.00000000000E+00 -0.85168627241E+03  0.85168627242E+03  0.25500000920E-02 0.  1.
    10030    2    1    2    0    0  0.00000000000E+00  0.00000000000E+00 -0.13043127561E+02  0.16903294173E+04  0.16902790940E+04 0.  0.
        4    1    3    3  502    0 -0.19723364410E+03  0.82118727832E+03 -0.38296470696E+02  0.84540989408E+03  0.12699999809E+01 0. -1.
       -4    1    3    3    0  502  0.19723364410E+03 -0.82118727832E+03  0.25253343135E+02  0.84491952319E+03  0.12699999809E+01 0.  1.
</event>
<event>
 5   0  0.2911632E-05  0.1708988E+04  0.7818609E-02  0.8756255E-01
       -1   -1    0    0    0  501  0.00000000000E+00  0.00000000000E+00  0.12932764962E+04  0.12932764962E+04  0.50400001928E-02 0. -1.
        1   -1    0    0  501    0  0.00000000000E+00  0.00000000000E+00 -0.56458166004E+03  0.56458166006E+03  0.50400001928E-02 0.  1.
    10030    2    1    2    0    0  0.00000000000E+00  0.00000000000E+00  0.72869483620E+03  0.18578581563E+04  0.17089882284E+04 0.  0.
        1    1    3    3  502    0  0.41090687305E+03  0.58611026792E+03  0.87168021069E+03  0.11279167054E+04  0.50400001928E-02 0. -1.
       -1    1    3    3    0  502 -0.41090687305E+03 -0.58611026792E+03 -0.14298537449E+03  0.72994145096E+03  0.50400001928E-02 0.  1.
</event>
<event>
 5   0  0.2987859E-05  0.1687959E+04  0.7818609E-02  0.8768262E-01
        1   -1    0    0  501    0  0.00000000000E+00  0.00000000000E+00  0.72239221247E+03  0.72239221249E+03  0.50400001928E-02 0. -1.
       -1   -1    0    0    0  501  0.00000000000E+00  0.00000000000E+00 -0.98603157049E+03  0.98603157050E+03  0.50400001928E-02 0.  1.
    10030    2    1    2    0    0  0.00000000000E+00  0.00000000000E+00 -0.26363935802E+03  0.17084237830E+04  0.16879591557E+04 0.  0.
        5    1    3    3  502    0  0.14837401158E+02 -0.83869776132E+03 -0.37711996672E+02  0.83968944736E+03  0.46999998093E+01 0. -1.
       -5    1    3    3    0  502 -0.14837401158E+02  0.83869776132E+03 -0.22592736134E+03  0.86873433564E+03  0.46999998093E+01 0.  1.
</event>
<event>
 5   0  0.2911632E-05  0.1700758E+04  0.7818609E-02  0.8760932E-01
       -1   -1    0    0    0  501  0.00000000000E+00  0.00000000000E+00  0.78306785543E+03  0.78306785544E+03  0.50400001928E-02 0. -1.
        1   -1    0    0  501    0  0.00000000000E+00  0.00000000000E+00 -0.92347615687E+03  0.92347615689E+03  0.50400001928E-02 0.  1.
    10030    2    1    2    0    0  0.00000000000E+00  0.00000000000E+00 -0.14040830145E+03  0.17065440123E+04  0.17007580589E+04 0.  0.
        1    1    3    3  502    0 -0.77064508068E+03  0.77996520649E+02  0.28194162517E+03  0.82429871869E+03  0.50400001928E-02 0. -1.
       -1    1    3    3    0  502  0.77064508068E+03 -0.77996520649E+02 -0.42234992661E+03  0.88224529364E+03  0.50400001928E-02 0.  1.
</event>
<event>
 5   0  0.5652631E-05  0.1665193E+04  0.7818609E-02  0.8781469E-01
       -2   -1    0    0    0  501  0.00000000000E+00  0.00000000000E+00  0.51074431513E+03  0.51074431514E+03  0.25500000920E-02 0. -1.
        2   -1    0    0  501    0  0.00000000000E+00  0.00000000000E+00 -0.13572683852E+04  0.13572683852E+04  0.25500000920E-02 0.  1.
    10030    2    1    2    0    0  0.00000000000E+00  0.00000000000E+00 -0.84652407008E+03  0.18680127004E+04  0.16651932162E+04 0.  0.
        2    1    3    3  502    0 -0.40410460842E+03 -0.28194761856E+03 -0.11761407961E+04  0.12751871103E+04  0.25500000920E-02 0.  1.
       -2    1    3    3    0  502  0.40410460842E+03  0.28194761856E+03  0.32961672597E+03  0.59282559004E+03  0.25500000920E-02 0. -1.
</event>
<event>
 5   0  0.5671132E-05  0.1697949E+04  0.7818609E-02  0.8762535E-01
        2   -1    0    0  501    0  0.00000000000E+00  0.00000000000E+00  0.12557708157E+04  0.12557708157E+04  0.25500000920E-02 0. -1.
       -2   -1    0    0    0  501  0.00000000000E+00  0.00000000000E+00 -0.57395644844E+03  0.57395644845E+03  0.25500000920E-02 0.  1.
    10030    2    1    2    0    0  0.00000000000E+00  0.00000000000E+00  0.68181436721E+03  0.18297272641E+04  0.16979490657E+04 0.  0.
        3    1    3    3  502    0  0.73959468364E+02 -0.46155742558E+03  0.11046071106E+04  0.11994424284E+04  0.10100000352E+00 0. -1.
       -3    1    3    3    0  502 -0.73959468364E+02  0.46155742558E+03 -0.42279274338E+03  0.63028483571E+03  0.10100000352E+00 0.  1.
</event>
<event>
 5   0  0.2987859E-05  0.1702812E+04  0.7818609E-02  0.8759762E-01
       -1   -1    0    0    0  501  0.00000000000E+00  0.00000000000E+00  0.21434129985E+04  0.21434129985E+04  0.50400001928E-02 0.  1.
        1   -1    0    0  501    0  0.00000000000E+00  0.00000000000E+00 -0.33819532530E+03  0.33819532533E+03  0.50400001928E-02 0. -1.
    10030    2    1    2    0    0  0.00000000000E+00  0.00000000000E+00  0.18052176732E+04  0.24816083239E+04  0.17028120934E+04 0.  0.
        5    1    3    3  502    0 -0.58783018338E+03 -0.41390194233E+03  0.15672843616E+04  0.17243147922E+04  0.46999998093E+01 0. -1.
       -5    1    3    3    0  502  0.58783018338E+03  0.41390194233E+03  0.23793331162E+03  0.75729353169E+03  0.46999998093E+01 0.  1.
</event>
<event>
 5   0  0.5859822E-05  0.1714297E+04  0.7818609E-02  0.8753252E-01
       -2   -1    0    0    0  501  0.00000000000E+00  0.00000000000E+00  0.44480811196E+03  0.44480811197E+03  0.25500000920E-02 0. -1.
        2   -1    0    0  501    0  0.00000000000E+00  0.00000000000E+00 -0.16517318223E+04  0.16517318223E+04  0.25500000920E-02 0.  1.
    10030    2    1    2    0    0  0.00000000000E+00  0.00000000000E+00 -0.12069237104E+04  0.20965399343E+04  0.17142971894E+04 0.  0.
        5    1    3    3  502    0 -0.39947123638E+03 -0.52300768569E+03 -0.12750594945E+04  0.14348913243E+04  0.46999998093E+01 0.  1.
       -5    1    3    3    0  502  0.39947123638E+03  0.52300768569E+03  0.68135784190E+02  0.66164860997E+03  0.46999998093E+01 0. -1.
</event>
<event>
 5   0  0.5859822E-05  0.1698676E+04  0.7818609E-02  0.8762120E-01
       -2   -1    0    0    0  501  0.00000000000E+00  0.00000000000E+00  0.69264473156E+03  0.69264473157E+03  0.25500000920E-02 0.  1.
        2   -1    0    0  501    0  0.00000000000E+00  0.00000000000E+00 -0.10414790373E+04  0.10414790373E+04  0.25500000920E-02 0. -1.
    10030    2    1    2    0    0  0.00000000000E+00  0.00000000000E+00 -0.34883430578E+03  0.17341237689E+04  0.16986759176E+04 0.  0.
        5    1    3    3  502    0  0.52654782711E+03 -0.61780391659E+01 -0.85470296481E+03  0.10039073814E+04  0.46999998093E+01 0. -1.
       -5    1    3    3    0  502 -0.52654782711E+03  0.61780391659E+01  0.50586865902E+03  0.73021638751E+03  0.46999998093E+01 0.  1.
</event>
<event>
 5   0  0.5859822E-05  0.1702340E+04  0.7818609E-02  0.8760031E-01
        2   -1    0    0  501    0  0.00000000000E+00  0.00000000000E+00  0.15433706592E+04  0.15433706592E+04  0.25500000920E-02 0.  1.
       -2   -1    0    0    0  501  0.00000000000E+00  0.00000000000E+00 -0.46942069562E+03  0.46942069563E+03  0.25500000920E-02 0. -1.
    10030    2    1    2    0    0  0.00000000000E+00  0.00000000000E+00  0.10739499635E+04  0.20127913548E+04  0.17023397175E+04 0.  0.
        5    1    3    3  502    0 -0.76716988391E+03 -0.11180196264E+03  0.12159739291E+03  0.78476577753E+03  0.46999998093E+01 0. -1.
       -5    1    3    3    0  502  0.76716988391E+03  0.11180196264E+03  0.95235257062E+03  0.12280255773E+04  0.46999998093E+01 0.  1.
</event>
<event>
 5   0  0.2911632E-05  0.1699319E+04  0.7818609E-02  0.8761753E-01
       -1   -1    0    0    0  501  0.00000000000E+00  0.00000000000E+00  0.47036356339E+03  0.47036356342E+03  0.50400001928E-02 0. -1.
        1   -1    0    0  501    0  0.00000000000E+00  0.00000000000E+00 -0.15348151408E+04  0.15348151408E+04  0.50400001928E-02 0.  1.
    10030    2    1    2    0    0  0.00000000000E+00  0.00000000000E+00 -0.10644515774E+04  0.20051787042E+04  0.16993188268E+04 0.  0.
        1    1    3    3  502    0 -0.69403601682E+03  0.44038407927E+03 -0.27833053205E+03  0.86780874334E+03  0.50400001928E-02 0.  1.
       -1    1    3    3    0  502  0.69403601682E+03 -0.44038407927E+03 -0.78612104533E+03  0.11373699609E+04  0.50400001928E-02 0. -1.
</event>
<event>
 5   0  0.5755321E-05  0.1693659E+04  0.7818609E-02  0.8764989E-01
        2   -1    0    0  501    0  0.00000000000E+00  0.00000000000E+00  0.14844873315E+04  0.14844873315E+04  0.25500000920E-02 0.  1.
       -2   -1    0    0    0  501  0.00000000000E+00  0.00000000000E+00 -0.48307617030E+03  0.48307617031E+03  0.25500000920E-02 0. -1.
    10030    2    1    2    0    0  0.00000000000E+00  0.00000000000E+00  0.10014111612E+04  0.19675635018E+04  0.16936592986E+04 0.  0.
        4    1    3    3  502    0  0.49345502394E+03 -0.48354728150E+03 -0.68186672965E+02  0.69423833758E+03  0.12699999809E+01 0. -1.
       -4    1    3    3    0  502 -0.49345502394E+03  0.48354728150E+03  0.10695978342E+04  0.12733251642E+04  0.12699999809E+01 0.  1.
</event>
<event>
 5   0  0.2911632E-05  0.1699462E+04  0.7818609E-02  0.8761671E-01
        1   -1    0    0  501    0  0.00000000000E+00  0.00000000000E+00  0.17881433532E+04  0.17881433532E+04  0.50400001928E-02 0.  1.
       -1   -1    0    0    0  501  0.00000000000E+00  0.00000000000E+00 -0.40379448489E+03  0.40379448492E+03  0.50400001928E-02 0. -1.
    10030    2    1    2    0    0  0.00000000000E+00  0.00000000000E+00  0.13843488683E+04  0.21919378381E+04  0.16994615903E+04 0.  0.
        1    1    3    3  502    0  0.11983629979E+03 -0.74280824738E+02 -0.38860276433E+03  0.41338902761E+03  0.50400001928E-02 0. -1.
       -1    1    3    3    0  502 -0.11983629979E+03  0.74280824738E+02  0.17729516327E+04  0.17785488105E+04  0.50400001928E-02 0.  1.
</event>
<event>
 5   0  0.2993769E-05  0.1706867E+04  0.7818609E-02  0.8757458E-01
       -1   -1    0    0    0  501  0.00000000000E+00  0.00000000000E+00  0.48940787689E+03  0.48940787692E+03  0.50400001928E-02 0. -1.
        1   -1    0    0  501    0  0.00000000000E+00  0.00000000000E+00 -0.14882237054E+04  0.14882237054E+04  0.50400001928E-02 0.  1.
    10030    2    1    2    0    0  0.00000000000E+00  0.00000000000E+00 -0.99881582853E+03  0.19776315824E+04  0.17068666076E+04 0.  0.
        3    1    3    3  502    0 -0.46718511287E+03  0.67381269500E+03 -0.77374444943E+03  0.11273712613E+04  0.10100000352E+00 0. -1.
       -3    1    3    3    0  502  0.46718511287E+03 -0.67381269500E+03 -0.22507137911E+03  0.85026032104E+03  0.10100000352E+00 0.  1.
</event>
<event>
 5   0  0.2967704E-05  0.1699980E+04  0.7818609E-02  0.8761376E-01
        1   -1    0    0  501    0  0.00000000000E+00  0.00000000000E+00  0.16374240368E+04  0.16374240368E+04  0.50400001928E-02 0.  1.
       -1   -1    0    0    0  501  0.00000000000E+00  0.00000000000E+00 -0.44123146682E+03  0.44123146685E+03  0.50400001928E-02 0. -1.
    10030    2    1    2    0    0  0.00000000000E+00  0.00000000000E+00  0.11961925700E+04  0.20786555037E+04  0.16999800112E+04 0.  0.
        2    1    3    3  502    0  0.36688415491E+02  0.58599221846E+03 -0.15342449347E+03  0.60685417946E+03  0.25500000920E-02 0. -1.
       -2    1    3    3    0  502 -0.36688415491E+02 -0.58599221846E+03  0.13496170635E+04  0.14718013242E+04  0.25500000920E-02 0.  1.
</event>
<event>
 5   0  0.5755321E-05  0.1700779E+04  0.7818609E-02  0.8760920E-01
       -2   -1    0    0    0  501  0.00000000000E+00  0.00000000000E+00  0.39983064788E+03  0.39983064788E+03  0.25500000920E-02 0.  1.
        2   -1    0    0  501    0  0.00000000000E+00  0.00000000000E+00 -0.18086712278E+04  0.18086712278E+04  0.25500000920E-02 0. -1.
    10030    2    1    2    0    0  0.00000000000E+00  0.00000000000E+00 -0.14088405800E+04  0.22085018757E+04  0.17007788673E+04 0.  0.
        4    1    3    3  502    0  0.71465141316E+03 -0.44006102741E+03 -0.52646933385E+03  0.99073302285E+03  0.12699999809E+01 0.  1.
       -4    1    3    3    0  502 -0.71465141316E+03  0.44006102741E+03 -0.88237124611E+03  0.12177688529E+04  0.12699999809E+01 0. -1.
</event>
<event>
 5   0  0.2966258E-05  0.1698730E+04  0.7818609E-02  0.8762089E-01
        1   -1    0    0  501    0  0.00000000000E+00  0.00000000000E+00  0.93174078893E+03  0.93174078894E+03  0.50400001928E-02 0.  1.
       -1   -1    0    0    0  501  0.00000000000E+00  0.00000000000E+00 -0.77427236005E+03  0.77427236006E+03  0.50400001928E-02 0. -1.
    10030    2    1    2    0    0  0.00000000000E+00  0.00000000000E+00  0.15746842888E+03  0.17060131490E+04  0.16987302783E+04 0.  0.
        4    1    3    3  502    0  0.17005955149E+03 -0.65177988273E+03 -0.44086410968E+03  0.80504660901E+03  0.12699999809E+01 0. -1.
       -4    1    3    3    0  502 -0.17005955149E+03  0.65177988273E+03  0.59833253856E+03  0.90096653999E+03  0.12699999809E+01 0.  1.
</event>
<event>
 5   0  0.2993769E-05  0.1705879E+04  0.7818609E-02  0.8758019E-01
        1   -1    0    0  501    0  0.00000000000E+00  0.00000000000E+00  0.11624202438E+04  0.11624202438E+04  0.50400001928E-02 0.  1.
       -1   -1    0    0    0  501  0.00000000000E+00  0.00000000000E+00 -0.62585405903E+03  0.62585405906E+03  0.50400001928E-02 0. -1.
    10030    2    1    2    0    0  0.00000000000E+00  0.00000000000E+00  0.53656618478E+03  0.17882743029E+04  0.17058785747E+04 0.  0.
        3    1    3    3  502    0 -0.21768217259E+03 -0.28017326151E+03  0.10813909846E+04  0.11381076647E+04  0.10100000352E+00 0.  1.
       -3    1    3    3    0  502  0.21768217259E+03  0.28017326151E+03 -0.54482479980E+03  0.65016663818E+03  0.10100000352E+00 0. -1.
</event>
<event>
 5   0  0.5821584E-05  0.1696898E+04  0.7818609E-02  0.8763135E-01
        2   -1    0    0  501    0  0.00000000000E+00  0.00000000000E+00  0.16905165850E+04  0.16905165850E+04  0.25500000920E-02 0. -1.
       -2   -1    0    0    0  501  0.00000000000E+00  0.00000000000E+00 -0.42582598085E+03  0.42582598086E+03  0.25500000920E-02 0.  1.
    10030    2    1    2    0    0  0.00000000000E+00  0.00000000000E+00  0.12646906041E+04  0.21163425659E+04  0.16968982091E+04 0.  0.
        1    1    3    3  502    0 -0.66901606916E+03  0.21791577213E+03  0.41022589724E+02  0.70480680858E+03  0.50400001928E-02 0.  1.
       -1    1    3    3    0  502  0.66901606916E+03 -0.21791577213E+03  0.12236680144E+04  0.14115357573E+04  0.50400001928E-02 0. -1.
</event>
<event>
 5   0  0.5859822E-05  0.1697347E+04  0.7818609E-02  0.8762879E-01
       -2   -1    0    0    0  501  0.00000000000E+00  0.00000000000E+00  0.10554865725E+04  0.10554865725E+04  0.25500000920E-02 0.  1.
        2   -1    0    0  501    0  0.00000000000E+00  0.00000000000E+00 -0.68238392208E+03  0.68238392208E+03  0.25500000920E-02 0. -1.
    10030    2    1    2    0    0  0.00000000000E+00  0.00000000000E+00  0.37310265042E+03  0.17378704946E+04  0.16973474212E+04 0.  0.
        5    1    3    3  502    0 -0.30686838547E+02 -0.59484493080E+03 -0.43239982142E+03  0.73605289846E+03  0.46999998093E+01 0. -1.
       -5    1    3    3    0  502  0.30686838547E+02  0.59484493080E+03  0.80550247185E+03  0.10018175961E+04  0.46999998093E+01 0.  1.
</event>
<event>
 5   0  0.2966258E-05  0.1684716E+04  0.7818609E-02  0.8770130E-01
       -1   -1    0    0    0  501  0.00000000000E+00  0.00000000000E+00  0.58203056977E+03  0.58203056980E+03  0.50400001928E-02 0. -1.
        1   -1    0    0  501    0  0.00000000000E+00  0.00000000000E+00 -0.12191225301E+04  0.12191225301E+04  0.50400001928E-02 0.  1.
    10030    2    1    2    0    0  0.00000000000E+00  0.00000000000E+00 -0.63709196031E+03  0.18011530999E+04  0.16847155022E+04 0.  0.
        4    1    3    3  502    0 -0.27372174650E+03 -0.23040860323E+03 -0.11338485307E+04  0.11889599751E+04  0.12699999809E+01 0.  1.
       -4    1    3    3    0  502  0.27372174650E+03  0.23040860323E+03  0.49675657037E+03  0.61219312480E+03  0.12699999809E+01 0. -1.
</event>
<event>
 5   0  0.5755321E-05  0.1706968E+04  0.7818609E-02  0.8757400E-01
       -2   -1    0    0    0  501  0.00000000000E+00  0.00000000000E+00  0.80106220791E+03  0.80106220791E+03  0.25500000920E-02 0. -1.
        2   -1    0    0  501    0  0.00000000000E+00  0.00000000000E+00 -0.90933651607E+03  0.90933651607E+03  0.25500000920E-02 0.  1.
    10030    2    1    2    0    0  0.00000000000E+00  0.00000000000E+00 -0.10827430816E+03  0.17103987240E+04  0.17069682098E+04 0.  0.
        4    1    3    3  502    0 -0.35618192715E+03 -0.61887452000E+03  0.41430883509E+03  0.82554506871E+03  0.12699999809E+01 0. -1.
       -4    1    3    3    0  502  0.35618192715E+03  0.61887452000E+03 -0.52258314326E+03  0.88485365527E+03  0.12699999809E+01 0.  1.
</event>
<event>
 5   0  0.5652631E-05  0.1704986E+04  0.7818609E-02  0.8758526E-01
        2   -1    0    0  501    0  0.00000000000E+00  0.00000000000E+00  0.70408912566E+03  0.70408912567E+03  0.25500000920E-02 0. -1.
       -2   -1    0    0    0  501  0.00000000000E+00  0.00000000000E+00 -0.10321765818E+04  0.10321765818E+04  0.25500000920E-02 0.  1.
    10030    2    1    2    0    0  0.00000000000E+00  0.00000000000E+00 -0.32808745615E+03  0.17362657075E+04  0.17049859906E+04 0.  0.
        2    1    3    3  502    0 -0.20363975014E+03  0.34378175409E+03  0.60282510182E+03  0.72322413239E+03  0.25500000920E-02 0. -1.
       -2    1    3    3    0  502  0.20363975014E+03 -0.34378175409E+03 -0.93091255797E+03  0.10130415751E+04  0.25500000920E-02 0.  1.
</event>
<event>
 5   0  0.2911632E-05  0.1702263E+04  0.7818609E-02  0.8760075E-01
        1   -1    0    0  501    0  0.00000000000E+00  0.00000000000E+00  0.17839855508E+04  0.17839855508E+04  0.50400001928E-02 0. -1.
       -1   -1    0    0    0  501  0.00000000000E+00  0.00000000000E+00 -0.40607088658E+03  0.40607088661E+03  0.50400001928E-02 0.  1.
    10030    2    1    2    0    0  0.00000000000E+00  0.00000000000E+00  0.13779146642E+04  0.21900564374E+04  0.17022627227E+04 0.  0.
        1    1    3    3  502    0 -0.15919722701E+03 -0.64261497488E+03  0.13771467820E+04  0.15280153868E+04  0.50400001928E-02 0.  1.
       -1    1    3    3    0  502  0.15919722701E+03  0.64261497488E+03  0.76788219416E+00  0.66204105062E+03  0.50400001928E-02 0. -1.
</event>
<event>
 5   0  0.5652631E-05  0.1672761E+04  0.7818609E-02  0.8777054E-01
       -2   -1    0    0    0  501  0.00000000000E+00  0.00000000000E+00  0.40308577342E+03  0.40308577343E+03  0.25500000920E-02 0.  1.
        2   -1    0    0  501    0  0.00000000000E+00  0.00000000000E+00 -0.17354430406E+04  0.17354430406E+04  0.25500000920E-02 0. -1.
    10030    2    1    2    0    0  0.00000000000E+00  0.00000000000E+00 -0.13323572671E+04  0.21385288140E+04  0.16727610711E+04 0.  0.
        2    1    3    3  502    0 -0.26907016432E+03  0.24771511507E+03  0.29543693136E+03  0.47015371102E+03  0.25500000920E-02 0.  1.
       -2    1    3    3    0  502  0.26907016432E+03 -0.24771511507E+03 -0.16277941985E+04  0.16683751030E+04  0.25500000920E-02 0. -1.
</event>
<event>
 5   0  0.2967704E-05  0.1697215E+04  0.7818609E-02  0.8762954E-01
        1   -1    0    0  501    0  0.00000000000E+00  0.00000000000E+00  0.82417079363E+03  0.82417079364E+03  0.50400001928E-02 0.  1.
       -1   -1    0    0    0  501  0.00000000000E+00  0.00000000000E+00 -0.87376911267E+03  0.87376911269E+03  0.50400001928E-02 0. -1.
    10030    2    1    2    0    0  0.00000000000E+00  0.00000000000E+00 -0.49598319042E+02  0.16979399063E+04  0.16972153465E+04 0.  0.
        2    1    3    3  502    0  0.82653315324E+03  0.10291402568E+03 -0.18730813548E+03  0.85371698338E+03  0.25500000920E-02 0. -1.
       -2    1    3    3    0  502 -0.82653315324E+03 -0.10291402568E+03  0.13770981643E+03  0.84422292295E+03  0.25500000920E-02 0.  1.
</event>
<event>
 5   0  0.2966258E-05  0.1689547E+04  0.7818609E-02  0.8767349E-01
        1   -1    0    0  501    0  0.00000000000E+00  0.00000000000E+00  0.11142160827E+04  0.11142160827E+04  0.50400001928E-02 0. -1.
       -1   -1    0    0    0  501  0.00000000000E+00  0.00000000000E+00 -0.64048818031E+03  0.64048818033E+03  0.50400001928E-02 0.  1.
    10030    2    1    2    0    0  0.00000000000E+00  0.00000000000E+00  0.47372790234E+03  0.17547042630E+04  0.16895469585E+04 0.  0.
        4    1    3    3  502    0 -0.35345715009E+03  0.75718055784E+03  0.36568898284E+03  0.91213178828E+03  0.12699999809E+01 0. -1.
       -4    1    3    3    0  502  0.35345715009E+03 -0.75718055784E+03  0.10803891949E+03  0.84257247471E+03  0.12699999809E+01 0.  1.
</event>
<event>
 5   0  0.5821584E-05  0.1701536E+04  0.7818609E-02  0.8760489E-01
       -2   -1    0    0    0  501  0.00000000000E+00  0.00000000000E+00  0.11238088720E+04  0.11238088720E+04  0.25500000920E-02 0. -1.
        2   -1    0    0  501    0  0.00000000000E+00  0.00000000000E+00 -0.64406557530E+03  0.64406557531E+03  0.25500000920E-02 0.  1.
    10030    2    1    2    0    0  0.00000000000E+00  0.00000000000E+00  0.47974329669E+03  0.17678744473E+04  0.17015364912E+04 0.  0.
        1    1    3    3  502    0  0.22412698210E+03  0.58392835940E+03  0.83907215389E+03  0.10465406406E+04  0.50400001928E-02 0. -1.
       -1    1    3    3    0  502 -0.22412698210E+03 -0.58392835940E+03 -0.35932885720E+03  0.72133380668E+03  0.50400001928E-02 0.  1.
</event>
<event>
 5   0  0.5652631E-05  0.1691854E+04  0.7818609E-02  0.8766024E-01
       -2   -1    0    0    0  501  0.00000000000E+00  0.00000000000E+00  0.73681774934E+03  0.73681774935E+03  0.25500000920E-02 0. -1.
        2   -1    0    0  501    0  0.00000000000E+00  0.00000000000E+00 -0.97119310476E+03  0.97119310476E+03  0.25500000920E-02 0.  1.
    10030    2    1    2    0    0  0.00000000000E+00  0.00000000000E+00 -0.23437535542E+03  0.17080108541E+04  0.16918537970E+04 0.  0.
        2    1    3    3  502    0 -0.11216246654E+03  0.24685598509E+03  0.69175983698E+03  0.74300065164E+03  0.25500000920E-02 0. -1.
       -2    1    3    3    0  502  0.11216246654E+03 -0.24685598509E+03 -0.92613519239E+03  0.96501020247E+03  0.25500000920E-02 0.  1.
</event>
<event>
 5   0  0.2911632E-05  0.1702135E+04  0.7818609E-02  0.8760148E-01
       -1   -1    0    0    0  501  0.00000000000E+00  0.00000000000E+00  0.85295688845E+03  0.85295688847E+03  0.50400001928E-02 0. -1.
        1   -1    0    0  501    0  0.00000000000E+00  0.00000000000E+00 -0.84918201524E+03  0.84918201525E+03  0.50400001928E-02 0.  1.
    10030    2    1    2    0    0  0.00000000000E+00  0.00000000000E+00  0.37748732170E+01  0.17021389037E+04  0.17021347179E+04 0.  0.
        1    1    3    3  502    0 -0.39312654541E+03 -0.66281854973E+03 -0.35927648796E+03  0.85026849019E+03  0.50400001928E-02 0.  1.
       -1    1    3    3    0  502  0.39312654541E+03  0.66281854973E+03  0.36305136118E+03  0.85187041353E+03  0.50400001928E-02 0. -1.
</event>
<event>
 5   0  0.2967704E-05  0.1698977E+04  0.7818609E-02  0.8761948E-01
        1   -1    0    0  501    0  0.00000000000E+00  0.00000000000E+00  0.86588283575E+03  0.86588283577E+03  0.50400001928E-02 0.  1.
       -1   -1    0    0    0  501  0.00000000000E+00  0.00000000000E+00 -0.83340459930E+03  0.83340459932E+03  0.50400001928E-02 0. -1.
    10030    2    1    2    0    0  0.00000000000E+00  0.00000000000E+00  0.32478236446E+02  0.16992874351E+04  0.16989770308E+04 0.  0.
        2    1    3    3  502    0  0.34324802188E+03 -0.68508434348E+03  0.38300895881E+03  0.85665373678E+03  0.25500000920E-02 0.  1.
       -2    1    3    3    0  502 -0.34324802188E+03  0.68508434348E+03 -0.35053072236E+03  0.84263369831E+03  0.25500000920E-02 0. -1.
</event>
<event>
 5   0  0.5821584E-05  0.1701907E+04  0.7818609E-02  0.8760277E-01
       -2   -1    0    0    0  501  0.00000000000E+00  0.00000000000E+00  0.50425216588E+03  0.50425216589E+03  0.25500000920E-02 0. -1.
        2   -1    0    0  501    0  0.00000000000E+00  0.00000000000E+00 -0.14360317625E+04  0.14360317625E+04  0.25500000920E-02 0.  1.
    10030    2    1    2    0    0  0.00000000000E+00  0.00000000000E+00 -0.93177959663E+03  0.19402839284E+04  0.17019073142E+04 0.  0.
        1    1    3    3  502    0  0.79146321593E+03  0.12736906638E+03 -0.14045138270E+03  0.81385716939E+03  0.50400001928E-02 0. -1.
       -1    1    3    3    0  502 -0.79146321593E+03 -0.12736906638E+03 -0.79132821393E+03  0.11264267590E+04  0.50400001928E-02 0.  1.
</event>
<event>
 5   0  0.2967704E-05  0.1699246E+04  0.7818609E-02  0.8761794E-01
       -1   -1    0    0    0  501  0.00000000000E+00  0.00000000000E+00  0.38372285422E+03  0.38372285425E+03  0.50400001928E-02 0.  1.
        1   -1    0    0  501    0  0.00000000000E+00  0.00000000000E+00 -0.18812001986E+04  0.18812001986E+04  0.50400001928E-02 0. -1.
    10030    2    1    2    0    0  0.00000000000E+00  0.00000000000E+00 -0.14974773443E+04  0.22649230528E+04  0.16992463148E+04 0.  0.
        2    1    3    3  502    0 -0.16404013739E+03  0.49825386088E+02  0.36042822292E+03  0.39912434110E+03  0.25500000920E-02 0.  1.
       -2    1    3    3    0  502  0.16404013739E+03 -0.49825386088E+02 -0.18579055673E+04  0.18657987117E+04  0.25500000920E-02 0. -1.
</event>
<event>
 5   0  0.2993769E-05  0.1699305E+04  0.7818609E-02  0.8761761E-01
        1   -1    0    0  501    0  0.00000000000E+00  0.00000000000E+00  0.82678646505E+03  0.82678646507E+03  0.50400001928E-02 0. -1.
       -1   -1    0    0    0  501  0.00000000000E+00  0.00000000000E+00 -0.87315127178E+03  0.87315127179E+03  0.50400001928E-02 0.  1.
    10030    2    1    2    0    0  0.00000000000E+00  0.00000000000E+00 -0.46364806727E+02  0.16999377369E+04  0.16993053327E+04 0.  0.
        3    1    3    3  502    0  0.59507401445E+03  0.83741050001E+02 -0.62405891471E+03  0.86635742356E+03  0.10100000352E+00 0.  1.
       -3    1    3    3    0  502 -0.59507401445E+03 -0.83741050001E+02  0.57769410798E+03  0.83358031330E+03  0.10100000352E+00 0. -1.
</event>
<event>
 5   0  0.5755321E-05  0.1698457E+04  0.7818609E-02  0.8762245E-01
        2   -1    0    0  501    0  0.00000000000E+00  0.00000000000E+00  0.22252720520E+04  0.22252720520E+04  0.25500000920E-02 0.  1.
       -2   -1    0    0    0  501  0.00000000000E+00  0.00000000000E+00 -0.32409014732E+03  0.32409014733E+03  0.25500000920E-02 0. -1.
    10030    2    1    2    0    0  0.00000000000E+00  0.00000000000E+00  0.19011819046E+04  0.25493621993E+04  0.16984566490E+04 0.  0.
        4    1    3    3  502    0 -0.91816313970E+02  0.68413529618E+03  0.20807108830E+03  0.72094835438E+03  0.12699999809E+01 0. -1.
       -4    1    3    3    0  502  0.91816313970E+02 -0.68413529618E+03  0.16931108163E+04  0.18284138449E+04  0.12699999809E+01 0.  1.
</event>
<event>
 5   0  0.5755321E-05  0.1705950E+04  0.7818609E-02  0.8757978E-01
       -2   -1    0    0    0  501  0.00000000000E+00  0.00000000000E+00  0.28512427301E+03  0.28512427302E+03  0.25500000920E-02 0.  1.
        2   -1    0    0  501    0  0.00000000000E+00  0.00000000000E+00 -0.25517522936E+04  0.25517522936E+04  0.25500000920E-02 0. -1.
    10030    2    1    2    0    0  0.00000000000E+00  0.00000000000E+00 -0.22666280205E+04  0.28368765666E+04  0.17059501958E+04 0.  0.
        4    1    3    3  502    0  0.33145639307E+03 -0.71339214989E+03 -0.16817615010E+04  0.18566407997E+04  0.12699999809E+01 0.  1.
       -4    1    3    3    0  502 -0.33145639307E+03  0.71339214989E+03 -0.58486651953E+03  0.98023576684E+03  0.12699999809E+01 0. -1.
</event>
<event>
 5   0  0.5755321E-05  0.1699846E+04  0.7818609E-02  0.8761452E-01
       -2   -1    0    0    0  501  0.00000000000E+00  0.00000000000E+00  0.22834058368E+03  0.22834058370E+03  0.25500000920E-02 0.  1.
        2   -1    0    0  501    0  0.00000000000E+00  0.00000000000E+00 -0.31635615076E+04  0.31635615076E+04  0.25500000920E-02 0. -1.
    10030    2    1    2    0    0  0.00000000000E+00  0.00000000000E+00 -0.29352209239E+04  0.33919020913E+04  0.16998464415E+04 0.  0.
        4    1    3    3  502    0 -0.46542957249E+03 -0.16422318693E+02 -0.28862851121E+04  0.29236172356E+04  0.12699999809E+01 0. -1.
       -4    1    3    3    0  502  0.46542957249E+03  0.16422318693E+02 -0.48935811897E+02  0.46828485571E+03  0.12699999809E+01 0.  1.
</event>
<event>
 5   0  0.5671132E-05  0.1686594E+04  0.7818609E-02  0.8769047E-01
        2   -1    0    0  501    0  0.00000000000E+00  0.00000000000E+00  0.15742114877E+04  0.15742114877E+04  0.25500000920E-02 0.  1.
       -2   -1    0    0    0  501  0.00000000000E+00  0.00000000000E+00 -0.45175013295E+03  0.45175013296E+03  0.25500000920E-02 0. -1.
    10030    2    1    2    0    0  0.00000000000E+00  0.00000000000E+00  0.11224613547E+04  0.20259616206E+04  0.16865944964E+04 0.  0.
        3    1    3    3  502    0 -0.14106952700E+03  0.48391653147E+03  0.13733390584E+04  0.14629203670E+04  0.10100000352E+00 0.  1.
       -3    1    3    3    0  502  0.14106952700E+03 -0.48391653147E+03 -0.25087770363E+03  0.56304125360E+03  0.10100000352E+00 0. -1.
</event>
<event>
 5   0  0.2911632E-05  0.1701936E+04  0.7818609E-02  0.8760261E-01
        1   -1    0    0  501    0  0.00000000000E+00  0.00000000000E+00  0.10755448786E+04  0.10755448786E+04  0.50400001928E-02 0. -1.
       -1   -1    0    0    0  501  0.00000000000E+00  0.00000000000E+00 -0.67328343606E+03  0.67328343608E+03  0.50400001928E-02 0.  1.
    10030    2    1    2    0    0  0.00000000000E+00  0.00000000000E+00  0.40226144254E+03  0.17488283147E+04  0.17019360170E+04 0.  0.
        1    1    3    3  502    0 -0.79384801348E+03 -0.29871340965E+03  0.27174219947E+03  0.89065604618E+03  0.50400001928E-02 0.  1.
       -1    1    3    3    0  502  0.79384801348E+03  0.29871340965E+03  0.13051924306E+03  0.85817226851E+03  0.50400001928E-02 0. -1.
</event>
<event>
 5   0  0.5652631E-05  0.1683396E+04  0.7818609E-02  0.8770892E-01
        2   -1    0    0  501    0  0.00000000000E+00  0.00000000000E+00  0.14089953185E+04  0.14089953185E+04  0.25500000920E-02 0. -1.
       -2   -1    0    0    0  501  0.00000000000E+00  0.00000000000E+00 -0.50280874638E+03  0.50280874639E+03  0.25500000920E-02 0.  1.
    10030    2    1    2    0    0  0.00000000000E+00  0.00000000000E+00  0.90618657209E+03  0.19118040649E+04  0.16833955801E+04 0.  0.
        2    1    3    3  502    0 -0.73970342719E+03  0.49973359820E+02  0.53148146055E+00  0.74138976212E+03  0.25500000920E-02 0.  1.
       -2    1    3    3    0  502  0.73970342719E+03 -0.49973359820E+02  0.90565509063E+03  0.11704143027E+04  0.25500000920E-02 0. -1.
</event>
<event>
 5   0  0.5821584E-05  0.1695409E+04  0.7818609E-02  0.8763987E-01
       -2   -1    0    0    0  501  0.00000000000E+00  0.00000000000E+00  0.58045875001E+03  0.58045875002E+03  0.25500000920E-02 0.  1.
        2   -1    0    0  501    0  0.00000000000E+00  0.00000000000E+00 -0.12379917976E+04  0.12379917976E+04  0.25500000920E-02 0. -1.
    10030    2    1    2    0    0  0.00000000000E+00  0.00000000000E+00 -0.65753304757E+03  0.18184505476E+04  0.16954092973E+04 0.  0.
        1    1    3    3  502    0  0.37231055644E+02  0.68405273438E+03 -0.86428984035E+03  0.11028650067E+04  0.50400001928E-02 0. -1.
       -1    1    3    3    0  502 -0.37231055644E+02 -0.68405273438E+03  0.20675679278E+03  0.71558554087E+03  0.50400001928E-02 0.  1.
</event>
<event>
 5   0  0.2967704E-05  0.1698916E+04  0.7818609E-02  0.8761983E-01
       -1   -1    0    0    0  501  0.00000000000E+00  0.00000000000E+00  0.11663173394E+04  0.11663173394E+04  0.50400001928E-02 0. -1.
        1   -1    0    0  501    0  0.00000000000E+00  0.00000000000E+00 -0.61868162116E+03  0.61868162119E+03  0.50400001928E-02 0.  1.
    10030    2    1    2    0    0  0.00000000000E+00  0.00000000000E+00  0.54763571820E+03  0.17849989606E+04  0.16989162455E+04 0.  0.
        2    1    3    3  502    0  0.12133117647E+03 -0.78948756373E+02 -0.60562736600E+03  0.62268665231E+03  0.25500000920E-02 0.  1.
       -2    1    3    3    0  502 -0.12133117647E+03  0.78948756373E+02  0.11532630842E+04  0.11623123082E+04  0.25500000920E-02 0. -1.
</event>
<event>
 5   0  0.2967704E-05  0.1698051E+04  0.7818609E-02  0.8762477E-01
       -1   -1    0    0    0  501  0.00000000000E+00  0.00000000000E+00  0.43257258712E+03  0.43257258715E+03  0.50400001928E-02 0.  1.
        1   -1    0    0  501    0  0.00000000000E+00  0.00000000000E+00 -0.16664128798E+04  0.16664128798E+04  0.50400001928E-02 0. -1.
    10030    2    1    2    0    0  0.00000000000E+00  0.00000000000E+00 -0.12338402926E+04  0.20989854669E+04  0.16980512721E+04 0.  0.
        2    1    3    3  502    0  0.28892191472E+03 -0.69459948363E+03 -0.13041813214E+03  0.76351372264E+03  0.25500000920E-02 0.  1.
       -2    1    3    3    0  502 -0.28892191472E+03  0.69459948363E+03 -0.11034221605E+04  0.13354717443E+04  0.25500000920E-02 0. -1.
</event>
<event>
 5   0  0.5821584E-05  0.1699739E+04  0.7818609E-02  0.8761513E-01
       -2   -1    0    0    0  501  0.00000000000E+00  0.00000000000E+00  0.76424133987E+03  0.76424133987E+03  0.25500000920E-02 0. -1.
        2   -1    0    0  501    0  0.00000000000E+00  0.00000000000E+00 -0.94509209540E+03  0.94509209540E+03  0.25500000920E-02 0.  1.
    10030    2    1    2    0    0  0.00000000000E+00  0.00000000000E+00 -0.18085075553E+03  0.17093334353E+04  0.16997393321E+04 0.  0.
        1    1    3    3  502    0 -0.56154284578E+03 -0.19062911785E+03  0.52178716407E+03  0.78989345664E+03  0.50400001928E-02 0. -1.
       -1    1    3    3    0  502  0.56154284578E+03  0.19062911785E+03 -0.70263791961E+03  0.91943997864E+03  0.50400001928E-02 0.  1.
</event>
<event>
 5   0  0.5755321E-05  0.1697632E+04  0.7818609E-02  0.8762716E-01
       -2   -1    0    0    0  501  0.00000000000E+00  0.00000000000E+00  0.75872266398E+03  0.75872266398E+03  0.25500000920E-02 0. -1.
        2   -1    0    0  501    0  0.00000000000E+00  0.00000000000E+00 -0.94960766939E+03  0.94960766940E+03  0.25500000920E-02 0.  1.
    10030    2    1    2    0    0  0.00000000000E+00  0.00000000000E+00 -0.19088500542E+03  0.17083303334E+04  0.16976323049E+04 0.  0.
        4    1    3    3  502    0 -0.44039186237E+03 -0.27399627656E+03 -0.77159063092E+03  0.92971644421E+03  0.12699999809E+01 0.  1.
       -4    1    3    3    0  502  0.44039186237E+03  0.27399627656E+03  0.58070562551E+03  0.77861388917E+03  0.12699999809E+01 0. -1.
</event>
<event>
 5   0  0.5755321E-05  0.1700508E+04  0.7818609E-02  0.8761075E-01
       -2   -1    0    0    0  501  0.00000000000E+00  0.00000000000E+00  0.93643198012E+03  0.93643198013E+03  0.25500000920E-02 0.  1.
        2   -1    0    0  501    0  0.00000000000E+00  0.00000000000E+00 -0.77200698828E+03  0.77200698829E+03  0.25500000920E-02 0. -1.
    10030    2    1    2    0    0  0.00000000000E+00  0.00000000000E+00  0.16442499184E+03  0.17084389684E+04  0.17005081978E+04 0.  0.
        4    1    3    3  502    0 -0.84963992316E+03  0.31786480616E+02  0.87899322411E+02  0.85476680045E+03  0.12699999809E+01 0.  1.
       -4    1    3    3    0  502  0.84963992316E+03 -0.31786480616E+02  0.76525669430E+02  0.85367216796E+03  0.12699999809E+01 0. -1.
</event>
<event>
 5   0  0.2993769E-05  0.1700536E+04  0.7818609E-02  0.8761059E-01
       -1   -1    0    0    0  501  0.00000000000E+00  0.00000000000E+00  0.32723899548E+03  0.32723899552E+03  0.50400001928E-02 0.  1.
        1   -1    0    0  501    0  0.00000000000E+00  0.00000000000E+00 -0.22092596960E+04  0.22092596960E+04  0.50400001928E-02 0. -1.
    10030    2    1    2    0    0  0.00000000000E+00  0.00000000000E+00 -0.18820207005E+04  0.25364986915E+04  0.17005362963E+04 0.  0.
        3    1    3    3  502    0  0.60540686865E+03 -0.59168477489E+03 -0.10598475155E+04  0.13564236491E+04  0.10100000352E+00 0. -1.
       -3    1    3    3    0  502 -0.60540686865E+03  0.59168477489E+03 -0.82217318505E+03  0.11800750425E+04  0.10100000352E+00 0.  1.
</event>
<event>
 5   0  0.2987859E-05  0.1702496E+04  0.7818609E-02  0.8759942E-01
        1   -1    0    0  501    0  0.00000000000E+00  0.00000000000E+00  0.11943113542E+04  0.11943113542E+04  0.50400001928E-02 0. -1.
       -1   -1    0    0    0  501  0.00000000000E+00  0.00000000000E+00 -0.60672896750E+03  0.60672896752E+03  0.50400001928E-02 0.  1.
    10030    2    1    2    0    0  0.00000000000E+00  0.00000000000E+00  0.58758238673E+03  0.18010403218E+04  0.17024961613E+04 0.  0.
        5    1    3    3  502    0 -0.29079049218E+03  0.70377178049E+03  0.69626965426E+03  0.10318271904E+04  0.46999998093E+01 0.  1.
       -5    1    3    3    0  502  0.29079049218E+03 -0.70377178049E+03 -0.10868726753E+03  0.76921313137E+03  0.46999998093E+01 0. -1.
</event>
<event>
 5   0  0.5652631E-05  0.1701765E+04  0.7818609E-02  0.8760358E-01
       -2   -1    0    0    0  501  0.00000000000E+00  0.00000000000E+00  0.69396806080E+03  0.69396806080E+03  0.25500000920E-02 0.  1.
        2   -1    0    0  501    0  0.00000000000E+00  0.00000000000E+00 -0.10432772841E+04  0.10432772841E+04  0.25500000920E-02 0. -1.
    10030    2    1    2    0    0  0.00000000000E+00  0.00000000000E+00 -0.34930922333E+03  0.17372453449E+04  0.17017650998E+04 0.  0.
        2    1    3    3  502    0 -0.82305853708E+03  0.21111217296E+03 -0.12891637210E+03  0.85942605036E+03  0.25500000920E-02 0. -1.
       -2    1    3    3    0  502  0.82305853708E+03 -0.21111217296E+03 -0.22039285122E+03  0.87781929457E+03  0.25500000920E-02 0.  1.
</event>
<event>
 5   0  0.2967704E-05  0.1694205E+04  0.7818609E-02  0.8764677E-01
       -1   -1    0    0    0  501  0.00000000000E+00  0.00000000000E+00  0.85253503720E+03  0.85253503721E+03  0.50400001928E-02 0. -1.
        1   -1    0    0  501    0  0.00000000000E+00  0.00000000000E+00 -0.84170435031E+03  0.84170435033E+03  0.50400001928E-02 0.  1.
    10030    2    1    2    0    0  0.00000000000E+00  0.00000000000E+00  0.10830686887E+02  0.16942393875E+04  0.16942047688E+04 0.  0.
        2    1    3    3  502    0  0.42847269173E+03  0.41356416662E+03  0.60788784524E+03  0.85097109226E+03  0.25500000920E-02 0. -1.
       -2    1    3    3    0  502 -0.42847269173E+03 -0.41356416662E+03 -0.59705715836E+03  0.84326829528E+03  0.25500000920E-02 0.  1.
</event>
<event>
 5   0  0.2967704E-05  0.1700828E+04  0.7818609E-02  0.8760892E-01
       -1   -1    0    0    0  501  0.00000000000E+00  0.00000000000E+00  0.99658955039E+03  0.99658955041E+03  0.50400001928E-02 0. -1.
        1   -1    0    0  501    0  0.00000000000E+00  0.00000000000E+00 -0.72567865044E+03  0.72567865046E+03  0.50400001928E-02 0.  1.
    10030    2    1    2    0    0  0.00000000000E+00  0.00000000000E+00  0.27091089996E+03  0.17222682009E+04  0.17008277514E+04 0.  0.
        2    1    3    3  502    0  0.10613050240E+03  0.45324446524E+03  0.85612182761E+03  0.97449413160E+03  0.25500000920E-02 0. -1.
       -2    1    3    3    0  502 -0.10613050240E+03 -0.45324446524E+03 -0.58521092765E+03  0.74777406926E+03  0.25500000920E-02 0.  1.
</event>
<event>
 5   0  0.2911632E-05  0.1702081E+04  0.7818609E-02  0.8760178E-01
        1   -1    0    0  501    0  0.00000000000E+00  0.00000000000E+00  0.14779822757E+04  0.14779822757E+04  0.50400001928E-02 0.  1.
       -1   -1    0    0    0  501  0.00000000000E+00  0.00000000000E+00 -0.49003972876E+03  0.49003972879E+03  0.50400001928E-02 0. -1.
    10030    2    1    2    0    0  0.00000000000E+00  0.00000000000E+00  0.98794254693E+03  0.19680220045E+04  0.17020811186E+04 0.  0.
        1    1    3    3  502    0 -0.66475434686E+01  0.36742570638E+03  0.13815154554E+04  0.14295561524E+04  0.50400001928E-02 0.  1.
       -1    1    3    3    0  502  0.66475434686E+01 -0.36742570638E+03 -0.39357290844E+03  0.53846585205E+03  0.50400001928E-02 0. -1.
</event>
<event>
 5   0  0.5652631E-05  0.1726276E+04  0.7818609E-02  0.8746519E-01
       -2   -1    0    0    0  501  0.00000000000E+00  0.00000000000E+00  0.77261092020E+03  0.77261092020E+03  0.25500000920E-02 0. -1.
        2   -1    0    0  501    0  0.00000000000E+00  0.00000000000E+00 -0.96427180511E+03  0.96427180511E+03  0.25500000920E-02 0.  1.
    10030    2    1    2    0    0  0.00000000000E+00  0.00000000000E+00 -0.19166088491E+03  0.17368827253E+04  0.17262756752E+04 0.  0.
        2    1    3    3  502    0  0.34757479415E+02 -0.46302310004E+03 -0.82790578696E+03  0.94922413878E+03  0.25500000920E-02 0.  1.
       -2    1    3    3    0  502 -0.34757479415E+02  0.46302310004E+03  0.63624490205E+03  0.78765858654E+03  0.25500000920E-02 0. -1.
</event>
<event>
 5   0  0.5755321E-05  0.1703203E+04  0.7818609E-02  0.8759540E-01
        2   -1    0    0  501    0  0.00000000000E+00  0.00000000000E+00  0.90317485949E+03  0.90317485949E+03  0.25500000920E-02 0. -1.
       -2   -1    0    0    0  501  0.00000000000E+00  0.00000000000E+00 -0.80297264159E+03  0.80297264159E+03  0.25500000920E-02 0.  1.
    10030    2    1    2    0    0  0.00000000000E+00  0.00000000000E+00  0.10020221790E+03  0.17061475011E+04  0.17032025161E+04 0.  0.
        4    1    3    3  502    0 -0.29944280255E+03 -0.54348898454E+03  0.63435638625E+03  0.88738712296E+03  0.12699999809E+01 0. -1.
       -4    1    3    3    0  502  0.29944280255E+03  0.54348898454E+03 -0.53415416835E+03  0.81876037812E+03  0.12699999809E+01 0.  1.
</event>
<event>
 5   0  0.2911632E-05  0.1697418E+04  0.7818609E-02  0.8762838E-01
       -1   -1    0    0    0  501  0.00000000000E+00  0.00000000000E+00  0.32315351085E+03  0.32315351089E+03  0.50400001928E-02 0. -1.
        1   -1    0    0  501    0  0.00000000000E+00  0.00000000000E+00 -0.22289935124E+04  0.22289935124E+04  0.50400001928E-02 0.  1.
    10030    2    1    2    0    0  0.00000000000E+00  0.00000000000E+00 -0.19058400015E+04  0.25521470233E+04  0.16974181326E+04 0.  0.
        1    1    3    3  502    0 -0.47807391911E+03  0.53686429326E+03 -0.27460698812E+03  0.76953683437E+03  0.50400001928E-02 0. -1.
       -1    1    3    3    0  502  0.47807391911E+03 -0.53686429326E+03 -0.16312330134E+04  0.17826101889E+04  0.50400001928E-02 0.  1.
</event>
<event>
 5   0  0.5821584E-05  0.1694815E+04  0.7818609E-02  0.8764327E-01
       -2   -1    0    0    0  501  0.00000000000E+00  0.00000000000E+00  0.11744468226E+04  0.11744468226E+04  0.25500000920E-02 0. -1.
        2   -1    0    0  501    0  0.00000000000E+00  0.00000000000E+00 -0.61143649383E+03  0.61143649384E+03  0.25500000920E-02 0.  1.
    10030    2    1    2    0    0  0.00000000000E+00  0.00000000000E+00  0.56301032876E+03  0.17858833164E+04  0.16948152081E+04 0.  0.
        1    1    3    3  502    0 -0.81135907098E+03  0.22415651766E+03  0.17853022979E+03  0.86047819812E+03  0.50400001928E-02 0.  1.
       -1    1    3    3    0  502  0.81135907098E+03 -0.22415651766E+03  0.38448009898E+03  0.92540511831E+03  0.50400001928E-02 0. -1.
</event>
<event>
 5   0  0.2967704E-05  0.1701853E+04  0.7818609E-02  0.8760308E-01
        1   -1    0    0  501    0  0.00000000000E+00  0.00000000000E+00  0.16906527586E+04  0.16906527586E+04  0.50400001928E-02 0.  1.
       -1   -1    0    0    0  501  0.00000000000E+00  0.00000000000E+00 -0.42828202435E+03  0.42828202438E+03  0.50400001928E-02 0. -1.
    10030    2    1    2    0    0  0.00000000000E+00  0.00000000000E+00  0.12623707342E+04  0.21189347830E+04  0.17018533262E+04 0.  0.
        2    1    3    3  502    0 -0.43684631282E+03 -0.14098813562E+03 -0.26090345100E+03  0.52799902098E+03  0.25500000920E-02 0. -1.
       -2    1    3    3    0  502  0.43684631282E+03  0.14098813562E+03  0.15232741852E+04  0.15909357620E+04  0.25500000920E-02 0.  1.
</event>
<event>
 5   0  0.2911632E-05  0.1676992E+04  0.7818609E-02  0.8774596E-01
       -1   -1    0    0    0  501  0.00000000000E+00  0.00000000000E+00  0.11068116042E+04  0.11068116042E+04  0.50400001928E-02 0.  1.
        1   -1    0    0  501    0  0.00000000000E+00  0.00000000000E+00 -0.63522632221E+03  0.63522632223E+03  0.50400001928E-02 0. -1.
    10030    2    1    2    0    0  0.00000000000E+00  0.00000000000E+00  0.47158528199E+03  0.17420379264E+04  0.16769923849E+04 0.  0.
        1    1    3    3  502    0  0.83911232123E+02  0.27009373767E+03 -0.58418094919E+03  0.64904476227E+03  0.50400001928E-02 0. -1.
       -1    1    3    3    0  502 -0.83911232123E+02 -0.27009373767E+03  0.10557662312E+04  0.10929931642E+04  0.50400001928E-02 0.  1.
</event>
<event>
 5   0  0.2993769E-05  0.1697971E+04  0.7818609E-02  0.8762522E-01
       -1   -1    0    0    0  501  0.00000000000E+00  0.00000000000E+00  0.11766244937E+04  0.11766244937E+04  0.50400001928E-02 0.  1.
        1   -1    0    0  501    0  0.00000000000E+00  0.00000000000E+00 -0.61257992337E+03  0.61257992339E+03  0.50400001928E-02 0. -1.
    10030    2    1    2    0    0  0.00000000000E+00  0.00000000000E+00  0.56404457036E+03  0.17892044171E+04  0.16979711920E+04 0.  0.
        3    1    3    3  502    0 -0.44515548197E+03 -0.72731264244E+02 -0.47587553909E+03  0.65567581839E+03  0.10100000352E+00 0. -1.
       -3    1    3    3    0  502  0.44515548197E+03  0.72731264244E+02  0.10399201094E+04  0.11335285987E+04  0.10100000352E+00 0.  1.
</event>
<event>
 5   0  0.2911632E-05  0.1709591E+04  0.7818609E-02  0.8755913E-01
        1   -1    0    0  501    0  0.00000000000E+00  0.00000000000E+00  0.37450499059E+03  0.37450499063E+03  0.50400001928E-02 0. -1.
       -1   -1    0    0    0  501  0.00000000000E+00  0.00000000000E+00 -0.19510439840E+04  0.19510439840E+04  0.50400001928E-02 0.  1.
    10030    2    1    2    0    0  0.00000000000E+00  0.00000000000E+00 -0.15765389934E+04  0.23255489746E+04  0.17095914236E+04 0.  0.
        1    1    3    3  502    0  0.33177526580E+03  0.55019754762E+03 -0.15552197234E+04  0.16827063191E+04  0.50400001928E-02 0.  1.
       -1    1    3    3    0  502 -0.33177526580E+03 -0.55019754762E+03 -0.21319269990E+02  0.64284265548E+03  0.50400001928E-02 0. -1.
</event>
<event>
 5   0  0.2911632E-05  0.1699960E+04  0.7818609E-02  0.8761387E-01
        1   -1    0    0  501    0  0.00000000000E+00  0.00000000000E+00  0.95161398718E+03  0.95161398719E+03  0.50400001928E-02 0.  1.
       -1   -1    0    0    0  501  0.00000000000E+00  0.00000000000E+00 -0.75920079932E+03  0.75920079933E+03  0.50400001928E-02 0. -1.
    10030    2    1    2    0    0  0.00000000000E+00  0.00000000000E+00  0.19241318786E+03  0.17108147865E+04  0.16999601169E+04 0.  0.
        1    1    3    3  502    0 -0.69112774502E+03  0.49032699745E+03  0.29541829080E+02  0.84790969098E+03  0.50400001928E-02 0. -1.
       -1    1    3    3    0  502  0.69112774502E+03 -0.49032699745E+03  0.16287135878E+03  0.86290509554E+03  0.50400001928E-02 0.  1.
</event>
<event>
 5   0  0.2967704E-05  0.1699219E+04  0.7818609E-02  0.8761810E-01
       -1   -1    0    0    0  501  0.00000000000E+00  0.00000000000E+00  0.55133551665E+03  0.55133551667E+03  0.50400001928E-02 0. -1.
        1   -1    0    0  501    0  0.00000000000E+00  0.00000000000E+00 -0.13092509506E+04  0.13092509506E+04  0.50400001928E-02 0.  1.
    10030    2    1    2    0    0  0.00000000000E+00  0.00000000000E+00 -0.75791543393E+03  0.18605864673E+04  0.16992192905E+04 0.  0.
        2    1    3    3  502    0 -0.61338516259E+03 -0.48690924693E+03 -0.18259106980E+02  0.78336158153E+03  0.25500000920E-02 0.  1.
       -2    1    3    3    0  502  0.61338516259E+03  0.48690924693E+03 -0.73965632695E+03  0.10772248857E+04  0.25500000920E-02 0. -1.
</event>
<event>
 5   0  0.2911632E-05  0.1699866E+04  0.7818609E-02  0.8761441E-01
        1   -1    0    0  501    0  0.00000000000E+00  0.00000000000E+00  0.83021797894E+03  0.83021797895E+03  0.50400001928E-02 0.  1.
       -1   -1    0    0    0  501  0.00000000000E+00  0.00000000000E+00 -0.87011633226E+03  0.87011633228E+03  0.50400001928E-02 0. -1.
    10030    2    1    2    0    0  0.00000000000E+00  0.00000000000E+00 -0.39898353324E+02  0.17003343112E+04  0.16998661392E+04 0.  0.
        1    1    3    3  502    0 -0.44073705812E+03  0.41043460449E+03 -0.61984804761E+03  0.86424378569E+03  0.50400001928E-02 0. -1.
       -1    1    3    3    0  502  0.44073705812E+03 -0.41043460449E+03  0.57994969429E+03  0.83609052553E+03  0.50400001928E-02 0.  1.
</event>
<event>
 5   0  0.5652631E-05  0.1702411E+04  0.7818609E-02  0.8759990E-01
       -2   -1    0    0    0  501  0.00000000000E+00  0.00000000000E+00  0.54352867750E+03  0.54352867751E+03  0.25500000920E-02 0. -1.
        2   -1    0    0  501    0  0.00000000000E+00  0.00000000000E+00 -0.13330500502E+04  0.13330500502E+04  0.25500000920E-02 0.  1.
    10030    2    1    2    0    0  0.00000000000E+00  0.00000000000E+00 -0.78952137270E+03  0.18765787277E+04  0.17024111499E+04 0.  0.
        2    1    3    3  502    0 -0.56837942502E+02 -0.84243560493E+03 -0.51359847250E+03  0.98828725132E+03  0.25500000920E-02 0.  1.
       -2    1    3    3    0  502  0.56837942502E+02  0.84243560493E+03 -0.27592290020E+03  0.88829147639E+03  0.25500000920E-02 0. -1.
</event>
<event>
 5   0  0.2967704E-05  0.1699104E+04  0.7818609E-02  0.8761876E-01
        1   -1    0    0  501    0  0.00000000000E+00  0.00000000000E+00  0.45358038811E+03  0.45358038814E+03  0.50400001928E-02 0.  1.
       -1   -1    0    0    0  501  0.00000000000E+00  0.00000000000E+00 -0.15912033006E+04  0.15912033006E+04  0.50400001928E-02 0. -1.
    10030    2    1    2    0    0  0.00000000000E+00  0.00000000000E+00 -0.11376229125E+04  0.20447836888E+04  0.16991040118E+04 0.  0.
        2    1    3    3  502    0 -0.61813207208E+02  0.45095429900E+03 -0.14320772975E+04  0.15026729646E+04  0.25500000920E-02 0. -1.
       -2    1    3    3    0  502  0.61813207208E+02 -0.45095429900E+03  0.29445438505E+03  0.54211072416E+03  0.25500000920E-02 0.  1.
</event>
<event>
 5   0  0.2987859E-05  0.1687901E+04  0.7818609E-02  0.8768295E-01
        1   -1    0    0  501    0  0.00000000000E+00  0.00000000000E+00  0.88393270208E+03  0.88393270209E+03  0.50400001928E-02 0. -1.
       -1   -1    0    0    0  501  0.00000000000E+00  0.00000000000E+00 -0.80577639976E+03  0.80577639978E+03  0.50400001928E-02 0.  1.
    10030    2    1    2    0    0  0.00000000000E+00  0.00000000000E+00  0.78156302311E+02  0.16897091019E+04  0.16879006017E+04 0.  0.
        5    1    3    3  502    0 -0.41751321821E+03  0.40216768008E+03 -0.57490916509E+03  0.81645500083E+03  0.46999998093E+01 0.  1.
       -5    1    3    3    0  502  0.41751321821E+03 -0.40216768008E+03  0.65306546740E+03  0.87325410104E+03  0.46999998093E+01 0. -1.
</event>
<event>
 5   0  0.5821584E-05  0.1701240E+04  0.7818609E-02  0.8760657E-01
       -2   -1    0    0    0  501  0.00000000000E+00  0.00000000000E+00  0.50458555542E+03  0.50458555543E+03  0.25500000920E-02 0. -1.
        2   -1    0    0  501    0  0.00000000000E+00  0.00000000000E+00 -0.14339583627E+04  0.14339583627E+04  0.25500000920E-02 0.  1.
    10030    2    1    2    0    0  0.00000000000E+00  0.00000000000E+00 -0.92937280723E+03  0.19385439181E+04  0.17012403438E+04 0.  0.
        1    1    3    3  502    0 -0.71135106634E+03  0.37371063554E+03 -0.14670028662E+03  0.81682369751E+03  0.50400001928E-02 0. -1.
       -1    1    3    3    0  502  0.71135106634E+03 -0.37371063554E+03 -0.78267252061E+03  0.11217202206E+04  0.50400001928E-02 0.  1.
</event>
<event>
 5   0  0.5821584E-05  0.1701561E+04  0.7818609E-02  0.8760475E-01
       -2   -1    0    0    0  501  0.00000000000E+00  0.00000000000E+00  0.83052585945E+03  0.83052585946E+03  0.25500000920E-02 0.  1.
        2   -1    0    0  501    0  0.00000000000E+00  0.00000000000E+00 -0.87152886763E+03  0.87152886763E+03  0.25500000920E-02 0. -1.
    10030    2    1    2    0    0  0.00000000000E+00  0.00000000000E+00 -0.41003008177E+02  0.17020547271E+04  0.17015607680E+04 0.  0.
        1    1    3    3  502    0 -0.25054269296E+03  0.41135913685E+03 -0.72201763530E+03  0.86792709726E+03  0.50400001928E-02 0. -1.
       -1    1    3    3    0  502  0.25054269296E+03 -0.41135913685E+03  0.68101462712E+03  0.83412762983E+03  0.50400001928E-02 0.  1.
</event>
<event>
 5   0  0.5652631E-05  0.1698338E+04  0.7818609E-02  0.8762313E-01
       -2   -1    0    0    0  501  0.00000000000E+00  0.00000000000E+00  0.11408607438E+04  0.11408607438E+04  0.25500000920E-02 0. -1.
        2   -1    0    0  501    0  0.00000000000E+00  0.00000000000E+00 -0.63205611225E+03  0.63205611225E+03  0.25500000920E-02 0.  1.
    10030    2    1    2    0    0  0.00000000000E+00  0.00000000000E+00  0.50880463151E+03  0.17729168560E+04  0.16983380186E+04 0.  0.
        2    1    3    3  502    0 -0.45553942125E+03  0.30780075629E+03 -0.42118798576E+03  0.69257258771E+03  0.25500000920E-02 0.  1.
       -2    1    3    3    0  502  0.45553942125E+03 -0.30780075629E+03  0.92999261728E+03  0.10803442683E+04  0.25500000920E-02 0. -1.
</event>
<event>
 5   0  0.5859822E-05  0.1688113E+04  0.7818609E-02  0.8768173E-01
       -2   -1    0    0    0  501  0.00000000000E+00  0.00000000000E+00  0.95461271963E+03  0.95461271963E+03  0.25500000920E-02 0.  1.
        2   -1    0    0  501    0  0.00000000000E+00  0.00000000000E+00 -0.74630404822E+03  0.74630404822E+03  0.25500000920E-02 0. -1.
    10030    2    1    2    0    0  0.00000000000E+00  0.00000000000E+00  0.20830867141E+03  0.17009167679E+04  0.16881129549E+04 0.  0.
        5    1    3    3  502    0 -0.46161541855E+03  0.12346359030E+03  0.80518799592E+03  0.93631290258E+03  0.46999998093E+01 0.  1.
       -5    1    3    3    0  502  0.46161541855E+03 -0.12346359030E+03 -0.59687932450E+03  0.76460386528E+03  0.46999998093E+01 0. -1.
</event>
<event>
 5   0  0.2966258E-05  0.1691756E+04  0.7818609E-02  0.8766080E-01
        1   -1    0    0  501    0  0.00000000000E+00  0.00000000000E+00  0.12428509142E+04  0.12428509142E+04  0.50400001928E-02 0. -1.
       -1   -1    0    0    0  501  0.00000000000E+00  0.00000000000E+00 -0.57570003958E+03  0.57570003960E+03  0.50400001928E-02 0.  1.
    10030    2    1    2    0    0  0.00000000000E+00  0.00000000000E+00  0.66715087462E+03  0.18185509538E+04  0.16917556804E+04 0.  0.
        4    1    3    3  502    0 -0.63809555340E+03  0.52749818832E+03  0.52003317197E+03  0.97767908170E+03  0.12699999809E+01 0. -1.
       -4    1    3    3    0  502  0.63809555340E+03 -0.52749818832E+03  0.14711770264E+03  0.84087187209E+03  0.12699999809E+01 0.  1.
</event>
<event>
 5   0  0.5821584E-05  0.1699223E+04  0.7818609E-02  0.8761808E-01
       -2   -1    0    0    0  501  0.00000000000E+00  0.00000000000E+00  0.37532602088E+03  0.37532602088E+03  0.25500000920E-02 0.  1.
        2   -1    0    0  501    0  0.00000000000E+00  0.00000000000E+00 -0.19232342470E+04  0.19232342470E+04  0.25500000920E-02 0. -1.
    10030    2    1    2    0    0  0.00000000000E+00  0.00000000000E+00 -0.15479082261E+04  0.22985602679E+04  0.16992231839E+04 0.  0.
        1    1    3    3  502    0  0.19949244861E+03 -0.41317521703E+03 -0.17412417194E+04  0.18006759071E+04  0.50400001928E-02 0. -1.
       -1    1    3    3    0  502 -0.19949244861E+03  0.41317521703E+03  0.19333349331E+03  0.49788436075E+03  0.50400001928E-02 0.  1.
</event>
<event>
 5   0  0.2911632E-05  0.1700584E+04  0.7818609E-02  0.8761031E-01
        1   -1    0    0  501    0  0.00000000000E+00  0.00000000000E+00  0.83821096852E+03  0.83821096854E+03  0.50400001928E-02 0. -1.
       -1   -1    0    0    0  501  0.00000000000E+00  0.00000000000E+00 -0.86254709840E+03  0.86254709842E+03  0.50400001928E-02 0.  1.
    10030    2    1    2    0    0  0.00000000000E+00  0.00000000000E+00 -0.24336129882E+02  0.17007580670E+04  0.17005839453E+04 0.  0.
        1    1    3    3  502    0  0.13186814000E+03 -0.40030968202E+02  0.82696775631E+03  0.83837184755E+03  0.50400001928E-02 0. -1.
       -1    1    3    3    0  502 -0.13186814000E+03  0.40030968202E+02 -0.85130388619E+03  0.86238621941E+03  0.50400001928E-02 0.  1.
</event>
<event>
 5   0  0.2967704E-05  0.1694038E+04  0.7818609E-02  0.8764772E-01
        1   -1    0    0  501    0  0.00000000000E+00  0.00000000000E+00  0.18988086286E+04  0.18988086286E+04  0.50400001928E-02 0. -1.
       -1   -1    0    0    0  501  0.00000000000E+00  0.00000000000E+00 -0.37783764452E+03  0.37783764455E+03  0.50400001928E-02 0.  1.
    10030    2    1    2    0    0  0.00000000000E+00  0.00000000000E+00  0.15209709841E+04  0.22766462732E+04  0.16940382282E+04 0.  0.
        2    1    3    3  502    0  0.40506790989E+03 -0.52895878825E+03  0.57572129066E+02  0.66872412947E+03  0.25500000920E-02 0.  1.
       -2    1    3    3    0  502 -0.40506790989E+03  0.52895878825E+03  0.14633988550E+04  0.16079221437E+04  0.25500000920E-02 0. -1.
</event>
<event>
 5   0  0.2911632E-05  0.1697912E+04  0.7818609E-02  0.8762556E-01
        1   -1    0    0  501    0  0.00000000000E+00  0.00000000000E+00  0.75081126055E+03  0.75081126057E+03  0.50400001928E-02 0.  1.
       -1   -1    0    0    0  501  0.00000000000E+00  0.00000000000E+00 -0.95993022112E+03  0.95993022114E+03  0.50400001928E-02 0. -1.
    10030    2    1    2    0    0  0.00000000000E+00  0.00000000000E+00 -0.20911896057E+03  0.17107414817E+04  0.16979121525E+04 0.  0.
        1    1    3    3  502    0  0.51823907308E+03 -0.66234096358E+03 -0.22144956434E+03  0.86965924273E+03  0.50400001928E-02 0. -1.
       -1    1    3    3    0  502 -0.51823907308E+03  0.66234096358E+03  0.12330603766E+02  0.84108223897E+03  0.50400001928E-02 0.  1.
</event>
<event>
 5   0  0.2987859E-05  0.1700381E+04  0.7818609E-02  0.8761147E-01
       -1   -1    0    0    0  501  0.00000000000E+00  0.00000000000E+00  0.59525891913E+03  0.59525891915E+03  0.50400001928E-02 0. -1.
        1   -1    0    0  501    0  0.00000000000E+00  0.00000000000E+00 -0.12143022997E+04  0.12143022997E+04  0.50400001928E-02 0.  1.
    10030    2    1    2    0    0  0.00000000000E+00  0.00000000000E+00 -0.61904338059E+03  0.18095612189E+04  0.17003814566E+04 0.  0.
        5    1    3    3  502    0  0.76131262229E+03  0.37107669692E+03 -0.38849833451E+03  0.93179819155E+03  0.46999998093E+01 0.  1.
       -5    1    3    3    0  502 -0.76131262229E+03 -0.37107669692E+03 -0.23054504607E+03  0.87776302732E+03  0.46999998093E+01 0. -1.
</event>
<event>
 5   0  0.2967704E-05  0.1711174E+04  0.7818609E-02  0.8755017E-01
       -1   -1    0    0    0  501  0.00000000000E+00  0.00000000000E+00  0.39761372746E+03  0.39761372749E+03  0.50400001928E-02 0. -1.
        1   -1    0    0  501    0  0.00000000000E+00  0.00000000000E+00 -0.18410560469E+04  0.18410560470E+04  0.50400001928E-02 0.  1.
    10030    2    1    2    0    0  0.00000000000E+00  0.00000000000E+00 -0.14434423195E+04  0.22386697744E+04  0.17111740500E+04 0.  0.
        2    1    3    3  502    0 -0.43507295741E+03  0.69549671215E+03 -0.40387727731E+03  0.91439652778E+03  0.25500000920E-02 0. -1.
       -2    1    3    3    0  502  0.43507295741E+03 -0.69549671215E+03 -0.10395650422E+04  0.13242732467E+04  0.25500000920E-02 0.  1.
</event>
<event>
 5   0  0.5821584E-05  0.1701247E+04  0.7818609E-02  0.8760653E-01
        2   -1    0    0  501    0  0.00000000000E+00  0.00000000000E+00  0.65280539039E+03  0.65280539040E+03  0.25500000920E-02 0.  1.
       -2   -1    0    0    0  501  0.00000000000E+00  0.00000000000E+00 -0.11083861103E+04  0.11083861103E+04  0.25500000920E-02 0. -1.
    10030    2    1    2    0    0  0.00000000000E+00  0.00000000000E+00 -0.45558071988E+03  0.17611915007E+04  0.17012471043E+04 0.  0.
        1    1    3    3  502    0 -0.49496368414E+03  0.66950422517E+03 -0.40809817681E+03  0.92723733644E+03  0.50400001928E-02 0. -1.
       -1    1    3    3    0  502  0.49496368414E+03 -0.66950422517E+03 -0.47482543079E+02  0.83395416425E+03  0.50400001928E-02 0.  1.
</event>
<event>
 5   0  0.5671132E-05  0.1703994E+04  0.7818609E-02  0.8759090E-01
        2   -1    0    0  501    0  0.00000000000E+00  0.00000000000E+00  0.15146825223E+04  0.15146825223E+04  0.25500000920E-02 0. -1.
       -2   -1    0    0    0  501  0.00000000000E+00  0.00000000000E+00 -0.47924149977E+03  0.47924149978E+03  0.25500000920E-02 0.  1.
    10030    2    1    2    0    0  0.00000000000E+00  0.00000000000E+00  0.10354410225E+04  0.19939240220E+04  0.17039938071E+04 0.  0.
        3    1    3    3  502    0 -0.48809088882E+03 -0.63837170737E+03  0.84899328855E+03  0.11689913459E+04  0.10100000352E+00 0. -1.
       -3    1    3    3    0  502  0.48809088882E+03  0.63837170737E+03  0.18644773396E+03  0.82493267618E+03  0.10100000352E+00 0.  1.
</event>
<event>
 5   0  0.2911632E-05  0.1696134E+04  0.7818609E-02  0.8763572E-01
       -1   -1    0    0    0  501  0.00000000000E+00  0.00000000000E+00  0.30717738545E+03  0.30717738549E+03  0.50400001928E-02 0. -1.
        1   -1    0    0  501    0  0.00000000000E+00  0.00000000000E+00 -0.23413766210E+04  0.23413766210E+04  0.50400001928E-02 0.  1.
    10030    2    1    2    0    0  0.00000000000E+00  0.00000000000E+00 -0.20341992356E+04  0.26485540065E+04  0.16961343683E+04 0.  0.
        1    1    3    3  502    0  0.34044012625E+02 -0.18258667729E+03 -0.23092272721E+04  0.23166845888E+04  0.50400001928E-02 0.  1.
       -1    1    3    3    0  502 -0.34044012625E+02  0.18258667729E+03  0.27502803656E+03  0.33186941775E+03  0.50400001928E-02 0. -1.
</event>
<event>
 5   0  0.2967704E-05  0.1703028E+04  0.7818609E-02  0.8759639E-01
       -1   -1    0    0    0  501  0.00000000000E+00  0.00000000000E+00  0.92353294385E+03  0.92353294387E+03  0.50400001928E-02 0. -1.
        1   -1    0    0  501    0  0.00000000000E+00  0.00000000000E+00 -0.78511163216E+03  0.78511163218E+03  0.50400001928E-02 0.  1.
    10030    2    1    2    0    0  0.00000000000E+00  0.00000000000E+00  0.13842131169E+03  0.17086445760E+04  0.17030284283E+04 0.  0.
        2    1    3    3  502    0  0.88251045975E+01  0.30339018745E+02 -0.78452328274E+03  0.78515929575E+03  0.25500000920E-02 0.  1.
       -2    1    3    3    0  502 -0.88251045975E+01 -0.30339018745E+02  0.92294459443E+03  0.92348528030E+03  0.25500000920E-02 0. -1.
</event>
<event>
 5   0  0.2911632E-05  0.1698075E+04  0.7818609E-02  0.8762463E-01
        1   -1    0    0  501    0  0.00000000000E+00  0.00000000000E+00  0.75641040138E+03  0.75641040140E+03  0.50400001928E-02 0.  1.
       -1   -1    0    0    0  501  0.00000000000E+00  0.00000000000E+00 -0.95300775301E+03  0.95300775303E+03  0.50400001928E-02 0. -1.
    10030    2    1    2    0    0  0.00000000000E+00  0.00000000000E+00 -0.19659735163E+03  0.17094181544E+04  0.16980753540E+04 0.  0.
        1    1    3    3  502    0  0.67871767316E+02  0.83814088847E+03  0.19866200088E+02  0.84111913048E+03  0.50400001928E-02 0. -1.
       -1    1    3    3    0  502 -0.67871767316E+02 -0.83814088847E+03 -0.21646355172E+03  0.86829902394E+03  0.50400001928E-02 0.  1.
</event>
<event>
 5   0  0.2967704E-05  0.1699084E+04  0.7818609E-02  0.8761887E-01
        1   -1    0    0  501    0  0.00000000000E+00  0.00000000000E+00  0.91281453140E+03  0.91281453141E+03  0.50400001928E-02 0. -1.
       -1   -1    0    0    0  501  0.00000000000E+00  0.00000000000E+00 -0.79065515177E+03  0.79065515179E+03  0.50400001928E-02 0.  1.
    10030    2    1    2    0    0  0.00000000000E+00  0.00000000000E+00  0.12215937963E+03  0.17034696832E+04  0.16990838848E+04 0.  0.
        2    1    3    3  502    0 -0.55680016148E+03 -0.50146867333E+02  0.70240294855E+03  0.89772547601E+03  0.25500000920E-02 0. -1.
       -2    1    3    3    0  502  0.55680016148E+03  0.50146867333E+02 -0.58024356892E+03  0.80574420719E+03  0.25500000920E-02 0.  1.
</event>
<event>
 5   0  0.2993769E-05  0.1701223E+04  0.7818609E-02  0.8760667E-01
       -1   -1    0    0    0  501  0.00000000000E+00  0.00000000000E+00  0.52049488519E+03  0.52049488522E+03  0.50400001928E-02 0.  1.
        1   -1    0    0  501    0  0.00000000000E+00  0.00000000000E+00 -0.13901000268E+04  0.13901000268E+04  0.50400001928E-02 0. -1.
    10030    2    1    2    0    0  0.00000000000E+00  0.00000000000E+00 -0.86960514161E+03  0.19105949120E+04  0.17012230352E+04 0.  0.
        3    1    3    3  502    0 -0.60935822271E+03 -0.45819161492E+02 -0.10993373997E+04  0.12577597416E+04  0.10100000352E+00 0. -1.
       -3    1    3    3    0  502  0.60935822271E+03  0.45819161492E+02  0.22973225805E+03  0.65283517042E+03  0.10100000352E+00 0.  1.
</event>
<event>
 5   0  0.5821584E-05  0.1694349E+04  0.7818609E-02  0.8764594E-01
        2   -1    0    0  501    0  0.00000000000E+00  0.00000000000E+00  0.90077269654E+03  0.90077269655E+03  0.25500000920E-02 0.  1.
       -2   -1    0    0    0  501  0.00000000000E+00  0.00000000000E+00 -0.79676586557E+03  0.79676586557E+03  0.25500000920E-02 0. -1.
    10030    2    1    2    0    0  0.00000000000E+00  0.00000000000E+00  0.10400683097E+03  0.16975385621E+04  0.16943493586E+04 0.  0.
        1    1    3    3  502    0 -0.61570067820E+03 -0.52319647938E+02  0.63264606248E+03  0.88434479197E+03  0.50400001928E-02 0.  1.
       -1    1    3    3    0  502  0.61570067820E+03  0.52319647938E+02 -0.52863923150E+03  0.81319377015E+03  0.50400001928E-02 0. -1.
</event>
<event>
 5   0  0.2987859E-05  0.1701957E+04  0.7818609E-02  0.8760249E-01
       -1   -1    0    0    0  501  0.00000000000E+00  0.00000000000E+00  0.10359323902E+04  0.10359323902E+04  0.50400001928E-02 0.  1.
        1   -1    0    0  501    0  0.00000000000E+00  0.00000000000E+00 -0.69904563122E+03  0.69904563124E+03  0.50400001928E-02 0. -1.
    10030    2    1    2    0    0  0.00000000000E+00  0.00000000000E+00  0.33688675897E+03  0.17349780214E+04  0.17019565348E+04 0.  0.
        5    1    3    3  502    0 -0.86465691247E+02 -0.80816843674E+03  0.42538403871E+03  0.91738007842E+03  0.46999998093E+01 0.  1.
       -5    1    3    3    0  502  0.86465691247E+02  0.80816843674E+03 -0.88497279742E+02  0.81759794301E+03  0.46999998093E+01 0. -1.
</event>
<event>
 5   0  0.5652631E-05  0.1700023E+04  0.7818609E-02  0.8761351E-01
       -2   -1    0    0    0  501  0.00000000000E+00  0.00000000000E+00  0.82991983674E+03  0.82991983675E+03  0.25500000920E-02 0.  1.
        2   -1    0    0  501    0  0.00000000000E+00  0.00000000000E+00 -0.87058973962E+03  0.87058973962E+03  0.25500000920E-02 0. -1.
    10030    2    1    2    0    0  0.00000000000E+00  0.00000000000E+00 -0.40669902874E+02  0.17005095764E+04  0.17000231699E+04 0.  0.
        2    1    3    3  502    0 -0.26646702423E+03 -0.74249679201E+03 -0.33699073825E+03  0.85782802404E+03  0.25500000920E-02 0. -1.
       -2    1    3    3    0  502  0.26646702423E+03  0.74249679201E+03  0.29632083538E+03  0.84268155233E+03  0.25500000920E-02 0.  1.
</event>
<event>
 5   0  0.2967704E-05  0.1691719E+04  0.7818609E-02  0.8766102E-01
        1   -1    0    0  501    0  0.00000000000E+00  0.00000000000E+00  0.91332418365E+03  0.91332418366E+03  0.50400001928E-02 0. -1.
       -1   -1    0    0    0  501  0.00000000000E+00  0.00000000000E+00 -0.78337792896E+03  0.78337792898E+03  0.50400001928E-02 0.  1.
    10030    2    1    2    0    0  0.00000000000E+00  0.00000000000E+00  0.12994625468E+03  0.16967021126E+04  0.16917186616E+04 0.  0.
        2    1    3    3  502    0  0.78270044111E+03  0.31308147294E+03 -0.47876340925E+01  0.84300825065E+03  0.25500000920E-02 0. -1.
       -2    1    3    3    0  502 -0.78270044111E+03 -0.31308147294E+03  0.13473388878E+03  0.85369386199E+03  0.25500000920E-02 0.  1.
</event>
<event>
 5   0  0.5671132E-05  0.1698975E+04  0.7818609E-02  0.8761949E-01
        2   -1    0    0  501    0  0.00000000000E+00  0.00000000000E+00  0.93206855557E+03  0.93206855557E+03  0.25500000920E-02 0.  1.
       -2   -1    0    0    0  501  0.00000000000E+00  0.00000000000E+00 -0.77422298179E+03  0.77422298180E+03  0.25500000920E-02 0. -1.
    10030    2    1    2    0    0  0.00000000000E+00  0.00000000000E+00  0.15784557378E+03  0.17062915374E+04  0.16989748631E+04 0.  0.
        3    1    3    3  502    0 -0.79694966069E+03  0.22487557699E+03  0.26929411332E+03  0.87075663447E+03  0.10100000352E+00 0.  1.
       -3    1    3    3    0  502  0.79694966069E+03 -0.22487557699E+03 -0.11144853954E+03  0.83553490290E+03  0.10100000352E+00 0. -1.
</event>
<event>
 5   0  0.2911632E-05  0.1699082E+04  0.7818609E-02  0.8761888E-01
       -1   -1    0    0    0  501  0.00000000000E+00  0.00000000000E+00  0.32508648597E+03  0.32508648601E+03  0.50400001928E-02 0.  1.
        1   -1    0    0  501    0  0.00000000000E+00  0.00000000000E+00 -0.22200863186E+04  0.22200863186E+04  0.50400001928E-02 0. -1.
    10030    2    1    2    0    0  0.00000000000E+00  0.00000000000E+00 -0.18949998326E+04  0.25451728046E+04  0.16990821757E+04 0.  0.
        1    1    3    3  502    0 -0.25931048465E+03  0.27712909293E+03  0.19103316335E+03  0.42489543552E+03  0.50400001928E-02 0.  1.
       -1    1    3    3    0  502  0.25931048465E+03 -0.27712909293E+03 -0.20860329960E+04  0.21202773691E+04  0.50400001928E-02 0. -1.
</event>
<event>
 5   0  0.5671132E-05  0.1703532E+04  0.7818609E-02  0.8759353E-01
        2   -1    0    0  501    0  0.00000000000E+00  0.00000000000E+00  0.11776475044E+04  0.11776475044E+04  0.25500000920E-02 0.  1.
       -2   -1    0    0    0  501  0.00000000000E+00  0.00000000000E+00 -0.61606290265E+03  0.61606290266E+03  0.25500000920E-02 0. -1.
    10030    2    1    2    0    0  0.00000000000E+00  0.00000000000E+00  0.56158460172E+03  0.17937104070E+04  0.17035315551E+04 0.  0.
        3    1    3    3  502    0  0.52802344861E+03 -0.20239602953E+03 -0.38989762652E+03  0.68687195635E+03  0.10100000352E+00 0. -1.
       -3    1    3    3    0  502 -0.52802344861E+03  0.20239602953E+03  0.95148222823E+03  0.11068384507E+04  0.10100000352E+00 0.  1.
</event>
<event>
 5   0  0.2993769E-05  0.1698490E+04  0.7818609E-02  0.8762226E-01
        1   -1    0    0  501    0  0.00000000000E+00  0.00000000000E+00  0.13698584641E+04  0.13698584642E+04  0.50400001928E-02 0. -1.
       -1   -1    0    0    0  501  0.00000000000E+00  0.00000000000E+00 -0.52649040533E+03  0.52649040536E+03  0.50400001928E-02 0.  1.
    10030    2    1    2    0    0  0.00000000000E+00  0.00000000000E+00  0.84336805881E+03  0.18963488695E+04  0.16984903156E+04 0.  0.
        3    1    3    3  502    0  0.83422049972E+03  0.15035770344E+03  0.47954849468E+03  0.97390864566E+03  0.10100000352E+00 0. -1.
       -3    1    3    3    0  502 -0.83422049972E+03 -0.15035770344E+03  0.36381956413E+03  0.92244022385E+03  0.10100000352E+00 0.  1.
</event>
<event>
 5   0  0.2987859E-05  0.1701495E+04  0.7818609E-02  0.8760512E-01
       -1   -1    0    0    0  501  0.00000000000E+00  0.00000000000E+00  0.43803302056E+03  0.43803302059E+03  0.50400001928E-02 0.  1.
        1   -1    0    0  501    0  0.00000000000E+00  0.00000000000E+00 -0.16523217765E+04  0.16523217765E+04  0.50400001928E-02 0. -1.
    10030    2    1    2    0    0  0.00000000000E+00  0.00000000000E+00 -0.12142887559E+04  0.20903547971E+04  0.17014952233E+04 0.  0.
        5    1    3    3  502    0 -0.75757408806E+03  0.22305965591E+03 -0.21849970353E+03  0.81941339959E+03  0.46999998093E+01 0.  1.
       -5    1    3    3    0  502  0.75757408806E+03 -0.22305965591E+03 -0.99578905242E+03  0.12709413975E+04  0.46999998093E+01 0. -1.
</event>
<event>
 5   0  0.2993769E-05  0.1697242E+04  0.7818609E-02  0.8762939E-01
       -1   -1    0    0    0  501  0.00000000000E+00  0.00000000000E+00  0.52345882309E+03  0.52345882311E+03  0.50400001928E-02 0.  1.
        1   -1    0    0  501    0  0.00000000000E+00  0.00000000000E+00 -0.13757668073E+04  0.13757668073E+04  0.50400001928E-02 0. -1.
    10030    2    1    2    0    0  0.00000000000E+00  0.00000000000E+00 -0.85230798422E+03  0.18992256304E+04  0.16972416137E+04 0.  0.
        3    1    3    3  502    0  0.84805943245E+03  0.20807902516E+02 -0.40064912337E+03  0.93816709601E+03  0.10100000352E+00 0.  1.
       -3    1    3    3    0  502 -0.84805943245E+03 -0.20807902516E+02 -0.45165886086E+03  0.96105853442E+03  0.10100000352E+00 0. -1.
</event>
<event>
 5   0  0.5859822E-05  0.1703819E+04  0.7818609E-02  0.8759189E-01
       -2   -1    0    0    0  501  0.00000000000E+00  0.00000000000E+00  0.10509619928E+04  0.10509619928E+04  0.25500000920E-02 0. -1.
        2   -1    0    0  501    0  0.00000000000E+00  0.00000000000E+00 -0.69055779674E+03  0.69055779675E+03  0.25500000920E-02 0.  1.
    10030    2    1    2    0    0  0.00000000000E+00  0.00000000000E+00  0.36040419609E+03  0.17415197896E+04  0.17038192372E+04 0.  0.
        5    1    3    3  502    0 -0.46627408756E+03 -0.71273014277E+03  0.16157449182E+03  0.86690494724E+03  0.46999998093E+01 0. -1.
       -5    1    3    3    0  502  0.46627408756E+03  0.71273014277E+03  0.19882970427E+03  0.87461484234E+03  0.46999998093E+01 0.  1.
</event>
<event>
 5   0  0.5821584E-05  0.1700334E+04  0.7818609E-02  0.8761174E-01
       -2   -1    0    0    0  501  0.00000000000E+00  0.00000000000E+00  0.52468056193E+03  0.52468056193E+03  0.25500000920E-02 0.  1.
        2   -1    0    0  501    0  0.00000000000E+00  0.00000000000E+00 -0.13775688311E+04  0.13775688311E+04  0.25500000920E-02 0. -1.
    10030    2    1    2    0    0  0.00000000000E+00  0.00000000000E+00 -0.85288826920E+03  0.19022493931E+04  0.17003336007E+04 0.  0.
        1    1    3    3  502    0  0.17932887927E+03 -0.72385232702E+03  0.30278282558E+02  0.74634965846E+03  0.50400001928E-02 0.  1.
       -1    1    3    3    0  502 -0.17932887927E+03  0.72385232702E+03 -0.88316655176E+03  0.11558997346E+04  0.50400001928E-02 0. -1.
</event>
<event>
 5   0  0.5821584E-05  0.1701022E+04  0.7818609E-02  0.8760781E-01
       -2   -1    0    0    0  501  0.00000000000E+00  0.00000000000E+00  0.41984698785E+03  0.41984698786E+03  0.25500000920E-02 0.  1.
        2   -1    0    0  501    0  0.00000000000E+00  0.00000000000E+00 -0.17229356991E+04  0.17229356991E+04  0.25500000920E-02 0. -1.
    10030    2    1    2    0    0  0.00000000000E+00  0.00000000000E+00 -0.13030887112E+04  0.21427826869E+04  0.17010224731E+04 0.  0.
        1    1    3    3  502    0 -0.28076210827E+03 -0.42071768721E+03 -0.15128887411E+04  0.15952000116E+04  0.50400001928E-02 0. -1.
       -1    1    3    3    0  502  0.28076210827E+03  0.42071768721E+03  0.20980002994E+03  0.54758267536E+03  0.50400001928E-02 0.  1.
</event>
<event>
 5   0  0.2967704E-05  0.1701643E+04  0.7818609E-02  0.8760428E-01
        1   -1    0    0  501    0  0.00000000000E+00  0.00000000000E+00  0.90770704419E+03  0.90770704420E+03  0.50400001928E-02 0. -1.
       -1   -1    0    0    0  501  0.00000000000E+00  0.00000000000E+00 -0.79750085562E+03  0.79750085564E+03  0.50400001928E-02 0.  1.
    10030    2    1    2    0    0  0.00000000000E+00  0.00000000000E+00  0.11020618857E+03  0.17052078998E+04  0.17016429055E+04 0.  0.
        2    1    3    3  502    0  0.40027102323E+03  0.73167815242E+03  0.22376296284E+03  0.86350429895E+03  0.25500000920E-02 0. -1.
       -2    1    3    3    0  502 -0.40027102323E+03 -0.73167815242E+03 -0.11355677427E+03  0.84170360089E+03  0.25500000920E-02 0.  1.
</event>
<event>
 5   0  0.2098250E-05  0.1701374E+04  0.7818609E-02  0.8760581E-01
        4   -1    0    0  501    0  0.00000000000E+00  0.00000000000E+00  0.77484930233E+03  0.77485034311E+03  0.12699999809E+01 0. -1.
       -4   -1    0    0    0  501  0.00000000000E+00  0.00000000000E+00 -0.93394565675E+03  0.93394652024E+03  0.12699999809E+01 0.  1.
    10030    2    1    2    0    0  0.00000000000E+00  0.00000000000E+00 -0.15909635443E+03  0.17087968633E+04  0.17013744650E+04 0.  0.
        3    1    3    3  502    0  0.73587534688E+03  0.41371309201E+03  0.25779288280E+02  0.84459199058E+03  0.10100000352E+00 0. -1.
       -3    1    3    3    0  502 -0.73587534688E+03 -0.41371309201E+03 -0.18487564271E+03  0.86420487277E+03  0.10100000352E+00 0.  1.
</event>
<event>
 5   0  0.5652631E-05  0.1701959E+04  0.7818609E-02  0.8760248E-01
        2   -1    0    0  501    0  0.00000000000E+00  0.00000000000E+00  0.67024473758E+03  0.67024473758E+03  0.25500000920E-02 0.  1.
       -2   -1    0    0    0  501  0.00000000000E+00  0.00000000000E+00 -0.10804503767E+04  0.10804503767E+04  0.25500000920E-02 0. -1.
    10030    2    1    2    0    0  0.00000000000E+00  0.00000000000E+00 -0.41020563916E+03  0.17506951143E+04  0.17019590820E+04 0.  0.
        2    1    3    3  502    0 -0.67769723518E+03  0.17497368422E+03  0.29277879564E+03  0.75868883999E+03  0.25500000920E-02 0.  1.
       -2    1    3    3    0  502  0.67769723518E+03 -0.17497368422E+03 -0.70298443480E+03  0.99200627433E+03  0.25500000920E-02 0. -1.
</event>
<event>
 5   0  0.2987859E-05  0.1700781E+04  0.7818609E-02  0.8760919E-01
       -1   -1    0    0    0  501  0.00000000000E+00  0.00000000000E+00  0.57728771664E+03  0.57728771666E+03  0.50400001928E-02 0.  1.
        1   -1    0    0  501    0  0.00000000000E+00  0.00000000000E+00 -0.12526932208E+04  0.12526932209E+04  0.50400001928E-02 0. -1.
    10030    2    1    2    0    0  0.00000000000E+00  0.00000000000E+00 -0.67540550421E+03  0.18299809375E+04  0.17007814782E+04 0.  0.
        5    1    3    3  502    0 -0.10844640048E+02  0.30907959022E+03  0.51461790997E+03  0.60041775671E+03  0.46999998093E+01 0.  1.
       -5    1    3    3    0  502  0.10844640048E+02 -0.30907959022E+03 -0.11900234142E+04  0.12295631808E+04  0.46999998093E+01 0. -1.
</event>
<event>
 5   0  0.2966258E-05  0.1697580E+04  0.7818609E-02  0.8762746E-01
       -1   -1    0    0    0  501  0.00000000000E+00  0.00000000000E+00  0.77956765402E+03  0.77956765404E+03  0.50400001928E-02 0. -1.
        1   -1    0    0  501    0  0.00000000000E+00  0.00000000000E+00 -0.92415885591E+03  0.92415885592E+03  0.50400001928E-02 0.  1.
    10030    2    1    2    0    0  0.00000000000E+00  0.00000000000E+00 -0.14459120189E+03  0.17037265100E+04  0.16975798671E+04 0.  0.
        4    1    3    3  502    0  0.40348639951E+03 -0.74432157022E+03 -0.11854092598E+02  0.84673372845E+03  0.12699999809E+01 0.  1.
       -4    1    3    3    0  502 -0.40348639951E+03  0.74432157022E+03 -0.13273710929E+03  0.85699278151E+03  0.12699999809E+01 0. -1.
</event>
<event>
 5   0  0.2993769E-05  0.1699117E+04  0.7818609E-02  0.8761868E-01
       -1   -1    0    0    0  501  0.00000000000E+00  0.00000000000E+00  0.68567858697E+03  0.68567858699E+03  0.50400001928E-02 0. -1.
        1   -1    0    0  501    0  0.00000000000E+00  0.00000000000E+00 -0.10526058116E+04  0.10526058116E+04  0.50400001928E-02 0.  1.
    10030    2    1    2    0    0  0.00000000000E+00  0.00000000000E+00 -0.36692722460E+03  0.17382843986E+04  0.16991165534E+04 0.  0.
        3    1    3    3  502    0  0.20356491895E+03  0.29218884147E+03  0.60563790935E+03  0.70257404076E+03  0.10100000352E+00 0. -1.
       -3    1    3    3    0  502 -0.20356491895E+03 -0.29218884147E+03 -0.97256513395E+03  0.10357103578E+04  0.10100000352E+00 0.  1.
</event>
<event>
 5   0  0.2987859E-05  0.1700162E+04  0.7818609E-02  0.8761272E-01
       -1   -1    0    0    0  501  0.00000000000E+00  0.00000000000E+00  0.73832320169E+03  0.73832320171E+03  0.50400001928E-02 0.  1.
        1   -1    0    0  501    0  0.00000000000E+00  0.00000000000E+00 -0.97875560454E+03  0.97875560455E+03  0.50400001928E-02 0. -1.
    10030    2    1    2    0    0  0.00000000000E+00  0.00000000000E+00 -0.24043240285E+03  0.17170788063E+04  0.17001623118E+04 0.  0.
        5    1    3    3  502    0  0.27179484072E+03  0.35685022343E+03  0.60904972863E+03  0.75642460255E+03  0.46999998093E+01 0.  1.
       -5    1    3    3    0  502 -0.27179484072E+03 -0.35685022343E+03 -0.84948213148E+03  0.96065420371E+03  0.46999998093E+01 0. -1.
</event>
<event>
 5   0  0.5652631E-05  0.1700836E+04  0.7818609E-02  0.8760888E-01
       -2   -1    0    0    0  501  0.00000000000E+00  0.00000000000E+00  0.69358733525E+03  0.69358733526E+03  0.25500000920E-02 0.  1.
        2   -1    0    0  501    0  0.00000000000E+00  0.00000000000E+00 -0.10427102686E+04  0.10427102686E+04  0.25500000920E-02 0. -1.
    10030    2    1    2    0    0  0.00000000000E+00  0.00000000000E+00 -0.34912293333E+03  0.17362976038E+04  0.17008358376E+04 0.  0.
        2    1    3    3  502    0  0.73930200382E+03  0.26433861138E+03 -0.50812832584E+03  0.93522016116E+03  0.25500000920E-02 0. -1.
       -2    1    3    3    0  502 -0.73930200382E+03 -0.26433861138E+03  0.15900539251E+03  0.80107744268E+03  0.25500000920E-02 0.  1.
</event>
<event>
 5   0  0.5652631E-05  0.1700586E+04  0.7818609E-02  0.8761030E-01
        2   -1    0    0  501    0  0.00000000000E+00  0.00000000000E+00  0.12649650509E+04  0.12649650509E+04  0.25500000920E-02 0. -1.
       -2   -1    0    0    0  501  0.00000000000E+00  0.00000000000E+00 -0.57155580495E+03  0.57155580495E+03  0.25500000920E-02 0.  1.
    10030    2    1    2    0    0  0.00000000000E+00  0.00000000000E+00  0.69340924592E+03  0.18365208558E+04  0.17005859201E+04 0.  0.
        2    1    3    3  502    0 -0.18754460120E+03 -0.55119703099E+03  0.10159214325E+04  0.11709344565E+04  0.25500000920E-02 0. -1.
       -2    1    3    3    0  502  0.18754460120E+03  0.55119703099E+03 -0.32251218660E+03  0.66558639930E+03  0.25500000920E-02 0.  1.
</event>
<event>
 5   0  0.2966258E-05  0.1699738E+04  0.7818609E-02  0.8761514E-01
        1   -1    0    0  501    0  0.00000000000E+00  0.00000000000E+00  0.11491677789E+04  0.11491677789E+04  0.50400001928E-02 0. -1.
       -1   -1    0    0    0  501  0.00000000000E+00  0.00000000000E+00 -0.62852198175E+03  0.62852198177E+03  0.50400001928E-02 0.  1.
    10030    2    1    2    0    0  0.00000000000E+00  0.00000000000E+00  0.52064579718E+03  0.17776897607E+04  0.16997378737E+04 0.  0.
        4    1    3    3  502    0 -0.66487855502E+03 -0.28519163722E+03  0.72673220792E+03  0.10254457947E+04  0.12699999809E+01 0. -1.
       -4    1    3    3    0  502  0.66487855502E+03  0.28519163722E+03 -0.20608641074E+03  0.75224396604E+03  0.12699999809E+01 0.  1.
</event>
<event>
 5   0  0.2911632E-05  0.1699718E+04  0.7818609E-02  0.8761525E-01
       -1   -1    0    0    0  501  0.00000000000E+00  0.00000000000E+00  0.51633431814E+03  0.51633431816E+03  0.50400001928E-02 0. -1.
        1   -1    0    0  501    0  0.00000000000E+00  0.00000000000E+00 -0.13988232044E+04  0.13988232044E+04  0.50400001928E-02 0.  1.
    10030    2    1    2    0    0  0.00000000000E+00  0.00000000000E+00 -0.88248888628E+03  0.19151575226E+04  0.16997181242E+04 0.  0.
        1    1    3    3  502    0 -0.35334550506E+03  0.85551558436E+02  0.42429347994E+03  0.55874598186E+03  0.50400001928E-02 0. -1.
       -1    1    3    3    0  502  0.35334550506E+03 -0.85551558436E+02 -0.13067823662E+04  0.13564115407E+04  0.50400001928E-02 0.  1.
</event>
<event>
 5   0  0.2911632E-05  0.1700237E+04  0.7818609E-02  0.8761229E-01
       -1   -1    0    0    0  501  0.00000000000E+00  0.00000000000E+00  0.75464083087E+03  0.75464083089E+03  0.50400001928E-02 0.  1.
        1   -1    0    0  501    0  0.00000000000E+00  0.00000000000E+00 -0.95767638931E+03  0.95767638932E+03  0.50400001928E-02 0. -1.
    10030    2    1    2    0    0  0.00000000000E+00  0.00000000000E+00 -0.20303555844E+03  0.17123172202E+04  0.17002372848E+04 0.  0.
        1    1    3    3  502    0 -0.52616885212E+03 -0.15715001555E+03  0.55205518669E+03  0.77866213308E+03  0.50400001928E-02 0.  1.
       -1    1    3    3    0  502  0.52616885212E+03  0.15715001555E+03 -0.75509074512E+03  0.93365508713E+03  0.50400001928E-02 0. -1.
</event>
<event>
 5   0  0.2987859E-05  0.1705643E+04  0.7818609E-02  0.8758152E-01
        1   -1    0    0  501    0  0.00000000000E+00  0.00000000000E+00  0.12333391387E+04  0.12333391387E+04  0.50400001928E-02 0. -1.
       -1   -1    0    0    0  501  0.00000000000E+00  0.00000000000E+00 -0.58970356797E+03  0.58970356799E+03  0.50400001928E-02 0.  1.
    10030    2    1    2    0    0  0.00000000000E+00  0.00000000000E+00  0.64363557075E+03  0.18230427067E+04  0.17056429763E+04 0.  0.
        5    1    3    3  502    0  0.74963668040E+03  0.36401529676E+03  0.51545050278E+03  0.97988448283E+03  0.46999998093E+01 0. -1.
       -5    1    3    3    0  502 -0.74963668040E+03 -0.36401529676E+03  0.12818506796E+03  0.84315822389E+03  0.46999998093E+01 0.  1.
</event>
<event>
 5   0  0.5755321E-05  0.1699865E+04  0.7818609E-02  0.8761441E-01
        2   -1    0    0  501    0  0.00000000000E+00  0.00000000000E+00  0.11891165383E+04  0.11891165383E+04  0.25500000920E-02 0.  1.
       -2   -1    0    0    0  501  0.00000000000E+00  0.00000000000E+00 -0.60749772742E+03  0.60749772742E+03  0.25500000920E-02 0. -1.
    10030    2    1    2    0    0  0.00000000000E+00  0.00000000000E+00  0.58161881086E+03  0.17966142657E+04  0.16998654001E+04 0.  0.
        4    1    3    3  502    0 -0.16555397946E+03 -0.11422732565E+03 -0.58198019866E+03  0.61575852943E+03  0.12699999809E+01 0. -1.
       -4    1    3    3    0  502  0.16555397946E+03  0.11422732565E+03  0.11635990095E+04  0.11808557363E+04  0.12699999809E+01 0.  1.
</event>
<event>
 5   0  0.5671132E-05  0.1701133E+04  0.7818609E-02  0.8760718E-01
        2   -1    0    0  501    0  0.00000000000E+00  0.00000000000E+00  0.34013959724E+03  0.34013959725E+03  0.25500000920E-02 0.  1.
       -2   -1    0    0    0  501  0.00000000000E+00  0.00000000000E+00 -0.21269608921E+04  0.21269608921E+04  0.25500000920E-02 0. -1.
    10030    2    1    2    0    0  0.00000000000E+00  0.00000000000E+00 -0.17868212948E+04  0.24671004893E+04  0.17011332942E+04 0.  0.
        3    1    3    3  502    0  0.13034381916E+02  0.69537455264E+03 -0.16035211626E+04  0.17478546257E+04  0.10100000352E+00 0. -1.
       -3    1    3    3    0  502 -0.13034381916E+02 -0.69537455264E+03 -0.18330013220E+03  0.71924586356E+03  0.10100000352E+00 0.  1.
</event>
<event>
 5   0  0.5821584E-05  0.1697953E+04  0.7818609E-02  0.8762533E-01
       -2   -1    0    0    0  501  0.00000000000E+00  0.00000000000E+00  0.33515656149E+03  0.33515656150E+03  0.25500000920E-02 0.  1.
        2   -1    0    0  501    0  0.00000000000E+00  0.00000000000E+00 -0.21505210754E+04  0.21505210754E+04  0.25500000920E-02 0. -1.
    10030    2    1    2    0    0  0.00000000000E+00  0.00000000000E+00 -0.18153645139E+04  0.24856776369E+04  0.16979531785E+04 0.  0.
        1    1    3    3  502    0 -0.78596174172E+03  0.19276987161E+03 -0.12833872708E+04  0.15172273955E+04  0.50400001928E-02 0. -1.
       -1    1    3    3    0  502  0.78596174172E+03 -0.19276987161E+03 -0.53197724315E+03  0.96845024141E+03  0.50400001928E-02 0.  1.
</event>
<event>
 5   0  0.5671132E-05  0.1698025E+04  0.7818609E-02  0.8762492E-01
       -2   -1    0    0    0  501  0.00000000000E+00  0.00000000000E+00  0.79633722083E+03  0.79633722083E+03  0.25500000920E-02 0.  1.
        2   -1    0    0  501    0  0.00000000000E+00  0.00000000000E+00 -0.90517203720E+03  0.90517203720E+03  0.25500000920E-02 0. -1.
    10030    2    1    2    0    0  0.00000000000E+00  0.00000000000E+00 -0.10883481637E+03  0.17015092580E+04  0.16980249521E+04 0.  0.
        3    1    3    3  502    0  0.10858536034E+03 -0.66627530614E+02 -0.89553972077E+03  0.90455591867E+03  0.10100000352E+00 0. -1.
       -3    1    3    3    0  502 -0.10858536034E+03  0.66627530614E+02  0.78670490440E+03  0.79695333936E+03  0.10100000352E+00 0.  1.
</event>
<event>
 5   0  0.5859822E-05  0.1699348E+04  0.7818609E-02  0.8761736E-01
        2   -1    0    0  501    0  0.00000000000E+00  0.00000000000E+00  0.17837879869E+04  0.17837879869E+04  0.25500000920E-02 0. -1.
       -2   -1    0    0    0  501  0.00000000000E+00  0.00000000000E+00 -0.40472627864E+03  0.40472627865E+03  0.25500000920E-02 0.  1.
    10030    2    1    2    0    0  0.00000000000E+00  0.00000000000E+00  0.13790617082E+04  0.21885142655E+04  0.16993479618E+04 0.  0.
        5    1    3    3  502    0  0.73430542465E+03 -0.23881860251E+03  0.11461023509E+04  0.13819592868E+04  0.46999998093E+01 0. -1.
       -5    1    3    3    0  502 -0.73430542465E+03  0.23881860251E+03  0.23295935733E+03  0.80655497875E+03  0.46999998093E+01 0.  1.
</event>
<event>
 5   0  0.2098250E-05  0.1699548E+04  0.7818609E-02  0.8761622E-01
       -4   -1    0    0    0  501  0.00000000000E+00  0.00000000000E+00  0.92309994087E+03  0.92310081450E+03  0.12699999809E+01 0. -1.
        4   -1    0    0  501    0  0.00000000000E+00  0.00000000000E+00 -0.78227101418E+03  0.78227204509E+03  0.12699999809E+01 0.  1.
    10030    2    1    2    0    0  0.00000000000E+00  0.00000000000E+00  0.14082892669E+03  0.17053728596E+04  0.16995481175E+04 0.  0.
        1    1    3    3  502    0  0.43125098524E+03  0.17576964200E+03  0.78365543094E+03  0.91158554935E+03  0.50400001928E-02 0. -1.
       -1    1    3    3    0  502 -0.43125098524E+03 -0.17576964200E+03 -0.64282650425E+03  0.79378731025E+03  0.50400001928E-02 0.  1.
</event>
<event>
 5   0  0.2993769E-05  0.1700806E+04  0.7818609E-02  0.8760905E-01
        1   -1    0    0  501    0  0.00000000000E+00  0.00000000000E+00  0.45299521637E+03  0.45299521640E+03  0.50400001928E-02 0. -1.
       -1   -1    0    0    0  501  0.00000000000E+00  0.00000000000E+00 -0.15964514425E+04  0.15964514425E+04  0.50400001928E-02 0.  1.
    10030    2    1    2    0    0  0.00000000000E+00  0.00000000000E+00 -0.11434562261E+04  0.20494466589E+04  0.17008055346E+04 0.  0.
        3    1    3    3  502    0  0.27229798922E+03 -0.75511204665E+03 -0.23337704914E+03  0.83594572503E+03  0.10100000352E+00 0. -1.
       -3    1    3    3    0  502 -0.27229798922E+03  0.75511204665E+03 -0.91007917696E+03  0.12135009339E+04  0.10100000352E+00 0.  1.
</event>
<event>
 5   0  0.5821584E-05  0.1692566E+04  0.7818609E-02  0.8765616E-01
        2   -1    0    0  501    0  0.00000000000E+00  0.00000000000E+00  0.21734782730E+04  0.21734782730E+04  0.25500000920E-02 0.  1.
       -2   -1    0    0    0  501  0.00000000000E+00  0.00000000000E+00 -0.32951548610E+03  0.32951548611E+03  0.25500000920E-02 0. -1.
    10030    2    1    2    0    0  0.00000000000E+00  0.00000000000E+00  0.18439627869E+04  0.25029937591E+04  0.16925658034E+04 0.  0.
        1    1    3    3  502    0  0.35699534896E+03 -0.76342240422E+03  0.10359107540E+04  0.13354289710E+04  0.50400001928E-02 0.  1.
       -1    1    3    3    0  502 -0.35699534896E+03  0.76342240422E+03  0.80805203293E+03  0.11675647881E+04  0.50400001928E-02 0. -1.
</event>
<event>
 5   0  0.2993769E-05  0.1702269E+04  0.7818609E-02  0.8760071E-01
        1   -1    0    0  501    0  0.00000000000E+00  0.00000000000E+00  0.99640829876E+03  0.99640829878E+03  0.50400001928E-02 0. -1.
       -1   -1    0    0    0  501  0.00000000000E+00  0.00000000000E+00 -0.72704159536E+03  0.72704159538E+03  0.50400001928E-02 0.  1.
    10030    2    1    2    0    0  0.00000000000E+00  0.00000000000E+00  0.26936670340E+03  0.17234498942E+04  0.17022694019E+04 0.  0.
        3    1    3    3  502    0 -0.18612512350E+03  0.24525990701E+03 -0.66868533133E+03  0.73616239113E+03  0.10100000352E+00 0.  1.
       -3    1    3    3    0  502  0.18612512350E+03 -0.24525990701E+03  0.93805203472E+03  0.98728750303E+03  0.10100000352E+00 0. -1.
</event>
<event>
 5   0  0.2967704E-05  0.1701776E+04  0.7818609E-02  0.8760352E-01
        1   -1    0    0  501    0  0.00000000000E+00  0.00000000000E+00  0.11468464328E+04  0.11468464328E+04  0.50400001928E-02 0. -1.
       -1   -1    0    0    0  501  0.00000000000E+00  0.00000000000E+00 -0.63130541608E+03  0.63130541610E+03  0.50400001928E-02 0.  1.
    10030    2    1    2    0    0  0.00000000000E+00  0.00000000000E+00  0.51554101673E+03  0.17781518489E+04  0.17017759717E+04 0.  0.
        2    1    3    3  502    0 -0.41884928222E+03 -0.30005459842E+03 -0.44977835251E+03  0.68393570578E+03  0.25500000920E-02 0.  1.
       -2    1    3    3    0  502  0.41884928222E+03  0.30005459842E+03  0.96531936924E+03  0.10942161431E+04  0.25500000920E-02 0. -1.
</event>
<event>
 5   0  0.2966258E-05  0.1699721E+04  0.7818609E-02  0.8761523E-01
       -1   -1    0    0    0  501  0.00000000000E+00  0.00000000000E+00  0.47431508213E+03  0.47431508216E+03  0.50400001928E-02 0. -1.
        1   -1    0    0  501    0  0.00000000000E+00  0.00000000000E+00 -0.15227491310E+04  0.15227491310E+04  0.50400001928E-02 0.  1.
    10030    2    1    2    0    0  0.00000000000E+00  0.00000000000E+00 -0.10484340489E+04  0.19970642132E+04  0.16997210114E+04 0.  0.
        4    1    3    3  502    0  0.35619689095E+03 -0.65930723322E+03 -0.53216932998E+02  0.75126287527E+03  0.12699999809E+01 0. -1.
       -4    1    3    3    0  502 -0.35619689095E+03  0.65930723322E+03 -0.99521711587E+03  0.12458013379E+04  0.12699999809E+01 0.  1.
</event>
<event>
 5   0  0.5755321E-05  0.1697827E+04  0.7818609E-02  0.8762605E-01
       -2   -1    0    0    0  501  0.00000000000E+00  0.00000000000E+00  0.25782746282E+03  0.25782746284E+03  0.25500000920E-02 0. -1.
        2   -1    0    0  501    0  0.00000000000E+00  0.00000000000E+00 -0.27951016193E+04  0.27951016193E+04  0.25500000920E-02 0.  1.
    10030    2    1    2    0    0  0.00000000000E+00  0.00000000000E+00 -0.25372741565E+04  0.30529290822E+04  0.16978267979E+04 0.  0.
        4    1    3    3  502    0 -0.71450483603E+02  0.99618156274E+02  0.24182497239E+03  0.27112705294E+03  0.12699999809E+01 0. -1.
       -4    1    3    3    0  502  0.71450483603E+02 -0.99618156274E+02 -0.27790991289E+04  0.27818020292E+04  0.12699999809E+01 0.  1.
</event>
<event>
 5   0  0.2987859E-05  0.1698541E+04  0.7818609E-02  0.8762197E-01
        1   -1    0    0  501    0  0.00000000000E+00  0.00000000000E+00  0.54369951152E+03  0.54369951155E+03  0.50400001928E-02 0. -1.
       -1   -1    0    0    0  501  0.00000000000E+00  0.00000000000E+00 -0.13265789622E+04  0.13265789622E+04  0.50400001928E-02 0.  1.
    10030    2    1    2    0    0  0.00000000000E+00  0.00000000000E+00 -0.78287945064E+03  0.18702784737E+04  0.16985409430E+04 0.  0.
        5    1    3    3  502    0  0.94635133528E+01  0.78917966649E+03 -0.46133428417E+02  0.79059755078E+03  0.46999998093E+01 0. -1.
       -5    1    3    3    0  502 -0.94635133528E+01 -0.78917966649E+03 -0.73674602222E+03  0.10796809229E+04  0.46999998093E+01 0.  1.
</event>
<event>
 5   0  0.2987859E-05  0.1693996E+04  0.7818609E-02  0.8764796E-01
        1   -1    0    0  501    0  0.00000000000E+00  0.00000000000E+00  0.15252950819E+04  0.15252950819E+04  0.50400001928E-02 0. -1.
       -1   -1    0    0    0  501  0.00000000000E+00  0.00000000000E+00 -0.47033878943E+03  0.47033878946E+03  0.50400001928E-02 0.  1.
    10030    2    1    2    0    0  0.00000000000E+00  0.00000000000E+00  0.10549562924E+04  0.19956338713E+04  0.16939957997E+04 0.  0.
        5    1    3    3  502    0  0.57608133617E+02  0.66172828180E+03 -0.91627713351E+02  0.67053765282E+03  0.46999998093E+01 0.  1.
       -5    1    3    3    0  502 -0.57608133617E+02 -0.66172828180E+03  0.11465840058E+04  0.13250962185E+04  0.46999998093E+01 0. -1.
</event>
<event>
 5   0  0.2987859E-05  0.1698008E+04  0.7818609E-02  0.8762501E-01
        1   -1    0    0  501    0  0.00000000000E+00  0.00000000000E+00  0.10034735291E+04  0.10034735291E+04  0.50400001928E-02 0.  1.
       -1   -1    0    0    0  501  0.00000000000E+00  0.00000000000E+00 -0.71831255018E+03  0.71831255020E+03  0.50400001928E-02 0. -1.
    10030    2    1    2    0    0  0.00000000000E+00  0.00000000000E+00  0.28516097888E+03  0.17217860793E+04  0.16980078088E+04 0.  0.
        5    1    3    3  502    0  0.20064976410E+03 -0.21006940226E+03 -0.66633518248E+03  0.72692100466E+03  0.46999998093E+01 0. -1.
       -5    1    3    3    0  502 -0.20064976410E+03  0.21006940226E+03  0.95149616136E+03  0.99486507461E+03  0.46999998093E+01 0.  1.
</event>
<event>
 5   0  0.5859822E-05  0.1700587E+04  0.7818609E-02  0.8761029E-01
        2   -1    0    0  501    0  0.00000000000E+00  0.00000000000E+00  0.53858071589E+03  0.53858071590E+03  0.25500000920E-02 0. -1.
       -2   -1    0    0    0  501  0.00000000000E+00  0.00000000000E+00 -0.13424161435E+04  0.13424161435E+04  0.25500000920E-02 0.  1.
    10030    2    1    2    0    0  0.00000000000E+00  0.00000000000E+00 -0.80383542765E+03  0.18809968594E+04  0.17005874839E+04 0.  0.
        5    1    3    3  502    0 -0.72452396723E+03  0.50120352554E+00 -0.89414749196E+03  0.11508505801E+04  0.46999998093E+01 0.  1.
       -5    1    3    3    0  502  0.72452396723E+03 -0.50120352554E+00  0.90312064316E+02  0.73014627936E+03  0.46999998093E+01 0. -1.
</event>
<event>
 5   0  0.5821584E-05  0.1702013E+04  0.7818609E-02  0.8760217E-01
       -2   -1    0    0    0  501  0.00000000000E+00  0.00000000000E+00  0.36014169407E+03  0.36014169408E+03  0.25500000920E-02 0. -1.
        2   -1    0    0  501    0  0.00000000000E+00  0.00000000000E+00 -0.20109076364E+04  0.20109076364E+04  0.25500000920E-02 0.  1.
    10030    2    1    2    0    0  0.00000000000E+00  0.00000000000E+00 -0.16507659424E+04  0.23710493305E+04  0.17020125532E+04 0.  0.
        1    1    3    3  502    0 -0.71362309504E+03  0.45929269094E+03 -0.73723261831E+03  0.11241528505E+04  0.50400001928E-02 0. -1.
       -1    1    3    3    0  502  0.71362309504E+03 -0.45929269094E+03 -0.91353332406E+03  0.12468964800E+04  0.50400001928E-02 0.  1.
</event>
<event>
 5   0  0.2967704E-05  0.1717294E+04  0.7818609E-02  0.8751562E-01
       -1   -1    0    0    0  501  0.00000000000E+00  0.00000000000E+00  0.80804166280E+03  0.80804166282E+03  0.50400001928E-02 0.  1.
        1   -1    0    0  501    0  0.00000000000E+00  0.00000000000E+00 -0.91242179224E+03  0.91242179225E+03  0.50400001928E-02 0. -1.
    10030    2    1    2    0    0  0.00000000000E+00  0.00000000000E+00 -0.10438012944E+03  0.17204634551E+04  0.17172941765E+04 0.  0.
        2    1    3    3  502    0  0.10428789006E+03  0.24362794492E+03  0.76604500198E+03  0.81058959075E+03  0.25500000920E-02 0.  1.
       -2    1    3    3    0  502 -0.10428789006E+03 -0.24362794492E+03 -0.87042513142E+03  0.90987386432E+03  0.25500000920E-02 0. -1.
</event>
<event>
 5   0  0.2098250E-05  0.1700464E+04  0.7818609E-02  0.8761100E-01
       -4   -1    0    0    0  501  0.00000000000E+00  0.00000000000E+00  0.75760125020E+03  0.75760231468E+03  0.12699999809E+01 0.  1.
        4   -1    0    0  501    0  0.00000000000E+00  0.00000000000E+00 -0.95418685984E+03  0.95418770501E+03  0.12699999809E+01 0. -1.
    10030    2    1    2    0    0  0.00000000000E+00  0.00000000000E+00 -0.19658560965E+03  0.17117900197E+04  0.17004643982E+04 0.  0.
        4    1    3    3  502    0 -0.38016996003E+03  0.16744324529E+02 -0.86367485666E+03  0.94379311390E+03  0.12699999809E+01 0. -1.
       -4    1    3    3    0  502  0.38016996003E+03 -0.16744324529E+02  0.66708924702E+03  0.76799690579E+03  0.12699999809E+01 0.  1.
</event>
<event>
 5   0  0.5821584E-05  0.1693629E+04  0.7818609E-02  0.8765006E-01
       -2   -1    0    0    0  501  0.00000000000E+00  0.00000000000E+00  0.60539890183E+03  0.60539890183E+03  0.25500000920E-02 0.  1.
        2   -1    0    0  501    0  0.00000000000E+00  0.00000000000E+00 -0.11844996731E+04  0.11844996731E+04  0.25500000920E-02 0. -1.
    10030    2    1    2    0    0  0.00000000000E+00  0.00000000000E+00 -0.57910077131E+03  0.17898985750E+04  0.16936290046E+04 0.  0.
        1    1    3    3  502    0 -0.35400871695E+03  0.45646643451E+03 -0.94394909987E+03  0.11066723457E+04  0.50400001928E-02 0. -1.
       -1    1    3    3    0  502  0.35400871695E+03 -0.45646643451E+03  0.36484832856E+03  0.68322622929E+03  0.50400001928E-02 0.  1.
</event>
<event>
 5   0  0.5821584E-05  0.1702528E+04  0.7818609E-02  0.8759924E-01
       -2   -1    0    0    0  501  0.00000000000E+00  0.00000000000E+00  0.10596524496E+04  0.10596524496E+04  0.25500000920E-02 0.  1.
        2   -1    0    0  501    0  0.00000000000E+00  0.00000000000E+00 -0.68385646221E+03  0.68385646221E+03  0.25500000920E-02 0. -1.
    10030    2    1    2    0    0  0.00000000000E+00  0.00000000000E+00  0.37579598740E+03  0.17435089118E+04  0.17025277388E+04 0.  0.
        1    1    3    3  502    0  0.47841236620E+03  0.56145015931E+03 -0.24723629930E+03  0.77796559130E+03  0.50400001928E-02 0. -1.
       -1    1    3    3    0  502 -0.47841236620E+03 -0.56145015931E+03  0.62303228669E+03  0.96554332053E+03  0.50400001928E-02 0.  1.
</event>
<event>
 5   0  0.5671132E-05  0.1706721E+04  0.7818609E-02  0.8757540E-01
        2   -1    0    0  501    0  0.00000000000E+00  0.00000000000E+00  0.91496207452E+03  0.91496207452E+03  0.25500000920E-02 0.  1.
       -2   -1    0    0    0  501  0.00000000000E+00  0.00000000000E+00 -0.79590680303E+03  0.79590680304E+03  0.25500000920E-02 0. -1.
    10030    2    1    2    0    0  0.00000000000E+00  0.00000000000E+00  0.11905527149E+03  0.17108688776E+04  0.17067214648E+04 0.  0.
        3    1    3    3  502    0 -0.31322321478E+03  0.78427389669E+03 -0.63368007255E+02  0.84688242504E+03  0.10100000352E+00 0. -1.
       -3    1    3    3    0  502  0.31322321478E+03 -0.78427389669E+03  0.18242327874E+03  0.86398645252E+03  0.10100000352E+00 0.  1.
</event>
<event>
 5   0  0.2966258E-05  0.1682259E+04  0.7818609E-02  0.8771548E-01
       -1   -1    0    0    0  501  0.00000000000E+00  0.00000000000E+00  0.78000408977E+03  0.78000408978E+03  0.50400001928E-02 0. -1.
        1   -1    0    0  501    0  0.00000000000E+00  0.00000000000E+00 -0.90704535171E+03  0.90704535172E+03  0.50400001928E-02 0.  1.
    10030    2    1    2    0    0  0.00000000000E+00  0.00000000000E+00 -0.12704126194E+03  0.16870494415E+04  0.16822592951E+04 0.  0.
        4    1    3    3  502    0  0.21439531905E+03 -0.62766987642E+03 -0.58225809392E+03  0.88258763159E+03  0.12699999809E+01 0.  1.
       -4    1    3    3    0  502 -0.21439531905E+03  0.62766987642E+03  0.45521683198E+03  0.80446180992E+03  0.12699999809E+01 0. -1.
</event>
<event>
 5   0  0.2966258E-05  0.1681116E+04  0.7818609E-02  0.8772209E-01
        1   -1    0    0  501    0  0.00000000000E+00  0.00000000000E+00  0.13277950777E+04  0.13277950777E+04  0.50400001928E-02 0.  1.
       -1   -1    0    0    0  501  0.00000000000E+00  0.00000000000E+00 -0.53211326654E+03  0.53211326656E+03  0.50400001928E-02 0. -1.
    10030    2    1    2    0    0  0.00000000000E+00  0.00000000000E+00  0.79568181115E+03  0.18599083443E+04  0.16811155536E+04 0.  0.
        4    1    3    3  502    0  0.21004224677E+02  0.62849414702E+03 -0.21923244030E+03  0.66596587455E+03  0.12699999809E+01 0. -1.
       -4    1    3    3    0  502 -0.21004224677E+02 -0.62849414702E+03  0.10149142514E+04  0.11939424697E+04  0.12699999809E+01 0.  1.
</event>
<event>
 5   0  0.2911632E-05  0.1701453E+04  0.7818609E-02  0.8760536E-01
       -1   -1    0    0    0  501  0.00000000000E+00  0.00000000000E+00  0.54714711098E+03  0.54714711100E+03  0.50400001928E-02 0. -1.
        1   -1    0    0  501    0  0.00000000000E+00  0.00000000000E+00 -0.13227446566E+04  0.13227446566E+04  0.50400001928E-02 0.  1.
    10030    2    1    2    0    0  0.00000000000E+00  0.00000000000E+00 -0.77559754566E+03  0.18698917676E+04  0.17014533993E+04 0.  0.
        1    1    3    3  502    0  0.56895565880E+02  0.61799371266E+03  0.25168380622E+03  0.66969998704E+03  0.50400001928E-02 0. -1.
       -1    1    3    3    0  502 -0.56895565880E+02 -0.61799371266E+03 -0.10272813519E+04  0.12001917806E+04  0.50400001928E-02 0.  1.
</event>
<event>
 5   0  0.5859822E-05  0.1714696E+04  0.7818609E-02  0.8753027E-01
        2   -1    0    0  501    0  0.00000000000E+00  0.00000000000E+00  0.64103670643E+03  0.64103670643E+03  0.25500000920E-02 0.  1.
       -2   -1    0    0    0  501  0.00000000000E+00  0.00000000000E+00 -0.11466514575E+04  0.11466514575E+04  0.25500000920E-02 0. -1.
    10030    2    1    2    0    0  0.00000000000E+00  0.00000000000E+00 -0.50561475104E+03  0.17876881639E+04  0.17146960940E+04 0.  0.
        5    1    3    3  502    0 -0.61259296010E+03  0.57617184714E+03 -0.79040721110E+02  0.84469737646E+03  0.46999998093E+01 0.  1.
       -5    1    3    3    0  502  0.61259296010E+03 -0.57617184714E+03 -0.42657402993E+03  0.94299078745E+03  0.46999998093E+01 0. -1.
</event>
<event>
 5   0  0.2911632E-05  0.1697495E+04  0.7818609E-02  0.8762794E-01
        1   -1    0    0  501    0  0.00000000000E+00  0.00000000000E+00  0.14244678259E+04  0.14244678259E+04  0.50400001928E-02 0. -1.
       -1   -1    0    0    0  501  0.00000000000E+00  0.00000000000E+00 -0.50571320777E+03  0.50571320779E+03  0.50400001928E-02 0.  1.
    10030    2    1    2    0    0  0.00000000000E+00  0.00000000000E+00  0.91875461811E+03  0.19301810337E+04  0.16974948526E+04 0.  0.
        1    1    3    3  502    0 -0.37451591428E+00  0.18629785012E+03 -0.48217753177E+03  0.51691604869E+03  0.50400001928E-02 0.  1.
       -1    1    3    3    0  502  0.37451591428E+00 -0.18629785012E+03  0.14009321499E+04  0.14132649850E+04  0.50400001928E-02 0. -1.
</event>
<event>
 5   0  0.5859822E-05  0.1697716E+04  0.7818609E-02  0.8762668E-01
        2   -1    0    0  501    0  0.00000000000E+00  0.00000000000E+00  0.12365271881E+04  0.12365271881E+04  0.25500000920E-02 0.  1.
       -2   -1    0    0    0  501  0.00000000000E+00  0.00000000000E+00 -0.58272855160E+03  0.58272855161E+03  0.25500000920E-02 0. -1.
    10030    2    1    2    0    0  0.00000000000E+00  0.00000000000E+00  0.65379863652E+03  0.18192557397E+04  0.16977157564E+04 0.  0.
        5    1    3    3  502    0 -0.54651521903E+03  0.62626511542E+03  0.14237804005E+03  0.84331516986E+03  0.46999998093E+01 0. -1.
       -5    1    3    3    0  502  0.54651521903E+03 -0.62626511542E+03  0.51142059648E+03  0.97594056988E+03  0.46999998093E+01 0.  1.
</event>
<event>
 5   0  0.5821584E-05  0.1701132E+04  0.7818609E-02  0.8760719E-01
       -2   -1    0    0    0  501  0.00000000000E+00  0.00000000000E+00  0.73239229039E+03  0.73239229039E+03  0.25500000920E-02 0.  1.
        2   -1    0    0  501    0  0.00000000000E+00  0.00000000000E+00 -0.98780787666E+03  0.98780787667E+03  0.25500000920E-02 0. -1.
    10030    2    1    2    0    0  0.00000000000E+00  0.00000000000E+00 -0.25541558628E+03  0.17202001671E+04  0.17011324149E+04 0.  0.
        1    1    3    3  502    0 -0.46671759340E+03 -0.57906711737E+03 -0.54503068108E+03  0.92206425033E+03  0.50400001928E-02 0. -1.
       -1    1    3    3    0  502  0.46671759340E+03  0.57906711737E+03  0.28961509480E+03  0.79813591673E+03  0.50400001928E-02 0.  1.
</event>
<event>
 5   0  0.5755321E-05  0.1697688E+04  0.7818609E-02  0.8762684E-01
       -2   -1    0    0    0  501  0.00000000000E+00  0.00000000000E+00  0.54860005502E+03  0.54860005502E+03  0.25500000920E-02 0. -1.
        2   -1    0    0  501    0  0.00000000000E+00  0.00000000000E+00 -0.13134088137E+04  0.13134088137E+04  0.25500000920E-02 0.  1.
    10030    2    1    2    0    0  0.00000000000E+00  0.00000000000E+00 -0.76480875867E+03  0.18620088687E+04  0.16976880131E+04 0.  0.
        4    1    3    3  502    0 -0.29550184942E+03  0.20777484265E+03 -0.12248960636E+04  0.12770527427E+04  0.12699999809E+01 0.  1.
       -4    1    3    3    0  502  0.29550184942E+03 -0.20777484265E+03  0.46008730492E+03  0.58495612596E+03  0.12699999809E+01 0. -1.
</event>
<event>
 5   0  0.5859822E-05  0.1699616E+04  0.7818609E-02  0.8761583E-01
       -2   -1    0    0    0  501  0.00000000000E+00  0.00000000000E+00  0.38675694761E+03  0.38675694762E+03  0.25500000920E-02 0.  1.
        2   -1    0    0  501    0  0.00000000000E+00  0.00000000000E+00 -0.18672543822E+04  0.18672543822E+04  0.25500000920E-02 0. -1.
    10030    2    1    2    0    0  0.00000000000E+00  0.00000000000E+00 -0.14804974346E+04  0.22540113298E+04  0.16996159628E+04 0.  0.
        5    1    3    3  502    0 -0.31411311747E+03  0.11513333029E+03  0.29573191621E+03  0.44654472405E+03  0.46999998093E+01 0.  1.
       -5    1    3    3    0  502  0.31411311747E+03 -0.11513333029E+03 -0.17762293508E+04  0.18074666058E+04  0.46999998093E+01 0. -1.
</event>
<event>
 5   0  0.2966258E-05  0.1689323E+04  0.7818609E-02  0.8767478E-01
       -1   -1    0    0    0  501  0.00000000000E+00  0.00000000000E+00  0.32315895632E+03  0.32315895636E+03  0.50400001928E-02 0. -1.
        1   -1    0    0  501    0  0.00000000000E+00  0.00000000000E+00 -0.22077453376E+04  0.22077453376E+04  0.50400001928E-02 0.  1.
    10030    2    1    2    0    0  0.00000000000E+00  0.00000000000E+00 -0.18845863813E+04  0.25309042940E+04  0.16893225615E+04 0.  0.
        4    1    3    3  502    0  0.12434301712E+03 -0.44480315469E+03  0.11722629934E+03  0.47650251887E+03  0.12699999809E+01 0. -1.
       -4    1    3    3    0  502 -0.12434301712E+03  0.44480315469E+03 -0.20018126806E+04  0.20544017751E+04  0.12699999809E+01 0.  1.
</event>
<event>
 5   0  0.5821584E-05  0.1700132E+04  0.7818609E-02  0.8761289E-01
       -2   -1    0    0    0  501  0.00000000000E+00  0.00000000000E+00  0.46050786955E+03  0.46050786956E+03  0.25500000920E-02 0.  1.
        2   -1    0    0  501    0  0.00000000000E+00  0.00000000000E+00 -0.15691642122E+04  0.15691642122E+04  0.25500000920E-02 0. -1.
    10030    2    1    2    0    0  0.00000000000E+00  0.00000000000E+00 -0.11086563426E+04  0.20296720818E+04  0.17001323106E+04 0.  0.
        1    1    3    3  502    0 -0.64598013776E+03 -0.45002923257E+03 -0.17156434792E+03  0.80576111475E+03  0.50400001928E-02 0.  1.
       -1    1    3    3    0  502  0.64598013776E+03  0.45002923257E+03 -0.93709199472E+03  0.12239109670E+04  0.50400001928E-02 0. -1.
</event>
<event>
 5   0  0.2966258E-05  0.1648144E+04  0.7818609E-02  0.8791505E-01
       -1   -1    0    0    0  501  0.00000000000E+00  0.00000000000E+00  0.87455973234E+03  0.87455973235E+03  0.50400001928E-02 0. -1.
        1   -1    0    0  501    0  0.00000000000E+00  0.00000000000E+00 -0.77649913779E+03  0.77649913781E+03  0.50400001928E-02 0.  1.
    10030    2    1    2    0    0  0.00000000000E+00  0.00000000000E+00  0.98060594546E+02  0.16510588702E+04  0.16481442633E+04 0.  0.
        4    1    3    3  502    0 -0.38028075109E+03 -0.38600571626E+03  0.67099813007E+03  0.86246968995E+03  0.12699999809E+01 0. -1.
       -4    1    3    3    0  502  0.38028075109E+03  0.38600571626E+03 -0.57293753552E+03  0.78858918021E+03  0.12699999809E+01 0.  1.
</event>
<event>
 5   0  0.2967704E-05  0.1699719E+04  0.7818609E-02  0.8761524E-01
        1   -1    0    0  501    0  0.00000000000E+00  0.00000000000E+00  0.17066417416E+04  0.17066417416E+04  0.50400001928E-02 0. -1.
       -1   -1    0    0    0  501  0.00000000000E+00  0.00000000000E+00 -0.42320621727E+03  0.42320621730E+03  0.50400001928E-02 0.  1.
    10030    2    1    2    0    0  0.00000000000E+00  0.00000000000E+00  0.12834355243E+04  0.21298479589E+04  0.16997192659E+04 0.  0.
        2    1    3    3  502    0 -0.16803424857E+03  0.49376999342E+03  0.14824977938E+04  0.15715737411E+04  0.25500000920E-02 0. -1.
       -2    1    3    3    0  502  0.16803424857E+03 -0.49376999342E+03 -0.19906226950E+03  0.55827421778E+03  0.25500000920E-02 0.  1.
</event>
<event>
 5   0  0.2967704E-05  0.1701971E+04  0.7818609E-02  0.8760241E-01
       -1   -1    0    0    0  501  0.00000000000E+00  0.00000000000E+00  0.82862126294E+03  0.82862126296E+03  0.50400001928E-02 0. -1.
        1   -1    0    0  501    0  0.00000000000E+00  0.00000000000E+00 -0.87395345634E+03  0.87395345636E+03  0.50400001928E-02 0.  1.
    10030    2    1    2    0    0  0.00000000000E+00  0.00000000000E+00 -0.45332193398E+02  0.17025747193E+04  0.17019711123E+04 0.  0.
        2    1    3    3  502    0  0.70371428072E+02 -0.84667771892E+03 -0.71274678302E+02  0.85258159573E+03  0.25500000920E-02 0. -1.
       -2    1    3    3    0  502 -0.70371428072E+02  0.84667771892E+03  0.25942484904E+02  0.84999312358E+03  0.25500000920E-02 0.  1.
</event>
<event>
 5   0  0.2911632E-05  0.1698891E+04  0.7818609E-02  0.8761997E-01
        1   -1    0    0  501    0  0.00000000000E+00  0.00000000000E+00  0.12934184307E+04  0.12934184307E+04  0.50400001928E-02 0.  1.
       -1   -1    0    0    0  501  0.00000000000E+00  0.00000000000E+00 -0.55786843203E+03  0.55786843205E+03  0.50400001928E-02 0. -1.
    10030    2    1    2    0    0  0.00000000000E+00  0.00000000000E+00  0.73554999869E+03  0.18512868628E+04  0.16988905932E+04 0.  0.
        1    1    3    3  502    0 -0.58007105006E+03  0.36586286994E+03  0.91395370545E+03  0.11426501820E+04  0.50400001928E-02 0.  1.
       -1    1    3    3    0  502  0.58007105006E+03 -0.36586286994E+03 -0.17840370676E+03  0.70863668077E+03  0.50400001928E-02 0. -1.
</event>
<event>
 5   0  0.2966258E-05  0.1701859E+04  0.7818609E-02  0.8760305E-01
        1   -1    0    0  501    0  0.00000000000E+00  0.00000000000E+00  0.86132848824E+03  0.86132848826E+03  0.50400001928E-02 0.  1.
       -1   -1    0    0    0  501  0.00000000000E+00  0.00000000000E+00 -0.84065642309E+03  0.84065642310E+03  0.50400001928E-02 0. -1.
    10030    2    1    2    0    0  0.00000000000E+00  0.00000000000E+00  0.20672065159E+02  0.17019849114E+04  0.17018593668E+04 0.  0.
        4    1    3    3  502    0 -0.15304865751E+03 -0.51463869099E+03 -0.64986631462E+03  0.84297373245E+03  0.12699999809E+01 0. -1.
       -4    1    3    3    0  502  0.15304865751E+03  0.51463869099E+03  0.67053837978E+03  0.85901117891E+03  0.12699999809E+01 0.  1.
</event>
<event>
 5   0  0.5755321E-05  0.1700438E+04  0.7818609E-02  0.8761115E-01
        2   -1    0    0  501    0  0.00000000000E+00  0.00000000000E+00  0.12372965754E+04  0.12372965754E+04  0.25500000920E-02 0. -1.
       -2   -1    0    0    0  501  0.00000000000E+00  0.00000000000E+00 -0.58423527867E+03  0.58423527867E+03  0.25500000920E-02 0.  1.
    10030    2    1    2    0    0  0.00000000000E+00  0.00000000000E+00  0.65306129671E+03  0.18215318541E+04  0.17004379548E+04 0.  0.
        4    1    3    3  502    0 -0.77558447354E+03  0.29097388760E+03  0.12138946459E+03  0.83721806830E+03  0.12699999809E+01 0.  1.
       -4    1    3    3    0  502  0.77558447354E+03 -0.29097388760E+03  0.53167183212E+03  0.98431378576E+03  0.12699999809E+01 0. -1.
</event>
<event>
 5   0  0.5755321E-05  0.1699849E+04  0.7818609E-02  0.8761450E-01
       -2   -1    0    0    0  501  0.00000000000E+00  0.00000000000E+00  0.13042179934E+04  0.13042179934E+04  0.25500000920E-02 0. -1.
        2   -1    0    0  501    0  0.00000000000E+00  0.00000000000E+00 -0.55387346076E+03  0.55387346077E+03  0.25500000920E-02 0.  1.
    10030    2    1    2    0    0  0.00000000000E+00  0.00000000000E+00  0.75034453264E+03  0.18580914542E+04  0.16998490917E+04 0.  0.
        4    1    3    3  502    0  0.28186369184E+03  0.11260225539E+03  0.12429549488E+04  0.12794784197E+04  0.12699999809E+01 0. -1.
       -4    1    3    3    0  502 -0.28186369184E+03 -0.11260225539E+03 -0.49261041617E+03  0.57861303452E+03  0.12699999809E+01 0.  1.
</event>
<event>
 5   0  0.2987859E-05  0.1698121E+04  0.7818609E-02  0.8762437E-01
        1   -1    0    0  501    0  0.00000000000E+00  0.00000000000E+00  0.12190423368E+04  0.12190423368E+04  0.50400001928E-02 0.  1.
       -1   -1    0    0    0  501  0.00000000000E+00  0.00000000000E+00 -0.59136899856E+03  0.59136899859E+03  0.50400001928E-02 0. -1.
    10030    2    1    2    0    0  0.00000000000E+00  0.00000000000E+00  0.62767333823E+03  0.18104113354E+04  0.16981211334E+04 0.  0.
        5    1    3    3  502    0  0.51421328491E+03 -0.13355972953E+03 -0.39224818206E+03  0.66040459573E+03  0.46999998093E+01 0. -1.
       -5    1    3    3    0  502 -0.51421328491E+03  0.13355972953E+03  0.10199215203E+04  0.11500067397E+04  0.46999998093E+01 0.  1.
</event>
<event>
 5   0  0.5652631E-05  0.1703355E+04  0.7818609E-02  0.8759453E-01
        2   -1    0    0  501    0  0.00000000000E+00  0.00000000000E+00  0.10586957258E+04  0.10586957258E+04  0.25500000920E-02 0. -1.
       -2   -1    0    0    0  501  0.00000000000E+00  0.00000000000E+00 -0.68513952497E+03  0.68513952498E+03  0.25500000920E-02 0.  1.
    10030    2    1    2    0    0  0.00000000000E+00  0.00000000000E+00  0.37355620082E+03  0.17438352508E+04  0.17033546744E+04 0.  0.
        2    1    3    3  502    0 -0.10811324763E+03  0.32206508251E+03  0.98632489430E+03  0.10431927860E+04  0.25500000920E-02 0. -1.
       -2    1    3    3    0  502  0.10811324763E+03 -0.32206508251E+03 -0.61276869349E+03  0.70064246475E+03  0.25500000920E-02 0.  1.
</event>
<event>
 5   0  0.2987859E-05  0.1673080E+04  0.7818609E-02  0.8776868E-01
        1   -1    0    0  501    0  0.00000000000E+00  0.00000000000E+00  0.12165577772E+04  0.12165577772E+04  0.50400001928E-02 0. -1.
       -1   -1    0    0    0  501  0.00000000000E+00  0.00000000000E+00 -0.57522904725E+03  0.57522904727E+03  0.50400001928E-02 0.  1.
    10030    2    1    2    0    0  0.00000000000E+00  0.00000000000E+00  0.64132872992E+03  0.17917868245E+04  0.16730802385E+04 0.  0.
        5    1    3    3  502    0  0.26308536925E+03  0.29254832588E+03  0.11112690651E+04  0.11788721133E+04  0.46999998093E+01 0. -1.
       -5    1    3    3    0  502 -0.26308536925E+03 -0.29254832588E+03 -0.46994033519E+03  0.61291471114E+03  0.46999998093E+01 0.  1.
</event>
<event>
 5   0  0.5821584E-05  0.1692678E+04  0.7818609E-02  0.8765551E-01
        2   -1    0    0  501    0  0.00000000000E+00  0.00000000000E+00  0.21076303406E+04  0.21076303406E+04  0.25500000920E-02 0. -1.
       -2   -1    0    0    0  501  0.00000000000E+00  0.00000000000E+00 -0.33985564551E+03  0.33985564552E+03  0.25500000920E-02 0.  1.
    10030    2    1    2    0    0  0.00000000000E+00  0.00000000000E+00  0.17677746951E+04  0.24474859861E+04  0.16926784336E+04 0.  0.
        1    1    3    3  502    0 -0.20690670118E+03 -0.63308338828E+03  0.16389386571E+04  0.17691028464E+04  0.50400001928E-02 0. -1.
       -1    1    3    3    0  502  0.20690670118E+03  0.63308338828E+03  0.12883603800E+03  0.67838313970E+03  0.50400001928E-02 0.  1.
</event>
<event>
 5   0  0.5755321E-05  0.1695841E+04  0.7818609E-02  0.8763740E-01
        2   -1    0    0  501    0  0.00000000000E+00  0.00000000000E+00  0.14685485651E+04  0.14685485651E+04  0.25500000920E-02 0. -1.
       -2   -1    0    0    0  501  0.00000000000E+00  0.00000000000E+00 -0.48957783075E+03  0.48957783076E+03  0.25500000920E-02 0.  1.
    10030    2    1    2    0    0  0.00000000000E+00  0.00000000000E+00  0.97897073430E+03  0.19581263958E+04  0.16958405831E+04 0.  0.
        4    1    3    3  502    0  0.35253517252E+03  0.16751502883E+03  0.13586529414E+04  0.14136059425E+04  0.12699999809E+01 0. -1.
       -4    1    3    3    0  502 -0.35253517252E+03 -0.16751502883E+03 -0.37968220709E+03  0.54452045327E+03  0.12699999809E+01 0.  1.
</event>
<event>
 5   0  0.2987859E-05  0.1700262E+04  0.7818609E-02  0.8761215E-01
       -1   -1    0    0    0  501  0.00000000000E+00  0.00000000000E+00  0.48686571647E+03  0.48686571649E+03  0.50400001928E-02 0. -1.
        1   -1    0    0  501    0  0.00000000000E+00  0.00000000000E+00 -0.14844400933E+04  0.14844400934E+04  0.50400001928E-02 0.  1.
    10030    2    1    2    0    0  0.00000000000E+00  0.00000000000E+00 -0.99757437688E+03  0.19713058098E+04  0.17002623205E+04 0.  0.
        5    1    3    3  502    0  0.10731818444E+01 -0.91120948480E+02  0.48117156707E+03  0.48974722656E+03  0.46999998093E+01 0. -1.
       -5    1    3    3    0  502 -0.10731818444E+01  0.91120948480E+02 -0.14787459439E+04  0.14815585833E+04  0.46999998093E+01 0.  1.
</event>
<event>
 5   0  0.5755321E-05  0.1704046E+04  0.7818609E-02  0.8759060E-01
        2   -1    0    0  501    0  0.00000000000E+00  0.00000000000E+00  0.58329444136E+03  0.58329444137E+03  0.25500000920E-02 0. -1.
       -2   -1    0    0    0  501  0.00000000000E+00  0.00000000000E+00 -0.12445573858E+04  0.12445573858E+04  0.25500000920E-02 0.  1.
    10030    2    1    2    0    0  0.00000000000E+00  0.00000000000E+00 -0.66126294443E+03  0.18278518272E+04  0.17040462495E+04 0.  0.
        4    1    3    3  502    0  0.79694768500E+03  0.48538244773E+02 -0.11599937547E+02  0.79850970268E+03  0.12699999809E+01 0. -1.
       -4    1    3    3    0  502 -0.79694768500E+03 -0.48538244773E+02 -0.64966300688E+03  0.10293421245E+04  0.12699999809E+01 0.  1.
</event>
<event>
 5   0  0.5859822E-05  0.1702518E+04  0.7818609E-02  0.8759930E-01
       -2   -1    0    0    0  501  0.00000000000E+00  0.00000000000E+00  0.10848300243E+04  0.10848300243E+04  0.25500000920E-02 0. -1.
        2   -1    0    0  501    0  0.00000000000E+00  0.00000000000E+00 -0.66797737134E+03  0.66797737134E+03  0.25500000920E-02 0.  1.
    10030    2    1    2    0    0  0.00000000000E+00  0.00000000000E+00  0.41685265300E+03  0.17528073957E+04  0.17025180269E+04 0.  0.
        5    1    3    3  502    0 -0.66905146572E+03 -0.48973787066E+03  0.40685435600E+03  0.92359385161E+03  0.46999998093E+01 0. -1.
       -5    1    3    3    0  502  0.66905146572E+03  0.48973787066E+03  0.99982969944E+01  0.82921354407E+03  0.46999998093E+01 0.  1.
</event>
<event>
 5   0  0.5821584E-05  0.1695931E+04  0.7818609E-02  0.8763689E-01
        2   -1    0    0  501    0  0.00000000000E+00  0.00000000000E+00  0.16203835597E+04  0.16203835597E+04  0.25500000920E-02 0. -1.
       -2   -1    0    0    0  501  0.00000000000E+00  0.00000000000E+00 -0.44374991932E+03  0.44374991933E+03  0.25500000920E-02 0.  1.
    10030    2    1    2    0    0  0.00000000000E+00  0.00000000000E+00  0.11766336403E+04  0.20641334790E+04  0.16959305102E+04 0.  0.
        1    1    3    3  502    0 -0.10626573987E+03 -0.12397393021E+02  0.16121361408E+04  0.16156822210E+04  0.50400001928E-02 0. -1.
       -1    1    3    3    0  502  0.10626573987E+03  0.12397393021E+02 -0.43550250047E+03  0.44845125796E+03  0.50400001928E-02 0.  1.
</event>
<event>
 5   0  0.2966258E-05  0.1695887E+04  0.7818609E-02  0.8763714E-01
       -1   -1    0    0    0  501  0.00000000000E+00  0.00000000000E+00  0.99143350816E+03  0.99143350817E+03  0.50400001928E-02 0.  1.
        1   -1    0    0  501    0  0.00000000000E+00  0.00000000000E+00 -0.72522040402E+03  0.72522040404E+03  0.50400001928E-02 0. -1.
    10030    2    1    2    0    0  0.00000000000E+00  0.00000000000E+00  0.26621310414E+03  0.17166539122E+04  0.16958865639E+04 0.  0.
        4    1    3    3  502    0 -0.25168361540E+03  0.27056221122E+03  0.90564147811E+03  0.97812915925E+03  0.12699999809E+01 0.  1.
       -4    1    3    3    0  502  0.25168361540E+03 -0.27056221122E+03 -0.63942837397E+03  0.73852475296E+03  0.12699999809E+01 0. -1.
</event>
<event>
 5   0  0.5821584E-05  0.1699894E+04  0.7818609E-02  0.8761425E-01
        2   -1    0    0  501    0  0.00000000000E+00  0.00000000000E+00  0.15069645673E+04  0.15069645673E+04  0.25500000920E-02 0.  1.
       -2   -1    0    0    0  501  0.00000000000E+00  0.00000000000E+00 -0.47938064309E+03  0.47938064310E+03  0.25500000920E-02 0. -1.
    10030    2    1    2    0    0  0.00000000000E+00  0.00000000000E+00  0.10275839242E+04  0.19863452104E+04  0.16998936948E+04 0.  0.
        1    1    3    3  502    0  0.71060898739E+03  0.41601999477E+03  0.75993460066E+03  0.11205080840E+04  0.50400001928E-02 0.  1.
       -1    1    3    3    0  502 -0.71060898739E+03 -0.41601999477E+03  0.26764932352E+03  0.86583712637E+03  0.50400001928E-02 0. -1.
</event>
<event>
 5   0  0.2967704E-05  0.1700145E+04  0.7818609E-02  0.8761282E-01
        1   -1    0    0  501    0  0.00000000000E+00  0.00000000000E+00  0.11037356079E+04  0.11037356079E+04  0.50400001928E-02 0.  1.
       -1   -1    0    0    0  501  0.00000000000E+00  0.00000000000E+00 -0.65470685630E+03  0.65470685632E+03  0.50400001928E-02 0. -1.
    10030    2    1    2    0    0  0.00000000000E+00  0.00000000000E+00  0.44902875159E+03  0.17584424642E+04  0.17001450174E+04 0.  0.
        2    1    3    3  502    0 -0.14499235905E+02 -0.76402138793E+03  0.60968746857E+03  0.97757747436E+03  0.25500000920E-02 0.  1.
       -2    1    3    3    0  502  0.14499235905E+02  0.76402138793E+03 -0.16065871697E+03  0.78086498987E+03  0.25500000920E-02 0. -1.
</event>
<event>
 5   0  0.5671132E-05  0.1699704E+04  0.7818609E-02  0.8761533E-01
        2   -1    0    0  501    0  0.00000000000E+00  0.00000000000E+00  0.15936234975E+04  0.15936234975E+04  0.25500000920E-02 0. -1.
       -2   -1    0    0    0  501  0.00000000000E+00  0.00000000000E+00 -0.45321150956E+03  0.45321150956E+03  0.25500000920E-02 0.  1.
    10030    2    1    2    0    0  0.00000000000E+00  0.00000000000E+00  0.11404119879E+04  0.20468350070E+04  0.16997041048E+04 0.  0.
        3    1    3    3  502    0 -0.42673328080E+03 -0.52765496609E+03 -0.45869799868E+02  0.68016549819E+03  0.10100000352E+00 0.  1.
       -3    1    3    3    0  502  0.42673328080E+03  0.52765496609E+03  0.11862817878E+04  0.13666695088E+04  0.10100000352E+00 0. -1.
</event>
<event>
 5   0  0.2966258E-05  0.1702555E+04  0.7818609E-02  0.8759908E-01
       -1   -1    0    0    0  501  0.00000000000E+00  0.00000000000E+00  0.10672549035E+04  0.10672549035E+04  0.50400001928E-02 0.  1.
        1   -1    0    0  501    0  0.00000000000E+00  0.00000000000E+00 -0.67900710094E+03  0.67900710096E+03  0.50400001928E-02 0. -1.
    10030    2    1    2    0    0  0.00000000000E+00  0.00000000000E+00  0.38824780254E+03  0.17462620045E+04  0.17025553242E+04 0.  0.
        4    1    3    3  502    0 -0.31215256029E+03  0.48016467484E+03 -0.45186555198E+03  0.72950765988E+03  0.12699999809E+01 0. -1.
       -4    1    3    3    0  502  0.31215256029E+03 -0.48016467484E+03  0.84011335453E+03  0.10167543446E+04  0.12699999809E+01 0.  1.
</event>
<event>
 5   0  0.2911632E-05  0.1700231E+04  0.7818609E-02  0.8761232E-01
        1   -1    0    0  501    0  0.00000000000E+00  0.00000000000E+00  0.10269098518E+04  0.10269098518E+04  0.50400001928E-02 0.  1.
       -1   -1    0    0    0  501  0.00000000000E+00  0.00000000000E+00 -0.70375872234E+03  0.70375872236E+03  0.50400001928E-02 0. -1.
    10030    2    1    2    0    0  0.00000000000E+00  0.00000000000E+00  0.32315112945E+03  0.17306685742E+04  0.17002314728E+04 0.  0.
        1    1    3    3  502    0  0.22008187305E+03 -0.30295312000E+03  0.93844210800E+03  0.10103911192E+04  0.50400001928E-02 0.  1.
       -1    1    3    3    0  502 -0.22008187305E+03  0.30295312000E+03 -0.61529097855E+03  0.72027745492E+03  0.50400001928E-02 0. -1.
</event>
<event>
 5   0  0.5821584E-05  0.1703143E+04  0.7818609E-02  0.8759574E-01
       -2   -1    0    0    0  501  0.00000000000E+00  0.00000000000E+00  0.66651840997E+03  0.66651840997E+03  0.25500000920E-02 0.  1.
        2   -1    0    0  501    0  0.00000000000E+00  0.00000000000E+00 -0.10880029577E+04  0.10880029577E+04  0.25500000920E-02 0. -1.
    10030    2    1    2    0    0  0.00000000000E+00  0.00000000000E+00 -0.42148454778E+03  0.17545213677E+04  0.17031429787E+04 0.  0.
        1    1    3    3  502    0  0.55504534977E+03  0.49723747749E+03  0.21382339164E+03  0.77526827110E+03  0.50400001928E-02 0.  1.
       -1    1    3    3    0  502 -0.55504534977E+03 -0.49723747749E+03 -0.63530793942E+03  0.97925309662E+03  0.50400001928E-02 0. -1.
</event>
<event>
 5   0  0.5755321E-05  0.1700309E+04  0.7818609E-02  0.8761188E-01
        2   -1    0    0  501    0  0.00000000000E+00  0.00000000000E+00  0.15976372889E+04  0.15976372889E+04  0.25500000920E-02 0. -1.
       -2   -1    0    0    0  501  0.00000000000E+00  0.00000000000E+00 -0.45239489657E+03  0.45239489657E+03  0.25500000920E-02 0.  1.
    10030    2    1    2    0    0  0.00000000000E+00  0.00000000000E+00  0.11452423924E+04  0.20500321855E+04  0.17003093320E+04 0.  0.
        4    1    3    3  502    0 -0.49628382100E+03  0.37783661450E+03 -0.12386566799E+03  0.63592645396E+03  0.12699999809E+01 0.  1.
       -4    1    3    3    0  502  0.49628382100E+03 -0.37783661450E+03  0.12691080604E+04  0.14141057315E+04  0.12699999809E+01 0. -1.
</event>
<event>
 5   0  0.2987859E-05  0.1704509E+04  0.7818609E-02  0.8758797E-01
        1   -1    0    0  501    0  0.00000000000E+00  0.00000000000E+00  0.11823252980E+04  0.11823252981E+04  0.50400001928E-02 0.  1.
       -1   -1    0    0    0  501  0.00000000000E+00  0.00000000000E+00 -0.61432999783E+03  0.61432999785E+03  0.50400001928E-02 0. -1.
    10030    2    1    2    0    0  0.00000000000E+00  0.00000000000E+00  0.56799530021E+03  0.17966552959E+04  0.17045091937E+04 0.  0.
        5    1    3    3  502    0 -0.38644045365E+03  0.33996741212E+03  0.99998447192E+03  0.11246799988E+04  0.46999998093E+01 0.  1.
       -5    1    3    3    0  502  0.38644045365E+03 -0.33996741212E+03 -0.43198917171E+03  0.67197529715E+03  0.46999998093E+01 0. -1.
</event>
<event>
 5   0  0.5821584E-05  0.1692771E+04  0.7818609E-02  0.8765498E-01
       -2   -1    0    0    0  501  0.00000000000E+00  0.00000000000E+00  0.85760462209E+03  0.85760462209E+03  0.25500000920E-02 0.  1.
        2   -1    0    0  501    0  0.00000000000E+00  0.00000000000E+00 -0.83531327134E+03  0.83531327134E+03  0.25500000920E-02 0. -1.
    10030    2    1    2    0    0  0.00000000000E+00  0.00000000000E+00  0.22291350749E+02  0.16929178934E+04  0.16927711273E+04 0.  0.
        1    1    3    3  502    0  0.65957949072E+03  0.28154742344E+02 -0.51855176218E+03  0.83948420127E+03  0.50400001928E-02 0. -1.
       -1    1    3    3    0  502 -0.65957949072E+03 -0.28154742344E+02  0.54084311293E+03  0.85343369216E+03  0.50400001928E-02 0.  1.
</event>
<event>
 5   0  0.5671132E-05  0.1700404E+04  0.7818609E-02  0.8761134E-01
       -2   -1    0    0    0  501  0.00000000000E+00  0.00000000000E+00  0.37393868930E+03  0.37393868931E+03  0.25500000920E-02 0. -1.
        2   -1    0    0  501    0  0.00000000000E+00  0.00000000000E+00 -0.19330525799E+04  0.19330525799E+04  0.25500000920E-02 0.  1.
    10030    2    1    2    0    0  0.00000000000E+00  0.00000000000E+00 -0.15591138906E+04  0.23069912692E+04  0.17004036557E+04 0.  0.
        3    1    3    3  502    0 -0.20271585518E+03 -0.79385504858E+03 -0.47153531278E+03  0.94532804756E+03  0.10100000352E+00 0. -1.
       -3    1    3    3    0  502  0.20271585518E+03  0.79385504858E+03 -0.10875785779E+04  0.13616632217E+04  0.10100000352E+00 0.  1.
</event>
<event>
 5   0  0.2911632E-05  0.1698423E+04  0.7818609E-02  0.8762265E-01
        1   -1    0    0  501    0  0.00000000000E+00  0.00000000000E+00  0.14681038533E+04  0.14681038533E+04  0.50400001928E-02 0. -1.
       -1   -1    0    0    0  501  0.00000000000E+00  0.00000000000E+00 -0.49121849707E+03  0.49121849709E+03  0.50400001928E-02 0.  1.
    10030    2    1    2    0    0  0.00000000000E+00  0.00000000000E+00  0.97688535627E+03  0.19593223504E+04  0.16984225251E+04 0.  0.
        1    1    3    3  502    0  0.17580633009E+03  0.25346641739E+03 -0.42430268359E+03  0.52458160259E+03  0.50400001928E-02 0.  1.
       -1    1    3    3    0  502 -0.17580633009E+03 -0.25346641739E+03  0.14011880399E+04  0.14347407478E+04  0.50400001928E-02 0. -1.
</event>
<event>
 5   0  0.2911632E-05  0.1703282E+04  0.7818609E-02  0.8759495E-01
       -1   -1    0    0    0  501  0.00000000000E+00  0.00000000000E+00  0.39358141685E+03  0.39358141688E+03  0.50400001928E-02 0.  1.
        1   -1    0    0  501    0  0.00000000000E+00  0.00000000000E+00 -0.18428019297E+04  0.18428019297E+04  0.50400001928E-02 0. -1.
    10030    2    1    2    0    0  0.00000000000E+00  0.00000000000E+00 -0.14492205129E+04  0.22363833466E+04  0.17032822368E+04 0.  0.
        1    1    3    3  502    0  0.54944279538E+03 -0.45324732832E+03 -0.11161084845E+03  0.72095596782E+03  0.50400001928E-02 0.  1.
       -1    1    3    3    0  502 -0.54944279538E+03  0.45324732832E+03 -0.13376096644E+04  0.15154273788E+04  0.50400001928E-02 0. -1.
</event>
<event>
 5   0  0.2993769E-05  0.1700571E+04  0.7818609E-02  0.8761039E-01
        1   -1    0    0  501    0  0.00000000000E+00  0.00000000000E+00  0.82165214194E+03  0.82165214196E+03  0.50400001928E-02 0.  1.
       -1   -1    0    0    0  501  0.00000000000E+00  0.00000000000E+00 -0.87991655271E+03  0.87991655273E+03  0.50400001928E-02 0. -1.
    10030    2    1    2    0    0  0.00000000000E+00  0.00000000000E+00 -0.58264410770E+02  0.17015686947E+04  0.17005708692E+04 0.  0.
        3    1    3    3  502    0  0.40747363110E+03  0.63353314259E+03 -0.42380795107E+03  0.86429867082E+03  0.10100000352E+00 0. -1.
       -3    1    3    3    0  502 -0.40747363110E+03 -0.63353314259E+03  0.36554354030E+03  0.83727002386E+03  0.10100000352E+00 0.  1.
</event>
<event>
 5   0  0.2987859E-05  0.1699344E+04  0.7818609E-02  0.8761739E-01
       -1   -1    0    0    0  501  0.00000000000E+00  0.00000000000E+00  0.10177030226E+04  0.10177030226E+04  0.50400001928E-02 0.  1.
        1   -1    0    0  501    0  0.00000000000E+00  0.00000000000E+00 -0.70938419597E+03  0.70938419598E+03  0.50400001928E-02 0. -1.
    10030    2    1    2    0    0  0.00000000000E+00  0.00000000000E+00  0.30831882658E+03  0.17270872185E+04  0.16993439209E+04 0.  0.
        5    1    3    3  502    0 -0.14974691874E+03  0.41836300046E+03  0.89018470541E+03  0.99493851045E+03  0.46999998093E+01 0.  1.
       -5    1    3    3    0  502  0.14974691874E+03 -0.41836300046E+03 -0.58186587883E+03  0.73214870810E+03  0.46999998093E+01 0. -1.
</event>
<event>
 5   0  0.2987859E-05  0.1697445E+04  0.7818609E-02  0.8762823E-01
       -1   -1    0    0    0  501  0.00000000000E+00  0.00000000000E+00  0.64031045670E+03  0.64031045672E+03  0.50400001928E-02 0.  1.
        1   -1    0    0  501    0  0.00000000000E+00  0.00000000000E+00 -0.11249694401E+04  0.11249694401E+04  0.50400001928E-02 0. -1.
    10030    2    1    2    0    0  0.00000000000E+00  0.00000000000E+00 -0.48465898342E+03  0.17652798968E+04  0.16974447808E+04 0.  0.
        5    1    3    3  502    0 -0.67803978257E+03  0.24397562838E+03 -0.70862921179E+03  0.10106629031E+04  0.46999998093E+01 0. -1.
       -5    1    3    3    0  502  0.67803978257E+03 -0.24397562838E+03  0.22397022837E+03  0.75461699370E+03  0.46999998093E+01 0.  1.
</event>
<event>
 5   0  0.5755321E-05  0.1693545E+04  0.7818609E-02  0.8765054E-01
       -2   -1    0    0    0  501  0.00000000000E+00  0.00000000000E+00  0.46071482793E+03  0.46071482794E+03  0.25500000920E-02 0.  1.
        2   -1    0    0  501    0  0.00000000000E+00  0.00000000000E+00 -0.15563286935E+04  0.15563286935E+04  0.25500000920E-02 0. -1.
    10030    2    1    2    0    0  0.00000000000E+00  0.00000000000E+00 -0.10956138655E+04  0.20170435214E+04  0.16935450466E+04 0.  0.
        4    1    3    3  502    0 -0.41970754300E+03 -0.20990465536E+03 -0.13872914262E+04  0.14645113520E+04  0.12699999809E+01 0. -1.
       -4    1    3    3    0  502  0.41970754300E+03  0.20990465536E+03  0.29167756064E+03  0.55253216945E+03  0.12699999809E+01 0.  1.
</event>
<event>
 5   0  0.5821584E-05  0.1688534E+04  0.7818609E-02  0.8767931E-01
        2   -1    0    0  501    0  0.00000000000E+00  0.00000000000E+00  0.79932641408E+03  0.79932641409E+03  0.25500000920E-02 0. -1.
       -2   -1    0    0    0  501  0.00000000000E+00  0.00000000000E+00 -0.89173480002E+03  0.89173480002E+03  0.25500000920E-02 0.  1.
    10030    2    1    2    0    0  0.00000000000E+00  0.00000000000E+00 -0.92408385932E+02  0.16910612141E+04  0.16885344889E+04 0.  0.
        1    1    3    3  502    0  0.67995834387E+03  0.49285944262E+03  0.40720851031E+02  0.84078057025E+03  0.50400001928E-02 0. -1.
       -1    1    3    3    0  502 -0.67995834387E+03 -0.49285944262E+03 -0.13312923696E+03  0.85028064386E+03  0.50400001928E-02 0.  1.
</event>
<event>
 5   0  0.2967704E-05  0.1700707E+04  0.7818609E-02  0.8760961E-01
        1   -1    0    0  501    0  0.00000000000E+00  0.00000000000E+00  0.10320608880E+04  0.10320608880E+04  0.50400001928E-02 0.  1.
       -1   -1    0    0    0  501  0.00000000000E+00  0.00000000000E+00 -0.70063825356E+03  0.70063825358E+03  0.50400001928E-02 0. -1.
    10030    2    1    2    0    0  0.00000000000E+00  0.00000000000E+00  0.33142263445E+03  0.17326991416E+04  0.17007073095E+04 0.  0.
        2    1    3    3  502    0 -0.44864049532E+03  0.34195905673E+03 -0.48256554875E+03  0.74235018648E+03  0.25500000920E-02 0. -1.
       -2    1    3    3    0  502  0.44864049532E+03 -0.34195905673E+03  0.81398818320E+03  0.99034895513E+03  0.25500000920E-02 0.  1.
</event>
<event>
 5   0  0.5859822E-05  0.1730891E+04  0.7818609E-02  0.8743940E-01
       -2   -1    0    0    0  501  0.00000000000E+00  0.00000000000E+00  0.11114893807E+04  0.11114893807E+04  0.25500000920E-02 0. -1.
        2   -1    0    0  501    0  0.00000000000E+00  0.00000000000E+00 -0.67386679388E+03  0.67386679388E+03  0.25500000920E-02 0.  1.
    10030    2    1    2    0    0  0.00000000000E+00  0.00000000000E+00  0.43762258681E+03  0.17853561746E+04  0.17308908520E+04 0.  0.
        5    1    3    3  502    0  0.50619031437E+03 -0.24373085212E+02  0.94242099225E+03  0.10700477084E+04  0.46999998093E+01 0. -1.
       -5    1    3    3    0  502 -0.50619031437E+03  0.24373085212E+02 -0.50479840543E+03  0.71530846617E+03  0.46999998093E+01 0.  1.
</event>
<event>
 5   0  0.2967704E-05  0.1700504E+04  0.7818609E-02  0.8761077E-01
        1   -1    0    0  501    0  0.00000000000E+00  0.00000000000E+00  0.12115007987E+04  0.12115007987E+04  0.50400001928E-02 0. -1.
       -1   -1    0    0    0  501  0.00000000000E+00  0.00000000000E+00 -0.59672141569E+03  0.59672141571E+03  0.50400001928E-02 0.  1.
    10030    2    1    2    0    0  0.00000000000E+00  0.00000000000E+00  0.61477938302E+03  0.18082222144E+04  0.17005040097E+04 0.  0.
        2    1    3    3  502    0  0.37951399272E+03 -0.30564998054E+03  0.10482867731E+04  0.11560094895E+04  0.25500000920E-02 0. -1.
       -2    1    3    3    0  502 -0.37951399272E+03  0.30564998054E+03 -0.43350739006E+03  0.65221272489E+03  0.25500000920E-02 0.  1.
</event>
<event>
 5   0  0.5652631E-05  0.1699361E+04  0.7818609E-02  0.8761729E-01
       -2   -1    0    0    0  501  0.00000000000E+00  0.00000000000E+00  0.79504626770E+03  0.79504626770E+03  0.25500000920E-02 0.  1.
        2   -1    0    0  501    0  0.00000000000E+00  0.00000000000E+00 -0.90806861465E+03  0.90806861465E+03  0.25500000920E-02 0. -1.
    10030    2    1    2    0    0  0.00000000000E+00  0.00000000000E+00 -0.11302234695E+03  0.17031148824E+04  0.16993605420E+04 0.  0.
        2    1    3    3  502    0  0.50468384524E+03  0.67865392602E+03  0.25398378529E+02  0.84612174808E+03  0.25500000920E-02 0.  1.
       -2    1    3    3    0  502 -0.50468384524E+03 -0.67865392602E+03 -0.13842072547E+03  0.85699313427E+03  0.25500000920E-02 0. -1.
</event>
<event>
 5   0  0.5671132E-05  0.1698679E+04  0.7818609E-02  0.8762118E-01
        2   -1    0    0  501    0  0.00000000000E+00  0.00000000000E+00  0.10887568251E+04  0.10887568251E+04  0.25500000920E-02 0. -1.
       -2   -1    0    0    0  501  0.00000000000E+00  0.00000000000E+00 -0.66256991585E+03  0.66256991586E+03  0.25500000920E-02 0.  1.
    10030    2    1    2    0    0  0.00000000000E+00  0.00000000000E+00  0.42618690923E+03  0.17513267409E+04  0.16986789196E+04 0.  0.
        3    1    3    3  502    0  0.15007699644E+03 -0.24704991105E+03 -0.61029581256E+03  0.67529086506E+03  0.10100000352E+00 0.  1.
       -3    1    3    3    0  502 -0.15007699644E+03  0.24704991105E+03  0.10364827218E+04  0.10760358759E+04  0.10100000352E+00 0. -1.
</event>
<event>
 5   0  0.5821584E-05  0.1692186E+04  0.7818609E-02  0.8765833E-01
       -2   -1    0    0    0  501  0.00000000000E+00  0.00000000000E+00  0.53953893169E+03  0.53953893169E+03  0.25500000920E-02 0. -1.
        2   -1    0    0  501    0  0.00000000000E+00  0.00000000000E+00 -0.13268247601E+04  0.13268247601E+04  0.25500000920E-02 0.  1.
    10030    2    1    2    0    0  0.00000000000E+00  0.00000000000E+00 -0.78728582843E+03  0.18663636918E+04  0.16921862943E+04 0.  0.
        1    1    3    3  502    0  0.38406862808E+03 -0.16490394913E+03 -0.12050066607E+04  0.12754383858E+04  0.50400001928E-02 0.  1.
       -1    1    3    3    0  502 -0.38406862808E+03  0.16490394913E+03  0.41772083231E+03  0.59092530601E+03  0.50400001928E-02 0. -1.
</event>
<event>
 5   0  0.5755321E-05  0.1697726E+04  0.7818609E-02  0.8762663E-01
       -2   -1    0    0    0  501  0.00000000000E+00  0.00000000000E+00  0.58339002970E+03  0.58339002971E+03  0.25500000920E-02 0. -1.
        2   -1    0    0  501    0  0.00000000000E+00  0.00000000000E+00 -0.12351395955E+04  0.12351395955E+04  0.25500000920E-02 0.  1.
    10030    2    1    2    0    0  0.00000000000E+00  0.00000000000E+00 -0.65174956577E+03  0.18185296252E+04  0.16977256849E+04 0.  0.
        4    1    3    3  502    0 -0.80310781174E+03  0.93749347030E+02 -0.49036473969E+02  0.81004770602E+03  0.12699999809E+01 0.  1.
       -4    1    3    3    0  502  0.80310781174E+03 -0.93749347030E+02 -0.60271309180E+03  0.10084819192E+04  0.12699999809E+01 0. -1.
</event>
<event>
 5   0  0.2987859E-05  0.1699261E+04  0.7818609E-02  0.8761786E-01
        1   -1    0    0  501    0  0.00000000000E+00  0.00000000000E+00  0.15989334759E+04  0.15989334759E+04  0.50400001928E-02 0. -1.
       -1   -1    0    0    0  501  0.00000000000E+00  0.00000000000E+00 -0.45147075550E+03  0.45147075552E+03  0.50400001928E-02 0.  1.
    10030    2    1    2    0    0  0.00000000000E+00  0.00000000000E+00  0.11474627204E+04  0.20504042314E+04  0.16992606679E+04 0.  0.
        5    1    3    3  502    0 -0.39599942767E+03 -0.38026250610E+03 -0.20866830219E+03  0.58734970043E+03  0.46999998093E+01 0.  1.
       -5    1    3    3    0  502  0.39599942767E+03  0.38026250610E+03  0.13561310226E+04  0.14630545310E+04  0.46999998093E+01 0. -1.
</event>
<event>
 5   0  0.2966258E-05  0.1700800E+04  0.7818609E-02  0.8760908E-01
        1   -1    0    0  501    0  0.00000000000E+00  0.00000000000E+00  0.22405511330E+04  0.22405511330E+04  0.50400001928E-02 0. -1.
       -1   -1    0    0    0  501  0.00000000000E+00  0.00000000000E+00 -0.32276900540E+03  0.32276900544E+03  0.50400001928E-02 0.  1.
    10030    2    1    2    0    0  0.00000000000E+00  0.00000000000E+00  0.19177821276E+04  0.25633201384E+04  0.17008003537E+04 0.  0.
        4    1    3    3  502    0  0.39722021473E+03  0.48000260603E+03  0.18311933681E+04  0.19342846649E+04  0.12699999809E+01 0. -1.
       -4    1    3    3    0  502 -0.39722021473E+03 -0.48000260603E+03  0.86588759543E+02  0.62903547353E+03  0.12699999809E+01 0.  1.
</event>
<event>
 5   0  0.2987859E-05  0.1698748E+04  0.7818609E-02  0.8762079E-01
        1   -1    0    0  501    0  0.00000000000E+00  0.00000000000E+00  0.11283359248E+04  0.11283359248E+04  0.50400001928E-02 0. -1.
       -1   -1    0    0    0  501  0.00000000000E+00  0.00000000000E+00 -0.63938080147E+03  0.63938080149E+03  0.50400001928E-02 0.  1.
    10030    2    1    2    0    0  0.00000000000E+00  0.00000000000E+00  0.48895512329E+03  0.17677167263E+04  0.16987481602E+04 0.  0.
        5    1    3    3  502    0  0.64250433170E+03  0.10980587497E+03  0.81114602262E+03  0.10406003587E+04  0.46999998093E+01 0. -1.
       -5    1    3    3    0  502 -0.64250433170E+03 -0.10980587497E+03 -0.32219089933E+03  0.72711636761E+03  0.46999998093E+01 0.  1.
</event>
<event>
 5   0  0.5671132E-05  0.1703658E+04  0.7818609E-02  0.8759281E-01
       -2   -1    0    0    0  501  0.00000000000E+00  0.00000000000E+00  0.52437223195E+03  0.52437223195E+03  0.25500000920E-02 0.  1.
        2   -1    0    0  501    0  0.00000000000E+00  0.00000000000E+00 -0.13837747791E+04  0.13837747791E+04  0.25500000920E-02 0. -1.
    10030    2    1    2    0    0  0.00000000000E+00  0.00000000000E+00 -0.85940254716E+03  0.19081470111E+04  0.17036584980E+04 0.  0.
        3    1    3    3  502    0 -0.22109357515E+03  0.80122560205E+03 -0.63854457336E+03  0.10481335872E+04  0.10100000352E+00 0.  1.
       -3    1    3    3    0  502  0.22109357515E+03 -0.80122560205E+03 -0.22085797380E+03  0.86001342381E+03  0.10100000352E+00 0. -1.
</event>
<event>
 5   0  0.5652631E-05  0.1699637E+04  0.7818609E-02  0.8761571E-01
       -2   -1    0    0    0  501  0.00000000000E+00  0.00000000000E+00  0.49201431221E+03  0.49201431221E+03  0.25500000920E-02 0.  1.
        2   -1    0    0  501    0  0.00000000000E+00  0.00000000000E+00 -0.14678260689E+04  0.14678260689E+04  0.25500000920E-02 0. -1.
    10030    2    1    2    0    0  0.00000000000E+00  0.00000000000E+00 -0.97581175674E+03  0.19598403812E+04  0.16996369421E+04 0.  0.
        2    1    3    3  502    0  0.49321681297E+03  0.30115275298E+03 -0.12063818260E+04  0.13376520157E+04  0.25500000920E-02 0. -1.
       -2    1    3    3    0  502 -0.49321681297E+03 -0.30115275298E+03  0.23057006922E+03  0.62218836541E+03  0.25500000920E-02 0.  1.
</event>
<event>
 5   0  0.5859822E-05  0.1697352E+04  0.7818609E-02  0.8762876E-01
        2   -1    0    0  501    0  0.00000000000E+00  0.00000000000E+00  0.74722931030E+03  0.74722931030E+03  0.25500000920E-02 0.  1.
       -2   -1    0    0    0  501  0.00000000000E+00  0.00000000000E+00 -0.96389517118E+03  0.96389517119E+03  0.25500000920E-02 0. -1.
    10030    2    1    2    0    0  0.00000000000E+00  0.00000000000E+00 -0.21666586089E+03  0.17111244815E+04  0.16973517302E+04 0.  0.
        5    1    3    3  502    0  0.26432513451E+03  0.26111743535E+03  0.66086455286E+03  0.75816498139E+03  0.46999998093E+01 0.  1.
       -5    1    3    3    0  502 -0.26432513451E+03 -0.26111743535E+03 -0.87753041375E+03  0.95295950010E+03  0.46999998093E+01 0. -1.
</event>
<event>
 5   0  0.2966258E-05  0.1703787E+04  0.7818609E-02  0.8759207E-01
        1   -1    0    0  501    0  0.00000000000E+00  0.00000000000E+00  0.14531291076E+04  0.14531291076E+04  0.50400001928E-02 0. -1.
       -1   -1    0    0    0  501  0.00000000000E+00  0.00000000000E+00 -0.49942062013E+03  0.49942062016E+03  0.50400001928E-02 0.  1.
    10030    2    1    2    0    0  0.00000000000E+00  0.00000000000E+00  0.95370848748E+03  0.19525497278E+04  0.17037871230E+04 0.  0.
        4    1    3    3  502    0 -0.46083884569E+03  0.59345361662E+03  0.93691720933E+03  0.12009892201E+04  0.12699999809E+01 0. -1.
       -4    1    3    3    0  502  0.46083884569E+03 -0.59345361662E+03  0.16791278151E+02  0.75156050768E+03  0.12699999809E+01 0.  1.
</event>
<event>
 5   0  0.2911632E-05  0.1695925E+04  0.7818609E-02  0.8763692E-01
       -1   -1    0    0    0  501  0.00000000000E+00  0.00000000000E+00  0.49377780815E+03  0.49377780817E+03  0.50400001928E-02 0.  1.
        1   -1    0    0  501    0  0.00000000000E+00  0.00000000000E+00 -0.14562028158E+04  0.14562028158E+04  0.50400001928E-02 0. -1.
    10030    2    1    2    0    0  0.00000000000E+00  0.00000000000E+00 -0.96242500769E+03  0.19499806240E+04  0.16959252751E+04 0.  0.
        1    1    3    3  502    0 -0.66875283560E+02  0.21919203987E+03  0.45749699471E+03  0.51168442823E+03  0.50400001928E-02 0.  1.
       -1    1    3    3    0  502  0.66875283560E+02 -0.21919203987E+03 -0.14199220024E+04  0.14382961958E+04  0.50400001928E-02 0. -1.
</event>
<event>
 5   0  0.5652631E-05  0.1700500E+04  0.7818609E-02  0.8761079E-01
        2   -1    0    0  501    0  0.00000000000E+00  0.00000000000E+00  0.10346032262E+04  0.10346032262E+04  0.25500000920E-02 0.  1.
       -2   -1    0    0    0  501  0.00000000000E+00  0.00000000000E+00 -0.69874647702E+03  0.69874647702E+03  0.25500000920E-02 0. -1.
    10030    2    1    2    0    0  0.00000000000E+00  0.00000000000E+00  0.33585674915E+03  0.17333497032E+04  0.17005003492E+04 0.  0.
        2    1    3    3  502    0  0.74590573077E+03  0.40036131354E+03  0.87274537569E+02  0.85104722870E+03  0.25500000920E-02 0. -1.
       -2    1    3    3    0  502 -0.74590573077E+03 -0.40036131354E+03  0.24858221158E+03  0.88230247449E+03  0.25500000920E-02 0.  1.
</event>
<event>
 5   0  0.2098250E-05  0.1693006E+04  0.7818609E-02  0.8765363E-01
       -3   -1    0    0    0  501  0.00000000000E+00  0.00000000000E+00  0.18119908719E+04  0.18119908748E+04  0.10100000352E+00 0. -1.
        3   -1    0    0  501    0  0.00000000000E+00  0.00000000000E+00 -0.39545866822E+03  0.39545868112E+03  0.10100000352E+00 0.  1.
    10030    2    1    2    0    0  0.00000000000E+00  0.00000000000E+00  0.14165322037E+04  0.22074495559E+04  0.16930062190E+04 0.  0.
        5    1    3    3  502    0 -0.23996720053E+01  0.12752440878E+03 -0.38284060440E+03  0.40355576026E+03  0.46999998093E+01 0.  1.
       -5    1    3    3    0  502  0.23996720053E+01 -0.12752440878E+03  0.17993728081E+04  0.18038937956E+04  0.46999998093E+01 0. -1.
</event>
<event>
 5   0  0.2966258E-05  0.1698728E+04  0.7818609E-02  0.8762090E-01
       -1   -1    0    0    0  501  0.00000000000E+00  0.00000000000E+00  0.33904803339E+03  0.33904803343E+03  0.50400001928E-02 0. -1.
        1   -1    0    0  501    0  0.00000000000E+00  0.00000000000E+00 -0.21277796462E+04  0.21277796463E+04  0.50400001928E-02 0.  1.
    10030    2    1    2    0    0  0.00000000000E+00  0.00000000000E+00 -0.17887316129E+04  0.24668276797E+04  0.16987283533E+04 0.  0.
        4    1    3    3  502    0  0.54526962663E+03  0.63219970358E+03 -0.66742657083E+03  0.10688569929E+04  0.12699999809E+01 0. -1.
       -4    1    3    3    0  502 -0.54526962663E+03 -0.63219970358E+03 -0.11213050420E+04  0.13979706868E+04  0.12699999809E+01 0.  1.
</event>
<event>
 5   0  0.5755321E-05  0.1698193E+04  0.7818609E-02  0.8762396E-01
       -2   -1    0    0    0  501  0.00000000000E+00  0.00000000000E+00  0.40675969287E+03  0.40675969288E+03  0.25500000920E-02 0.  1.
        2   -1    0    0  501    0  0.00000000000E+00  0.00000000000E+00 -0.17724581583E+04  0.17724581583E+04  0.25500000920E-02 0. -1.
    10030    2    1    2    0    0  0.00000000000E+00  0.00000000000E+00 -0.13656984655E+04  0.21792178512E+04  0.16981926111E+04 0.  0.
        4    1    3    3  502    0 -0.82725581050E+03  0.19047012422E+03 -0.70622703035E+03  0.11042596051E+04  0.12699999809E+01 0. -1.
       -4    1    3    3    0  502  0.82725581050E+03 -0.19047012422E+03 -0.65947143513E+03  0.10749582461E+04  0.12699999809E+01 0.  1.
</event>
<event>
 5   0  0.2987859E-05  0.1706155E+04  0.7818609E-02  0.8757862E-01
        1   -1    0    0  501    0  0.00000000000E+00  0.00000000000E+00  0.14085397276E+04  0.14085397276E+04  0.50400001928E-02 0.  1.
       -1   -1    0    0    0  501  0.00000000000E+00  0.00000000000E+00 -0.51666361030E+03  0.51666361033E+03  0.50400001928E-02 0. -1.
    10030    2    1    2    0    0  0.00000000000E+00  0.00000000000E+00  0.89187611731E+03  0.19252033379E+04  0.17061549999E+04 0.  0.
        5    1    3    3  502    0  0.50747367525E+03 -0.11554400984E+02  0.12195674614E+04  0.13209958055E+04  0.46999998093E+01 0.  1.
       -5    1    3    3    0  502 -0.50747367525E+03  0.11554400984E+02 -0.32769134410E+03  0.60420753244E+03  0.46999998093E+01 0. -1.
</event>
<event>
 5   0  0.5859822E-05  0.1700180E+04  0.7818609E-02  0.8761262E-01
        2   -1    0    0  501    0  0.00000000000E+00  0.00000000000E+00  0.13048436317E+04  0.13048436317E+04  0.25500000920E-02 0.  1.
       -2   -1    0    0    0  501  0.00000000000E+00  0.00000000000E+00 -0.55382319631E+03  0.55382319631E+03  0.25500000920E-02 0. -1.
    10030    2    1    2    0    0  0.00000000000E+00  0.00000000000E+00  0.75102043535E+03  0.18586668280E+04  0.17001796032E+04 0.  0.
        5    1    3    3  502    0 -0.63052848008E+03 -0.27788054937E+03  0.91976019440E+03  0.11492452606E+04  0.46999998093E+01 0.  1.
       -5    1    3    3    0  502  0.63052848008E+03  0.27788054937E+03 -0.16873975905E+03  0.70942156733E+03  0.46999998093E+01 0. -1.
</event>
<event>
 5   0  0.5821584E-05  0.1697670E+04  0.7818609E-02  0.8762694E-01
        2   -1    0    0  501    0  0.00000000000E+00  0.00000000000E+00  0.85398125583E+03  0.85398125584E+03  0.25500000920E-02 0.  1.
       -2   -1    0    0    0  501  0.00000000000E+00  0.00000000000E+00 -0.84371958088E+03  0.84371958089E+03  0.25500000920E-02 0. -1.
    10030    2    1    2    0    0  0.00000000000E+00  0.00000000000E+00  0.10261674951E+02  0.16977008367E+04  0.16976698233E+04 0.  0.
        1    1    3    3  502    0 -0.10120129225E+03 -0.78754572606E+03  0.30522086598E+03  0.85066429879E+03  0.50400001928E-02 0.  1.
       -1    1    3    3    0  502  0.10120129225E+03  0.78754572606E+03 -0.29495919103E+03  0.84703653793E+03  0.50400001928E-02 0. -1.
</event>
<event>
 5   0  0.2993769E-05  0.1712774E+04  0.7818609E-02  0.8754112E-01
       -1   -1    0    0    0  501  0.00000000000E+00  0.00000000000E+00  0.37952167530E+03  0.37952167533E+03  0.50400001928E-02 0. -1.
        1   -1    0    0  501    0  0.00000000000E+00  0.00000000000E+00 -0.19324292931E+04  0.19324292931E+04  0.50400001928E-02 0.  1.
    10030    2    1    2    0    0  0.00000000000E+00  0.00000000000E+00 -0.15529076178E+04  0.23119509684E+04  0.17127741273E+04 0.  0.
        3    1    3    3  502    0 -0.97737799792E+02 -0.49948368729E+03 -0.17061339303E+04  0.17804296194E+04  0.10100000352E+00 0.  1.
       -3    1    3    3    0  502  0.97737799792E+02  0.49948368729E+03  0.15322631253E+03  0.53152134899E+03  0.10100000352E+00 0. -1.
</event>
<event>
 5   0  0.2966258E-05  0.1692471E+04  0.7818609E-02  0.8765670E-01
        1   -1    0    0  501    0  0.00000000000E+00  0.00000000000E+00  0.11772608427E+04  0.11772608427E+04  0.50400001928E-02 0. -1.
       -1   -1    0    0    0  501  0.00000000000E+00  0.00000000000E+00 -0.60828892933E+03  0.60828892935E+03  0.50400001928E-02 0.  1.
    10030    2    1    2    0    0  0.00000000000E+00  0.00000000000E+00  0.56897191338E+03  0.17855497721E+04  0.16924712554E+04 0.  0.
        4    1    3    3  502    0  0.49142697474E+03  0.18964391368E+03 -0.41424286278E+03  0.67012241252E+03  0.12699999809E+01 0.  1.
       -4    1    3    3    0  502 -0.49142697474E+03 -0.18964391368E+03  0.98321477616E+03  0.11154273596E+04  0.12699999809E+01 0. -1.
</event>
<event>
 5   0  0.2966258E-05  0.1701878E+04  0.7818609E-02  0.8760294E-01
        1   -1    0    0  501    0  0.00000000000E+00  0.00000000000E+00  0.69486902716E+03  0.69486902718E+03  0.50400001928E-02 0. -1.
       -1   -1    0    0    0  501  0.00000000000E+00  0.00000000000E+00 -0.10420624863E+04  0.10420624863E+04  0.50400001928E-02 0.  1.
    10030    2    1    2    0    0  0.00000000000E+00  0.00000000000E+00 -0.34719345911E+03  0.17369315135E+04  0.17018777231E+04 0.  0.
        4    1    3    3  502    0 -0.79089060001E+03 -0.14233167373E+03  0.11204119738E+03  0.81136988442E+03  0.12699999809E+01 0.  1.
       -4    1    3    3    0  502  0.79089060001E+03  0.14233167373E+03 -0.45923465649E+03  0.92556162904E+03  0.12699999809E+01 0. -1.
</event>
<event>
 5   0  0.2966258E-05  0.1703792E+04  0.7818609E-02  0.8759204E-01
       -1   -1    0    0    0  501  0.00000000000E+00  0.00000000000E+00  0.11705489008E+04  0.11705489009E+04  0.50400001928E-02 0. -1.
        1   -1    0    0  501    0  0.00000000000E+00  0.00000000000E+00 -0.61998861499E+03  0.61998861501E+03  0.50400001928E-02 0.  1.
    10030    2    1    2    0    0  0.00000000000E+00  0.00000000000E+00  0.55056028585E+03  0.17905375159E+04  0.17037922313E+04 0.  0.
        4    1    3    3  502    0 -0.18179435729E+03 -0.75771114621E+03 -0.86560701147E+02  0.78400876099E+03  0.12699999809E+01 0.  1.
       -4    1    3    3    0  502  0.18179435729E+03  0.75771114621E+03  0.63712098699E+03  0.10065287549E+04  0.12699999809E+01 0. -1.
</event>
<event>
 5   0  0.2993769E-05  0.1693428E+04  0.7818609E-02  0.8765122E-01
       -1   -1    0    0    0  501  0.00000000000E+00  0.00000000000E+00  0.11524185842E+04  0.11524185843E+04  0.50400001928E-02 0.  1.
        1   -1    0    0  501    0  0.00000000000E+00  0.00000000000E+00 -0.62210413334E+03  0.62210413336E+03  0.50400001928E-02 0. -1.
    10030    2    1    2    0    0  0.00000000000E+00  0.00000000000E+00  0.53031445091E+03  0.17745227176E+04  0.16934277246E+04 0.  0.
        3    1    3    3  502    0  0.82373306994E+03 -0.11916766533E+03  0.42812741012E+03  0.93596484574E+03  0.10100000352E+00 0.  1.
       -3    1    3    3    0  502 -0.82373306994E+03  0.11916766533E+03  0.10218704079E+03  0.83855787187E+03  0.10100000352E+00 0. -1.
</event>
<event>
 5   0  0.5859822E-05  0.1697922E+04  0.7818609E-02  0.8762550E-01
       -2   -1    0    0    0  501  0.00000000000E+00  0.00000000000E+00  0.12457478964E+04  0.12457478964E+04  0.25500000920E-02 0.  1.
        2   -1    0    0  501    0  0.00000000000E+00  0.00000000000E+00 -0.57855593522E+03  0.57855593523E+03  0.25500000920E-02 0. -1.
    10030    2    1    2    0    0  0.00000000000E+00  0.00000000000E+00  0.66719196122E+03  0.18243038317E+04  0.16979220704E+04 0.  0.
        5    1    3    3  502    0 -0.60873522024E+03  0.49958463607E+03 -0.71355205162E+01  0.78753817851E+03  0.46999998093E+01 0.  1.
       -5    1    3    3    0  502  0.60873522024E+03 -0.49958463607E+03  0.67432748174E+03  0.10367656532E+04  0.46999998093E+01 0. -1.
</event>
<event>
 5   0  0.5652631E-05  0.1702801E+04  0.7818609E-02  0.8759768E-01
       -2   -1    0    0    0  501  0.00000000000E+00  0.00000000000E+00  0.52333644731E+03  0.52333644732E+03  0.25500000920E-02 0. -1.
        2   -1    0    0  501    0  0.00000000000E+00  0.00000000000E+00 -0.13851183005E+04  0.13851183005E+04  0.25500000920E-02 0.  1.
    10030    2    1    2    0    0  0.00000000000E+00  0.00000000000E+00 -0.86178185319E+03  0.19084547478E+04  0.17028010929E+04 0.  0.
        2    1    3    3  502    0 -0.64030023354E+03  0.17941674970E+02  0.19771888002E+03  0.67037232065E+03  0.25500000920E-02 0. -1.
       -2    1    3    3    0  502  0.64030023354E+03 -0.17941674970E+02 -0.10595007332E+04  0.12380824272E+04  0.25500000920E-02 0.  1.
</event>
<event>
 5   0  0.2967704E-05  0.1698257E+04  0.7818609E-02  0.8762359E-01
        1   -1    0    0  501    0  0.00000000000E+00  0.00000000000E+00  0.86699891207E+03  0.86699891208E+03  0.50400001928E-02 0. -1.
       -1   -1    0    0    0  501  0.00000000000E+00  0.00000000000E+00 -0.83162619547E+03  0.83162619548E+03  0.50400001928E-02 0.  1.
    10030    2    1    2    0    0  0.00000000000E+00  0.00000000000E+00  0.35372716596E+02  0.16986251076E+04  0.16982567612E+04 0.  0.
        2    1    3    3  502    0  0.70168403275E+03 -0.37824780198E+03 -0.27492986884E+03  0.84321901918E+03  0.25500000920E-02 0.  1.
       -2    1    3    3    0  502 -0.70168403275E+03  0.37824780198E+03  0.31030258544E+03  0.85540608839E+03  0.25500000920E-02 0. -1.
</event>
<event>
 5   0  0.2911632E-05  0.1696861E+04  0.7818609E-02  0.8763157E-01
        1   -1    0    0  501    0  0.00000000000E+00  0.00000000000E+00  0.92883787524E+03  0.92883787526E+03  0.50400001928E-02 0.  1.
       -1   -1    0    0    0  501  0.00000000000E+00  0.00000000000E+00 -0.77498363012E+03  0.77498363013E+03  0.50400001928E-02 0. -1.
    10030    2    1    2    0    0  0.00000000000E+00  0.00000000000E+00  0.15385424512E+03  0.17038215054E+04  0.16968608056E+04 0.  0.
        1    1    3    3  502    0 -0.17246639443E+03 -0.70847518871E+03  0.51247184551E+03  0.89124022726E+03  0.50400001928E-02 0.  1.
       -1    1    3    3    0  502  0.17246639443E+03  0.70847518871E+03 -0.35861760039E+03  0.81258127813E+03  0.50400001928E-02 0. -1.
</event>
<event>
 5   0  0.2993769E-05  0.1697750E+04  0.7818609E-02  0.8762649E-01
       -1   -1    0    0    0  501  0.00000000000E+00  0.00000000000E+00  0.92709021730E+03  0.92709021732E+03  0.50400001928E-02 0. -1.
        1   -1    0    0  501    0  0.00000000000E+00  0.00000000000E+00 -0.77725827267E+03  0.77725827268E+03  0.50400001928E-02 0.  1.
    10030    2    1    2    0    0  0.00000000000E+00  0.00000000000E+00  0.14983194464E+03  0.17043484900E+04  0.16977497353E+04 0.  0.
        3    1    3    3  502    0 -0.60472031033E+03 -0.28075732146E+03  0.60238869077E+03  0.89854519766E+03  0.10100000352E+00 0. -1.
       -3    1    3    3    0  502  0.60472031033E+03  0.28075732146E+03 -0.45255674613E+03  0.80580329234E+03  0.10100000352E+00 0.  1.
</event>
<event>
 5   0  0.2911632E-05  0.1697084E+04  0.7818609E-02  0.8763029E-01
       -1   -1    0    0    0  501  0.00000000000E+00  0.00000000000E+00  0.14726940701E+04  0.14726940701E+04  0.50400001928E-02 0.  1.
        1   -1    0    0  501    0  0.00000000000E+00  0.00000000000E+00 -0.48891587228E+03  0.48891587231E+03  0.50400001928E-02 0. -1.
    10030    2    1    2    0    0  0.00000000000E+00  0.00000000000E+00  0.98377819784E+03  0.19616099424E+04  0.16970839766E+04 0.  0.
        1    1    3    3  502    0  0.36283512586E+03  0.30533367687E+03 -0.32145767691E+03  0.57289878762E+03  0.50400001928E-02 0. -1.
       -1    1    3    3    0  502 -0.36283512586E+03 -0.30533367687E+03  0.13052358747E+04  0.13887111548E+04  0.50400001928E-02 0.  1.
</event>
<event>
 5   0  0.2966258E-05  0.1698933E+04  0.7818609E-02  0.8761973E-01
        1   -1    0    0  501    0  0.00000000000E+00  0.00000000000E+00  0.97359603645E+03  0.97359603646E+03  0.50400001928E-02 0. -1.
       -1   -1    0    0    0  501  0.00000000000E+00  0.00000000000E+00 -0.74116267930E+03  0.74116267931E+03  0.50400001928E-02 0.  1.
    10030    2    1    2    0    0  0.00000000000E+00  0.00000000000E+00  0.23243335715E+03  0.17147587158E+04  0.16989326614E+04 0.  0.
        4    1    3    3  502    0 -0.39797459827E+03 -0.54547377474E+03 -0.40401267519E+03  0.78686293242E+03  0.12699999809E+01 0.  1.
       -4    1    3    3    0  502  0.39797459827E+03  0.54547377474E+03  0.63644603234E+03  0.92789578336E+03  0.12699999809E+01 0. -1.
</event>
<event>
 5   0  0.2966258E-05  0.1700900E+04  0.7818609E-02  0.8760851E-01
        1   -1    0    0  501    0  0.00000000000E+00  0.00000000000E+00  0.11942708414E+04  0.11942708414E+04  0.50400001928E-02 0.  1.
       -1   -1    0    0    0  501  0.00000000000E+00  0.00000000000E+00 -0.60561261922E+03  0.60561261924E+03  0.50400001928E-02 0. -1.
    10030    2    1    2    0    0  0.00000000000E+00  0.00000000000E+00  0.58865822217E+03  0.17998834606E+04  0.17009003408E+04 0.  0.
        4    1    3    3  502    0  0.12398315562E+03 -0.40498402874E+03  0.10747287498E+04  0.11551741795E+04  0.12699999809E+01 0.  1.
       -4    1    3    3    0  502 -0.12398315562E+03  0.40498402874E+03 -0.48607052765E+03  0.64470928112E+03  0.12699999809E+01 0. -1.
</event>
<event>
 5   0  0.2993769E-05  0.1698465E+04  0.7818609E-02  0.8762240E-01
        1   -1    0    0  501    0  0.00000000000E+00  0.00000000000E+00  0.13393218632E+04  0.13393218632E+04  0.50400001928E-02 0. -1.
       -1   -1    0    0    0  501  0.00000000000E+00  0.00000000000E+00 -0.53847863123E+03  0.53847863125E+03  0.50400001928E-02 0.  1.
    10030    2    1    2    0    0  0.00000000000E+00  0.00000000000E+00  0.80084323194E+03  0.18778004944E+04  0.16984654294E+04 0.  0.
        3    1    3    3  502    0 -0.40879136326E+03  0.84962045139E+02  0.12180080967E+04  0.12875840406E+04  0.10100000352E+00 0. -1.
       -3    1    3    3    0  502  0.40879136326E+03 -0.84962045139E+02 -0.41716486475E+03  0.59021645383E+03  0.10100000352E+00 0.  1.
</event>
<event>
 5   0  0.5652631E-05  0.1703442E+04  0.7818609E-02  0.8759404E-01
       -2   -1    0    0    0  501  0.00000000000E+00  0.00000000000E+00  0.75328677436E+03  0.75328677437E+03  0.25500000920E-02 0. -1.
        2   -1    0    0  501    0  0.00000000000E+00  0.00000000000E+00 -0.96301780899E+03  0.96301780900E+03  0.25500000920E-02 0.  1.
    10030    2    1    2    0    0  0.00000000000E+00  0.00000000000E+00 -0.20973103463E+03  0.17163045834E+04  0.17034419027E+04 0.  0.
        2    1    3    3  502    0 -0.38083376969E+03 -0.66763767415E+03 -0.47458889791E+03  0.90333219034E+03  0.25500000920E-02 0.  1.
       -2    1    3    3    0  502  0.38083376969E+03  0.66763767415E+03  0.26485786327E+03  0.81297239303E+03  0.25500000920E-02 0. -1.
</event>
<event>
 5   0  0.2987859E-05  0.1695900E+04  0.7818609E-02  0.8763706E-01
        1   -1    0    0  501    0  0.00000000000E+00  0.00000000000E+00  0.63403315844E+03  0.63403315846E+03  0.50400001928E-02 0.  1.
       -1   -1    0    0    0  501  0.00000000000E+00  0.00000000000E+00 -0.11340407982E+04  0.11340407982E+04  0.50400001928E-02 0. -1.
    10030    2    1    2    0    0  0.00000000000E+00  0.00000000000E+00 -0.50000763972E+03  0.17680739566E+04  0.16959003144E+04 0.  0.
        5    1    3    3  502    0  0.21166391889E+03  0.73741101643E+03 -0.62651117565E+03  0.99051247590E+03  0.46999998093E+01 0. -1.
       -5    1    3    3    0  502 -0.21166391889E+03 -0.73741101643E+03  0.12650353593E+03  0.77756148073E+03  0.46999998093E+01 0.  1.
</event>
<event>
 5   0  0.5821584E-05  0.1703247E+04  0.7818609E-02  0.8759514E-01
       -2   -1    0    0    0  501  0.00000000000E+00  0.00000000000E+00  0.62351604468E+03  0.62351604469E+03  0.25500000920E-02 0. -1.
        2   -1    0    0  501    0  0.00000000000E+00  0.00000000000E+00 -0.11631825594E+04  0.11631825594E+04  0.25500000920E-02 0.  1.
    10030    2    1    2    0    0  0.00000000000E+00  0.00000000000E+00 -0.53966651467E+03  0.17866986040E+04  0.17032474731E+04 0.  0.
        1    1    3    3  502    0 -0.66817334957E+03 -0.39550227536E+02 -0.82217002192E+03  0.10601808292E+04  0.50400001928E-02 0.  1.
       -1    1    3    3    0  502  0.66817334957E+03  0.39550227536E+02  0.28250350725E+03  0.72651777487E+03  0.50400001928E-02 0. -1.
</event>
<event>
 5   0  0.2993769E-05  0.1696242E+04  0.7818609E-02  0.8763511E-01
        1   -1    0    0  501    0  0.00000000000E+00  0.00000000000E+00  0.21033955592E+04  0.21033955592E+04  0.50400001928E-02 0. -1.
       -1   -1    0    0    0  501  0.00000000000E+00  0.00000000000E+00 -0.34197507863E+03  0.34197507867E+03  0.50400001928E-02 0.  1.
    10030    2    1    2    0    0  0.00000000000E+00  0.00000000000E+00  0.17614204806E+04  0.24453706379E+04  0.16962415651E+04 0.  0.
        3    1    3    3  502    0  0.43811555678E+01 -0.82865876676E+03  0.11410623245E+04  0.14102190556E+04  0.10100000352E+00 0. -1.
       -3    1    3    3    0  502 -0.43811555678E+01  0.82865876676E+03  0.62035815610E+03  0.10351515823E+04  0.10100000352E+00 0.  1.
</event>
<event>
 5   0  0.5821584E-05  0.1700341E+04  0.7818609E-02  0.8761170E-01
       -2   -1    0    0    0  501  0.00000000000E+00  0.00000000000E+00  0.11979897494E+04  0.11979897494E+04  0.25500000920E-02 0.  1.
        2   -1    0    0  501    0  0.00000000000E+00  0.00000000000E+00 -0.60333586308E+03  0.60333586309E+03  0.25500000920E-02 0. -1.
    10030    2    1    2    0    0  0.00000000000E+00  0.00000000000E+00  0.59465388631E+03  0.18013256125E+04  0.17003413533E+04 0.  0.
        1    1    3    3  502    0  0.12613287368E+03  0.36992255507E+03 -0.50252205183E+03  0.63661653385E+03  0.50400001928E-02 0. -1.
       -1    1    3    3    0  502 -0.12613287368E+03 -0.36992255507E+03  0.10971759381E+04  0.11647090786E+04  0.50400001928E-02 0.  1.
</event>
<event>
 5   0  0.2911632E-05  0.1697976E+04  0.7818609E-02  0.8762520E-01
        1   -1    0    0  501    0  0.00000000000E+00  0.00000000000E+00  0.17822185966E+04  0.17822185966E+04  0.50400001928E-02 0. -1.
       -1   -1    0    0    0  501  0.00000000000E+00  0.00000000000E+00 -0.40442864779E+03  0.40442864783E+03  0.50400001928E-02 0.  1.
    10030    2    1    2    0    0  0.00000000000E+00  0.00000000000E+00  0.13777899488E+04  0.21866472444E+04  0.16979755677E+04 0.  0.
        1    1    3    3  502    0 -0.10816275901E+03  0.78520941290E+03  0.29716922171E+03  0.84650017773E+03  0.50400001928E-02 0. -1.
       -1    1    3    3    0  502  0.10816275901E+03 -0.78520941290E+03  0.10806207271E+04  0.13401470667E+04  0.50400001928E-02 0.  1.
</event>
<event>
 5   0  0.5859822E-05  0.1698329E+04  0.7818609E-02  0.8762318E-01
       -2   -1    0    0    0  501  0.00000000000E+00  0.00000000000E+00  0.44008370242E+03  0.44008370243E+03  0.25500000920E-02 0. -1.
        2   -1    0    0  501    0  0.00000000000E+00  0.00000000000E+00 -0.16385063809E+04  0.16385063809E+04  0.25500000920E-02 0.  1.
    10030    2    1    2    0    0  0.00000000000E+00  0.00000000000E+00 -0.11984226785E+04  0.20785900834E+04  0.16983285366E+04 0.  0.
        5    1    3    3  502    0 -0.92718620937E+02  0.31007444702E+03  0.36162296150E+03  0.48532067919E+03  0.46999998093E+01 0. -1.
       -5    1    3    3    0  502  0.92718620937E+02 -0.31007444702E+03 -0.15600456400E+04  0.15932694042E+04  0.46999998093E+01 0.  1.
</event>
<event>
 5   0  0.2967704E-05  0.1700317E+04  0.7818609E-02  0.8761183E-01
        1   -1    0    0  501    0  0.00000000000E+00  0.00000000000E+00  0.11278954581E+04  0.11278954581E+04  0.50400001928E-02 0.  1.
       -1   -1    0    0    0  501  0.00000000000E+00  0.00000000000E+00 -0.64081277387E+03  0.64081277389E+03  0.50400001928E-02 0. -1.
    10030    2    1    2    0    0  0.00000000000E+00  0.00000000000E+00  0.48708268426E+03  0.17687082320E+04  0.17003174024E+04 0.  0.
        2    1    3    3  502    0  0.55108325373E+03  0.49527049059E+03  0.67718335250E+03  0.10037743294E+04  0.25500000920E-02 0.  1.
       -2    1    3    3    0  502 -0.55108325373E+03 -0.49527049059E+03 -0.19010066824E+03  0.76493390267E+03  0.25500000920E-02 0. -1.
</event>
<event>
 5   0  0.5671132E-05  0.1682606E+04  0.7818609E-02  0.8771348E-01
        2   -1    0    0  501    0  0.00000000000E+00  0.00000000000E+00  0.16213635130E+04  0.16213635130E+04  0.25500000920E-02 0.  1.
       -2   -1    0    0    0  501  0.00000000000E+00  0.00000000000E+00 -0.43654023850E+03  0.43654023851E+03  0.25500000920E-02 0. -1.
    10030    2    1    2    0    0  0.00000000000E+00  0.00000000000E+00  0.11848232745E+04  0.20579037515E+04  0.16826056159E+04 0.  0.
        3    1    3    3  502    0  0.25312745019E+03 -0.15472393998E+03 -0.37044270422E+03  0.47459541818E+03  0.10100000352E+00 0. -1.
       -3    1    3    3    0  502 -0.25312745019E+03  0.15472393998E+03  0.15552659787E+04  0.15833083333E+04  0.10100000352E+00 0.  1.
</event>
<event>
 5   0  0.5652631E-05  0.1701910E+04  0.7818609E-02  0.8760276E-01
       -2   -1    0    0    0  501  0.00000000000E+00  0.00000000000E+00  0.10781940620E+04  0.10781940620E+04  0.25500000920E-02 0.  1.
        2   -1    0    0  501    0  0.00000000000E+00  0.00000000000E+00 -0.67160853387E+03  0.67160853387E+03  0.25500000920E-02 0. -1.
    10030    2    1    2    0    0  0.00000000000E+00  0.00000000000E+00  0.40658552814E+03  0.17498025959E+04  0.17019099074E+04 0.  0.
        2    1    3    3  502    0 -0.58613132870E+03 -0.58020162421E+03  0.41881141443E+03  0.92497938360E+03  0.25500000920E-02 0.  1.
       -2    1    3    3    0  502  0.58613132870E+03  0.58020162421E+03 -0.12225886291E+02  0.82482321228E+03  0.25500000920E-02 0. -1.
</event>
<event>
 5   0  0.2967704E-05  0.1699577E+04  0.7818609E-02  0.8761606E-01
        1   -1    0    0  501    0  0.00000000000E+00  0.00000000000E+00  0.74438526533E+03  0.74438526535E+03  0.50400001928E-02 0.  1.
       -1   -1    0    0    0  501  0.00000000000E+00  0.00000000000E+00 -0.97011676992E+03  0.97011676993E+03  0.50400001928E-02 0. -1.
    10030    2    1    2    0    0  0.00000000000E+00  0.00000000000E+00 -0.22573150459E+03  0.17145020353E+04  0.16995771582E+04 0.  0.
        2    1    3    3  502    0  0.57371663395E+03  0.62653326369E+03 -0.13416807033E+03  0.86005568290E+03  0.25500000920E-02 0.  1.
       -2    1    3    3    0  502 -0.57371663395E+03 -0.62653326369E+03 -0.91563434257E+02  0.85444635237E+03  0.25500000920E-02 0. -1.
</event>
<event>
 5   0  0.5859822E-05  0.1702021E+04  0.7818609E-02  0.8760213E-01
       -2   -1    0    0    0  501  0.00000000000E+00  0.00000000000E+00  0.47129514630E+03  0.47129514631E+03  0.25500000920E-02 0. -1.
        2   -1    0    0  501    0  0.00000000000E+00  0.00000000000E+00 -0.15366566551E+04  0.15366566551E+04  0.25500000920E-02 0.  1.
    10030    2    1    2    0    0  0.00000000000E+00  0.00000000000E+00 -0.10653615088E+04  0.20079518014E+04  0.17020209436E+04 0.  0.
        5    1    3    3  502    0 -0.75525425753E+03 -0.38973350893E+03 -0.48131733872E+03  0.97672394875E+03  0.46999998093E+01 0.  1.
       -5    1    3    3    0  502  0.75525425753E+03  0.38973350893E+03 -0.58404417006E+03  0.10312278526E+04  0.46999998093E+01 0. -1.
</event>
<event>
 5   0  0.5859822E-05  0.1703971E+04  0.7818609E-02  0.8759103E-01
        2   -1    0    0  501    0  0.00000000000E+00  0.00000000000E+00  0.74572579495E+03  0.74572579496E+03  0.25500000920E-02 0. -1.
       -2   -1    0    0    0  501  0.00000000000E+00  0.00000000000E+00 -0.97338617227E+03  0.97338617227E+03  0.25500000920E-02 0.  1.
    10030    2    1    2    0    0  0.00000000000E+00  0.00000000000E+00 -0.22766037731E+03  0.17191119672E+04  0.17039708649E+04 0.  0.
        5    1    3    3  502    0  0.14204401734E+03  0.29023606789E+03 -0.90915194310E+03  0.96487969385E+03  0.46999998093E+01 0.  1.
       -5    1    3    3    0  502 -0.14204401734E+03 -0.29023606789E+03  0.68149156578E+03  0.75423227338E+03  0.46999998093E+01 0. -1.
</event>
<event>
 5   0  0.5671132E-05  0.1698684E+04  0.7818609E-02  0.8762115E-01
        2   -1    0    0  501    0  0.00000000000E+00  0.00000000000E+00  0.76645645324E+03  0.76645645324E+03  0.25500000920E-02 0.  1.
       -2   -1    0    0    0  501  0.00000000000E+00  0.00000000000E+00 -0.94119052646E+03  0.94119052646E+03  0.25500000920E-02 0. -1.
    10030    2    1    2    0    0  0.00000000000E+00  0.00000000000E+00 -0.17473407322E+03  0.17076469797E+04  0.16986836701E+04 0.  0.
        3    1    3    3  502    0 -0.39185279916E+03  0.41349105157E+03  0.54592378552E+03  0.78902234172E+03  0.10100000352E+00 0.  1.
       -3    1    3    3    0  502  0.39185279916E+03 -0.41349105157E+03 -0.72065785874E+03  0.91862463798E+03  0.10100000352E+00 0. -1.
</event>
<event>
 5   0  0.5821584E-05  0.1700658E+04  0.7818609E-02  0.8760989E-01
       -2   -1    0    0    0  501  0.00000000000E+00  0.00000000000E+00  0.69535179545E+03  0.69535179546E+03  0.25500000920E-02 0.  1.
        2   -1    0    0  501    0  0.00000000000E+00  0.00000000000E+00 -0.10398466520E+04  0.10398466520E+04  0.25500000920E-02 0. -1.
    10030    2    1    2    0    0  0.00000000000E+00  0.00000000000E+00 -0.34449485658E+03  0.17351984475E+04  0.17006577980E+04 0.  0.
        1    1    3    3  502    0 -0.61098290755E+03  0.52424762231E+03 -0.45152843392E+03  0.92304583282E+03  0.50400001928E-02 0. -1.
       -1    1    3    3    0  502  0.61098290755E+03 -0.52424762231E+03  0.10703357734E+03  0.81215261467E+03  0.50400001928E-02 0.  1.
</event>
<event>
 5   0  0.2987859E-05  0.1700189E+04  0.7818609E-02  0.8761257E-01
       -1   -1    0    0    0  501  0.00000000000E+00  0.00000000000E+00  0.35225703275E+03  0.35225703279E+03  0.50400001928E-02 0.  1.
        1   -1    0    0  501    0  0.00000000000E+00  0.00000000000E+00 -0.20515140450E+04  0.20515140450E+04  0.50400001928E-02 0. -1.
    10030    2    1    2    0    0  0.00000000000E+00  0.00000000000E+00 -0.16992570122E+04  0.24037710778E+04  0.17001885192E+04 0.  0.
        5    1    3    3  502    0  0.32671627204E+03  0.44869256831E+02 -0.19573695802E+04  0.19849620994E+04  0.46999998093E+01 0. -1.
       -5    1    3    3    0  502 -0.32671627204E+03 -0.44869256831E+02  0.25811256796E+03  0.41880897837E+03  0.46999998093E+01 0.  1.
</event>
<event>
 5   0  0.2911632E-05  0.1704948E+04  0.7818609E-02  0.8758547E-01
        1   -1    0    0  501    0  0.00000000000E+00  0.00000000000E+00  0.49256780994E+03  0.49256780997E+03  0.50400001928E-02 0.  1.
       -1   -1    0    0    0  501  0.00000000000E+00  0.00000000000E+00 -0.14753547525E+04  0.14753547525E+04  0.50400001928E-02 0. -1.
    10030    2    1    2    0    0  0.00000000000E+00  0.00000000000E+00 -0.98278694257E+03  0.19679225625E+04  0.17049483973E+04 0.  0.
        1    1    3    3  502    0  0.62854732976E+03 -0.49894558381E+03 -0.82331336894E+03  0.11497231601E+04  0.50400001928E-02 0. -1.
       -1    1    3    3    0  502 -0.62854732976E+03  0.49894558381E+03 -0.15947357362E+03  0.81819940239E+03  0.50400001928E-02 0.  1.
</event>
<event>
 5   0  0.5652631E-05  0.1702146E+04  0.7818609E-02  0.8760141E-01
       -2   -1    0    0    0  501  0.00000000000E+00  0.00000000000E+00  0.71126671703E+03  0.71126671704E+03  0.25500000920E-02 0. -1.
        2   -1    0    0  501    0  0.00000000000E+00  0.00000000000E+00 -0.10183598113E+04  0.10183598113E+04  0.25500000920E-02 0.  1.
    10030    2    1    2    0    0  0.00000000000E+00  0.00000000000E+00 -0.30709309427E+03  0.17296265283E+04  0.17021462214E+04 0.  0.
        2    1    3    3  502    0  0.61874481648E+03 -0.55025592984E+03  0.46349257943E+02  0.82932200620E+03  0.25500000920E-02 0. -1.
       -2    1    3    3    0  502 -0.61874481648E+03  0.55025592984E+03 -0.35344235221E+03  0.90030452214E+03  0.25500000920E-02 0.  1.
</event>
<event>
 5   0  0.2967704E-05  0.1682046E+04  0.7818609E-02  0.8771671E-01
        1   -1    0    0  501    0  0.00000000000E+00  0.00000000000E+00  0.43015409953E+03  0.43015409956E+03  0.50400001928E-02 0. -1.
       -1   -1    0    0    0  501  0.00000000000E+00  0.00000000000E+00 -0.16443409548E+04  0.16443409548E+04  0.50400001928E-02 0.  1.
    10030    2    1    2    0    0  0.00000000000E+00  0.00000000000E+00 -0.12141868553E+04  0.20744950544E+04  0.16820463760E+04 0.  0.
        2    1    3    3  502    0 -0.51061529539E+03  0.28838728528E+03  0.13640784488E+03  0.60208164425E+03  0.25500000920E-02 0. -1.
       -2    1    3    3    0  502  0.51061529539E+03 -0.28838728528E+03 -0.13505947002E+04  0.14724134101E+04  0.25500000920E-02 0.  1.
</event>
<event>
 5   0  0.5821584E-05  0.1699440E+04  0.7818609E-02  0.8761684E-01
        2   -1    0    0  501    0  0.00000000000E+00  0.00000000000E+00  0.23045641260E+04  0.23045641260E+04  0.25500000920E-02 0. -1.
       -2   -1    0    0    0  501  0.00000000000E+00  0.00000000000E+00 -0.31330187158E+03  0.31330187159E+03  0.25500000920E-02 0.  1.
    10030    2    1    2    0    0  0.00000000000E+00  0.00000000000E+00  0.19912622544E+04  0.26178659976E+04  0.16994402065E+04 0.  0.
        1    1    3    3  502    0  0.73129228039E+03 -0.41481720279E+03  0.11853137486E+04  0.14532138155E+04  0.50400001928E-02 0.  1.
       -1    1    3    3    0  502 -0.73129228039E+03  0.41481720279E+03  0.80594850588E+03  0.11646521821E+04  0.50400001928E-02 0. -1.
</event>
<event>
 5   0  0.5859822E-05  0.1699256E+04  0.7818609E-02  0.8761789E-01
        2   -1    0    0  501    0  0.00000000000E+00  0.00000000000E+00  0.17355972863E+04  0.17355972863E+04  0.25500000920E-02 0. -1.
       -2   -1    0    0    0  501  0.00000000000E+00  0.00000000000E+00 -0.41591867104E+03  0.41591867105E+03  0.25500000920E-02 0.  1.
    10030    2    1    2    0    0  0.00000000000E+00  0.00000000000E+00  0.13196786152E+04  0.21515159573E+04  0.16992555038E+04 0.  0.
        5    1    3    3  502    0 -0.62862419159E+03  0.15188253439E+03 -0.37819182709E+02  0.64783412930E+03  0.46999998093E+01 0.  1.
       -5    1    3    3    0  502  0.62862419159E+03 -0.15188253439E+03  0.13574977979E+04  0.15036818280E+04  0.46999998093E+01 0. -1.
</event>
<event>
 5   0  0.2987859E-05  0.1699352E+04  0.7818609E-02  0.8761734E-01
        1   -1    0    0  501    0  0.00000000000E+00  0.00000000000E+00  0.62228308305E+03  0.62228308307E+03  0.50400001928E-02 0.  1.
       -1   -1    0    0    0  501  0.00000000000E+00  0.00000000000E+00 -0.11601624327E+04  0.11601624327E+04  0.50400001928E-02 0. -1.
    10030    2    1    2    0    0  0.00000000000E+00  0.00000000000E+00 -0.53787934967E+03  0.17824455158E+04  0.16993521771E+04 0.  0.
        5    1    3    3  502    0  0.21761820744E+03 -0.47816523155E+03 -0.96937024581E+03  0.11025880628E+04  0.46999998093E+01 0. -1.
       -5    1    3    3    0  502 -0.21761820744E+03  0.47816523155E+03  0.43149089614E+03  0.67985745295E+03  0.46999998093E+01 0.  1.
</event>
<event>
 5   0  0.2987859E-05  0.1701758E+04  0.7818609E-02  0.8760362E-01
        1   -1    0    0  501    0  0.00000000000E+00  0.00000000000E+00  0.10583979983E+04  0.10583979983E+04  0.50400001928E-02 0. -1.
       -1   -1    0    0    0  501  0.00000000000E+00  0.00000000000E+00 -0.68404805483E+03  0.68404805485E+03  0.50400001928E-02 0.  1.
    10030    2    1    2    0    0  0.00000000000E+00  0.00000000000E+00  0.37434994348E+03  0.17424460532E+04  0.17017580228E+04 0.  0.
        5    1    3    3  502    0 -0.49049178275E+03  0.55492598224E+03  0.61605488345E+03  0.96336428423E+03  0.46999998093E+01 0. -1.
       -5    1    3    3    0  502  0.49049178275E+03 -0.55492598224E+03 -0.24170493997E+03  0.77908176895E+03  0.46999998093E+01 0.  1.
</event>
<event>
 5   0  0.5821584E-05  0.1700680E+04  0.7818609E-02  0.8760977E-01
        2   -1    0    0  501    0  0.00000000000E+00  0.00000000000E+00  0.10659231849E+04  0.10659231849E+04  0.25500000920E-02 0.  1.
       -2   -1    0    0    0  501  0.00000000000E+00  0.00000000000E+00 -0.67835828542E+03  0.67835828543E+03  0.25500000920E-02 0. -1.
    10030    2    1    2    0    0  0.00000000000E+00  0.00000000000E+00  0.38756489944E+03  0.17442814703E+04  0.17006796572E+04 0.  0.
        1    1    3    3  502    0 -0.79510133933E+03 -0.35873641193E+02 -0.11323255812E+03  0.80392454259E+03  0.50400001928E-02 0. -1.
       -1    1    3    3    0  502  0.79510133933E+03  0.35873641193E+02  0.50079745756E+03  0.94035692770E+03  0.50400001928E-02 0.  1.
</event>
<event>
 5   0  0.5755321E-05  0.1685713E+04  0.7818609E-02  0.8769555E-01
       -2   -1    0    0    0  501  0.00000000000E+00  0.00000000000E+00  0.84688269233E+03  0.84688269234E+03  0.25500000920E-02 0.  1.
        2   -1    0    0  501    0  0.00000000000E+00  0.00000000000E+00 -0.83884932601E+03  0.83884932602E+03  0.25500000920E-02 0. -1.
    10030    2    1    2    0    0  0.00000000000E+00  0.00000000000E+00  0.80333663198E+01  0.16857320184E+04  0.16857128767E+04 0.  0.
        4    1    3    3  502    0  0.17631277766E+03 -0.58564971467E+03  0.58396600616E+03  0.84562976125E+03  0.12699999809E+01 0.  1.
       -4    1    3    3    0  502 -0.17631277766E+03  0.58564971467E+03 -0.57593263984E+03  0.84010225710E+03  0.12699999809E+01 0. -1.
</event>
<event>
 5   0  0.2967704E-05  0.1700879E+04  0.7818609E-02  0.8760863E-01
        1   -1    0    0  501    0  0.00000000000E+00  0.00000000000E+00  0.74823307556E+03  0.74823307557E+03  0.50400001928E-02 0. -1.
       -1   -1    0    0    0  501  0.00000000000E+00  0.00000000000E+00 -0.96660663220E+03  0.96660663221E+03  0.50400001928E-02 0.  1.
    10030    2    1    2    0    0  0.00000000000E+00  0.00000000000E+00 -0.21837355664E+03  0.17148397078E+04  0.17008786592E+04 0.  0.
        2    1    3    3  502    0  0.49639660362E+03 -0.58841261581E+03 -0.47355054781E+03  0.90381918317E+03  0.25500000920E-02 0.  1.
       -2    1    3    3    0  502 -0.49639660362E+03  0.58841261581E+03  0.25517699117E+03  0.81102052462E+03  0.25500000920E-02 0. -1.
</event>
<event>
 5   0  0.2966258E-05  0.1699055E+04  0.7818609E-02  0.8761903E-01
       -1   -1    0    0    0  501  0.00000000000E+00  0.00000000000E+00  0.10100505444E+04  0.10100505444E+04  0.50400001928E-02 0.  1.
        1   -1    0    0  501    0  0.00000000000E+00  0.00000000000E+00 -0.71451599644E+03  0.71451599646E+03  0.50400001928E-02 0. -1.
    10030    2    1    2    0    0  0.00000000000E+00  0.00000000000E+00  0.29553454792E+03  0.17245665408E+04  0.16990553507E+04 0.  0.
        4    1    3    3  502    0  0.54144344509E+03  0.21400385103E+03 -0.48017924337E+03  0.75467368521E+03  0.12699999809E+01 0. -1.
       -4    1    3    3    0  502 -0.54144344509E+03 -0.21400385103E+03  0.77571379129E+03  0.96989285562E+03  0.12699999809E+01 0.  1.
</event>
<event>
 5   0  0.5671132E-05  0.1698459E+04  0.7818609E-02  0.8762244E-01
        2   -1    0    0  501    0  0.00000000000E+00  0.00000000000E+00  0.10955928808E+04  0.10955928808E+04  0.25500000920E-02 0.  1.
       -2   -1    0    0    0  501  0.00000000000E+00  0.00000000000E+00 -0.65826544324E+03  0.65826544324E+03  0.25500000920E-02 0. -1.
    10030    2    1    2    0    0  0.00000000000E+00  0.00000000000E+00  0.43732743761E+03  0.17538583241E+04  0.16984592233E+04 0.  0.
        3    1    3    3  502    0  0.13954614254E+03  0.61038757956E+03 -0.37376060656E+03  0.72920718893E+03  0.10100000352E+00 0. -1.
       -3    1    3    3    0  502 -0.13954614254E+03 -0.61038757956E+03  0.81108804416E+03  0.10246511352E+04  0.10100000352E+00 0.  1.
</event>
<event>
 5   0  0.2911632E-05  0.1699849E+04  0.7818609E-02  0.8761450E-01
        1   -1    0    0  501    0  0.00000000000E+00  0.00000000000E+00  0.11601983480E+04  0.11601983480E+04  0.50400001928E-02 0. -1.
       -1   -1    0    0    0  501  0.00000000000E+00  0.00000000000E+00 -0.62262804246E+03  0.62262804248E+03  0.50400001928E-02 0.  1.
    10030    2    1    2    0    0  0.00000000000E+00  0.00000000000E+00  0.53757030553E+03  0.17828263905E+04  0.16998494360E+04 0.  0.
        1    1    3    3  502    0  0.27327834400E+03 -0.23516530992E+03  0.10760235594E+04  0.11348173759E+04  0.50400001928E-02 0. -1.
       -1    1    3    3    0  502 -0.27327834400E+03  0.23516530992E+03 -0.53845325388E+03  0.64800901455E+03  0.50400001928E-02 0.  1.
</event>
<event>
 5   0  0.5859822E-05  0.1699922E+04  0.7818609E-02  0.8761409E-01
       -2   -1    0    0    0  501  0.00000000000E+00  0.00000000000E+00  0.30159061784E+03  0.30159061785E+03  0.25500000920E-02 0. -1.
        2   -1    0    0  501    0  0.00000000000E+00  0.00000000000E+00 -0.23954119809E+04  0.23954119809E+04  0.25500000920E-02 0.  1.
    10030    2    1    2    0    0  0.00000000000E+00  0.00000000000E+00 -0.20938213631E+04  0.26970025988E+04  0.16999220915E+04 0.  0.
        5    1    3    3  502    0 -0.82573479102E+03 -0.83602822784E+02 -0.75616011037E+03  0.11227767274E+04  0.46999998093E+01 0. -1.
       -5    1    3    3    0  502  0.82573479102E+03  0.83602822784E+02 -0.13376612527E+04  0.15742258714E+04  0.46999998093E+01 0.  1.
</event>
<event>
 5   0  0.2967704E-05  0.1696693E+04  0.7818609E-02  0.8763253E-01
        1   -1    0    0  501    0  0.00000000000E+00  0.00000000000E+00  0.58528765191E+03  0.58528765193E+03  0.50400001928E-02 0. -1.
       -1   -1    0    0    0  501  0.00000000000E+00  0.00000000000E+00 -0.12296382201E+04  0.12296382201E+04  0.50400001928E-02 0.  1.
    10030    2    1    2    0    0  0.00000000000E+00  0.00000000000E+00 -0.64435056817E+03  0.18149258720E+04  0.16966933330E+04 0.  0.
        2    1    3    3  502    0  0.41245801269E+02 -0.82098235028E+03 -0.54650013031E+03  0.98710466923E+03  0.25500000920E-02 0.  1.
       -2    1    3    3    0  502 -0.41245801269E+02  0.82098235028E+03 -0.97850437868E+02  0.82782120279E+03  0.25500000920E-02 0. -1.
</event>
<event>
 5   0  0.5821584E-05  0.1701573E+04  0.7818609E-02  0.8760468E-01
        2   -1    0    0  501    0  0.00000000000E+00  0.00000000000E+00  0.85531140374E+03  0.85531140374E+03  0.25500000920E-02 0. -1.
       -2   -1    0    0    0  501  0.00000000000E+00  0.00000000000E+00 -0.84628564623E+03  0.84628564623E+03  0.25500000920E-02 0.  1.
    10030    2    1    2    0    0  0.00000000000E+00  0.00000000000E+00  0.90257575131E+01  0.17015970500E+04  0.17015731122E+04 0.  0.
        1    1    3    3  502    0  0.69141676524E+03  0.23015907005E+02 -0.49072220605E+03  0.84817165643E+03  0.50400001928E-02 0.  1.
       -1    1    3    3    0  502 -0.69141676524E+03 -0.23015907005E+02  0.49974796357E+03  0.85342539355E+03  0.50400001928E-02 0. -1.
</event>
<event>
 5   0  0.5652631E-05  0.1700266E+04  0.7818609E-02  0.8761213E-01
       -2   -1    0    0    0  501  0.00000000000E+00  0.00000000000E+00  0.61991517235E+03  0.61991517236E+03  0.25500000920E-02 0. -1.
        2   -1    0    0  501    0  0.00000000000E+00  0.00000000000E+00 -0.11658469118E+04  0.11658469118E+04  0.25500000920E-02 0.  1.
    10030    2    1    2    0    0  0.00000000000E+00  0.00000000000E+00 -0.54593173948E+03  0.17857620842E+04  0.17002660842E+04 0.  0.
        2    1    3    3  502    0  0.71889318214E+03 -0.11933684667E+03  0.18685880550E+03  0.75230638938E+03  0.25500000920E-02 0. -1.
       -2    1    3    3    0  502 -0.71889318214E+03  0.11933684667E+03 -0.73279054499E+03  0.10334556948E+04  0.25500000920E-02 0.  1.
</event>
<event>
 5   0  0.2098250E-05  0.1698017E+04  0.7818609E-02  0.8762496E-01
        3   -1    0    0  501    0  0.00000000000E+00  0.00000000000E+00  0.61163646207E+03  0.61163647041E+03  0.10100000352E+00 0.  1.
       -3   -1    0    0    0  501  0.00000000000E+00  0.00000000000E+00 -0.11785037007E+04  0.11785037050E+04  0.10100000352E+00 0. -1.
    10030    2    1    2    0    0  0.00000000000E+00  0.00000000000E+00 -0.56686723864E+03  0.17901401755E+04  0.16980174856E+04 0.  0.
        1    1    3    3  502    0  0.56255825717E+03  0.54778195781E+03  0.57008485633E+02  0.78726541489E+03  0.50400001928E-02 0.  1.
       -1    1    3    3    0  502 -0.56255825717E+03 -0.54778195781E+03 -0.62387572428E+03  0.10028747606E+04  0.50400001928E-02 0. -1.
</event>
<event>
 5   0  0.2966258E-05  0.1697966E+04  0.7818609E-02  0.8762525E-01
       -1   -1    0    0    0  501  0.00000000000E+00  0.00000000000E+00  0.44634564400E+03  0.44634564402E+03  0.50400001928E-02 0. -1.
        1   -1    0    0  501    0  0.00000000000E+00  0.00000000000E+00 -0.16148304103E+04  0.16148304103E+04  0.50400001928E-02 0.  1.
    10030    2    1    2    0    0  0.00000000000E+00  0.00000000000E+00 -0.11684847663E+04  0.20611760543E+04  0.16979664537E+04 0.  0.
        4    1    3    3  502    0  0.73935370871E+03  0.35385842482E+03 -0.85270894995E+03  0.11827822528E+04  0.12699999809E+01 0.  1.
       -4    1    3    3    0  502 -0.73935370871E+03 -0.35385842482E+03 -0.31577581636E+03  0.87839380149E+03  0.12699999809E+01 0. -1.
</event>
<event>
 5   0  0.5755321E-05  0.1699341E+04  0.7818609E-02  0.8761740E-01
       -2   -1    0    0    0  501  0.00000000000E+00  0.00000000000E+00  0.49205481638E+03  0.49205481639E+03  0.25500000920E-02 0. -1.
        2   -1    0    0  501    0  0.00000000000E+00  0.00000000000E+00 -0.14671940318E+04  0.14671940318E+04  0.25500000920E-02 0.  1.
    10030    2    1    2    0    0  0.00000000000E+00  0.00000000000E+00 -0.97513921538E+03  0.19592488481E+04  0.16993409192E+04 0.  0.
        4    1    3    3  502    0 -0.54058996399E+03  0.64797353811E+03 -0.37325300830E+03  0.92272782355E+03  0.12699999809E+01 0. -1.
       -4    1    3    3    0  502  0.54058996399E+03 -0.64797353811E+03 -0.60188620708E+03  0.10365210246E+04  0.12699999809E+01 0.  1.
</event>
<event>
 5   0  0.5859822E-05  0.1701403E+04  0.7818609E-02  0.8760565E-01
        2   -1    0    0  501    0  0.00000000000E+00  0.00000000000E+00  0.17965445304E+04  0.17965445304E+04  0.25500000920E-02 0.  1.
       -2   -1    0    0    0  501  0.00000000000E+00  0.00000000000E+00 -0.40282493253E+03  0.40282493254E+03  0.25500000920E-02 0. -1.
    10030    2    1    2    0    0  0.00000000000E+00  0.00000000000E+00  0.13937195979E+04  0.21993694629E+04  0.17014028673E+04 0.  0.
        5    1    3    3  502    0 -0.52203008395E+03 -0.59027590761E+03  0.28253663252E+03  0.83713206507E+03  0.46999998093E+01 0. -1.
       -5    1    3    3    0  502  0.52203008395E+03  0.59027590761E+03  0.11111829653E+04  0.13622373978E+04  0.46999998093E+01 0.  1.
</event>
<event>
 5   0  0.2911632E-05  0.1720354E+04  0.7818609E-02  0.8749840E-01
        1   -1    0    0  501    0  0.00000000000E+00  0.00000000000E+00  0.17377239650E+04  0.17377239651E+04  0.50400001928E-02 0. -1.
       -1   -1    0    0    0  501  0.00000000000E+00  0.00000000000E+00 -0.42578920265E+03  0.42578920268E+03  0.50400001928E-02 0.  1.
    10030    2    1    2    0    0  0.00000000000E+00  0.00000000000E+00  0.13119347624E+04  0.21635131677E+04  0.17203535701E+04 0.  0.
        1    1    3    3  502    0 -0.73876775806E+03  0.42759111145E+03  0.52232936924E+03  0.10007197055E+04  0.50400001928E-02 0.  1.
       -1    1    3    3    0  502  0.73876775806E+03 -0.42759111145E+03  0.78960539316E+03  0.11627934623E+04  0.50400001928E-02 0. -1.
</event>
<event>
 5   0  0.5755321E-05  0.1700006E+04  0.7818609E-02  0.8761361E-01
       -2   -1    0    0    0  501  0.00000000000E+00  0.00000000000E+00  0.10035827567E+04  0.10035827567E+04  0.25500000920E-02 0. -1.
        2   -1    0    0  501    0  0.00000000000E+00  0.00000000000E+00 -0.71992581292E+03  0.71992581293E+03  0.25500000920E-02 0.  1.
    10030    2    1    2    0    0  0.00000000000E+00  0.00000000000E+00  0.28365694378E+03  0.17235085696E+04  0.17000060376E+04 0.  0.
        4    1    3    3  502    0  0.13531402584E+02  0.83876989222E+03  0.28734569132E+01  0.83888491500E+03  0.12699999809E+01 0. -1.
       -4    1    3    3    0  502 -0.13531402584E+02 -0.83876989222E+03  0.28078348687E+03  0.88462365464E+03  0.12699999809E+01 0.  1.
</event>
<event>
 5   0  0.2993769E-05  0.1701182E+04  0.7818609E-02  0.8760691E-01
        1   -1    0    0  501    0  0.00000000000E+00  0.00000000000E+00  0.12481373149E+04  0.12481373149E+04  0.50400001928E-02 0. -1.
       -1   -1    0    0    0  501  0.00000000000E+00  0.00000000000E+00 -0.57966771404E+03  0.57966771406E+03  0.50400001928E-02 0.  1.
    10030    2    1    2    0    0  0.00000000000E+00  0.00000000000E+00  0.66846960082E+03  0.18278050289E+04  0.17011818294E+04 0.  0.
        3    1    3    3  502    0 -0.83395296552E+03 -0.13416861443E+02  0.15493866153E+03  0.84832986504E+03  0.10100000352E+00 0.  1.
       -3    1    3    3    0  502  0.83395296552E+03  0.13416861443E+02  0.51353093930E+03  0.97947516390E+03  0.10100000352E+00 0. -1.
</event>
<event>
 5   0  0.2967704E-05  0.1703320E+04  0.7818609E-02  0.8759473E-01
        1   -1    0    0  501    0  0.00000000000E+00  0.00000000000E+00  0.94387787909E+03  0.94387787910E+03  0.50400001928E-02 0.  1.
       -1   -1    0    0    0  501  0.00000000000E+00  0.00000000000E+00 -0.76845149581E+03  0.76845149582E+03  0.50400001928E-02 0. -1.
    10030    2    1    2    0    0  0.00000000000E+00  0.00000000000E+00  0.17542638328E+03  0.17123293749E+04  0.17033195450E+04 0.  0.
        2    1    3    3  502    0 -0.79286411380E+03  0.29710232325E+03  0.17996501001E+03  0.86561579137E+03  0.25500000920E-02 0. -1.
       -2    1    3    3    0  502  0.79286411380E+03 -0.29710232325E+03 -0.45386267339E+01  0.84671358355E+03  0.25500000920E-02 0.  1.
</event>
<event>
 5   0  0.2967704E-05  0.1699124E+04  0.7818609E-02  0.8761864E-01
        1   -1    0    0  501    0  0.00000000000E+00  0.00000000000E+00  0.17982695016E+04  0.17982695016E+04  0.50400001928E-02 0.  1.
       -1   -1    0    0    0  501  0.00000000000E+00  0.00000000000E+00 -0.40136134312E+03  0.40136134315E+03  0.50400001928E-02 0. -1.
    10030    2    1    2    0    0  0.00000000000E+00  0.00000000000E+00  0.13969081585E+04  0.21996308447E+04  0.16991243186E+04 0.  0.
        2    1    3    3  502    0  0.32555101211E+03 -0.30807855404E+03 -0.23584334364E+03  0.50647600109E+03  0.25500000920E-02 0. -1.
       -2    1    3    3    0  502 -0.32555101211E+03  0.30807855404E+03  0.16327515021E+04  0.16931548436E+04  0.25500000920E-02 0.  1.
</event>
<event>
 5   0  0.2911632E-05  0.1698219E+04  0.7818609E-02  0.8762381E-01
        1   -1    0    0  501    0  0.00000000000E+00  0.00000000000E+00  0.13225238104E+04  0.13225238104E+04  0.50400001928E-02 0.  1.
       -1   -1    0    0    0  501  0.00000000000E+00  0.00000000000E+00 -0.54515985402E+03  0.54515985405E+03  0.50400001928E-02 0. -1.
    10030    2    1    2    0    0  0.00000000000E+00  0.00000000000E+00  0.77736395636E+03  0.18676836644E+04  0.16982189346E+04 0.  0.
        1    1    3    3  502    0  0.33994076768E+02 -0.54990979826E+03  0.10992435762E+04  0.12295905104E+04  0.50400001928E-02 0.  1.
       -1    1    3    3    0  502 -0.33994076768E+02  0.54990979826E+03 -0.32187961986E+03  0.63809315400E+03  0.50400001928E-02 0. -1.
</event>
<event>
 5   0  0.2987859E-05  0.1700749E+04  0.7818609E-02  0.8760937E-01
        1   -1    0    0  501    0  0.00000000000E+00  0.00000000000E+00  0.92706797391E+03  0.92706797393E+03  0.50400001928E-02 0. -1.
       -1   -1    0    0    0  501  0.00000000000E+00  0.00000000000E+00 -0.78002597718E+03  0.78002597719E+03  0.50400001928E-02 0.  1.
    10030    2    1    2    0    0  0.00000000000E+00  0.00000000000E+00  0.14704199674E+03  0.17070939511E+04  0.17007493669E+04 0.  0.
        5    1    3    3  502    0 -0.78698761225E+03 -0.59772365474E+02  0.39123423412E+03  0.88091347671E+03  0.46999998093E+01 0.  1.
       -5    1    3    3    0  502  0.78698761225E+03  0.59772365474E+02 -0.24419223738E+03  0.82618047441E+03  0.46999998093E+01 0. -1.
</event>
<event>
 5   0  0.2967704E-05  0.1700672E+04  0.7818609E-02  0.8760981E-01
       -1   -1    0    0    0  501  0.00000000000E+00  0.00000000000E+00  0.38555435535E+03  0.38555435539E+03  0.50400001928E-02 0. -1.
        1   -1    0    0  501    0  0.00000000000E+00  0.00000000000E+00 -0.18754079866E+04  0.18754079866E+04  0.50400001928E-02 0.  1.
    10030    2    1    2    0    0  0.00000000000E+00  0.00000000000E+00 -0.14898536312E+04  0.22609623419E+04  0.17006724756E+04 0.  0.
        2    1    3    3  502    0 -0.12967710556E+03 -0.17023082437E+03 -0.18390237973E+04  0.18514327458E+04  0.25500000920E-02 0.  1.
       -2    1    3    3    0  502  0.12967710556E+03  0.17023082437E+03  0.34917016605E+03  0.40952959617E+03  0.25500000920E-02 0. -1.
</event>
<event>
 5   0  0.5755321E-05  0.1684402E+04  0.7818609E-02  0.8770311E-01
       -2   -1    0    0    0  501  0.00000000000E+00  0.00000000000E+00  0.10031365995E+04  0.10031365995E+04  0.25500000920E-02 0. -1.
        2   -1    0    0  501    0  0.00000000000E+00  0.00000000000E+00 -0.70708469333E+03  0.70708469334E+03  0.25500000920E-02 0.  1.
    10030    2    1    2    0    0  0.00000000000E+00  0.00000000000E+00  0.29605190613E+03  0.17102212928E+04  0.16844020124E+04 0.  0.
        4    1    3    3  502    0 -0.17779430053E+03  0.82134491480E+03  0.91653370682E+02  0.84535213706E+03  0.12699999809E+01 0. -1.
       -4    1    3    3    0  502  0.17779430053E+03 -0.82134491480E+03  0.20439853545E+03  0.86486915575E+03  0.12699999809E+01 0.  1.
</event>
<event>
 5   0  0.5755321E-05  0.1705348E+04  0.7818609E-02  0.8758320E-01
       -2   -1    0    0    0  501  0.00000000000E+00  0.00000000000E+00  0.58629590004E+03  0.58629590005E+03  0.25500000920E-02 0.  1.
        2   -1    0    0  501    0  0.00000000000E+00  0.00000000000E+00 -0.12400779565E+04  0.12400779565E+04  0.25500000920E-02 0. -1.
    10030    2    1    2    0    0  0.00000000000E+00  0.00000000000E+00 -0.65378205642E+03  0.18263738565E+04  0.17053476146E+04 0.  0.
        4    1    3    3  502    0 -0.14123255221E+03 -0.46530339607E+03 -0.10770257409E+04  0.11817106006E+04  0.12699999809E+01 0. -1.
       -4    1    3    3    0  502  0.14123255221E+03  0.46530339607E+03  0.42324368444E+03  0.64466325591E+03  0.12699999809E+01 0.  1.
</event>
<event>
 5   0  0.5821584E-05  0.1702802E+04  0.7818609E-02  0.8759768E-01
       -2   -1    0    0    0  501  0.00000000000E+00  0.00000000000E+00  0.68002825429E+03  0.68002825429E+03  0.25500000920E-02 0. -1.
        2   -1    0    0  501    0  0.00000000000E+00  0.00000000000E+00 -0.10659610028E+04  0.10659610028E+04  0.25500000920E-02 0.  1.
    10030    2    1    2    0    0  0.00000000000E+00  0.00000000000E+00 -0.38593274855E+03  0.17459892571E+04  0.17028019261E+04 0.  0.
        1    1    3    3  502    0 -0.70067492741E+03 -0.46666109235E+03 -0.62597384390E+02  0.84417792057E+03  0.50400001928E-02 0.  1.
       -1    1    3    3    0  502  0.70067492741E+03  0.46666109235E+03 -0.32333536416E+03  0.90181133657E+03  0.50400001928E-02 0. -1.
</event>
<event>
 5   0  0.2966258E-05  0.1680526E+04  0.7818609E-02  0.8772549E-01
        1   -1    0    0  501    0  0.00000000000E+00  0.00000000000E+00  0.12102668122E+04  0.12102668122E+04  0.50400001928E-02 0. -1.
       -1   -1    0    0    0  501  0.00000000000E+00  0.00000000000E+00 -0.58337730005E+03  0.58337730008E+03  0.50400001928E-02 0.  1.
    10030    2    1    2    0    0  0.00000000000E+00  0.00000000000E+00  0.62688951215E+03  0.17936441123E+04  0.16805263286E+04 0.  0.
        4    1    3    3  502    0 -0.30255791856E+03  0.72319244830E+03  0.63628110237E+03  0.10096553201E+04  0.12699999809E+01 0. -1.
       -4    1    3    3    0  502  0.30255791856E+03 -0.72319244830E+03 -0.93915902207E+01  0.78398879215E+03  0.12699999809E+01 0.  1.
</event>
<event>
 5   0  0.2966258E-05  0.1678804E+04  0.7818609E-02  0.8773546E-01
       -1   -1    0    0    0  501  0.00000000000E+00  0.00000000000E+00  0.95604791906E+03  0.95604791907E+03  0.50400001928E-02 0.  1.
        1   -1    0    0  501    0  0.00000000000E+00  0.00000000000E+00 -0.73698813449E+03  0.73698813451E+03  0.50400001928E-02 0. -1.
    10030    2    1    2    0    0  0.00000000000E+00  0.00000000000E+00  0.21905978457E+03  0.16930360536E+04  0.16788043035E+04 0.  0.
        4    1    3    3  502    0 -0.47490207631E+03  0.32910605747E+03 -0.50452562552E+03  0.76706616328E+03  0.12699999809E+01 0. -1.
       -4    1    3    3    0  502  0.47490207631E+03 -0.32910605747E+03  0.72358541009E+03  0.92596989030E+03  0.12699999809E+01 0.  1.
</event>
<event>
 5   0  0.5859822E-05  0.1724689E+04  0.7818609E-02  0.8747407E-01
        2   -1    0    0  501    0  0.00000000000E+00  0.00000000000E+00  0.17863085363E+04  0.17863085363E+04  0.25500000920E-02 0.  1.
       -2   -1    0    0    0  501  0.00000000000E+00  0.00000000000E+00 -0.41629859943E+03  0.41629859944E+03  0.25500000920E-02 0. -1.
    10030    2    1    2    0    0  0.00000000000E+00  0.00000000000E+00  0.13700099369E+04  0.22026071357E+04  0.17246886581E+04 0.  0.
        5    1    3    3  502    0  0.20886250395E+03  0.25524010054E+03 -0.33255508279E+03  0.46838662189E+03  0.46999998093E+01 0. -1.
       -5    1    3    3    0  502 -0.20886250395E+03 -0.25524010054E+03  0.17025650197E+04  0.17342205138E+04  0.46999998093E+01 0.  1.
</event>
<event>
 5   0  0.2987859E-05  0.1700446E+04  0.7818609E-02  0.8761110E-01
       -1   -1    0    0    0  501  0.00000000000E+00  0.00000000000E+00  0.38717582843E+03  0.38717582846E+03  0.50400001928E-02 0. -1.
        1   -1    0    0  501    0  0.00000000000E+00  0.00000000000E+00 -0.18670556098E+04  0.18670556098E+04  0.50400001928E-02 0.  1.
    10030    2    1    2    0    0  0.00000000000E+00  0.00000000000E+00 -0.14798797814E+04  0.22542314383E+04  0.17004455916E+04 0.  0.
        5    1    3    3  502    0  0.82325512623E+03 -0.18336238112E+03 -0.59786440075E+03  0.10338446195E+04  0.46999998093E+01 0. -1.
       -5    1    3    3    0  502 -0.82325512623E+03  0.18336238112E+03 -0.88201538061E+03  0.12203868187E+04  0.46999998093E+01 0.  1.
</event>
<event>
 5   0  0.2098250E-05  0.1698264E+04  0.7818609E-02  0.8762355E-01
        3   -1    0    0  501    0  0.00000000000E+00  0.00000000000E+00  0.96509876473E+03  0.96509877001E+03  0.10100000352E+00 0. -1.
       -3   -1    0    0    0  501  0.00000000000E+00  0.00000000000E+00 -0.74709999447E+03  0.74710000130E+03  0.10100000352E+00 0.  1.
    10030    2    1    2    0    0  0.00000000000E+00  0.00000000000E+00  0.21799877025E+03  0.17121987713E+04  0.16982641634E+04 0.  0.
        2    1    3    3  502    0  0.31823196959E+03  0.73541963237E+03 -0.17421776803E+03  0.82003990930E+03  0.25500000920E-02 0. -1.
       -2    1    3    3    0  502 -0.31823196959E+03 -0.73541963237E+03  0.39221653828E+03  0.89215886201E+03  0.25500000920E-02 0.  1.
</event>
<event>
 5   0  0.5652631E-05  0.1681252E+04  0.7818609E-02  0.8772130E-01
        2   -1    0    0  501    0  0.00000000000E+00  0.00000000000E+00  0.15285444613E+04  0.15285444613E+04  0.25500000920E-02 0. -1.
       -2   -1    0    0    0  501  0.00000000000E+00  0.00000000000E+00 -0.46230376150E+03  0.46230376151E+03  0.25500000920E-02 0.  1.
    10030    2    1    2    0    0  0.00000000000E+00  0.00000000000E+00  0.10662406998E+04  0.19908482228E+04  0.16812517409E+04 0.  0.
        2    1    3    3  502    0 -0.46543596388E+03 -0.12178264598E+02  0.13619153366E+04  0.14393027238E+04  0.25500000920E-02 0. -1.
       -2    1    3    3    0  502  0.46543596388E+03  0.12178264598E+02 -0.29567463683E+03  0.55154549901E+03  0.25500000920E-02 0.  1.
</event>
<event>
 5   0  0.2993769E-05  0.1701897E+04  0.7818609E-02  0.8760283E-01
        1   -1    0    0  501    0  0.00000000000E+00  0.00000000000E+00  0.17437240045E+04  0.17437240045E+04  0.50400001928E-02 0.  1.
       -1   -1    0    0    0  501  0.00000000000E+00  0.00000000000E+00 -0.41526842956E+03  0.41526842959E+03  0.50400001928E-02 0. -1.
    10030    2    1    2    0    0  0.00000000000E+00  0.00000000000E+00  0.13284555749E+04  0.21589924341E+04  0.17018972107E+04 0.  0.
        3    1    3    3  502    0  0.51926876039E+03 -0.62285220416E+03  0.99143434782E+03  0.12808305860E+04  0.10100000352E+00 0.  1.
       -3    1    3    3    0  502 -0.51926876039E+03  0.62285220416E+03  0.33702122710E+03  0.87816184810E+03  0.10100000352E+00 0. -1.
</event>
<event>
 5   0  0.5671132E-05  0.1696060E+04  0.7818609E-02  0.8763615E-01
        2   -1    0    0  501    0  0.00000000000E+00  0.00000000000E+00  0.18377693703E+04  0.18377693703E+04  0.25500000920E-02 0. -1.
       -2   -1    0    0    0  501  0.00000000000E+00  0.00000000000E+00 -0.39131947545E+03  0.39131947546E+03  0.25500000920E-02 0.  1.
    10030    2    1    2    0    0  0.00000000000E+00  0.00000000000E+00  0.14464498948E+04  0.22290888458E+04  0.16960600768E+04 0.  0.
        3    1    3    3  502    0 -0.57591676161E+03 -0.60735994523E+03  0.90241374209E+03  0.12308195609E+04  0.10100000352E+00 0. -1.
       -3    1    3    3    0  502  0.57591676161E+03  0.60735994523E+03  0.54403615275E+03  0.99826928485E+03  0.10100000352E+00 0.  1.
</event>
<event>
 5   0  0.5755321E-05  0.1703416E+04  0.7818609E-02  0.8759419E-01
        2   -1    0    0  501    0  0.00000000000E+00  0.00000000000E+00  0.13388279110E+04  0.13388279110E+04  0.25500000920E-02 0. -1.
       -2   -1    0    0    0  501  0.00000000000E+00  0.00000000000E+00 -0.54182202646E+03  0.54182202647E+03  0.25500000920E-02 0.  1.
    10030    2    1    2    0    0  0.00000000000E+00  0.00000000000E+00  0.79700588456E+03  0.18806499375E+04  0.17034159232E+04 0.  0.
        4    1    3    3  502    0 -0.23167348159E+03 -0.61721568287E+03  0.99384602945E+03  0.11926270768E+04  0.12699999809E+01 0. -1.
       -4    1    3    3    0  502  0.23167348159E+03  0.61721568287E+03 -0.19684014488E+03  0.68802286066E+03  0.12699999809E+01 0.  1.
</event>
<event>
 5   0  0.5755321E-05  0.1701658E+04  0.7818609E-02  0.8760419E-01
       -2   -1    0    0    0  501  0.00000000000E+00  0.00000000000E+00  0.30985207229E+03  0.30985207230E+03  0.25500000920E-02 0. -1.
        2   -1    0    0  501    0  0.00000000000E+00  0.00000000000E+00 -0.23363090197E+04  0.23363090197E+04  0.25500000920E-02 0.  1.
    10030    2    1    2    0    0  0.00000000000E+00  0.00000000000E+00 -0.20264569474E+04  0.26461610919E+04  0.17016582398E+04 0.  0.
        4    1    3    3  502    0  0.56546580825E+03 -0.31634599542E+03 -0.15571797800E+03  0.66639032908E+03  0.12699999809E+01 0. -1.
       -4    1    3    3    0  502 -0.56546580825E+03  0.31634599542E+03 -0.18707389694E+04  0.19797707629E+04  0.12699999809E+01 0.  1.
</event>
<event>
 5   0  0.2967704E-05  0.1699149E+04  0.7818609E-02  0.8761850E-01
       -1   -1    0    0    0  501  0.00000000000E+00  0.00000000000E+00  0.92686260369E+03  0.92686260370E+03  0.50400001928E-02 0. -1.
        1   -1    0    0  501    0  0.00000000000E+00  0.00000000000E+00 -0.77873142790E+03  0.77873142792E+03  0.50400001928E-02 0.  1.
    10030    2    1    2    0    0  0.00000000000E+00  0.00000000000E+00  0.14813117579E+03  0.17055940316E+04  0.16991492446E+04 0.  0.
        2    1    3    3  502    0 -0.50892505774E+03 -0.37777577409E+03 -0.49381672335E+03  0.80347632582E+03  0.25500000920E-02 0.  1.
       -2    1    3    3    0  502  0.50892505774E+03  0.37777577409E+03  0.64194789914E+03  0.90211770579E+03  0.25500000920E-02 0. -1.
</event>
<event>
 5   0  0.5821584E-05  0.1701347E+04  0.7818609E-02  0.8760597E-01
        2   -1    0    0  501    0  0.00000000000E+00  0.00000000000E+00  0.12631500800E+04  0.12631500800E+04  0.25500000920E-02 0.  1.
       -2   -1    0    0    0  501  0.00000000000E+00  0.00000000000E+00 -0.57288926438E+03  0.57288926439E+03  0.25500000920E-02 0. -1.
    10030    2    1    2    0    0  0.00000000000E+00  0.00000000000E+00  0.69026081560E+03  0.18360393444E+04  0.17013466668E+04 0.  0.
        1    1    3    3  502    0 -0.80429706936E+03  0.18786718951E+03  0.56486047295E+03  0.10006274085E+04  0.50400001928E-02 0.  1.
       -1    1    3    3    0  502  0.80429706936E+03 -0.18786718951E+03  0.12540034266E+03  0.83541193590E+03  0.50400001928E-02 0. -1.
</event>
<event>
 5   0  0.2911632E-05  0.1699508E+04  0.7818609E-02  0.8761645E-01
        1   -1    0    0  501    0  0.00000000000E+00  0.00000000000E+00  0.90791869202E+03  0.90791869203E+03  0.50400001928E-02 0. -1.
       -1   -1    0    0    0  501  0.00000000000E+00  0.00000000000E+00 -0.79531573657E+03  0.79531573658E+03  0.50400001928E-02 0.  1.
    10030    2    1    2    0    0  0.00000000000E+00  0.00000000000E+00  0.11260295545E+03  0.17032344286E+04  0.16995081916E+04 0.  0.
        1    1    3    3  502    0 -0.11979228162E+03 -0.73724952426E+03  0.46239970282E+03  0.87846487519E+03  0.50400001928E-02 0. -1.
       -1    1    3    3    0  502  0.11979228162E+03  0.73724952426E+03 -0.34979674737E+03  0.82476955342E+03  0.50400001928E-02 0.  1.
</event>
<event>
 5   0  0.2987859E-05  0.1700770E+04  0.7818609E-02  0.8760925E-01
        1   -1    0    0  501    0  0.00000000000E+00  0.00000000000E+00  0.73497382043E+03  0.73497382045E+03  0.50400001928E-02 0. -1.
       -1   -1    0    0    0  501  0.00000000000E+00  0.00000000000E+00 -0.98391903907E+03  0.98391903908E+03  0.50400001928E-02 0.  1.
    10030    2    1    2    0    0  0.00000000000E+00  0.00000000000E+00 -0.24894521864E+03  0.17188928595E+04  0.17007701022E+04 0.  0.
        5    1    3    3  502    0 -0.78012821793E+03  0.26552442379E+03 -0.33654030856E+03  0.89015994368E+03  0.46999998093E+01 0.  1.
       -5    1    3    3    0  502  0.78012821793E+03 -0.26552442379E+03  0.87595089924E+02  0.82873291585E+03  0.46999998093E+01 0. -1.
</event>
<event>
 5   0  0.5821584E-05  0.1699666E+04  0.7818609E-02  0.8761555E-01
       -2   -1    0    0    0  501  0.00000000000E+00  0.00000000000E+00  0.49380542883E+03  0.49380542884E+03  0.25500000920E-02 0.  1.
        2   -1    0    0  501    0  0.00000000000E+00  0.00000000000E+00 -0.14625521983E+04  0.14625521983E+04  0.25500000920E-02 0. -1.
    10030    2    1    2    0    0  0.00000000000E+00  0.00000000000E+00 -0.96874676943E+03  0.19563576271E+04  0.16996661030E+04 0.  0.
        1    1    3    3  502    0 -0.31358410740E+03 -0.54864436966E+03  0.16965842394E+03  0.65431614500E+03  0.50400001928E-02 0.  1.
       -1    1    3    3    0  502  0.31358410740E+03  0.54864436966E+03 -0.11384051934E+04  0.13020414821E+04  0.50400001928E-02 0. -1.
</event>
<event>
 5   0  0.2987859E-05  0.1700970E+04  0.7818609E-02  0.8760811E-01
        1   -1    0    0  501    0  0.00000000000E+00  0.00000000000E+00  0.10005336713E+04  0.10005336713E+04  0.50400001928E-02 0.  1.
       -1   -1    0    0    0  501  0.00000000000E+00  0.00000000000E+00 -0.72293914703E+03  0.72293914705E+03  0.50400001928E-02 0. -1.
    10030    2    1    2    0    0  0.00000000000E+00  0.00000000000E+00  0.27759452427E+03  0.17234728184E+04  0.17009702630E+04 0.  0.
        5    1    3    3  502    0 -0.23436339518E+03 -0.80476452442E+03 -0.70892011290E+01  0.83823892031E+03  0.46999998093E+01 0. -1.
       -5    1    3    3    0  502  0.23436339518E+03  0.80476452442E+03  0.28468372540E+03  0.88523389805E+03  0.46999998093E+01 0.  1.
</event>
<event>
 5   0  0.2993769E-05  0.1700497E+04  0.7818609E-02  0.8761081E-01
        1   -1    0    0  501    0  0.00000000000E+00  0.00000000000E+00  0.18749262446E+04  0.18749262447E+04  0.50400001928E-02 0.  1.
       -1   -1    0    0    0  501  0.00000000000E+00  0.00000000000E+00 -0.38557400428E+03  0.38557400432E+03  0.50400001928E-02 0. -1.
    10030    2    1    2    0    0  0.00000000000E+00  0.00000000000E+00  0.14893522404E+04  0.22605002490E+04  0.17004973625E+04 0.  0.
        3    1    3    3  502    0 -0.13571148387E+03  0.57011452341E+03  0.15635555681E+04  0.16697766920E+04  0.10100000352E+00 0.  1.
       -3    1    3    3    0  502  0.13571148387E+03 -0.57011452341E+03 -0.74203327705E+02  0.59072355692E+03  0.10100000352E+00 0. -1.
</event>
<event>
 5   0  0.2966258E-05  0.1697153E+04  0.7818609E-02  0.8762990E-01
       -1   -1    0    0    0  501  0.00000000000E+00  0.00000000000E+00  0.51215305558E+03  0.51215305560E+03  0.50400001928E-02 0.  1.
        1   -1    0    0  501    0  0.00000000000E+00  0.00000000000E+00 -0.14059898478E+04  0.14059898478E+04  0.50400001928E-02 0. -1.
    10030    2    1    2    0    0  0.00000000000E+00  0.00000000000E+00 -0.89383679218E+03  0.19181429034E+04  0.16971529061E+04 0.  0.
        4    1    3    3  502    0 -0.56526283459E+03  0.21352391329E+03  0.22645084427E+03  0.64528763469E+03  0.12699999809E+01 0.  1.
       -4    1    3    3    0  502  0.56526283459E+03 -0.21352391329E+03 -0.11202876365E+04  0.12728552687E+04  0.12699999809E+01 0. -1.
</event>
<event>
 5   0  0.5859822E-05  0.1698213E+04  0.7818609E-02  0.8762384E-01
       -2   -1    0    0    0  501  0.00000000000E+00  0.00000000000E+00  0.61109935581E+03  0.61109935582E+03  0.25500000920E-02 0.  1.
        2   -1    0    0  501    0  0.00000000000E+00  0.00000000000E+00 -0.11798112371E+04  0.11798112371E+04  0.25500000920E-02 0. -1.
    10030    2    1    2    0    0  0.00000000000E+00  0.00000000000E+00 -0.56871188128E+03  0.17909105929E+04  0.16982130455E+04 0.  0.
        5    1    3    3  502    0 -0.21102127051E+03 -0.44750590596E+03  0.44336012902E+03  0.66436571742E+03  0.46999998093E+01 0.  1.
       -5    1    3    3    0  502  0.21102127051E+03  0.44750590596E+03 -0.10120720103E+04  0.11265448755E+04  0.46999998093E+01 0. -1.
</event>
<event>
 5   0  0.5821584E-05  0.1708715E+04  0.7818609E-02  0.8756409E-01
        2   -1    0    0  501    0  0.00000000000E+00  0.00000000000E+00  0.28891300619E+04  0.28891300619E+04  0.25500000920E-02 0.  1.
       -2   -1    0    0    0  501  0.00000000000E+00  0.00000000000E+00 -0.25264593048E+03  0.25264593049E+03  0.25500000920E-02 0. -1.
    10030    2    1    2    0    0  0.00000000000E+00  0.00000000000E+00  0.26364841314E+04  0.31417759924E+04  0.17087152516E+04 0.  0.
        1    1    3    3  502    0  0.10079214431E+03 -0.75275147913E+03  0.20377574233E+04  0.21746836924E+04  0.50400001928E-02 0.  1.
       -1    1    3    3    0  502 -0.10079214431E+03  0.75275147913E+03  0.59872670815E+03  0.96709230003E+03  0.50400001928E-02 0. -1.
</event>
<event>
 5   0  0.2967704E-05  0.1699100E+04  0.7818609E-02  0.8761878E-01
        1   -1    0    0  501    0  0.00000000000E+00  0.00000000000E+00  0.16523068638E+04  0.16523068639E+04  0.50400001928E-02 0. -1.
       -1   -1    0    0    0  501  0.00000000000E+00  0.00000000000E+00 -0.43680466545E+03  0.43680466548E+03  0.50400001928E-02 0.  1.
    10030    2    1    2    0    0  0.00000000000E+00  0.00000000000E+00  0.12155021984E+04  0.20891115293E+04  0.16991001700E+04 0.  0.
        2    1    3    3  502    0  0.20098131579E+03 -0.80199300466E+03  0.36759995172E+03  0.90482926198E+03  0.25500000920E-02 0.  1.
       -2    1    3    3    0  502 -0.20098131579E+03  0.80199300466E+03  0.84790224668E+03  0.11842822673E+04  0.25500000920E-02 0. -1.
</event>
<event>
 5   0  0.2987859E-05  0.1697482E+04  0.7818609E-02  0.8762802E-01
       -1   -1    0    0    0  501  0.00000000000E+00  0.00000000000E+00  0.40312604358E+03  0.40312604361E+03  0.50400001928E-02 0.  1.
        1   -1    0    0  501    0  0.00000000000E+00  0.00000000000E+00 -0.17869379170E+04  0.17869379170E+04  0.50400001928E-02 0. -1.
    10030    2    1    2    0    0  0.00000000000E+00  0.00000000000E+00 -0.13838118734E+04  0.21900639606E+04  0.16974819146E+04 0.  0.
        5    1    3    3  502    0  0.10696754123E+03 -0.13062396813E+03 -0.17650369191E+04  0.17730995719E+04  0.46999998093E+01 0. -1.
       -5    1    3    3    0  502 -0.10696754123E+03  0.13062396813E+03  0.38122504576E+03  0.41696438869E+03  0.46999998093E+01 0.  1.
</event>
<event>
 5   0  0.5671132E-05  0.1698429E+04  0.7818609E-02  0.8762261E-01
        2   -1    0    0  501    0  0.00000000000E+00  0.00000000000E+00  0.72694196110E+03  0.72694196110E+03  0.25500000920E-02 0. -1.
       -2   -1    0    0    0  501  0.00000000000E+00  0.00000000000E+00 -0.99205306822E+03  0.99205306822E+03  0.25500000920E-02 0.  1.
    10030    2    1    2    0    0  0.00000000000E+00  0.00000000000E+00 -0.26511110712E+03  0.17189950293E+04  0.16984286890E+04 0.  0.
        3    1    3    3  502    0 -0.36655177127E+02  0.81863826974E+03  0.92971716139E+02  0.82471568974E+03  0.10100000352E+00 0.  1.
       -3    1    3    3    0  502  0.36655177127E+02 -0.81863826974E+03 -0.35808282326E+03  0.89427933959E+03  0.10100000352E+00 0. -1.
</event>
<event>
 5   0  0.5821584E-05  0.1700949E+04  0.7818609E-02  0.8760824E-01
        2   -1    0    0  501    0  0.00000000000E+00  0.00000000000E+00  0.42409707869E+03  0.42409707870E+03  0.25500000920E-02 0. -1.
       -2   -1    0    0    0  501  0.00000000000E+00  0.00000000000E+00 -0.17055211676E+04  0.17055211676E+04  0.25500000920E-02 0.  1.
    10030    2    1    2    0    0  0.00000000000E+00  0.00000000000E+00 -0.12814240889E+04  0.21296182463E+04  0.17009486116E+04 0.  0.
        1    1    3    3  502    0  0.39397098058E+02  0.77013566365E+03 -0.19164847905E+03  0.79460066153E+03  0.50400001928E-02 0.  1.
       -1    1    3    3    0  502 -0.39397098058E+02 -0.77013566365E+03 -0.10897756098E+04  0.13350175847E+04  0.50400001928E-02 0. -1.
</event>
<event>
 5   0  0.2098250E-05  0.1705037E+04  0.7818609E-02  0.8758497E-01
       -3   -1    0    0    0  501  0.00000000000E+00  0.00000000000E+00  0.91391843666E+03  0.91391844224E+03  0.10100000352E+00 0. -1.
        3   -1    0    0  501    0  0.00000000000E+00  0.00000000000E+00 -0.79524356788E+03  0.79524357430E+03  0.10100000352E+00 0.  1.
    10030    2    1    2    0    0  0.00000000000E+00  0.00000000000E+00  0.11867486878E+03  0.17091620165E+04  0.17050369715E+04 0.  0.
        4    1    3    3  502    0 -0.62897470303E+03  0.11899934574E+03 -0.50506660740E+03  0.81539187643E+03  0.12699999809E+01 0.  1.
       -4    1    3    3    0  502  0.62897470303E+03 -0.11899934574E+03  0.62374147618E+03  0.89377014011E+03  0.12699999809E+01 0. -1.
</event>
<event>
 5   0  0.2967704E-05  0.1702883E+04  0.7818609E-02  0.8759722E-01
        1   -1    0    0  501    0  0.00000000000E+00  0.00000000000E+00  0.52692077612E+03  0.52692077615E+03  0.50400001928E-02 0.  1.
       -1   -1    0    0    0  501  0.00000000000E+00  0.00000000000E+00 -0.13758281609E+04  0.13758281609E+04  0.50400001928E-02 0. -1.
    10030    2    1    2    0    0  0.00000000000E+00  0.00000000000E+00 -0.84890738479E+03  0.19027489371E+04  0.17028827821E+04 0.  0.
        2    1    3    3  502    0  0.24991050355E+03  0.22929666032E+03 -0.12970899440E+04  0.13406992732E+04  0.25500000920E-02 0. -1.
       -2    1    3    3    0  502 -0.24991050355E+03 -0.22929666032E+03  0.44818255926E+03  0.56204966386E+03  0.25500000920E-02 0.  1.
</event>
<event>
 5   0  0.2987859E-05  0.1700212E+04  0.7818609E-02  0.8761244E-01
        1   -1    0    0  501    0  0.00000000000E+00  0.00000000000E+00  0.15273854246E+04  0.15273854246E+04  0.50400001928E-02 0.  1.
       -1   -1    0    0    0  501  0.00000000000E+00  0.00000000000E+00 -0.47314828793E+03  0.47314828796E+03  0.50400001928E-02 0. -1.
    10030    2    1    2    0    0  0.00000000000E+00  0.00000000000E+00  0.10542371367E+04  0.20005337126E+04  0.17002115147E+04 0.  0.
        5    1    3    3  502    0  0.76825022328E+03 -0.97712016894E+02  0.93961652758E+03  0.12176441815E+04  0.46999998093E+01 0.  1.
       -5    1    3    3    0  502 -0.76825022328E+03  0.97712016894E+02  0.11462060907E+03  0.78288953106E+03  0.46999998093E+01 0. -1.
</event>
<event>
 5   0  0.2967704E-05  0.1702347E+04  0.7818609E-02  0.8760027E-01
        1   -1    0    0  501    0  0.00000000000E+00  0.00000000000E+00  0.13405125696E+04  0.13405125696E+04  0.50400001928E-02 0.  1.
       -1   -1    0    0    0  501  0.00000000000E+00  0.00000000000E+00 -0.54046207170E+03  0.54046207172E+03  0.50400001928E-02 0. -1.
    10030    2    1    2    0    0  0.00000000000E+00  0.00000000000E+00  0.80005049793E+03  0.18809746414E+04  0.17023468513E+04 0.  0.
        2    1    3    3  502    0  0.22709688065E+03  0.71288941712E+03 -0.48407538883E+02  0.74975169494E+03  0.25500000920E-02 0. -1.
       -2    1    3    3    0  502 -0.22709688065E+03 -0.71288941712E+03  0.84845803681E+03  0.11312229464E+04  0.25500000920E-02 0.  1.
</event>
<event>
 5   0  0.2987859E-05  0.1698753E+04  0.7818609E-02  0.8762076E-01
        1   -1    0    0  501    0  0.00000000000E+00  0.00000000000E+00  0.12276603875E+04  0.12276603875E+04  0.50400001928E-02 0. -1.
       -1   -1    0    0    0  501  0.00000000000E+00  0.00000000000E+00 -0.58765484345E+03  0.58765484347E+03  0.50400001928E-02 0.  1.
    10030    2    1    2    0    0  0.00000000000E+00  0.00000000000E+00  0.64000554402E+03  0.18153152310E+04  0.16987531579E+04 0.  0.
        5    1    3    3  502    0  0.62449910401E+03  0.49579331151E+03  0.73373728899E+01  0.79742464577E+03  0.46999998093E+01 0. -1.
       -5    1    3    3    0  502 -0.62449910401E+03 -0.49579331151E+03  0.63266817113E+03  0.10178905852E+04  0.46999998093E+01 0.  1.
</event>
<event>
 5   0  0.2967704E-05  0.1699772E+04  0.7818609E-02  0.8761494E-01
       -1   -1    0    0    0  501  0.00000000000E+00  0.00000000000E+00  0.16229493214E+04  0.16229493214E+04  0.50400001928E-02 0.  1.
        1   -1    0    0  501    0  0.00000000000E+00  0.00000000000E+00 -0.44505796523E+03  0.44505796526E+03  0.50400001928E-02 0. -1.
    10030    2    1    2    0    0  0.00000000000E+00  0.00000000000E+00  0.11778913561E+04  0.20680072866E+04  0.16997723644E+04 0.  0.
        2    1    3    3  502    0 -0.20092600781E+03 -0.24979860890E+03 -0.36867727114E+03  0.48856272461E+03  0.25500000920E-02 0. -1.
       -2    1    3    3    0  502  0.20092600781E+03  0.24979860890E+03  0.15465686273E+04  0.15794445620E+04  0.25500000920E-02 0.  1.
</event>
<event>
 5   0  0.5671132E-05  0.1699860E+04  0.7818609E-02  0.8761444E-01
        2   -1    0    0  501    0  0.00000000000E+00  0.00000000000E+00  0.65654397358E+03  0.65654397358E+03  0.25500000920E-02 0.  1.
       -2   -1    0    0    0  501  0.00000000000E+00  0.00000000000E+00 -0.11002776527E+04  0.11002776527E+04  0.25500000920E-02 0. -1.
    10030    2    1    2    0    0  0.00000000000E+00  0.00000000000E+00 -0.44373367908E+03  0.17568216262E+04  0.16998595967E+04 0.  0.
        3    1    3    3  502    0  0.17918969679E+03  0.32894912523E+03 -0.10103638543E+04  0.10775674469E+04  0.10100000352E+00 0. -1.
       -3    1    3    3    0  502 -0.17918969679E+03 -0.32894912523E+03  0.56663017523E+03  0.67925417930E+03  0.10100000352E+00 0.  1.
</event>
<event>
 5   0  0.5652631E-05  0.1699678E+04  0.7818609E-02  0.8761548E-01
        2   -1    0    0  501    0  0.00000000000E+00  0.00000000000E+00  0.12483707271E+04  0.12483707271E+04  0.25500000920E-02 0.  1.
       -2   -1    0    0    0  501  0.00000000000E+00  0.00000000000E+00 -0.57853493507E+03  0.57853493507E+03  0.25500000920E-02 0. -1.
    10030    2    1    2    0    0  0.00000000000E+00  0.00000000000E+00  0.66983579201E+03  0.18269056621E+04  0.16996777077E+04 0.  0.
        2    1    3    3  502    0  0.38946570706E+02  0.13808051171E+03  0.12352601785E+04  0.12435637385E+04  0.25500000920E-02 0.  1.
       -2    1    3    3    0  502 -0.38946570706E+02 -0.13808051171E+03 -0.56542438648E+03  0.58334192367E+03  0.25500000920E-02 0. -1.
</event>
<event>
 5   0  0.5821584E-05  0.1698869E+04  0.7818609E-02  0.8762009E-01
        2   -1    0    0  501    0  0.00000000000E+00  0.00000000000E+00  0.78331641955E+03  0.78331641955E+03  0.25500000920E-02 0. -1.
       -2   -1    0    0    0  501  0.00000000000E+00  0.00000000000E+00 -0.92113378855E+03  0.92113378855E+03  0.25500000920E-02 0.  1.
    10030    2    1    2    0    0  0.00000000000E+00  0.00000000000E+00 -0.13781736900E+03  0.17044502081E+04  0.16988692959E+04 0.  0.
        1    1    3    3  502    0  0.67742676004E+03 -0.32591835459E+03  0.32787684102E+03  0.82014206817E+03  0.50400001928E-02 0. -1.
       -1    1    3    3    0  502 -0.67742676004E+03  0.32591835459E+03 -0.46569421002E+03  0.88430813993E+03  0.50400001928E-02 0.  1.
</event>
<event>
 5   0  0.2967704E-05  0.1699360E+04  0.7818609E-02  0.8761729E-01
       -1   -1    0    0    0  501  0.00000000000E+00  0.00000000000E+00  0.11432293308E+04  0.11432293308E+04  0.50400001928E-02 0.  1.
        1   -1    0    0  501    0  0.00000000000E+00  0.00000000000E+00 -0.63150594851E+03  0.63150594853E+03  0.50400001928E-02 0. -1.
    10030    2    1    2    0    0  0.00000000000E+00  0.00000000000E+00  0.51172338226E+03  0.17747352793E+04  0.16993600241E+04 0.  0.
        2    1    3    3  502    0 -0.51957542706E+02  0.22516668556E+03 -0.59805842163E+03  0.64115013703E+03  0.25500000920E-02 0. -1.
       -2    1    3    3    0  502  0.51957542706E+02 -0.22516668556E+03  0.11097818039E+04  0.11335851423E+04  0.25500000920E-02 0.  1.
</event>
<event>
 5   0  0.5755321E-05  0.1701042E+04  0.7818609E-02  0.8760770E-01
       -2   -1    0    0    0  501  0.00000000000E+00  0.00000000000E+00  0.68113361398E+03  0.68113361398E+03  0.25500000920E-02 0.  1.
        2   -1    0    0  501    0  0.00000000000E+00  0.00000000000E+00 -0.10620328145E+04  0.10620328145E+04  0.25500000920E-02 0. -1.
    10030    2    1    2    0    0  0.00000000000E+00  0.00000000000E+00 -0.38089920056E+03  0.17431664285E+04  0.17010423265E+04 0.  0.
        4    1    3    3  502    0 -0.86926040437E+02  0.22553967628E+03  0.64519499676E+03  0.68898655925E+03  0.12699999809E+01 0.  1.
       -4    1    3    3    0  502  0.86926040437E+02 -0.22553967628E+03 -0.10260941973E+04  0.10541798693E+04  0.12699999809E+01 0. -1.
</event>
<event>
 5   0  0.2911632E-05  0.1704126E+04  0.7818609E-02  0.8759015E-01
       -1   -1    0    0    0  501  0.00000000000E+00  0.00000000000E+00  0.99348620728E+03  0.99348620729E+03  0.50400001928E-02 0. -1.
        1   -1    0    0  501    0  0.00000000000E+00  0.00000000000E+00 -0.73077107283E+03  0.73077107285E+03  0.50400001928E-02 0.  1.
    10030    2    1    2    0    0  0.00000000000E+00  0.00000000000E+00  0.26271513445E+03  0.17242572801E+04  0.17041255606E+04 0.  0.
        1    1    3    3  502    0  0.49954004591E+03 -0.44992299353E+03  0.66103012908E+03  0.94283179261E+03  0.50400001928E-02 0. -1.
       -1    1    3    3    0  502 -0.49954004591E+03  0.44992299353E+03 -0.39831499463E+03  0.78142548752E+03  0.50400001928E-02 0.  1.
</event>
<event>
 5   0  0.2966258E-05  0.1704020E+04  0.7818609E-02  0.8759075E-01
        1   -1    0    0  501    0  0.00000000000E+00  0.00000000000E+00  0.18228762665E+04  0.18228762666E+04  0.50400001928E-02 0. -1.
       -1   -1    0    0    0  501  0.00000000000E+00  0.00000000000E+00 -0.39822845421E+03  0.39822845424E+03  0.50400001928E-02 0.  1.
    10030    2    1    2    0    0  0.00000000000E+00  0.00000000000E+00  0.14246478123E+04  0.22211047208E+04  0.17040201852E+04 0.  0.
        4    1    3    3  502    0 -0.37823784654E+03  0.35880455049E+03  0.15906933698E+04  0.16739508904E+04  0.12699999809E+01 0. -1.
       -4    1    3    3    0  502  0.37823784654E+03 -0.35880455049E+03 -0.16604555746E+03  0.54715383035E+03  0.12699999809E+01 0.  1.
</event>
<event>
 5   0  0.5671132E-05  0.1700425E+04  0.7818609E-02  0.8761122E-01
       -2   -1    0    0    0  501  0.00000000000E+00  0.00000000000E+00  0.79021538618E+03  0.79021538619E+03  0.25500000920E-02 0.  1.
        2   -1    0    0  501    0  0.00000000000E+00  0.00000000000E+00 -0.91476489188E+03  0.91476489188E+03  0.25500000920E-02 0. -1.
    10030    2    1    2    0    0  0.00000000000E+00  0.00000000000E+00 -0.12454950570E+03  0.17049802781E+04  0.17004249967E+04 0.  0.
        3    1    3    3  502    0 -0.51155763182E+03 -0.54923091009E+03  0.33818907580E+03  0.82323609279E+03  0.10100000352E+00 0.  1.
       -3    1    3    3    0  502  0.51155763182E+03  0.54923091009E+03 -0.46273858150E+03  0.88174418529E+03  0.10100000352E+00 0. -1.
</event>
<event>
 5   0  0.2987859E-05  0.1697388E+04  0.7818609E-02  0.8762855E-01
        1   -1    0    0  501    0  0.00000000000E+00  0.00000000000E+00  0.14257383760E+04  0.14257383760E+04  0.50400001928E-02 0.  1.
       -1   -1    0    0    0  501  0.00000000000E+00  0.00000000000E+00 -0.50519897726E+03  0.50519897728E+03  0.50400001928E-02 0. -1.
    10030    2    1    2    0    0  0.00000000000E+00  0.00000000000E+00  0.92053939874E+03  0.19309373533E+04  0.16973880752E+04 0.  0.
        5    1    3    3  502    0  0.21279369697E+03  0.23019955680E+03  0.13574454187E+04  0.13931809459E+04  0.46999998093E+01 0.  1.
       -5    1    3    3    0  502 -0.21279369697E+03 -0.23019955680E+03 -0.43690601993E+03  0.53775640737E+03  0.46999998093E+01 0. -1.
</event>
<event>
 5   0  0.5671132E-05  0.1694925E+04  0.7818609E-02  0.8764264E-01
        2   -1    0    0  501    0  0.00000000000E+00  0.00000000000E+00  0.13200545606E+04  0.13200545606E+04  0.25500000920E-02 0. -1.
       -2   -1    0    0    0  501  0.00000000000E+00  0.00000000000E+00 -0.54406299970E+03  0.54406299970E+03  0.25500000920E-02 0.  1.
    10030    2    1    2    0    0  0.00000000000E+00  0.00000000000E+00  0.77599156090E+03  0.18641175603E+04  0.16949251830E+04 0.  0.
        3    1    3    3  502    0  0.79591303988E+02 -0.65807651379E+03  0.96871202956E+03  0.11737983132E+04  0.10100000352E+00 0. -1.
       -3    1    3    3    0  502 -0.79591303988E+02  0.65807651379E+03 -0.19272046866E+03  0.69031924710E+03  0.10100000352E+00 0.  1.
</event>
<event>
 5   0  0.2966258E-05  0.1701807E+04  0.7818609E-02  0.8760334E-01
       -1   -1    0    0    0  501  0.00000000000E+00  0.00000000000E+00  0.11221992278E+04  0.11221992279E+04  0.50400001928E-02 0.  1.
        1   -1    0    0  501    0  0.00000000000E+00  0.00000000000E+00 -0.64519458144E+03  0.64519458146E+03  0.50400001928E-02 0. -1.
    10030    2    1    2    0    0  0.00000000000E+00  0.00000000000E+00  0.47700464640E+03  0.17673938093E+04  0.17018071114E+04 0.  0.
        4    1    3    3  502    0 -0.56391666397E+03  0.48059455024E+03 -0.19602700116E+03  0.76642111382E+03  0.12699999809E+01 0. -1.
       -4    1    3    3    0  502  0.56391666397E+03 -0.48059455024E+03  0.67303164756E+03  0.10009726955E+04  0.12699999809E+01 0.  1.
</event>
<event>
 5   0  0.2987859E-05  0.1699141E+04  0.7818609E-02  0.8761854E-01
        1   -1    0    0  501    0  0.00000000000E+00  0.00000000000E+00  0.15033367050E+04  0.15033367050E+04  0.50400001928E-02 0.  1.
       -1   -1    0    0    0  501  0.00000000000E+00  0.00000000000E+00 -0.48011218624E+03  0.48011218627E+03  0.50400001928E-02 0. -1.
    10030    2    1    2    0    0  0.00000000000E+00  0.00000000000E+00  0.10232245187E+04  0.19834488912E+04  0.16991412797E+04 0.  0.
        5    1    3    3  502    0 -0.59681397971E+03 -0.30265626637E+03 -0.99379638000E+02  0.67652505083E+03  0.46999998093E+01 0. -1.
       -5    1    3    3    0  502  0.59681397971E+03  0.30265626637E+03  0.11226041567E+04  0.13069238404E+04  0.46999998093E+01 0.  1.
</event>
<event>
 5   0  0.5859822E-05  0.1704950E+04  0.7818609E-02  0.8758546E-01
       -2   -1    0    0    0  501  0.00000000000E+00  0.00000000000E+00  0.44509060083E+03  0.44509060084E+03  0.25500000920E-02 0. -1.
        2   -1    0    0  501    0  0.00000000000E+00  0.00000000000E+00 -0.16327315546E+04  0.16327315546E+04  0.25500000920E-02 0.  1.
    10030    2    1    2    0    0  0.00000000000E+00  0.00000000000E+00 -0.11876409538E+04  0.20778221554E+04  0.17049498158E+04 0.  0.
        5    1    3    3  502    0 -0.58998359110E+03 -0.61527732451E+03 -0.58568572963E+03  0.10342614214E+04  0.46999998093E+01 0. -1.
       -5    1    3    3    0  502  0.58998359110E+03  0.61527732451E+03 -0.60195522414E+03  0.10435607341E+04  0.46999998093E+01 0.  1.
</event>
<event>
 5   0  0.2911632E-05  0.1701391E+04  0.7818609E-02  0.8760572E-01
        1   -1    0    0  501    0  0.00000000000E+00  0.00000000000E+00  0.10950521601E+04  0.10950521601E+04  0.50400001928E-02 0. -1.
       -1   -1    0    0    0  501  0.00000000000E+00  0.00000000000E+00 -0.66086593288E+03  0.66086593290E+03  0.50400001928E-02 0.  1.
    10030    2    1    2    0    0  0.00000000000E+00  0.00000000000E+00  0.43418622721E+03  0.17559180930E+04  0.17013908044E+04 0.  0.
        1    1    3    3  502    0  0.15270157432E+03  0.78953840395E+03  0.50346384500E+03  0.94876999602E+03  0.50400001928E-02 0. -1.
       -1    1    3    3    0  502 -0.15270157432E+03 -0.78953840395E+03 -0.69277617786E+02  0.80714809698E+03  0.50400001928E-02 0.  1.
</event>
<event>
 5   0  0.5859822E-05  0.1699796E+04  0.7818609E-02  0.8761481E-01
       -2   -1    0    0    0  501  0.00000000000E+00  0.00000000000E+00  0.35816403766E+03  0.35816403767E+03  0.25500000920E-02 0.  1.
        2   -1    0    0  501    0  0.00000000000E+00  0.00000000000E+00 -0.20167487677E+04  0.20167487677E+04  0.25500000920E-02 0. -1.
    10030    2    1    2    0    0  0.00000000000E+00  0.00000000000E+00 -0.16585847300E+04  0.23749128053E+04  0.16997963191E+04 0.  0.
        5    1    3    3  502    0  0.56466324847E+03 -0.13000757144E+03  0.39384492704E+02  0.58079237345E+03  0.46999998093E+01 0.  1.
       -5    1    3    3    0  502 -0.56466324847E+03  0.13000757144E+03 -0.16979692227E+04  0.17941204319E+04  0.46999998093E+01 0. -1.
</event>
<event>
 5   0  0.2967704E-05  0.1704342E+04  0.7818609E-02  0.8758892E-01
       -1   -1    0    0    0  501  0.00000000000E+00  0.00000000000E+00  0.51583253001E+03  0.51583253003E+03  0.50400001928E-02 0.  1.
        1   -1    0    0  501    0  0.00000000000E+00  0.00000000000E+00 -0.14078117166E+04  0.14078117166E+04  0.50400001928E-02 0. -1.
    10030    2    1    2    0    0  0.00000000000E+00  0.00000000000E+00 -0.89197918659E+03  0.19236442466E+04  0.17043416085E+04 0.  0.
        2    1    3    3  502    0 -0.67165518926E+03  0.47184145692E+03 -0.18752589171E+03  0.84197447336E+03  0.25500000920E-02 0.  1.
       -2    1    3    3    0  502  0.67165518926E+03 -0.47184145692E+03 -0.70445329488E+03  0.10816697733E+04  0.25500000920E-02 0. -1.
</event>
<event>
 5   0  0.2993769E-05  0.1699740E+04  0.7818609E-02  0.8761513E-01
       -1   -1    0    0    0  501  0.00000000000E+00  0.00000000000E+00  0.63997461159E+03  0.63997461161E+03  0.50400001928E-02 0.  1.
        1   -1    0    0  501    0  0.00000000000E+00  0.00000000000E+00 -0.11286053964E+04  0.11286053964E+04  0.50400001928E-02 0. -1.
    10030    2    1    2    0    0  0.00000000000E+00  0.00000000000E+00 -0.48863078483E+03  0.17685800080E+04  0.16997397451E+04 0.  0.
        3    1    3    3  502    0 -0.76197820421E+03 -0.28929288958E+03 -0.49485276142E+03  0.95350953081E+03  0.10100000352E+00 0. -1.
       -3    1    3    3    0  502  0.76197820421E+03  0.28929288958E+03  0.62219765885E+01  0.81507047723E+03  0.10100000352E+00 0.  1.
</event>
<event>
 5   0  0.2987859E-05  0.1699702E+04  0.7818609E-02  0.8761534E-01
       -1   -1    0    0    0  501  0.00000000000E+00  0.00000000000E+00  0.39164455884E+03  0.39164455887E+03  0.50400001928E-02 0.  1.
        1   -1    0    0  501    0  0.00000000000E+00  0.00000000000E+00 -0.18441381273E+04  0.18441381273E+04  0.50400001928E-02 0. -1.
    10030    2    1    2    0    0  0.00000000000E+00  0.00000000000E+00 -0.14524935684E+04  0.22357826861E+04  0.16997019307E+04 0.  0.
        5    1    3    3  502    0  0.63811644491E+03 -0.15035346756E+03 -0.14927353339E+02  0.65577715602E+03  0.46999998093E+01 0.  1.
       -5    1    3    3    0  502 -0.63811644491E+03  0.15035346756E+03 -0.14375662151E+04  0.15800055301E+04  0.46999998093E+01 0. -1.
</event>
<event>
 5   0  0.5652631E-05  0.1699635E+04  0.7818609E-02  0.8761572E-01
       -2   -1    0    0    0  501  0.00000000000E+00  0.00000000000E+00  0.53333661361E+03  0.53333661362E+03  0.25500000920E-02 0.  1.
        2   -1    0    0  501    0  0.00000000000E+00  0.00000000000E+00 -0.13540982196E+04  0.13540982196E+04  0.25500000920E-02 0. -1.
    10030    2    1    2    0    0  0.00000000000E+00  0.00000000000E+00 -0.82076160600E+03  0.18874348332E+04  0.16996354420E+04 0.  0.
        2    1    3    3  502    0 -0.36971854386E+03 -0.71146768208E+03 -0.72312257819E+03  0.10797149288E+04  0.25500000920E-02 0. -1.
       -2    1    3    3    0  502  0.36971854386E+03  0.71146768208E+03 -0.97639027815E+02  0.80771990447E+03  0.25500000920E-02 0.  1.
</event>
<event>
 5   0  0.5821584E-05  0.1698118E+04  0.7818609E-02  0.8762438E-01
        2   -1    0    0  501    0  0.00000000000E+00  0.00000000000E+00  0.15863875078E+04  0.15863875078E+04  0.25500000920E-02 0.  1.
       -2   -1    0    0    0  501  0.00000000000E+00  0.00000000000E+00 -0.45442952698E+03  0.45442952699E+03  0.25500000920E-02 0. -1.
    10030    2    1    2    0    0  0.00000000000E+00  0.00000000000E+00  0.11319579808E+04  0.20408170348E+04  0.16981181641E+04 0.  0.
        1    1    3    3  502    0  0.63921109821E+03 -0.23523269920E+03 -0.43252731004E+02  0.68249252715E+03  0.50400001928E-02 0. -1.
       -1    1    3    3    0  502 -0.63921109821E+03  0.23523269920E+03  0.11752107118E+04  0.13583245076E+04  0.50400001928E-02 0.  1.
</event>
<event>
 5   0  0.2911632E-05  0.1701052E+04  0.7818609E-02  0.8760765E-01
        1   -1    0    0  501    0  0.00000000000E+00  0.00000000000E+00  0.84069870210E+03  0.84069870212E+03  0.50400001928E-02 0. -1.
       -1   -1    0    0    0  501  0.00000000000E+00  0.00000000000E+00 -0.86046805019E+03  0.86046805021E+03  0.50400001928E-02 0.  1.
    10030    2    1    2    0    0  0.00000000000E+00  0.00000000000E+00 -0.19769348092E+02  0.17011667523E+04  0.17010518781E+04 0.  0.
        1    1    3    3  502    0 -0.39472843021E+03 -0.73259598903E+03  0.16587404707E+03  0.84854087484E+03  0.50400001928E-02 0. -1.
       -1    1    3    3    0  502  0.39472843021E+03  0.73259598903E+03 -0.18564339516E+03  0.85262587748E+03  0.50400001928E-02 0.  1.
</event>
<event>
 5   0  0.2993769E-05  0.1700494E+04  0.7818609E-02  0.8761083E-01
        1   -1    0    0  501    0  0.00000000000E+00  0.00000000000E+00  0.53971664137E+03  0.53971664139E+03  0.50400001928E-02 0. -1.
       -1   -1    0    0    0  501  0.00000000000E+00  0.00000000000E+00 -0.13394438219E+04  0.13394438219E+04  0.50400001928E-02 0.  1.
    10030    2    1    2    0    0  0.00000000000E+00  0.00000000000E+00 -0.79972718053E+03  0.18791604633E+04  0.17004941880E+04 0.  0.
        3    1    3    3  502    0  0.82876052626E+02  0.60076411412E+03  0.25868061505E+03  0.65931906670E+03  0.10100000352E+00 0. -1.
       -3    1    3    3    0  502 -0.82876052626E+02 -0.60076411412E+03 -0.10584077956E+04  0.12198413966E+04  0.10100000352E+00 0.  1.
</event>
<event>
 5   0  0.2993769E-05  0.1704876E+04  0.7818609E-02  0.8758588E-01
       -1   -1    0    0    0  501  0.00000000000E+00  0.00000000000E+00  0.54861307322E+03  0.54861307324E+03  0.50400001928E-02 0.  1.
        1   -1    0    0  501    0  0.00000000000E+00  0.00000000000E+00 -0.13245228280E+04  0.13245228280E+04  0.50400001928E-02 0. -1.
    10030    2    1    2    0    0  0.00000000000E+00  0.00000000000E+00 -0.77590975475E+03  0.18731359012E+04  0.17048759946E+04 0.  0.
        3    1    3    3  502    0 -0.43337749465E+02  0.82931986790E+03 -0.59929540336E+03  0.10241116123E+04  0.10100000352E+00 0. -1.
       -3    1    3    3    0  502  0.43337749465E+02 -0.82931986790E+03 -0.17661435140E+03  0.84902428890E+03  0.10100000352E+00 0.  1.
</event>
<event>
 5   0  0.2967704E-05  0.1701564E+04  0.7818609E-02  0.8760473E-01
       -1   -1    0    0    0  501  0.00000000000E+00  0.00000000000E+00  0.77165099610E+03  0.77165099611E+03  0.50400001928E-02 0. -1.
        1   -1    0    0  501    0  0.00000000000E+00  0.00000000000E+00 -0.93802805809E+03  0.93802805811E+03  0.50400001928E-02 0.  1.
    10030    2    1    2    0    0  0.00000000000E+00  0.00000000000E+00 -0.16637706200E+03  0.17096790542E+04  0.17015643219E+04 0.  0.
        2    1    3    3  502    0 -0.80417303889E+03 -0.15155381982E+03  0.15066041155E+03  0.83208256585E+03  0.25500000920E-02 0. -1.
       -2    1    3    3    0  502  0.80417303889E+03  0.15155381982E+03 -0.31703747354E+03  0.87759648838E+03  0.25500000920E-02 0.  1.
</event>
<event>
 5   0  0.5821584E-05  0.1700631E+04  0.7818609E-02  0.8761005E-01
       -2   -1    0    0    0  501  0.00000000000E+00  0.00000000000E+00  0.10263077837E+04  0.10263077837E+04  0.25500000920E-02 0. -1.
        2   -1    0    0  501    0  0.00000000000E+00  0.00000000000E+00 -0.70450222439E+03  0.70450222440E+03  0.25500000920E-02 0.  1.
    10030    2    1    2    0    0  0.00000000000E+00  0.00000000000E+00  0.32180555927E+03  0.17308100081E+04  0.17006306083E+04 0.  0.
        1    1    3    3  502    0 -0.79043270731E+02 -0.68519467614E+03  0.66701686123E+03  0.95950564149E+03  0.50400001928E-02 0. -1.
       -1    1    3    3    0  502  0.79043270731E+02  0.68519467614E+03 -0.34521130196E+03  0.77130436657E+03  0.50400001928E-02 0.  1.
</event>
<event>
 5   0  0.5671132E-05  0.1702633E+04  0.7818609E-02  0.8759864E-01
        2   -1    0    0  501    0  0.00000000000E+00  0.00000000000E+00  0.15326270874E+04  0.15326270874E+04  0.25500000920E-02 0. -1.
       -2   -1    0    0    0  501  0.00000000000E+00  0.00000000000E+00 -0.47287405558E+03  0.47287405559E+03  0.25500000920E-02 0.  1.
    10030    2    1    2    0    0  0.00000000000E+00  0.00000000000E+00  0.10597530319E+04  0.20055011430E+04  0.17026327690E+04 0.  0.
        3    1    3    3  502    0 -0.24006837407E+03 -0.32814257246E+03  0.14108736455E+04  0.14682897623E+04  0.10100000352E+00 0. -1.
       -3    1    3    3    0  502  0.24006837407E+03  0.32814257246E+03 -0.35112061367E+03  0.53721138078E+03  0.10100000352E+00 0.  1.
</event>
<event>
 5   0  0.2993769E-05  0.1704441E+04  0.7818609E-02  0.8758836E-01
       -1   -1    0    0    0  501  0.00000000000E+00  0.00000000000E+00  0.42701221142E+03  0.42701221145E+03  0.50400001928E-02 0.  1.
        1   -1    0    0  501    0  0.00000000000E+00  0.00000000000E+00 -0.17008406665E+04  0.17008406665E+04  0.50400001928E-02 0. -1.
    10030    2    1    2    0    0  0.00000000000E+00  0.00000000000E+00 -0.12738284551E+04  0.21278528780E+04  0.17044409457E+04 0.  0.
        3    1    3    3  502    0  0.65531894153E+02  0.51375554763E+03 -0.14818264521E+04  0.15697289053E+04  0.10100000352E+00 0. -1.
       -3    1    3    3    0  502 -0.65531894153E+02 -0.51375554763E+03  0.20799799702E+03  0.55812397264E+03  0.10100000352E+00 0.  1.
</event>
<event>
 5   0  0.5755321E-05  0.1716413E+04  0.7818609E-02  0.8752059E-01
        2   -1    0    0  501    0  0.00000000000E+00  0.00000000000E+00  0.21546720968E+04  0.21546720968E+04  0.25500000920E-02 0. -1.
       -2   -1    0    0    0  501  0.00000000000E+00  0.00000000000E+00 -0.34182381573E+03  0.34182381574E+03  0.25500000920E-02 0.  1.
    10030    2    1    2    0    0  0.00000000000E+00  0.00000000000E+00  0.18128482811E+04  0.24964959125E+04  0.17164128149E+04 0.  0.
        4    1    3    3  502    0 -0.28238368144E+02 -0.84827229686E+03  0.72156533544E+03  0.11140114188E+04  0.12699999809E+01 0. -1.
       -4    1    3    3    0  502  0.28238368144E+02  0.84827229686E+03  0.10912829456E+04  0.13824844937E+04  0.12699999809E+01 0.  1.
</event>
<event>
 5   0  0.2993769E-05  0.1698311E+04  0.7818609E-02  0.8762328E-01
        1   -1    0    0  501    0  0.00000000000E+00  0.00000000000E+00  0.14448485041E+04  0.14448485041E+04  0.50400001928E-02 0. -1.
       -1   -1    0    0    0  501  0.00000000000E+00  0.00000000000E+00 -0.49905935941E+03  0.49905935943E+03  0.50400001928E-02 0.  1.
    10030    2    1    2    0    0  0.00000000000E+00  0.00000000000E+00  0.94578914471E+03  0.19439078636E+04  0.16983111245E+04 0.  0.
        3    1    3    3  502    0  0.79642721246E+03 -0.28050304461E+03  0.57582632078E+03  0.10220343559E+04  0.10100000352E+00 0. -1.
       -3    1    3    3    0  502 -0.79642721246E+03  0.28050304461E+03  0.36996282393E+03  0.92187350763E+03  0.10100000352E+00 0.  1.
</event>
<event>
 5   0  0.2993769E-05  0.1698050E+04  0.7818609E-02  0.8762477E-01
        1   -1    0    0  501    0  0.00000000000E+00  0.00000000000E+00  0.17966172364E+04  0.17966172364E+04  0.50400001928E-02 0. -1.
       -1   -1    0    0    0  501  0.00000000000E+00  0.00000000000E+00 -0.40122278272E+03  0.40122278275E+03  0.50400001928E-02 0.  1.
    10030    2    1    2    0    0  0.00000000000E+00  0.00000000000E+00  0.13953944537E+04  0.21978400192E+04  0.16980503728E+04 0.  0.
        3    1    3    3  502    0  0.32432677973E+01 -0.73936585354E+03  0.15752295541E+03  0.75596684838E+03  0.10100000352E+00 0.  1.
       -3    1    3    3    0  502 -0.32432677973E+01  0.73936585354E+03  0.12378714983E+04  0.14418731708E+04  0.10100000352E+00 0. -1.
</event>
<event>
 5   0  0.5859822E-05  0.1700719E+04  0.7818609E-02  0.8760954E-01
       -2   -1    0    0    0  501  0.00000000000E+00  0.00000000000E+00  0.64667301835E+03  0.64667301836E+03  0.25500000920E-02 0.  1.
        2   -1    0    0  501    0  0.00000000000E+00  0.00000000000E+00 -0.11182021615E+04  0.11182021615E+04  0.25500000920E-02 0. -1.
    10030    2    1    2    0    0  0.00000000000E+00  0.00000000000E+00 -0.47152914313E+03  0.17648751798E+04  0.17007188679E+04 0.  0.
        5    1    3    3  502    0 -0.31781411544E+03 -0.65571008070E+03  0.21909390625E+03  0.76091113256E+03  0.46999998093E+01 0. -1.
       -5    1    3    3    0  502  0.31781411544E+03  0.65571008070E+03 -0.69062304938E+03  0.10039640473E+04  0.46999998093E+01 0.  1.
</event>
<event>
 5   0  0.2966258E-05  0.1716504E+04  0.7818609E-02  0.8752007E-01
        1   -1    0    0  501    0  0.00000000000E+00  0.00000000000E+00  0.12029583472E+04  0.12029583472E+04  0.50400001928E-02 0.  1.
       -1   -1    0    0    0  501  0.00000000000E+00  0.00000000000E+00 -0.61232110075E+03  0.61232110078E+03  0.50400001928E-02 0. -1.
    10030    2    1    2    0    0  0.00000000000E+00  0.00000000000E+00  0.59063724640E+03  0.18152794479E+04  0.17165043307E+04 0.  0.
        4    1    3    3  502    0  0.56947259894E+03  0.14658588576E+03  0.95643924024E+03  0.11227484563E+04  0.12699999809E+01 0.  1.
       -4    1    3    3    0  502 -0.56947259894E+03 -0.14658588576E+03 -0.36580199384E+03  0.69253099169E+03  0.12699999809E+01 0. -1.
</event>
<event>
 5   0  0.2993769E-05  0.1697188E+04  0.7818609E-02  0.8762970E-01
        1   -1    0    0  501    0  0.00000000000E+00  0.00000000000E+00  0.88204273080E+03  0.88204273082E+03  0.50400001928E-02 0. -1.
       -1   -1    0    0    0  501  0.00000000000E+00  0.00000000000E+00 -0.81641395715E+03  0.81641395717E+03  0.50400001928E-02 0.  1.
    10030    2    1    2    0    0  0.00000000000E+00  0.00000000000E+00  0.65628773652E+02  0.16984566880E+04  0.16971882586E+04 0.  0.
        3    1    3    3  502    0  0.19187825590E+03 -0.75535367101E+03  0.36882647918E+03  0.86221193181E+03  0.10100000352E+00 0. -1.
       -3    1    3    3    0  502 -0.19187825590E+03  0.75535367101E+03 -0.30319770553E+03  0.83624475618E+03  0.10100000352E+00 0.  1.
</event>
<event>
 5   0  0.5652631E-05  0.1698381E+04  0.7818609E-02  0.8762288E-01
        2   -1    0    0  501    0  0.00000000000E+00  0.00000000000E+00  0.85447359556E+03  0.85447359557E+03  0.25500000920E-02 0. -1.
       -2   -1    0    0    0  501  0.00000000000E+00  0.00000000000E+00 -0.84394035015E+03  0.84394035016E+03  0.25500000920E-02 0.  1.
    10030    2    1    2    0    0  0.00000000000E+00  0.00000000000E+00  0.10533245409E+02  0.16984139457E+04  0.16983812828E+04 0.  0.
        2    1    3    3  502    0 -0.79215090173E+03 -0.30483856388E+03 -0.21099473625E+02  0.84904345527E+03  0.25500000920E-02 0. -1.
       -2    1    3    3    0  502  0.79215090173E+03  0.30483856388E+03  0.31632719034E+02  0.84937049046E+03  0.25500000920E-02 0.  1.
</event>
<event>
 5   0  0.2966258E-05  0.1704956E+04  0.7818609E-02  0.8758543E-01
        1   -1    0    0  501    0  0.00000000000E+00  0.00000000000E+00  0.15524373652E+04  0.15524373652E+04  0.50400001928E-02 0. -1.
       -1   -1    0    0    0  501  0.00000000000E+00  0.00000000000E+00 -0.46811471157E+03  0.46811471159E+03  0.50400001928E-02 0.  1.
    10030    2    1    2    0    0  0.00000000000E+00  0.00000000000E+00  0.10843226537E+04  0.20205520768E+04  0.17049560340E+04 0.  0.
        4    1    3    3  502    0  0.48199051863E+02 -0.58995543924E+02 -0.46407143488E+03  0.47028452278E+03  0.12699999809E+01 0.  1.
       -4    1    3    3    0  502 -0.48199051863E+02  0.58995543924E+02  0.15483940885E+04  0.15502675540E+04  0.12699999809E+01 0. -1.
</event>
<event>
 5   0  0.5821584E-05  0.1703322E+04  0.7818609E-02  0.8759472E-01
        2   -1    0    0  501    0  0.00000000000E+00  0.00000000000E+00  0.26717452773E+04  0.26717452773E+04  0.25500000920E-02 0.  1.
       -2   -1    0    0    0  501  0.00000000000E+00  0.00000000000E+00 -0.27148051383E+03  0.27148051385E+03  0.25500000920E-02 0. -1.
    10030    2    1    2    0    0  0.00000000000E+00  0.00000000000E+00  0.24002647635E+04  0.29432257912E+04  0.17033223779E+04 0.  0.
        1    1    3    3  502    0  0.34864627701E+03  0.31019682623E+02  0.25417139182E+04  0.25657018707E+04  0.50400001928E-02 0.  1.
       -1    1    3    3    0  502 -0.34864627701E+03 -0.31019682623E+02 -0.14144915468E+03  0.37752392052E+03  0.50400001928E-02 0. -1.
</event>
<event>
 5   0  0.2967704E-05  0.1699961E+04  0.7818609E-02  0.8761387E-01
        1   -1    0    0  501    0  0.00000000000E+00  0.00000000000E+00  0.14612853175E+04  0.14612853176E+04  0.50400001928E-02 0. -1.
       -1   -1    0    0    0  501  0.00000000000E+00  0.00000000000E+00 -0.49440501756E+03  0.49440501758E+03  0.50400001928E-02 0.  1.
    10030    2    1    2    0    0  0.00000000000E+00  0.00000000000E+00  0.96688029999E+03  0.19556903351E+04  0.16999609326E+04 0.  0.
        2    1    3    3  502    0  0.39520131803E+03  0.55350665134E+03  0.10699498942E+04  0.12678116859E+04  0.25500000920E-02 0. -1.
       -2    1    3    3    0  502 -0.39520131803E+03 -0.55350665134E+03 -0.10306959417E+03  0.68787864925E+03  0.25500000920E-02 0.  1.
</event>
<event>
 5   0  0.2966258E-05  0.1699946E+04  0.7818609E-02  0.8761395E-01
       -1   -1    0    0    0  501  0.00000000000E+00  0.00000000000E+00  0.80609063387E+03  0.80609063389E+03  0.50400001928E-02 0. -1.
        1   -1    0    0  501    0  0.00000000000E+00  0.00000000000E+00 -0.89624456539E+03  0.89624456541E+03  0.50400001928E-02 0.  1.
    10030    2    1    2    0    0  0.00000000000E+00  0.00000000000E+00 -0.90153931520E+02  0.17023351993E+04  0.16999462931E+04 0.  0.
        4    1    3    3  502    0  0.10790752465E+03  0.73207353505E+03  0.37369372481E+03  0.82898993207E+03  0.12699999809E+01 0. -1.
       -4    1    3    3    0  502 -0.10790752465E+03 -0.73207353505E+03 -0.46384765633E+03  0.87334526723E+03  0.12699999809E+01 0.  1.
</event>
<event>
 5   0  0.5671132E-05  0.1700059E+04  0.7818609E-02  0.8761331E-01
        2   -1    0    0  501    0  0.00000000000E+00  0.00000000000E+00  0.14547609289E+04  0.14547609289E+04  0.25500000920E-02 0.  1.
       -2   -1    0    0    0  501  0.00000000000E+00  0.00000000000E+00 -0.49667984773E+03  0.49667984774E+03  0.25500000920E-02 0. -1.
    10030    2    1    2    0    0  0.00000000000E+00  0.00000000000E+00  0.95808108118E+03  0.19514407767E+04  0.17000593362E+04 0.  0.
        3    1    3    3  502    0  0.78308079669E+03 -0.12344728078E+03  0.83114870493E+03  0.11485917226E+04  0.10100000352E+00 0.  1.
       -3    1    3    3    0  502 -0.78308079669E+03  0.12344728078E+03  0.12693237625E+03  0.80284905407E+03  0.10100000352E+00 0. -1.
</event>
<event>
 5   0  0.2993769E-05  0.1700794E+04  0.7818609E-02  0.8760912E-01
       -1   -1    0    0    0  501  0.00000000000E+00  0.00000000000E+00  0.66372767663E+03  0.66372767665E+03  0.50400001928E-02 0. -1.
        1   -1    0    0  501    0  0.00000000000E+00  0.00000000000E+00 -0.10895654556E+04  0.10895654556E+04  0.50400001928E-02 0.  1.
    10030    2    1    2    0    0  0.00000000000E+00  0.00000000000E+00 -0.42583777894E+03  0.17532931322E+04  0.17007936364E+04 0.  0.
        3    1    3    3  502    0 -0.37485379554E+03  0.46560503557E+03  0.41062509476E+03  0.72520093479E+03  0.10100000352E+00 0. -1.
       -3    1    3    3    0  502  0.37485379554E+03 -0.46560503557E+03 -0.83646287370E+03  0.10280921974E+04  0.10100000352E+00 0.  1.
</event>
<event>
 5   0  0.5652631E-05  0.1701922E+04  0.7818609E-02  0.8760269E-01
        2   -1    0    0  501    0  0.00000000000E+00  0.00000000000E+00  0.64873285868E+03  0.64873285868E+03  0.25500000920E-02 0. -1.
       -2   -1    0    0    0  501  0.00000000000E+00  0.00000000000E+00 -0.11162297495E+04  0.11162297495E+04  0.25500000920E-02 0.  1.
    10030    2    1    2    0    0  0.00000000000E+00  0.00000000000E+00 -0.46749689083E+03  0.17649626082E+04  0.17019223441E+04 0.  0.
        2    1    3    3  502    0 -0.79277445574E+03 -0.16374338047E+03 -0.50582427775E+03  0.95454776323E+03  0.25500000920E-02 0.  1.
       -2    1    3    3    0  502  0.79277445574E+03  0.16374338047E+03  0.38327386922E+02  0.81041484496E+03  0.25500000920E-02 0. -1.
</event>
<event>
 5   0  0.5671132E-05  0.1696576E+04  0.7818609E-02  0.8763319E-01
        2   -1    0    0  501    0  0.00000000000E+00  0.00000000000E+00  0.52091439534E+03  0.52091439534E+03  0.25500000920E-02 0. -1.
       -2   -1    0    0    0  501  0.00000000000E+00  0.00000000000E+00 -0.13814033841E+04  0.13814033841E+04  0.25500000920E-02 0.  1.
    10030    2    1    2    0    0  0.00000000000E+00  0.00000000000E+00 -0.86048898873E+03  0.19023177794E+04  0.16965764451E+04 0.  0.
        3    1    3    3  502    0 -0.18443633702E+03  0.42657629712E+03 -0.12259571921E+04  0.13110892978E+04  0.10100000352E+00 0.  1.
       -3    1    3    3    0  502  0.18443633702E+03 -0.42657629712E+03  0.36546820334E+03  0.59122848166E+03  0.10100000352E+00 0. -1.
</event>
<event>
 5   0  0.5652631E-05  0.1702543E+04  0.7818609E-02  0.8759915E-01
       -2   -1    0    0    0  501  0.00000000000E+00  0.00000000000E+00  0.66335201633E+03  0.66335201633E+03  0.25500000920E-02 0.  1.
        2   -1    0    0  501    0  0.00000000000E+00  0.00000000000E+00 -0.10924264532E+04  0.10924264532E+04  0.25500000920E-02 0. -1.
    10030    2    1    2    0    0  0.00000000000E+00  0.00000000000E+00 -0.42907443683E+03  0.17557784695E+04  0.17025431453E+04 0.  0.
        2    1    3    3  502    0 -0.10257740814E+03  0.18891102965E+03  0.63490086605E+03  0.67030486460E+03  0.25500000920E-02 0.  1.
       -2    1    3    3    0  502  0.10257740814E+03 -0.18891102965E+03 -0.10639753029E+04  0.10854736049E+04  0.25500000920E-02 0. -1.
</event>
<event>
 5   0  0.5652631E-05  0.1696392E+04  0.7818609E-02  0.8763425E-01
        2   -1    0    0  501    0  0.00000000000E+00  0.00000000000E+00  0.68937342463E+03  0.68937342463E+03  0.25500000920E-02 0.  1.
       -2   -1    0    0    0  501  0.00000000000E+00  0.00000000000E+00 -0.10436096247E+04  0.10436096247E+04  0.25500000920E-02 0. -1.
    10030    2    1    2    0    0  0.00000000000E+00  0.00000000000E+00 -0.35423620011E+03  0.17329830494E+04  0.16963923379E+04 0.  0.
        2    1    3    3  502    0 -0.18632152077E+02  0.22023498030E+03  0.65943843893E+03  0.69549238557E+03  0.25500000920E-02 0.  1.
       -2    1    3    3    0  502  0.18632152077E+02 -0.22023498030E+03 -0.10136746390E+04  0.10374906638E+04  0.25500000920E-02 0. -1.
</event>
<event>
 5   0  0.2987859E-05  0.1673545E+04  0.7818609E-02  0.8776598E-01
       -1   -1    0    0    0  501  0.00000000000E+00  0.00000000000E+00  0.52886013590E+03  0.52886013593E+03  0.50400001928E-02 0. -1.
        1   -1    0    0  501    0  0.00000000000E+00  0.00000000000E+00 -0.13239575942E+04  0.13239575942E+04  0.50400001928E-02 0.  1.
    10030    2    1    2    0    0  0.00000000000E+00  0.00000000000E+00 -0.79509745827E+03  0.18528177301E+04  0.16735452109E+04 0.  0.
        5    1    3    3  502    0  0.45109836010E+03 -0.69675184875E+03 -0.28031176487E+03  0.87609910669E+03  0.46999998093E+01 0.  1.
       -5    1    3    3    0  502 -0.45109836010E+03  0.69675184875E+03 -0.51478569340E+03  0.97671862342E+03  0.46999998093E+01 0. -1.
</event>
<event>
 5   0  0.2966258E-05  0.1705122E+04  0.7818609E-02  0.8758448E-01
        1   -1    0    0  501    0  0.00000000000E+00  0.00000000000E+00  0.89390312116E+03  0.89390312117E+03  0.50400001928E-02 0.  1.
       -1   -1    0    0    0  501  0.00000000000E+00  0.00000000000E+00 -0.81313109177E+03  0.81313109178E+03  0.50400001928E-02 0. -1.
    10030    2    1    2    0    0  0.00000000000E+00  0.00000000000E+00  0.80772029391E+02  0.17070342130E+04  0.17051221902E+04 0.  0.
        4    1    3    3  502    0 -0.48856594226E+03  0.65147265400E+03 -0.21237583000E+03  0.84155713110E+03  0.12699999809E+01 0.  1.
       -4    1    3    3    0  502  0.48856594226E+03 -0.65147265400E+03  0.29314785940E+03  0.86547708185E+03  0.12699999809E+01 0. -1.
</event>
<event>
 5   0  0.5652631E-05  0.1702373E+04  0.7818609E-02  0.8760012E-01
       -2   -1    0    0    0  501  0.00000000000E+00  0.00000000000E+00  0.14476778486E+04  0.14476778486E+04  0.25500000920E-02 0. -1.
        2   -1    0    0  501    0  0.00000000000E+00  0.00000000000E+00 -0.50046929839E+03  0.50046929839E+03  0.25500000920E-02 0.  1.
    10030    2    1    2    0    0  0.00000000000E+00  0.00000000000E+00  0.94720855022E+03  0.19481471470E+04  0.17023728348E+04 0.  0.
        2    1    3    3  502    0 -0.37222013325E+03  0.62699532686E+03  0.97614806848E+03  0.12184153722E+04  0.25500000920E-02 0. -1.
       -2    1    3    3    0  502  0.37222013325E+03 -0.62699532686E+03 -0.28939518264E+02  0.72973177485E+03  0.25500000920E-02 0.  1.
</event>
<event>
 5   0  0.5652631E-05  0.1700754E+04  0.7818609E-02  0.8760935E-01
        2   -1    0    0  501    0  0.00000000000E+00  0.00000000000E+00  0.91903523180E+03  0.91903523180E+03  0.25500000920E-02 0.  1.
       -2   -1    0    0    0  501  0.00000000000E+00  0.00000000000E+00 -0.78684789111E+03  0.78684789111E+03  0.25500000920E-02 0. -1.
    10030    2    1    2    0    0  0.00000000000E+00  0.00000000000E+00  0.13218734069E+03  0.17058831229E+04  0.17007538728E+04 0.  0.
        2    1    3    3  502    0  0.52239296456E+03 -0.65445374563E+03 -0.82463847337E+02  0.84142997374E+03  0.25500000920E-02 0.  1.
       -2    1    3    3    0  502 -0.52239296456E+03  0.65445374563E+03  0.21465118802E+03  0.86445314917E+03  0.25500000920E-02 0. -1.
</event>
<event>
 5   0  0.2098250E-05  0.1699489E+04  0.7818609E-02  0.8761656E-01
        3   -1    0    0  501    0  0.00000000000E+00  0.00000000000E+00  0.38705381397E+03  0.38705382715E+03  0.10100000352E+00 0.  1.
       -3   -1    0    0    0  501  0.00000000000E+00  0.00000000000E+00 -0.18655433448E+04  0.18655433475E+04  0.10100000352E+00 0. -1.
    10030    2    1    2    0    0  0.00000000000E+00  0.00000000000E+00 -0.14784895308E+04  0.22525971746E+04  0.16994889639E+04 0.  0.
        5    1    3    3  502    0 -0.77378586531E+03  0.34220160968E+03 -0.63490280191E+03  0.10578138612E+04  0.46999998093E+01 0.  1.
       -5    1    3    3    0  502  0.77378586531E+03 -0.34220160968E+03 -0.84358672888E+03  0.11947833135E+04  0.46999998093E+01 0. -1.
</event>
<event>
 5   0  0.5671132E-05  0.1702016E+04  0.7818609E-02  0.8760216E-01
        2   -1    0    0  501    0  0.00000000000E+00  0.00000000000E+00  0.18543597143E+04  0.18543597143E+04  0.25500000920E-02 0.  1.
       -2   -1    0    0    0  501  0.00000000000E+00  0.00000000000E+00 -0.39054682263E+03  0.39054682264E+03  0.25500000920E-02 0. -1.
    10030    2    1    2    0    0  0.00000000000E+00  0.00000000000E+00  0.14638128917E+04  0.22449065370E+04  0.17020156221E+04 0.  0.
        3    1    3    3  502    0 -0.50828615173E+03 -0.40121841527E+03  0.14601916872E+04  0.15973386624E+04  0.10100000352E+00 0.  1.
       -3    1    3    3    0  502  0.50828615173E+03  0.40121841527E+03  0.36212044383E+01  0.64756787452E+03  0.10100000352E+00 0. -1.
</event>
<event>
 5   0  0.2967704E-05  0.1696255E+04  0.7818609E-02  0.8763503E-01
        1   -1    0    0  501    0  0.00000000000E+00  0.00000000000E+00  0.80437037123E+03  0.80437037125E+03  0.50400001928E-02 0. -1.
       -1   -1    0    0    0  501  0.00000000000E+00  0.00000000000E+00 -0.89426460271E+03  0.89426460273E+03  0.50400001928E-02 0.  1.
    10030    2    1    2    0    0  0.00000000000E+00  0.00000000000E+00 -0.89894231481E+02  0.16986349740E+04  0.16962546395E+04 0.  0.
        2    1    3    3  502    0 -0.50905360385E+03  0.30366048702E+03  0.56251330385E+03  0.81716979875E+03  0.25500000920E-02 0. -1.
       -2    1    3    3    0  502  0.50905360385E+03 -0.30366048702E+03 -0.65240753533E+03  0.88146517523E+03  0.25500000920E-02 0.  1.
</event>
<event>
 5   0  0.2911632E-05  0.1710031E+04  0.7818609E-02  0.8755664E-01
        1   -1    0    0  501    0  0.00000000000E+00  0.00000000000E+00  0.11124651577E+04  0.11124651578E+04  0.50400001928E-02 0. -1.
       -1   -1    0    0    0  501  0.00000000000E+00  0.00000000000E+00 -0.65714573152E+03  0.65714573154E+03  0.50400001928E-02 0.  1.
    10030    2    1    2    0    0  0.00000000000E+00  0.00000000000E+00  0.45531942622E+03  0.17696108893E+04  0.17100312628E+04 0.  0.
        1    1    3    3  502    0  0.36257724775E+03  0.91041719368E+02  0.10234121780E+04  0.10895518993E+04  0.50400001928E-02 0. -1.
       -1    1    3    3    0  502 -0.36257724775E+03 -0.91041719368E+02 -0.56809275174E+03  0.68005898998E+03  0.50400001928E-02 0.  1.
</event>
<event>
 5   0  0.5652631E-05  0.1702076E+04  0.7818609E-02  0.8760182E-01
       -2   -1    0    0    0  501  0.00000000000E+00  0.00000000000E+00  0.49310335458E+03  0.49310335459E+03  0.25500000920E-02 0. -1.
        2   -1    0    0  501    0  0.00000000000E+00  0.00000000000E+00 -0.14687899699E+04  0.14687899699E+04  0.25500000920E-02 0.  1.
    10030    2    1    2    0    0  0.00000000000E+00  0.00000000000E+00 -0.97568661528E+03  0.19618933244E+04  0.17020755110E+04 0.  0.
        2    1    3    3  502    0 -0.43693578697E+03 -0.51084892684E+03 -0.10894168960E+04  0.12801205729E+04  0.25500000920E-02 0.  1.
       -2    1    3    3    0  502  0.43693578697E+03  0.51084892684E+03  0.11373028068E+03  0.68177275154E+03  0.25500000920E-02 0. -1.
</event>
<event>
 5   0  0.5859822E-05  0.1698869E+04  0.7818609E-02  0.8762010E-01
       -2   -1    0    0    0  501  0.00000000000E+00  0.00000000000E+00  0.59532809827E+03  0.59532809828E+03  0.25500000920E-02 0.  1.
        2   -1    0    0  501    0  0.00000000000E+00  0.00000000000E+00 -0.12120017971E+04  0.12120017971E+04  0.25500000920E-02 0. -1.
    10030    2    1    2    0    0  0.00000000000E+00  0.00000000000E+00 -0.61667369882E+03  0.18073298954E+04  0.16988687118E+04 0.  0.
        5    1    3    3  502    0  0.43527339644E+01 -0.12393973974E+03  0.58563117382E+03  0.59863675725E+03  0.46999998093E+01 0.  1.
       -5    1    3    3    0  502 -0.43527339644E+01  0.12393973974E+03 -0.12023048726E+04  0.12086931381E+04  0.46999998093E+01 0. -1.
</event>
<event>
 5   0  0.2967704E-05  0.1707536E+04  0.7818609E-02  0.8757078E-01
        1   -1    0    0  501    0  0.00000000000E+00  0.00000000000E+00  0.19258634947E+04  0.19258634947E+04  0.50400001928E-02 0.  1.
       -1   -1    0    0    0  501  0.00000000000E+00  0.00000000000E+00 -0.37848990788E+03  0.37848990791E+03  0.50400001928E-02 0. -1.
    10030    2    1    2    0    0  0.00000000000E+00  0.00000000000E+00  0.15473735868E+04  0.23043534026E+04  0.17075361158E+04 0.  0.
        2    1    3    3  502    0  0.68463747531E+03  0.23772220052E+03  0.13827367706E+04  0.15611538342E+04  0.25500000920E-02 0. -1.
       -2    1    3    3    0  502 -0.68463747531E+03 -0.23772220052E+03  0.16463681620E+03  0.74319956840E+03  0.25500000920E-02 0.  1.
</event>
<event>
 5   0  0.2987859E-05  0.1691417E+04  0.7818609E-02  0.8766275E-01
       -1   -1    0    0    0  501  0.00000000000E+00  0.00000000000E+00  0.58299891954E+03  0.58299891956E+03  0.50400001928E-02 0.  1.
        1   -1    0    0  501    0  0.00000000000E+00  0.00000000000E+00 -0.12268000082E+04  0.12268000082E+04  0.50400001928E-02 0. -1.
    10030    2    1    2    0    0  0.00000000000E+00  0.00000000000E+00 -0.64380108865E+03  0.18097989278E+04  0.16914172511E+04 0.  0.
        5    1    3    3  502    0 -0.74139323955E+03  0.39795410145E+03 -0.23130087055E+03  0.87267037605E+03  0.46999998093E+01 0.  1.
       -5    1    3    3    0  502  0.74139323955E+03 -0.39795410145E+03 -0.41250021810E+03  0.93712855172E+03  0.46999998093E+01 0. -1.
</event>
<event>
 5   0  0.5755321E-05  0.1699327E+04  0.7818609E-02  0.8761748E-01
       -2   -1    0    0    0  501  0.00000000000E+00  0.00000000000E+00  0.97064600757E+03  0.97064600757E+03  0.25500000920E-02 0.  1.
        2   -1    0    0  501    0  0.00000000000E+00  0.00000000000E+00 -0.74376025649E+03  0.74376025649E+03  0.25500000920E-02 0. -1.
    10030    2    1    2    0    0  0.00000000000E+00  0.00000000000E+00  0.22688575108E+03  0.17144062641E+04  0.16993268356E+04 0.  0.
        4    1    3    3  502    0  0.69266530569E+03  0.32230641895E+03  0.48857526814E+03  0.90684842115E+03  0.12699999809E+01 0.  1.
       -4    1    3    3    0  502 -0.69266530569E+03 -0.32230641895E+03 -0.26168951706E+03  0.80755784291E+03  0.12699999809E+01 0. -1.
</event>
<event>
 5   0  0.2993769E-05  0.1699233E+04  0.7818609E-02  0.8761802E-01
       -1   -1    0    0    0  501  0.00000000000E+00  0.00000000000E+00  0.91683969994E+03  0.91683969996E+03  0.50400001928E-02 0. -1.
        1   -1    0    0  501    0  0.00000000000E+00  0.00000000000E+00 -0.78732210027E+03  0.78732210029E+03  0.50400001928E-02 0.  1.
    10030    2    1    2    0    0  0.00000000000E+00  0.00000000000E+00  0.12951759967E+03  0.17041618002E+04  0.16992329542E+04 0.  0.
        3    1    3    3  502    0  0.21180367754E+03 -0.79978426957E+03  0.25853537687E+03  0.86680806812E+03  0.10100000352E+00 0. -1.
       -3    1    3    3    0  502 -0.21180367754E+03  0.79978426957E+03 -0.12901777720E+03  0.83735373212E+03  0.10100000352E+00 0.  1.
</event>
<event>
 5   0  0.2967704E-05  0.1695261E+04  0.7818609E-02  0.8764072E-01
        1   -1    0    0  501    0  0.00000000000E+00  0.00000000000E+00  0.20177924660E+04  0.20177924660E+04  0.50400001928E-02 0.  1.
       -1   -1    0    0    0  501  0.00000000000E+00  0.00000000000E+00 -0.35607092963E+03  0.35607092966E+03  0.50400001928E-02 0. -1.
    10030    2    1    2    0    0  0.00000000000E+00  0.00000000000E+00  0.16617215364E+04  0.23738633957E+04  0.16952607342E+04 0.  0.
        2    1    3    3  502    0  0.70147178850E+03 -0.20056559839E+03  0.14350807393E+04  0.16098900452E+04  0.25500000920E-02 0.  1.
       -2    1    3    3    0  502 -0.70147178850E+03  0.20056559839E+03  0.22664079706E+03  0.76397335046E+03  0.25500000920E-02 0. -1.
</event>
<event>
 5   0  0.5652631E-05  0.1700718E+04  0.7818609E-02  0.8760955E-01
       -2   -1    0    0    0  501  0.00000000000E+00  0.00000000000E+00  0.26051093664E+03  0.26051093665E+03  0.25500000920E-02 0.  1.
        2   -1    0    0  501    0  0.00000000000E+00  0.00000000000E+00 -0.27757384924E+04  0.27757384924E+04  0.25500000920E-02 0. -1.
    10030    2    1    2    0    0  0.00000000000E+00  0.00000000000E+00 -0.25152275557E+04  0.30362494290E+04  0.17007177714E+04 0.  0.
        2    1    3    3  502    0 -0.34698518076E+03 -0.66825249515E+03 -0.55214733617E+03  0.93371665605E+03  0.25500000920E-02 0.  1.
       -2    1    3    3    0  502  0.34698518076E+03  0.66825249515E+03 -0.19630802196E+04  0.21025327730E+04  0.25500000920E-02 0. -1.
</event>
<event>
 5   0  0.5859822E-05  0.1699125E+04  0.7818609E-02  0.8761863E-01
        2   -1    0    0  501    0  0.00000000000E+00  0.00000000000E+00  0.13638276310E+04  0.13638276310E+04  0.25500000920E-02 0.  1.
       -2   -1    0    0    0  501  0.00000000000E+00  0.00000000000E+00 -0.52921412875E+03  0.52921412876E+03  0.25500000920E-02 0. -1.
    10030    2    1    2    0    0  0.00000000000E+00  0.00000000000E+00  0.83461350225E+03  0.18930417598E+04  0.16991254827E+04 0.  0.
        5    1    3    3  502    0  0.63609898721E+03  0.17354299678E+03 -0.17955316292E+03  0.68337436415E+03  0.46999998093E+01 0. -1.
       -5    1    3    3    0  502 -0.63609898721E+03 -0.17354299678E+03  0.10141666652E+04  0.12096673956E+04  0.46999998093E+01 0.  1.
</event>
<event>
 5   0  0.2966258E-05  0.1701352E+04  0.7818609E-02  0.8760594E-01
       -1   -1    0    0    0  501  0.00000000000E+00  0.00000000000E+00  0.63241845327E+03  0.63241845329E+03  0.50400001928E-02 0.  1.
        1   -1    0    0  501    0  0.00000000000E+00  0.00000000000E+00 -0.11442573460E+04  0.11442573461E+04  0.50400001928E-02 0. -1.
    10030    2    1    2    0    0  0.00000000000E+00  0.00000000000E+00 -0.51183889278E+03  0.17766757993E+04  0.17013517696E+04 0.  0.
        4    1    3    3  502    0  0.27299253903E+03  0.50655673263E+03  0.39833507710E+03  0.69985505377E+03  0.12699999809E+01 0.  1.
       -4    1    3    3    0  502 -0.27299253903E+03 -0.50655673263E+03 -0.91017396988E+03  0.10768207456E+04  0.12699999809E+01 0. -1.
</event>
<event>
 5   0  0.5859822E-05  0.1699903E+04  0.7818609E-02  0.8761419E-01
       -2   -1    0    0    0  501  0.00000000000E+00  0.00000000000E+00  0.72557751449E+03  0.72557751450E+03  0.25500000920E-02 0.  1.
        2   -1    0    0  501    0  0.00000000000E+00  0.00000000000E+00 -0.99564531945E+03  0.99564531945E+03  0.25500000920E-02 0. -1.
    10030    2    1    2    0    0  0.00000000000E+00  0.00000000000E+00 -0.27006780495E+03  0.17212228339E+04  0.16999033575E+04 0.  0.
        5    1    3    3  502    0 -0.82058289867E+03 -0.14839126215E+03  0.31403745135E+02  0.83449658206E+03  0.46999998093E+01 0.  1.
       -5    1    3    3    0  502  0.82058289867E+03  0.14839126215E+03 -0.30147155009E+03  0.88672625188E+03  0.46999998093E+01 0. -1.
</event>
<event>
 5   0  0.2993769E-05  0.1695977E+04  0.7818609E-02  0.8763662E-01
       -1   -1    0    0    0  501  0.00000000000E+00  0.00000000000E+00  0.83044147824E+03  0.83044147825E+03  0.50400001928E-02 0. -1.
        1   -1    0    0  501    0  0.00000000000E+00  0.00000000000E+00 -0.86590664124E+03  0.86590664125E+03  0.50400001928E-02 0.  1.
    10030    2    1    2    0    0  0.00000000000E+00  0.00000000000E+00 -0.35465163001E+02  0.16963481195E+04  0.16959773480E+04 0.  0.
        3    1    3    3  502    0  0.39384688542E+03  0.19879352654E+03  0.70661531806E+03  0.83303028352E+03  0.10100000352E+00 0. -1.
       -3    1    3    3    0  502 -0.39384688542E+03 -0.19879352654E+03 -0.74208048106E+03  0.86331783598E+03  0.10100000352E+00 0.  1.
</event>
<event>
 5   0  0.5652631E-05  0.1695415E+04  0.7818609E-02  0.8763984E-01
       -2   -1    0    0    0  501  0.00000000000E+00  0.00000000000E+00  0.60082906349E+03  0.60082906349E+03  0.25500000920E-02 0.  1.
        2   -1    0    0  501    0  0.00000000000E+00  0.00000000000E+00 -0.11960268527E+04  0.11960268527E+04  0.25500000920E-02 0. -1.
    10030    2    1    2    0    0  0.00000000000E+00  0.00000000000E+00 -0.59519778919E+03  0.17968559162E+04  0.16954146322E+04 0.  0.
        2    1    3    3  502    0  0.38898893501E+03  0.34151279936E+03  0.41388309335E+03  0.66275379943E+03  0.25500000920E-02 0.  1.
       -2    1    3    3    0  502 -0.38898893501E+03 -0.34151279936E+03 -0.10090808825E+04  0.11341021167E+04  0.25500000920E-02 0. -1.
</event>
<event>
 5   0  0.5671132E-05  0.1696278E+04  0.7818609E-02  0.8763490E-01
       -2   -1    0    0    0  501  0.00000000000E+00  0.00000000000E+00  0.52999158756E+03  0.52999158757E+03  0.25500000920E-02 0.  1.
        2   -1    0    0  501    0  0.00000000000E+00  0.00000000000E+00 -0.13572671606E+04  0.13572671606E+04  0.25500000920E-02 0. -1.
    10030    2    1    2    0    0  0.00000000000E+00  0.00000000000E+00 -0.82727557308E+03  0.18872587482E+04  0.16962784880E+04 0.  0.
        3    1    3    3  502    0 -0.46442425000E+03 -0.15210094390E+03  0.35759952524E+03  0.60555925538E+03  0.10100000352E+00 0.  1.
       -3    1    3    3    0  502  0.46442425000E+03  0.15210094390E+03 -0.11848750983E+04  0.12816994928E+04  0.10100000352E+00 0. -1.
</event>
<event>
 5   0  0.5821584E-05  0.1702736E+04  0.7818609E-02  0.8759805E-01
        2   -1    0    0  501    0  0.00000000000E+00  0.00000000000E+00  0.69169297024E+03  0.69169297024E+03  0.25500000920E-02 0.  1.
       -2   -1    0    0    0  501  0.00000000000E+00  0.00000000000E+00 -0.10479035566E+04  0.10479035566E+04  0.25500000920E-02 0. -1.
    10030    2    1    2    0    0  0.00000000000E+00  0.00000000000E+00 -0.35621058634E+03  0.17395965268E+04  0.17027360613E+04 0.  0.
        1    1    3    3  502    0  0.53866083347E+03 -0.23605481615E+02 -0.85124235050E+03  0.10076339869E+04  0.50400001928E-02 0. -1.
       -1    1    3    3    0  502 -0.53866083347E+03  0.23605481615E+02  0.49503176416E+03  0.73196253991E+03  0.50400001928E-02 0.  1.
</event>
<event>
 5   0  0.2911632E-05  0.1700658E+04  0.7818609E-02  0.8760989E-01
       -1   -1    0    0    0  501  0.00000000000E+00  0.00000000000E+00  0.54638289132E+03  0.54638289134E+03  0.50400001928E-02 0. -1.
        1   -1    0    0  501    0  0.00000000000E+00  0.00000000000E+00 -0.13233560668E+04  0.13233560668E+04  0.50400001928E-02 0.  1.
    10030    2    1    2    0    0  0.00000000000E+00  0.00000000000E+00 -0.77697317547E+03  0.18697389581E+04  0.17006576540E+04 0.  0.
        1    1    3    3  502    0 -0.18018286630E+03  0.91471739980E+01  0.52509835393E+03  0.55522771673E+03  0.50400001928E-02 0. -1.
       -1    1    3    3    0  502  0.18018286630E+03 -0.91471739980E+01 -0.13020715294E+04  0.13145112414E+04  0.50400001928E-02 0.  1.
</event>
<event>
 5   0  0.5671132E-05  0.1695446E+04  0.7818609E-02  0.8763966E-01
       -2   -1    0    0    0  501  0.00000000000E+00  0.00000000000E+00  0.30613125299E+03  0.30613125300E+03  0.25500000920E-02 0.  1.
        2   -1    0    0  501    0  0.00000000000E+00  0.00000000000E+00 -0.23474707154E+04  0.23474707154E+04  0.25500000920E-02 0. -1.
    10030    2    1    2    0    0  0.00000000000E+00  0.00000000000E+00 -0.20413394624E+04  0.26536019684E+04  0.16954458428E+04 0.  0.
        3    1    3    3  502    0  0.56350159669E+03 -0.21810610962E+03 -0.90065799714E+02  0.61091421902E+03  0.10100000352E+00 0.  1.
       -3    1    3    3    0  502 -0.56350159669E+03  0.21810610962E+03 -0.19512736627E+04  0.20426877494E+04  0.10100000352E+00 0. -1.
</event>
<event>
 5   0  0.2966258E-05  0.1698585E+04  0.7818609E-02  0.8762172E-01
       -1   -1    0    0    0  501  0.00000000000E+00  0.00000000000E+00  0.87280680396E+03  0.87280680398E+03  0.50400001928E-02 0.  1.
        1   -1    0    0  501    0  0.00000000000E+00  0.00000000000E+00 -0.82641209110E+03  0.82641209111E+03  0.50400001928E-02 0. -1.
    10030    2    1    2    0    0  0.00000000000E+00  0.00000000000E+00  0.46394712865E+02  0.16992188951E+04  0.16985854068E+04 0.  0.
        4    1    3    3  502    0  0.38590448750E+03 -0.75573772919E+03  0.58348678673E+02  0.85056920353E+03  0.12699999809E+01 0.  1.
       -4    1    3    3    0  502 -0.38590448750E+03  0.75573772919E+03 -0.11953965808E+02  0.84864969156E+03  0.12699999809E+01 0. -1.
</event>
<event>
 5   0  0.5859822E-05  0.1697471E+04  0.7818609E-02  0.8762808E-01
       -2   -1    0    0    0  501  0.00000000000E+00  0.00000000000E+00  0.93658485108E+03  0.93658485108E+03  0.25500000920E-02 0.  1.
        2   -1    0    0  501    0  0.00000000000E+00  0.00000000000E+00 -0.76912580776E+03  0.76912580777E+03  0.25500000920E-02 0. -1.
    10030    2    1    2    0    0  0.00000000000E+00  0.00000000000E+00  0.16745904332E+03  0.17057106588E+04  0.16974705654E+04 0.  0.
        5    1    3    3  502    0  0.33675134271E+03  0.22595157222E+03  0.83291828782E+03  0.92640733157E+03  0.46999998093E+01 0.  1.
       -5    1    3    3    0  502 -0.33675134271E+03 -0.22595157222E+03 -0.66545924450E+03  0.77930332728E+03  0.46999998093E+01 0. -1.
</event>
<event>
 5   0  0.2966258E-05  0.1696698E+04  0.7818609E-02  0.8763250E-01
       -1   -1    0    0    0  501  0.00000000000E+00  0.00000000000E+00  0.97349564102E+03  0.97349564103E+03  0.50400001928E-02 0.  1.
        1   -1    0    0  501    0  0.00000000000E+00  0.00000000000E+00 -0.73929052457E+03  0.73929052458E+03  0.50400001928E-02 0. -1.
    10030    2    1    2    0    0  0.00000000000E+00  0.00000000000E+00  0.23420511645E+03  0.17127861656E+04  0.16966980912E+04 0.  0.
        4    1    3    3  502    0  0.15635845603E+03 -0.45479496944E+03  0.82259113491E+03  0.95286107022E+03  0.12699999809E+01 0.  1.
       -4    1    3    3    0  502 -0.15635845603E+03  0.45479496944E+03 -0.58838601846E+03  0.75992509540E+03  0.12699999809E+01 0. -1.
</event>
<event>
 5   0  0.2993769E-05  0.1699289E+04  0.7818609E-02  0.8761770E-01
       -1   -1    0    0    0  501  0.00000000000E+00  0.00000000000E+00  0.33020490042E+03  0.33020490046E+03  0.50400001928E-02 0. -1.
        1   -1    0    0  501    0  0.00000000000E+00  0.00000000000E+00 -0.21862065560E+04  0.21862065560E+04  0.50400001928E-02 0.  1.
    10030    2    1    2    0    0  0.00000000000E+00  0.00000000000E+00 -0.18560016556E+04  0.25164114565E+04  0.16992894023E+04 0.  0.
        3    1    3    3  502    0  0.31024696056E+03 -0.56031013352E+03 -0.17547610266E+04  0.18679900677E+04  0.10100000352E+00 0.  1.
       -3    1    3    3    0  502 -0.31024696056E+03  0.56031013352E+03 -0.10124062897E+03  0.64842138878E+03  0.10100000352E+00 0. -1.
</event>
<event>
 5   0  0.5821584E-05  0.1701390E+04  0.7818609E-02  0.8760572E-01
       -2   -1    0    0    0  501  0.00000000000E+00  0.00000000000E+00  0.15000571391E+04  0.15000571391E+04  0.25500000920E-02 0.  1.
        2   -1    0    0  501    0  0.00000000000E+00  0.00000000000E+00 -0.48243655429E+03  0.48243655429E+03  0.25500000920E-02 0. -1.
    10030    2    1    2    0    0  0.00000000000E+00  0.00000000000E+00  0.10176205848E+04  0.19824936933E+04  0.17013904871E+04 0.  0.
        1    1    3    3  502    0 -0.67207764382E+02  0.14866967330E+03 -0.46403499740E+03  0.49188213445E+03  0.50400001928E-02 0. -1.
       -1    1    3    3    0  502  0.67207764382E+02 -0.14866967330E+03  0.14816555822E+04  0.14906115589E+04  0.50400001928E-02 0.  1.
</event>
<event>
 5   0  0.5755321E-05  0.1709337E+04  0.7818609E-02  0.8756057E-01
       -2   -1    0    0    0  501  0.00000000000E+00  0.00000000000E+00  0.44651610836E+03  0.44651610837E+03  0.25500000920E-02 0. -1.
        2   -1    0    0  501    0  0.00000000000E+00  0.00000000000E+00 -0.16359050809E+04  0.16359050809E+04  0.25500000920E-02 0.  1.
    10030    2    1    2    0    0  0.00000000000E+00  0.00000000000E+00 -0.11893889725E+04  0.20824211892E+04  0.17093366788E+04 0.  0.
        4    1    3    3  502    0 -0.36926248726E+03 -0.15541861510E+03  0.32503065073E+03  0.51590335067E+03  0.12699999809E+01 0. -1.
       -4    1    3    3    0  502  0.36926248726E+03  0.15541861510E+03 -0.15144196232E+04  0.15665178386E+04  0.12699999809E+01 0.  1.
</event>
<event>
 5   0  0.5671132E-05  0.1700393E+04  0.7818609E-02  0.8761140E-01
       -2   -1    0    0    0  501  0.00000000000E+00  0.00000000000E+00  0.43246152706E+03  0.43246152706E+03  0.25500000920E-02 0. -1.
        2   -1    0    0  501    0  0.00000000000E+00  0.00000000000E+00 -0.16714411779E+04  0.16714411779E+04  0.25500000920E-02 0.  1.
    10030    2    1    2    0    0  0.00000000000E+00  0.00000000000E+00 -0.12389796509E+04  0.21039027050E+04  0.17003929007E+04 0.  0.
        3    1    3    3  502    0  0.50749295606E+02 -0.51649882245E+03  0.21372888659E+03  0.56127227952E+03  0.10100000352E+00 0. -1.
       -3    1    3    3    0  502 -0.50749295606E+02  0.51649882245E+03 -0.14527085374E+04  0.15426304255E+04  0.10100000352E+00 0.  1.
</event>
<event>
 5   0  0.2966258E-05  0.1700258E+04  0.7818609E-02  0.8761217E-01
       -1   -1    0    0    0  501  0.00000000000E+00  0.00000000000E+00  0.51916988231E+03  0.51916988234E+03  0.50400001928E-02 0. -1.
        1   -1    0    0  501    0  0.00000000000E+00  0.00000000000E+00 -0.13920674226E+04  0.13920674226E+04  0.50400001928E-02 0.  1.
    10030    2    1    2    0    0  0.00000000000E+00  0.00000000000E+00 -0.87289754025E+03  0.19112373049E+04  0.17002581921E+04 0.  0.
        4    1    3    3  502    0  0.40828537370E+03  0.52059600217E+03 -0.10365475154E+04  0.12296948843E+04  0.12699999809E+01 0. -1.
       -4    1    3    3    0  502 -0.40828537370E+03 -0.52059600217E+03  0.16364997514E+03  0.68154242063E+03  0.12699999809E+01 0.  1.
</event>
<event>
 5   0  0.2967704E-05  0.1700003E+04  0.7818609E-02  0.8761363E-01
       -1   -1    0    0    0  501  0.00000000000E+00  0.00000000000E+00  0.46283292659E+03  0.46283292661E+03  0.50400001928E-02 0. -1.
        1   -1    0    0  501    0  0.00000000000E+00  0.00000000000E+00 -0.15610434571E+04  0.15610434571E+04  0.50400001928E-02 0.  1.
    10030    2    1    2    0    0  0.00000000000E+00  0.00000000000E+00 -0.10982105305E+04  0.20238763837E+04  0.17000027198E+04 0.  0.
        2    1    3    3  502    0  0.56777780832E+03  0.27296308120E+03 -0.12284514205E+04  0.13805699460E+04  0.25500000920E-02 0.  1.
       -2    1    3    3    0  502 -0.56777780832E+03 -0.27296308120E+03  0.13024089001E+03  0.64330643768E+03  0.25500000920E-02 0. -1.
</event>
<event>
 5   0  0.5859822E-05  0.1686166E+04  0.7818609E-02  0.8769294E-01
       -2   -1    0    0    0  501  0.00000000000E+00  0.00000000000E+00  0.45230723794E+03  0.45230723794E+03  0.25500000920E-02 0. -1.
        2   -1    0    0  501    0  0.00000000000E+00  0.00000000000E+00 -0.15714739937E+04  0.15714739937E+04  0.25500000920E-02 0.  1.
    10030    2    1    2    0    0  0.00000000000E+00  0.00000000000E+00 -0.11191667558E+04  0.20237812317E+04  0.16861661384E+04 0.  0.
        5    1    3    3  502    0  0.38641582508E+03  0.60572843037E+03 -0.30199345399E+02  0.71913712996E+03  0.46999998093E+01 0. -1.
       -5    1    3    3    0  502 -0.38641582508E+03 -0.60572843037E+03 -0.10889674104E+04  0.13046441017E+04  0.46999998093E+01 0.  1.
</event>
<event>
 5   0  0.2911632E-05  0.1702067E+04  0.7818609E-02  0.8760186E-01
        1   -1    0    0  501    0  0.00000000000E+00  0.00000000000E+00  0.13322071721E+04  0.13322071721E+04  0.50400001928E-02 0. -1.
       -1   -1    0    0    0  501  0.00000000000E+00  0.00000000000E+00 -0.54365282467E+03  0.54365282469E+03  0.50400001928E-02 0.  1.
    10030    2    1    2    0    0  0.00000000000E+00  0.00000000000E+00  0.78855434740E+03  0.18758599968E+04  0.17020672045E+04 0.  0.
        1    1    3    3  502    0  0.48571923152E+03 -0.93756444379E+02 -0.36892269743E+03  0.61710404263E+03  0.50400001928E-02 0.  1.
       -1    1    3    3    0  502 -0.48571923152E+03  0.93756444379E+02  0.11574770448E+04  0.12587559541E+04  0.50400001928E-02 0. -1.
</event>
<event>
 5   0  0.5671132E-05  0.1683194E+04  0.7818609E-02  0.8771008E-01
        2   -1    0    0  501    0  0.00000000000E+00  0.00000000000E+00  0.13660138778E+04  0.13660138778E+04  0.25500000920E-02 0.  1.
       -2   -1    0    0    0  501  0.00000000000E+00  0.00000000000E+00 -0.51850543927E+03  0.51850543928E+03  0.25500000920E-02 0. -1.
    10030    2    1    2    0    0  0.00000000000E+00  0.00000000000E+00  0.84750843855E+03  0.18845193171E+04  0.16831941371E+04 0.  0.
        3    1    3    3  502    0  0.91434762822E+02  0.78475059913E+03  0.99083442460E+02  0.79624830138E+03  0.10100000352E+00 0. -1.
       -3    1    3    3    0  502 -0.91434762822E+02 -0.78475059913E+03  0.74842499609E+03  0.10882710157E+04  0.10100000352E+00 0.  1.
</event>
<event>
 5   0  0.2967704E-05  0.1698804E+04  0.7818609E-02  0.8762047E-01
        1   -1    0    0  501    0  0.00000000000E+00  0.00000000000E+00  0.19395079303E+04  0.19395079303E+04  0.50400001928E-02 0. -1.
       -1   -1    0    0    0  501  0.00000000000E+00  0.00000000000E+00 -0.37199326594E+03  0.37199326597E+03  0.50400001928E-02 0.  1.
    10030    2    1    2    0    0  0.00000000000E+00  0.00000000000E+00  0.15675146644E+04  0.23115011963E+04  0.16988041551E+04 0.  0.
        2    1    3    3  502    0 -0.16403628037E+03  0.80559913427E+03  0.10742710608E+04  0.13527587288E+04  0.25500000920E-02 0. -1.
       -2    1    3    3    0  502  0.16403628037E+03 -0.80559913427E+03  0.49324360361E+03  0.95874246746E+03  0.25500000920E-02 0.  1.
</event>
<event>
 5   0  0.2966258E-05  0.1699740E+04  0.7818609E-02  0.8761513E-01
        1   -1    0    0  501    0  0.00000000000E+00  0.00000000000E+00  0.15175090094E+04  0.15175090094E+04  0.50400001928E-02 0. -1.
       -1   -1    0    0    0  501  0.00000000000E+00  0.00000000000E+00 -0.47596366638E+03  0.47596366640E+03  0.50400001928E-02 0.  1.
    10030    2    1    2    0    0  0.00000000000E+00  0.00000000000E+00  0.10415453430E+04  0.19934726758E+04  0.16997401588E+04 0.  0.
        4    1    3    3  502    0 -0.98395543298E+02 -0.13628701475E+03 -0.45627168042E+03  0.48625229314E+03  0.12699999809E+01 0.  1.
       -4    1    3    3    0  502  0.98395543298E+02  0.13628701475E+03  0.14978170234E+04  0.15072203826E+04  0.12699999809E+01 0. -1.
</event>
<event>
 5   0  0.2098250E-05  0.1695253E+04  0.7818609E-02  0.8764076E-01
       -3   -1    0    0    0  501  0.00000000000E+00  0.00000000000E+00  0.97563600557E+03  0.97563601080E+03  0.10100000352E+00 0. -1.
        3   -1    0    0  501    0  0.00000000000E+00  0.00000000000E+00 -0.73641265311E+03  0.73641266004E+03  0.10100000352E+00 0.  1.
    10030    2    1    2    0    0  0.00000000000E+00  0.00000000000E+00  0.23922335246E+03  0.17120486708E+04  0.16952530309E+04 0.  0.
        4    1    3    3  502    0 -0.20799537969E+03  0.72796277993E+03  0.50454040242E+03  0.90981015465E+03  0.12699999809E+01 0.  1.
       -4    1    3    3    0  502  0.20799537969E+03 -0.72796277993E+03 -0.26531704996E+03  0.80223851618E+03  0.12699999809E+01 0. -1.
</event>
<event>
 5   0  0.5755321E-05  0.1707989E+04  0.7818609E-02  0.8756821E-01
       -2   -1    0    0    0  501  0.00000000000E+00  0.00000000000E+00  0.65779888189E+03  0.65779888189E+03  0.25500000920E-02 0. -1.
        2   -1    0    0  501    0  0.00000000000E+00  0.00000000000E+00 -0.11087081209E+04  0.11087081209E+04  0.25500000920E-02 0.  1.
    10030    2    1    2    0    0  0.00000000000E+00  0.00000000000E+00 -0.45090923901E+03  0.17665070028E+04  0.17079894171E+04 0.  0.
        4    1    3    3  502    0  0.26140218081E+03 -0.79809707524E+03 -0.38573274920E+03  0.92416524948E+03  0.12699999809E+01 0. -1.
       -4    1    3    3    0  502 -0.26140218081E+03  0.79809707524E+03 -0.65176489803E+02  0.84234175331E+03  0.12699999809E+01 0.  1.
</event>
<event>
 5   0  0.2987859E-05  0.1680629E+04  0.7818609E-02  0.8772490E-01
       -1   -1    0    0    0  501  0.00000000000E+00  0.00000000000E+00  0.41422144012E+03  0.41422144015E+03  0.50400001928E-02 0.  1.
        1   -1    0    0  501    0  0.00000000000E+00  0.00000000000E+00 -0.17047134066E+04  0.17047134066E+04  0.50400001928E-02 0. -1.
    10030    2    1    2    0    0  0.00000000000E+00  0.00000000000E+00 -0.12904919665E+04  0.21189348467E+04  0.16806294562E+04 0.  0.
        5    1    3    3  502    0 -0.48683681668E+03  0.38269311136E+03  0.70908177177E+02  0.62330904305E+03  0.46999998093E+01 0.  1.
       -5    1    3    3    0  502  0.48683681668E+03 -0.38269311136E+03 -0.13614001436E+04  0.14956258037E+04  0.46999998093E+01 0. -1.
</event>
<event>
 5   0  0.5652631E-05  0.1695794E+04  0.7818609E-02  0.8763767E-01
       -2   -1    0    0    0  501  0.00000000000E+00  0.00000000000E+00  0.68682513976E+03  0.68682513976E+03  0.25500000920E-02 0.  1.
        2   -1    0    0  501    0  0.00000000000E+00  0.00000000000E+00 -0.10467434158E+04  0.10467434158E+04  0.25500000920E-02 0. -1.
    10030    2    1    2    0    0  0.00000000000E+00  0.00000000000E+00 -0.35991827599E+03  0.17335685555E+04  0.16957944366E+04 0.  0.
        2    1    3    3  502    0 -0.67940680927E+03  0.15219583791E+03 -0.67465214101E+03  0.96949094732E+03  0.25500000920E-02 0. -1.
       -2    1    3    3    0  502  0.67940680927E+03 -0.15219583791E+03  0.31473386502E+03  0.76407760820E+03  0.25500000920E-02 0.  1.
</event>
<event>
 5   0  0.2966258E-05  0.1697984E+04  0.7818609E-02  0.8762515E-01
       -1   -1    0    0    0  501  0.00000000000E+00  0.00000000000E+00  0.61425047344E+03  0.61425047346E+03  0.50400001928E-02 0. -1.
        1   -1    0    0  501    0  0.00000000000E+00  0.00000000000E+00 -0.11734420156E+04  0.11734420156E+04  0.50400001928E-02 0.  1.
    10030    2    1    2    0    0  0.00000000000E+00  0.00000000000E+00 -0.55919154212E+03  0.17876924890E+04  0.16979838793E+04 0.  0.
        4    1    3    3  502    0 -0.48812546140E+02  0.37976072670E+03  0.51818783671E+03  0.64429893778E+03  0.12699999809E+01 0. -1.
       -4    1    3    3    0  502  0.48812546140E+02 -0.37976072670E+03 -0.10773793788E+04  0.11433935512E+04  0.12699999809E+01 0.  1.
</event>
<event>
 5   0  0.2911632E-05  0.1697037E+04  0.7818609E-02  0.8763056E-01
        1   -1    0    0  501    0  0.00000000000E+00  0.00000000000E+00  0.73107181729E+03  0.73107181731E+03  0.50400001928E-02 0. -1.
       -1   -1    0    0    0  501  0.00000000000E+00  0.00000000000E+00 -0.98483327246E+03  0.98483327248E+03  0.50400001928E-02 0.  1.
    10030    2    1    2    0    0  0.00000000000E+00  0.00000000000E+00 -0.25376145517E+03  0.17159050898E+04  0.16970372421E+04 0.  0.
        1    1    3    3  502    0  0.47190934161E+03  0.59046967219E+03 -0.51669395716E+03  0.91560117183E+03  0.50400001928E-02 0. -1.
       -1    1    3    3    0  502 -0.47190934161E+03 -0.59046967219E+03  0.26293250198E+03  0.80030391795E+03  0.50400001928E-02 0.  1.
</event>
<event>
 5   0  0.5652631E-05  0.1700436E+04  0.7818609E-02  0.8761115E-01
        2   -1    0    0  501    0  0.00000000000E+00  0.00000000000E+00  0.16615326625E+04  0.16615326625E+04  0.25500000920E-02 0. -1.
       -2   -1    0    0    0  501  0.00000000000E+00  0.00000000000E+00 -0.43506277961E+03  0.43506277962E+03  0.25500000920E-02 0.  1.
    10030    2    1    2    0    0  0.00000000000E+00  0.00000000000E+00  0.12264698829E+04  0.20965954421E+04  0.17004364364E+04 0.  0.
        2    1    3    3  502    0  0.11805080208E+03 -0.79790311538E+02  0.16467066261E+04  0.16528597031E+04  0.25500000920E-02 0. -1.
       -2    1    3    3    0  502 -0.11805080208E+03  0.79790311538E+02 -0.42023674324E+03  0.44373573899E+03  0.25500000920E-02 0.  1.
</event>
<event>
 5   0  0.5821584E-05  0.1704053E+04  0.7818609E-02  0.8759056E-01
       -2   -1    0    0    0  501  0.00000000000E+00  0.00000000000E+00  0.83053659841E+03  0.83053659842E+03  0.25500000920E-02 0.  1.
        2   -1    0    0  501    0  0.00000000000E+00  0.00000000000E+00 -0.87407276449E+03  0.87407276449E+03  0.25500000920E-02 0. -1.
    10030    2    1    2    0    0  0.00000000000E+00  0.00000000000E+00 -0.43536166074E+02  0.17046093629E+04  0.17040533097E+04 0.  0.
        1    1    3    3  502    0  0.19048304842E+03 -0.26706120913E+03 -0.80837316276E+03  0.87239477959E+03  0.50400001928E-02 0. -1.
       -1    1    3    3    0  502 -0.19048304842E+03  0.26706120913E+03  0.76483699669E+03  0.83221458332E+03  0.50400001928E-02 0.  1.
</event>
<event>
 5   0  0.2967704E-05  0.1697918E+04  0.7818609E-02  0.8762553E-01
       -1   -1    0    0    0  501  0.00000000000E+00  0.00000000000E+00  0.79395488914E+03  0.79395488915E+03  0.50400001928E-02 0.  1.
        1   -1    0    0  501    0  0.00000000000E+00  0.00000000000E+00 -0.90777396134E+03  0.90777396135E+03  0.50400001928E-02 0. -1.
    10030    2    1    2    0    0  0.00000000000E+00  0.00000000000E+00 -0.11381907220E+03  0.17017288505E+04  0.16979182252E+04 0.  0.
        2    1    3    3  502    0  0.21536431435E+03  0.92238795856E+02  0.76091308089E+03  0.79616486988E+03  0.25500000920E-02 0.  1.
       -2    1    3    3    0  502 -0.21536431435E+03 -0.92238795856E+02 -0.87473215309E+03  0.90556398063E+03  0.25500000920E-02 0. -1.
</event>
<event>
 5   0  0.2911632E-05  0.1700985E+04  0.7818609E-02  0.8760803E-01
        1   -1    0    0  501    0  0.00000000000E+00  0.00000000000E+00  0.17615389819E+04  0.17615389819E+04  0.50400001928E-02 0.  1.
       -1   -1    0    0    0  501  0.00000000000E+00  0.00000000000E+00 -0.41062803394E+03  0.41062803397E+03  0.50400001928E-02 0. -1.
    10030    2    1    2    0    0  0.00000000000E+00  0.00000000000E+00  0.13509109480E+04  0.21721670159E+04  0.17009847605E+04 0.  0.
        1    1    3    3  502    0  0.14796381910E+03  0.83438311418E+03  0.58293806501E+03  0.10285452157E+04  0.50400001928E-02 0. -1.
       -1    1    3    3    0  502 -0.14796381910E+03 -0.83438311418E+03  0.76797288297E+03  0.11436218002E+04  0.50400001928E-02 0.  1.
</event>
<event>
 5   0  0.2966258E-05  0.1697485E+04  0.7818609E-02  0.8762800E-01
        1   -1    0    0  501    0  0.00000000000E+00  0.00000000000E+00  0.10211256390E+04  0.10211256390E+04  0.50400001928E-02 0. -1.
       -1   -1    0    0    0  501  0.00000000000E+00  0.00000000000E+00 -0.70546072868E+03  0.70546072870E+03  0.50400001928E-02 0.  1.
    10030    2    1    2    0    0  0.00000000000E+00  0.00000000000E+00  0.31566491035E+03  0.17265863677E+04  0.16974852428E+04 0.  0.
        4    1    3    3  502    0 -0.56165694496E+03 -0.22823870286E+03 -0.44632947510E+03  0.75283666393E+03  0.12699999809E+01 0.  1.
       -4    1    3    3    0  502  0.56165694496E+03  0.22823870286E+03  0.76199438546E+03  0.97374970381E+03  0.12699999809E+01 0. -1.
</event>
<event>
 5   0  0.5755321E-05  0.1698540E+04  0.7818609E-02  0.8762197E-01
       -2   -1    0    0    0  501  0.00000000000E+00  0.00000000000E+00  0.57121567552E+03  0.57121567553E+03  0.25500000920E-02 0.  1.
        2   -1    0    0  501    0  0.00000000000E+00  0.00000000000E+00 -0.12626749983E+04  0.12626749983E+04  0.25500000920E-02 0. -1.
    10030    2    1    2    0    0  0.00000000000E+00  0.00000000000E+00 -0.69145932280E+03  0.18338906739E+04  0.16985402582E+04 0.  0.
        4    1    3    3  502    0  0.46911629548E+02 -0.66985066541E+03 -0.90712244740E+03  0.11286156841E+04  0.12699999809E+01 0.  1.
       -4    1    3    3    0  502 -0.46911629548E+02  0.66985066541E+03  0.21566312461E+03  0.70527498974E+03  0.12699999809E+01 0. -1.
</event>
<event>
 5   0  0.2993769E-05  0.1696591E+04  0.7818609E-02  0.8763311E-01
        1   -1    0    0  501    0  0.00000000000E+00  0.00000000000E+00  0.78793313055E+03  0.78793313057E+03  0.50400001928E-02 0. -1.
       -1   -1    0    0    0  501  0.00000000000E+00  0.00000000000E+00 -0.91328234535E+03  0.91328234536E+03  0.50400001928E-02 0.  1.
    10030    2    1    2    0    0  0.00000000000E+00  0.00000000000E+00 -0.12534921480E+03  0.17012154759E+04  0.16965911911E+04 0.  0.
        3    1    3    3  502    0 -0.35084676743E+03  0.76362831744E+03 -0.17867807131E+03  0.85915512266E+03  0.10100000352E+00 0. -1.
       -3    1    3    3    0  502  0.35084676743E+03 -0.76362831744E+03  0.53328856514E+02  0.84206035327E+03  0.10100000352E+00 0.  1.
</event>
<event>
 5   0  0.2911632E-05  0.1696453E+04  0.7818609E-02  0.8763390E-01
       -1   -1    0    0    0  501  0.00000000000E+00  0.00000000000E+00  0.54840824171E+03  0.54840824173E+03  0.50400001928E-02 0.  1.
        1   -1    0    0  501    0  0.00000000000E+00  0.00000000000E+00 -0.13119577104E+04  0.13119577104E+04  0.50400001928E-02 0. -1.
    10030    2    1    2    0    0  0.00000000000E+00  0.00000000000E+00 -0.76354946872E+03  0.18603659522E+04  0.16964532663E+04 0.  0.
        1    1    3    3  502    0 -0.52698554910E+03  0.66301200800E+03 -0.33045886236E+03  0.90912141733E+03  0.50400001928E-02 0. -1.
       -1    1    3    3    0  502  0.52698554910E+03 -0.66301200800E+03 -0.43309060636E+03  0.95124453484E+03  0.50400001928E-02 0.  1.
</event>
<event>
 5   0  0.2911632E-05  0.1697090E+04  0.7818609E-02  0.8763026E-01
        1   -1    0    0  501    0  0.00000000000E+00  0.00000000000E+00  0.10649532012E+04  0.10649532013E+04  0.50400001928E-02 0. -1.
       -1   -1    0    0    0  501  0.00000000000E+00  0.00000000000E+00 -0.67611327304E+03  0.67611327306E+03  0.50400001928E-02 0.  1.
    10030    2    1    2    0    0  0.00000000000E+00  0.00000000000E+00  0.38883992820E+03  0.17410664743E+04  0.16970904449E+04 0.  0.
        1    1    3    3  502    0  0.35785785309E+02 -0.42478517327E+03 -0.55828528751E+03  0.70242830819E+03  0.50400001928E-02 0.  1.
       -1    1    3    3    0  502 -0.35785785309E+02  0.42478517327E+03  0.94712521571E+03  0.10386381661E+04  0.50400001928E-02 0. -1.
</event>
<event>
 5   0  0.5755321E-05  0.1698115E+04  0.7818609E-02  0.8762440E-01
       -2   -1    0    0    0  501  0.00000000000E+00  0.00000000000E+00  0.36752061563E+03  0.36752061564E+03  0.25500000920E-02 0.  1.
        2   -1    0    0  501    0  0.00000000000E+00  0.00000000000E+00 -0.19615180217E+04  0.19615180217E+04  0.25500000920E-02 0. -1.
    10030    2    1    2    0    0  0.00000000000E+00  0.00000000000E+00 -0.15939974061E+04  0.23290386373E+04  0.16981146144E+04 0.  0.
        4    1    3    3  502    0 -0.32918117823E+03  0.10633367351E+03 -0.18604800341E+04  0.18923674771E+04  0.12699999809E+01 0. -1.
       -4    1    3    3    0  502  0.32918117823E+03 -0.10633367351E+03  0.26648262804E+03  0.43667116023E+03  0.12699999809E+01 0.  1.
</event>
<event>
 5   0  0.5671132E-05  0.1696112E+04  0.7818609E-02  0.8763585E-01
        2   -1    0    0  501    0  0.00000000000E+00  0.00000000000E+00  0.44006618661E+03  0.44006618662E+03  0.25500000920E-02 0.  1.
       -2   -1    0    0    0  501  0.00000000000E+00  0.00000000000E+00 -0.16342964455E+04  0.16342964455E+04  0.25500000920E-02 0. -1.
    10030    2    1    2    0    0  0.00000000000E+00  0.00000000000E+00 -0.11942302589E+04  0.20743626321E+04  0.16961115583E+04 0.  0.
        3    1    3    3  502    0  0.72044251386E+03 -0.42882657154E+03 -0.44112036212E+03  0.94737364768E+03  0.10100000352E+00 0.  1.
       -3    1    3    3    0  502 -0.72044251386E+03  0.42882657154E+03 -0.75310989676E+03  0.11269889844E+04  0.10100000352E+00 0. -1.
</event>
<event>
 5   0  0.5859822E-05  0.1701388E+04  0.7818609E-02  0.8760573E-01
        2   -1    0    0  501    0  0.00000000000E+00  0.00000000000E+00  0.11400186123E+04  0.11400186123E+04  0.25500000920E-02 0.  1.
       -2   -1    0    0    0  501  0.00000000000E+00  0.00000000000E+00 -0.63479716825E+03  0.63479716826E+03  0.25500000920E-02 0. -1.
    10030    2    1    2    0    0  0.00000000000E+00  0.00000000000E+00  0.50522144406E+03  0.17748157806E+04  0.17013883588E+04 0.  0.
        5    1    3    3  502    0 -0.45892589379E+03 -0.24573401797E+03  0.95444735753E+03  0.10871936497E+04  0.46999998093E+01 0.  1.
       -5    1    3    3    0  502  0.45892589379E+03  0.24573401797E+03 -0.44922591347E+03  0.68762213090E+03  0.46999998093E+01 0. -1.
</event>
<event>
 5   0  0.5671132E-05  0.1693744E+04  0.7818609E-02  0.8764941E-01
        2   -1    0    0  501    0  0.00000000000E+00  0.00000000000E+00  0.23363718695E+04  0.23363718695E+04  0.25500000920E-02 0.  1.
       -2   -1    0    0    0  501  0.00000000000E+00  0.00000000000E+00 -0.30696820714E+03  0.30696820715E+03  0.25500000920E-02 0. -1.
    10030    2    1    2    0    0  0.00000000000E+00  0.00000000000E+00  0.20294036624E+04  0.26433400767E+04  0.16937436453E+04 0.  0.
        3    1    3    3  502    0  0.20752498279E+03  0.95315793500E+02  0.22874113609E+04  0.22987828221E+04  0.10100000352E+00 0.  1.
       -3    1    3    3    0  502 -0.20752498279E+03 -0.95315793500E+02 -0.25800769853E+03  0.34455725457E+03  0.10100000352E+00 0. -1.
</event>
<event>
 5   0  0.2987859E-05  0.1700531E+04  0.7818609E-02  0.8761061E-01
       -1   -1    0    0    0  501  0.00000000000E+00  0.00000000000E+00  0.55729130735E+03  0.55729130737E+03  0.50400001928E-02 0.  1.
        1   -1    0    0  501    0  0.00000000000E+00  0.00000000000E+00 -0.12972596513E+04  0.12972596513E+04  0.50400001928E-02 0. -1.
    10030    2    1    2    0    0  0.00000000000E+00  0.00000000000E+00 -0.73996834391E+03  0.18545509586E+04  0.17005311253E+04 0.  0.
        5    1    3    3  502    0  0.61182585614E+03  0.58639565459E+03 -0.44505713693E+03  0.95722969401E+03  0.46999998093E+01 0. -1.
       -5    1    3    3    0  502 -0.61182585614E+03 -0.58639565459E+03 -0.29491120698E+03  0.89732126464E+03  0.46999998093E+01 0.  1.
</event>
<event>
 5   0  0.5859822E-05  0.1699617E+04  0.7818609E-02  0.8761583E-01
       -2   -1    0    0    0  501  0.00000000000E+00  0.00000000000E+00  0.52715313493E+03  0.52715313494E+03  0.25500000920E-02 0. -1.
        2   -1    0    0  501    0  0.00000000000E+00  0.00000000000E+00 -0.13699519670E+04  0.13699519670E+04  0.25500000920E-02 0.  1.
    10030    2    1    2    0    0  0.00000000000E+00  0.00000000000E+00 -0.84279883206E+03  0.18971051019E+04  0.16996169852E+04 0.  0.
        5    1    3    3  502    0 -0.71431610859E+03 -0.32576370723E+02  0.91132133233E+02  0.72085773813E+03  0.46999998093E+01 0. -1.
       -5    1    3    3    0  502  0.71431610859E+03  0.32576370723E+02 -0.93393096529E+03  0.11762473638E+04  0.46999998093E+01 0.  1.
</event>
<event>
 5   0  0.5652631E-05  0.1701572E+04  0.7818609E-02  0.8760468E-01
       -2   -1    0    0    0  501  0.00000000000E+00  0.00000000000E+00  0.54220925599E+03  0.54220925600E+03  0.25500000920E-02 0. -1.
        2   -1    0    0  501    0  0.00000000000E+00  0.00000000000E+00 -0.13349773749E+04  0.13349773749E+04  0.25500000920E-02 0.  1.
    10030    2    1    2    0    0  0.00000000000E+00  0.00000000000E+00 -0.79276811888E+03  0.18771866309E+04  0.17015723190E+04 0.  0.
        2    1    3    3  502    0  0.47985640845E+03  0.42727662001E+03 -0.10116231797E+04  0.11984193509E+04  0.25500000920E-02 0.  1.
       -2    1    3    3    0  502 -0.47985640845E+03 -0.42727662001E+03  0.21885506085E+03  0.67876728001E+03  0.25500000920E-02 0. -1.
</event>
<event>
 5   0  0.5859822E-05  0.1706576E+04  0.7818609E-02  0.8757623E-01
       -2   -1    0    0    0  501  0.00000000000E+00  0.00000000000E+00  0.35483617433E+03  0.35483617434E+03  0.25500000920E-02 0. -1.
        2   -1    0    0  501    0  0.00000000000E+00  0.00000000000E+00 -0.20519337047E+04  0.20519337047E+04  0.25500000920E-02 0.  1.
    10030    2    1    2    0    0  0.00000000000E+00  0.00000000000E+00 -0.16970975303E+04  0.24067698790E+04  0.17065758767E+04 0.  0.
        5    1    3    3  502    0 -0.55719170351E+03 -0.41939583921E+03 -0.15517448237E+03  0.71446250733E+03  0.46999998093E+01 0. -1.
       -5    1    3    3    0  502  0.55719170351E+03  0.41939583921E+03 -0.15419230480E+04  0.16923073717E+04  0.46999998093E+01 0.  1.
</event>
<event>
 5   0  0.2911632E-05  0.1699058E+04  0.7818609E-02  0.8761902E-01
       -1   -1    0    0    0  501  0.00000000000E+00  0.00000000000E+00  0.61951734473E+03  0.61951734475E+03  0.50400001928E-02 0.  1.
        1   -1    0    0  501    0  0.00000000000E+00  0.00000000000E+00 -0.11649380605E+04  0.11649380605E+04  0.50400001928E-02 0. -1.
    10030    2    1    2    0    0  0.00000000000E+00  0.00000000000E+00 -0.54542071574E+03  0.17844554052E+04  0.16990577789E+04 0.  0.
        1    1    3    3  502    0  0.34504013232E+03 -0.36775738526E+03 -0.99074010667E+03  0.11116942684E+04  0.50400001928E-02 0. -1.
       -1    1    3    3    0  502 -0.34504013232E+03  0.36775738526E+03  0.44531939093E+03  0.67276113687E+03  0.50400001928E-02 0.  1.
</event>
<event>
 5   0  0.5652631E-05  0.1711663E+04  0.7818609E-02  0.8754740E-01
        2   -1    0    0  501    0  0.00000000000E+00  0.00000000000E+00  0.60721869856E+03  0.60721869856E+03  0.25500000920E-02 0. -1.
       -2   -1    0    0    0  501  0.00000000000E+00  0.00000000000E+00 -0.12062341632E+04  0.12062341632E+04  0.25500000920E-02 0.  1.
    10030    2    1    2    0    0  0.00000000000E+00  0.00000000000E+00 -0.59901546468E+03  0.18134528618E+04  0.17116634468E+04 0.  0.
        2    1    3    3  502    0  0.68963288649E+03 -0.41846310515E+03  0.34020609939E+01  0.80666998365E+03  0.25500000920E-02 0. -1.
       -2    1    3    3    0  502 -0.68963288649E+03  0.41846310515E+03 -0.60241752567E+03  0.10067828782E+04  0.25500000920E-02 0.  1.
</event>
<event>
 5   0  0.2987859E-05  0.1699129E+04  0.7818609E-02  0.8761861E-01
        1   -1    0    0  501    0  0.00000000000E+00  0.00000000000E+00  0.15850300228E+04  0.15850300228E+04  0.50400001928E-02 0. -1.
       -1   -1    0    0    0  501  0.00000000000E+00  0.00000000000E+00 -0.45536036271E+03  0.45536036274E+03  0.50400001928E-02 0.  1.
    10030    2    1    2    0    0  0.00000000000E+00  0.00000000000E+00  0.11296696601E+04  0.20403903855E+04  0.16991290076E+04 0.  0.
        5    1    3    3  502    0 -0.57976659971E+03  0.55923450362E+03  0.24068407142E+03  0.84072793008E+03  0.46999998093E+01 0.  1.
       -5    1    3    3    0  502  0.57976659971E+03 -0.55923450362E+03  0.88898558863E+03  0.11996624554E+04  0.46999998093E+01 0. -1.
</event>
<event>
 5   0  0.2993769E-05  0.1700042E+04  0.7818609E-02  0.8761340E-01
       -1   -1    0    0    0  501  0.00000000000E+00  0.00000000000E+00  0.73172954988E+03  0.73172954989E+03  0.50400001928E-02 0. -1.
        1   -1    0    0  501    0  0.00000000000E+00  0.00000000000E+00 -0.98743579387E+03  0.98743579389E+03  0.50400001928E-02 0.  1.
    10030    2    1    2    0    0  0.00000000000E+00  0.00000000000E+00 -0.25570624400E+03  0.17191653438E+04  0.17000422924E+04 0.  0.
        3    1    3    3  502    0 -0.45093607297E+02 -0.67405453257E+03 -0.64955644015E+03  0.93718009232E+03  0.10100000352E+00 0.  1.
       -3    1    3    3    0  502  0.45093607297E+02  0.67405453257E+03  0.39385019616E+03  0.78198525146E+03  0.10100000352E+00 0. -1.
</event>
<event>
 5   0  0.5755321E-05  0.1709929E+04  0.7818609E-02  0.8755722E-01
       -2   -1    0    0    0  501  0.00000000000E+00  0.00000000000E+00  0.60686613805E+03  0.60686613806E+03  0.25500000920E-02 0. -1.
        2   -1    0    0  501    0  0.00000000000E+00  0.00000000000E+00 -0.12044895708E+04  0.12044895708E+04  0.25500000920E-02 0.  1.
    10030    2    1    2    0    0  0.00000000000E+00  0.00000000000E+00 -0.59762343278E+03  0.18113557089E+04  0.17099285765E+04 0.  0.
        4    1    3    3  502    0  0.30470686402E+03  0.54944635904E+03 -0.91305527589E+03  0.11083361964E+04  0.12699999809E+01 0.  1.
       -4    1    3    3    0  502 -0.30470686402E+03 -0.54944635904E+03  0.31543184311E+03  0.70301951252E+03  0.12699999809E+01 0. -1.
</event>
<event>
 5   0  0.2987859E-05  0.1701471E+04  0.7818609E-02  0.8760526E-01
       -1   -1    0    0    0  501  0.00000000000E+00  0.00000000000E+00  0.73273237152E+03  0.73273237154E+03  0.50400001928E-02 0. -1.
        1   -1    0    0  501    0  0.00000000000E+00  0.00000000000E+00 -0.98774220202E+03  0.98774220203E+03  0.50400001928E-02 0.  1.
    10030    2    1    2    0    0  0.00000000000E+00  0.00000000000E+00 -0.25500983049E+03  0.17204745736E+04  0.17014707593E+04 0.  0.
        5    1    3    3  502    0 -0.59378425791E+03  0.57236244740E+03 -0.33852230543E+03  0.89151441795E+03  0.46999998093E+01 0.  1.
       -5    1    3    3    0  502  0.59378425791E+03 -0.57236244740E+03  0.83512474935E+02  0.82896015562E+03  0.46999998093E+01 0. -1.
</event>
<event>
 5   0  0.2911632E-05  0.1701099E+04  0.7818609E-02  0.8760738E-01
       -1   -1    0    0    0  501  0.00000000000E+00  0.00000000000E+00  0.14950288802E+04  0.14950288802E+04  0.50400001928E-02 0.  1.
        1   -1    0    0  501    0  0.00000000000E+00  0.00000000000E+00 -0.48389313552E+03  0.48389313555E+03  0.50400001928E-02 0. -1.
    10030    2    1    2    0    0  0.00000000000E+00  0.00000000000E+00  0.10111357447E+04  0.19789220157E+04  0.17010987185E+04 0.  0.
        1    1    3    3  502    0 -0.80593755834E+03 -0.20620652019E+03  0.29950015399E+03  0.88417013022E+03  0.50400001928E-02 0.  1.
       -1    1    3    3    0  502  0.80593755834E+03  0.20620652019E+03  0.71163559066E+03  0.10947518855E+04  0.50400001928E-02 0. -1.
</event>
<event>
 5   0  0.2993769E-05  0.1703181E+04  0.7818609E-02  0.8759552E-01
        1   -1    0    0  501    0  0.00000000000E+00  0.00000000000E+00  0.14153157831E+04  0.14153157831E+04  0.50400001928E-02 0. -1.
       -1   -1    0    0    0  501  0.00000000000E+00  0.00000000000E+00 -0.51239875556E+03  0.51239875558E+03  0.50400001928E-02 0.  1.
    10030    2    1    2    0    0  0.00000000000E+00  0.00000000000E+00  0.90291702757E+03  0.19277145387E+04  0.17031806082E+04 0.  0.
        3    1    3    3  502    0  0.76410678002E+01  0.57106943574E+03 -0.26350412984E+03  0.62897783983E+03  0.10100000352E+00 0.  1.
       -3    1    3    3    0  502 -0.76410678002E+01 -0.57106943574E+03  0.11664211574E+04  0.12987366989E+04  0.10100000352E+00 0. -1.
</event>
<event>
 5   0  0.5859822E-05  0.1700725E+04  0.7818609E-02  0.8760951E-01
       -2   -1    0    0    0  501  0.00000000000E+00  0.00000000000E+00  0.33193734231E+03  0.33193734232E+03  0.25500000920E-02 0. -1.
        2   -1    0    0  501    0  0.00000000000E+00  0.00000000000E+00 -0.21784713018E+04  0.21784713018E+04  0.25500000920E-02 0.  1.
    10030    2    1    2    0    0  0.00000000000E+00  0.00000000000E+00 -0.18465339595E+04  0.25104086441E+04  0.17007245212E+04 0.  0.
        5    1    3    3  502    0 -0.70564728886E+02 -0.83020754538E+03 -0.11740703396E+04  0.14396830212E+04  0.46999998093E+01 0.  1.
       -5    1    3    3    0  502  0.70564728886E+02  0.83020754538E+03 -0.67246361988E+03  0.10707256229E+04  0.46999998093E+01 0. -1.
</event>
<event>
 5   0  0.2966258E-05  0.1706883E+04  0.7818609E-02  0.8757448E-01
        1   -1    0    0  501    0  0.00000000000E+00  0.00000000000E+00  0.16159060445E+04  0.16159060445E+04  0.50400001928E-02 0. -1.
       -1   -1    0    0    0  501  0.00000000000E+00  0.00000000000E+00 -0.45074559394E+03  0.45074559397E+03  0.50400001928E-02 0.  1.
    10030    2    1    2    0    0  0.00000000000E+00  0.00000000000E+00  0.11651604505E+04  0.20666516384E+04  0.17068831592E+04 0.  0.
        4    1    3    3  502    0  0.64402090705E+03  0.47451444865E+03  0.22252163050E+03  0.83032787478E+03  0.12699999809E+01 0.  1.
       -4    1    3    3    0  502 -0.64402090705E+03 -0.47451444865E+03  0.94263882001E+03  0.12363237637E+04  0.12699999809E+01 0. -1.
</event>
<event>
 5   0  0.2098250E-05  0.1698369E+04  0.7818609E-02  0.8762295E-01
       -3   -1    0    0    0  501  0.00000000000E+00  0.00000000000E+00  0.15397013517E+04  0.15397013550E+04  0.10100000352E+00 0. -1.
        3   -1    0    0  501    0  0.00000000000E+00  0.00000000000E+00 -0.46834669080E+03  0.46834670169E+03  0.10100000352E+00 0.  1.
    10030    2    1    2    0    0  0.00000000000E+00  0.00000000000E+00  0.10713546609E+04  0.20080480567E+04  0.16983686845E+04 0.  0.
        2    1    3    3  502    0 -0.19256685096E+03 -0.44489719492E+03 -0.28865870924E+03  0.56421570039E+03  0.25500000920E-02 0.  1.
       -2    1    3    3    0  502  0.19256685096E+03  0.44489719492E+03  0.13600133702E+04  0.14438323563E+04  0.25500000920E-02 0. -1.
</event>
<event>
 5   0  0.5859822E-05  0.1698195E+04  0.7818609E-02  0.8762395E-01
       -2   -1    0    0    0  501  0.00000000000E+00  0.00000000000E+00  0.63744821221E+03  0.63744821222E+03  0.25500000920E-02 0.  1.
        2   -1    0    0  501    0  0.00000000000E+00  0.00000000000E+00 -0.11310193091E+04  0.11310193091E+04  0.25500000920E-02 0. -1.
    10030    2    1    2    0    0  0.00000000000E+00  0.00000000000E+00 -0.49357109693E+03  0.17684675214E+04  0.16981946138E+04 0.  0.
        5    1    3    3  502    0  0.72734052799E+03 -0.39385522493E+03 -0.44655152774E+03  0.93998752055E+03  0.46999998093E+01 0.  1.
       -5    1    3    3    0  502 -0.72734052799E+03  0.39385522493E+03 -0.47019569191E+02  0.82848000081E+03  0.46999998093E+01 0. -1.
</event>
<event>
 5   0  0.2987859E-05  0.1701662E+04  0.7818609E-02  0.8760417E-01
       -1   -1    0    0    0  501  0.00000000000E+00  0.00000000000E+00  0.99337589014E+03  0.99337589015E+03  0.50400001928E-02 0.  1.
        1   -1    0    0  501    0  0.00000000000E+00  0.00000000000E+00 -0.72874046319E+03  0.72874046321E+03  0.50400001928E-02 0. -1.
    10030    2    1    2    0    0  0.00000000000E+00  0.00000000000E+00  0.26463542695E+03  0.17221163534E+04  0.17016617835E+04 0.  0.
        5    1    3    3  502    0  0.81385479503E+03  0.24492676837E+03  0.92572657008E+02  0.85495060447E+03  0.46999998093E+01 0.  1.
       -5    1    3    3    0  502 -0.81385479503E+03 -0.24492676837E+03  0.17206276994E+03  0.86716574889E+03  0.46999998093E+01 0. -1.
</event>
<event>
 5   0  0.5755321E-05  0.1739820E+04  0.7818609E-02  0.8738974E-01
        2   -1    0    0  501    0  0.00000000000E+00  0.00000000000E+00  0.70577896722E+03  0.70577896723E+03  0.25500000920E-02 0.  1.
       -2   -1    0    0    0  501  0.00000000000E+00  0.00000000000E+00 -0.10722100341E+04  0.10722100341E+04  0.25500000920E-02 0. -1.
    10030    2    1    2    0    0  0.00000000000E+00  0.00000000000E+00 -0.36643106686E+03  0.17779890013E+04  0.17398198648E+04 0.  0.
        4    1    3    3  502    0 -0.72861254256E+03 -0.15253042192E+03 -0.64320131735E+03  0.98379434555E+03  0.12699999809E+01 0. -1.
       -4    1    3    3    0  502  0.72861254256E+03  0.15253042192E+03  0.27677025049E+03  0.79419465577E+03  0.12699999809E+01 0.  1.
</event>
<event>
 5   0  0.2966258E-05  0.1699913E+04  0.7818609E-02  0.8761414E-01
        1   -1    0    0  501    0  0.00000000000E+00  0.00000000000E+00  0.12901800109E+04  0.12901800109E+04  0.50400001928E-02 0.  1.
       -1   -1    0    0    0  501  0.00000000000E+00  0.00000000000E+00 -0.55994184040E+03  0.55994184042E+03  0.50400001928E-02 0. -1.
    10030    2    1    2    0    0  0.00000000000E+00  0.00000000000E+00  0.73023817050E+03  0.18501218513E+04  0.16999126681E+04 0.  0.
        4    1    3    3  502    0 -0.31192644172E+03  0.48501356923E+03  0.10447037888E+04  0.11932911994E+04  0.12699999809E+01 0.  1.
       -4    1    3    3    0  502  0.31192644172E+03 -0.48501356923E+03 -0.31446561826E+03  0.65683065195E+03  0.12699999809E+01 0. -1.
</event>
<event>
 5   0  0.2967704E-05  0.1705504E+04  0.7818609E-02  0.8758232E-01
        1   -1    0    0  501    0  0.00000000000E+00  0.00000000000E+00  0.79599653661E+03  0.79599653663E+03  0.50400001928E-02 0. -1.
       -1   -1    0    0    0  501  0.00000000000E+00  0.00000000000E+00 -0.91355393266E+03  0.91355393268E+03  0.50400001928E-02 0.  1.
    10030    2    1    2    0    0  0.00000000000E+00  0.00000000000E+00 -0.11755739605E+03  0.17095504693E+04  0.17055037572E+04 0.  0.
        2    1    3    3  502    0 -0.77402764417E+03 -0.15974734219E+03 -0.37976931197E+03  0.87684818389E+03  0.25500000920E-02 0.  1.
       -2    1    3    3    0  502  0.77402764417E+03  0.15974734219E+03  0.26221191592E+03  0.83270228541E+03  0.25500000920E-02 0. -1.
</event>
<event>
 5   0  0.2993769E-05  0.1697851E+04  0.7818609E-02  0.8762591E-01
        1   -1    0    0  501    0  0.00000000000E+00  0.00000000000E+00  0.39054914936E+03  0.39054914939E+03  0.50400001928E-02 0.  1.
       -1   -1    0    0    0  501  0.00000000000E+00  0.00000000000E+00 -0.18452840873E+04  0.18452840873E+04  0.50400001928E-02 0. -1.
    10030    2    1    2    0    0  0.00000000000E+00  0.00000000000E+00 -0.14547349379E+04  0.22358332367E+04  0.16978505596E+04 0.  0.
        3    1    3    3  502    0 -0.17760606544E+03  0.20496763392E+03 -0.17866988682E+04  0.18071658754E+04  0.10100000352E+00 0. -1.
       -3    1    3    3    0  502  0.17760606544E+03 -0.20496763392E+03  0.33196393026E+03  0.42866736128E+03  0.10100000352E+00 0.  1.
</event>
<event>
 5   0  0.5671132E-05  0.1701011E+04  0.7818609E-02  0.8760788E-01
       -2   -1    0    0    0  501  0.00000000000E+00  0.00000000000E+00  0.92033036499E+03  0.92033036500E+03  0.25500000920E-02 0. -1.
        2   -1    0    0  501    0  0.00000000000E+00  0.00000000000E+00 -0.78597803449E+03  0.78597803449E+03  0.25500000920E-02 0.  1.
    10030    2    1    2    0    0  0.00000000000E+00  0.00000000000E+00  0.13435233051E+03  0.17063083995E+04  0.17010108187E+04 0.  0.
        3    1    3    3  502    0  0.23959403794E+03  0.81488283959E+03  0.23220798239E+02  0.84969321579E+03  0.10100000352E+00 0. -1.
       -3    1    3    3    0  502 -0.23959403794E+03 -0.81488283959E+03  0.11113153227E+03  0.85661518370E+03  0.10100000352E+00 0.  1.
</event>
<event>
 5   0  0.2967704E-05  0.1694480E+04  0.7818609E-02  0.8764519E-01
        1   -1    0    0  501    0  0.00000000000E+00  0.00000000000E+00  0.93627378181E+03  0.93627378182E+03  0.50400001928E-02 0.  1.
       -1   -1    0    0    0  501  0.00000000000E+00  0.00000000000E+00 -0.76667298781E+03  0.76667298783E+03  0.50400001928E-02 0. -1.
    10030    2    1    2    0    0  0.00000000000E+00  0.00000000000E+00  0.16960079399E+03  0.17029467697E+04  0.16944802362E+04 0.  0.
        2    1    3    3  502    0 -0.67369579536E+03 -0.31582812656E+02 -0.43055053755E+03  0.80014827635E+03  0.25500000920E-02 0. -1.
       -2    1    3    3    0  502  0.67369579536E+03  0.31582812656E+02  0.60015133155E+03  0.90279849330E+03  0.25500000920E-02 0.  1.
</event>
<event>
 5   0  0.2967704E-05  0.1701767E+04  0.7818609E-02  0.8760357E-01
        1   -1    0    0  501    0  0.00000000000E+00  0.00000000000E+00  0.91529632705E+03  0.91529632706E+03  0.50400001928E-02 0. -1.
       -1   -1    0    0    0  501  0.00000000000E+00  0.00000000000E+00 -0.79100400381E+03  0.79100400382E+03  0.50400001928E-02 0.  1.
    10030    2    1    2    0    0  0.00000000000E+00  0.00000000000E+00  0.12429232324E+03  0.17063003309E+04  0.17017673864E+04 0.  0.
        2    1    3    3  502    0  0.42108302494E+03  0.44691085806E+03 -0.52845834245E+03  0.81012866178E+03  0.25500000920E-02 0.  1.
       -2    1    3    3    0  502 -0.42108302494E+03 -0.44691085806E+03  0.65275066569E+03  0.89617166910E+03  0.25500000920E-02 0. -1.
</event>
<event>
 5   0  0.5859822E-05  0.1705828E+04  0.7818609E-02  0.8758047E-01
       -2   -1    0    0    0  501  0.00000000000E+00  0.00000000000E+00  0.57605859436E+03  0.57605859437E+03  0.25500000920E-02 0.  1.
        2   -1    0    0  501    0  0.00000000000E+00  0.00000000000E+00 -0.12628276118E+04  0.12628276118E+04  0.25500000920E-02 0. -1.
    10030    2    1    2    0    0  0.00000000000E+00  0.00000000000E+00 -0.68676901747E+03  0.18388862062E+04  0.17058284779E+04 0.  0.
        5    1    3    3  502    0 -0.36570662589E+03  0.67509527930E+03 -0.74376552593E+03  0.10689734421E+04  0.46999998093E+01 0. -1.
       -5    1    3    3    0  502  0.36570662589E+03 -0.67509527930E+03  0.56996508459E+02  0.76991276410E+03  0.46999998093E+01 0.  1.
</event>
<event>
 5   0  0.5755321E-05  0.1701516E+04  0.7818609E-02  0.8760500E-01
        2   -1    0    0  501    0  0.00000000000E+00  0.00000000000E+00  0.19812579562E+04  0.19812579562E+04  0.25500000920E-02 0. -1.
       -2   -1    0    0    0  501  0.00000000000E+00  0.00000000000E+00 -0.36531798525E+03  0.36531798525E+03  0.25500000920E-02 0.  1.
    10030    2    1    2    0    0  0.00000000000E+00  0.00000000000E+00  0.16159399709E+04  0.23465759414E+04  0.17015159885E+04 0.  0.
        4    1    3    3  502    0  0.43699600854E+03  0.42886406484E+03  0.16225759847E+04  0.17342561335E+04  0.12699999809E+01 0. -1.
       -4    1    3    3    0  502 -0.43699600854E+03 -0.42886406484E+03 -0.66360137783E+01  0.61231980792E+03  0.12699999809E+01 0.  1.
</event>
<event>
 5   0  0.2967704E-05  0.1705239E+04  0.7818609E-02  0.8758382E-01
       -1   -1    0    0    0  501  0.00000000000E+00  0.00000000000E+00  0.25214225640E+03  0.25214225645E+03  0.50400001928E-02 0. -1.
        1   -1    0    0  501    0  0.00000000000E+00  0.00000000000E+00 -0.28831352680E+04  0.28831352680E+04  0.50400001928E-02 0.  1.
    10030    2    1    2    0    0  0.00000000000E+00  0.00000000000E+00 -0.26309930116E+04  0.31352775245E+04  0.17052392584E+04 0.  0.
        2    1    3    3  502    0 -0.14735635924E+03  0.83465567675E+03 -0.14859652847E+04  0.17106889907E+04  0.25500000920E-02 0.  1.
       -2    1    3    3    0  502  0.14735635924E+03 -0.83465567675E+03 -0.11450277269E+04  0.14245885338E+04  0.25500000920E-02 0. -1.
</event>
<event>
 5   0  0.2993769E-05  0.1701127E+04  0.7818609E-02  0.8760722E-01
        1   -1    0    0  501    0  0.00000000000E+00  0.00000000000E+00  0.12806782198E+04  0.12806782198E+04  0.50400001928E-02 0. -1.
       -1   -1    0    0    0  501  0.00000000000E+00  0.00000000000E+00 -0.56490268035E+03  0.56490268037E+03  0.50400001928E-02 0.  1.
    10030    2    1    2    0    0  0.00000000000E+00  0.00000000000E+00  0.71577553947E+03  0.18455809002E+04  0.17011273428E+04 0.  0.
        3    1    3    3  502    0  0.16800847344E+03  0.66359129811E+03  0.90561292220E+03  0.11352158531E+04  0.10100000352E+00 0. -1.
       -3    1    3    3    0  502 -0.16800847344E+03 -0.66359129811E+03 -0.18983738272E+03  0.71036504711E+03  0.10100000352E+00 0.  1.
</event>
<event>
 5   0  0.2993769E-05  0.1701060E+04  0.7818609E-02  0.8760760E-01
        1   -1    0    0  501    0  0.00000000000E+00  0.00000000000E+00  0.45288457302E+03  0.45288457305E+03  0.50400001928E-02 0.  1.
       -1   -1    0    0    0  501  0.00000000000E+00  0.00000000000E+00 -0.15973190446E+04  0.15973190446E+04  0.50400001928E-02 0. -1.
    10030    2    1    2    0    0  0.00000000000E+00  0.00000000000E+00 -0.11444344716E+04  0.20502036177E+04  0.17010598502E+04 0.  0.
        3    1    3    3  502    0 -0.71684479231E+03  0.28276597124E+02 -0.11228666297E+04  0.13324772045E+04  0.10100000352E+00 0. -1.
       -3    1    3    3    0  502  0.71684479231E+03 -0.28276597124E+02 -0.21567841928E+02  0.71772641320E+03  0.10100000352E+00 0.  1.
</event>
<event>
 5   0  0.5652631E-05  0.1699610E+04  0.7818609E-02  0.8761587E-01
        2   -1    0    0  501    0  0.00000000000E+00  0.00000000000E+00  0.23426203375E+04  0.23426203375E+04  0.25500000920E-02 0. -1.
       -2   -1    0    0    0  501  0.00000000000E+00  0.00000000000E+00 -0.30827370866E+03  0.30827370867E+03  0.25500000920E-02 0.  1.
    10030    2    1    2    0    0  0.00000000000E+00  0.00000000000E+00  0.20343466289E+04  0.26508940462E+04  0.16996096722E+04 0.  0.
        2    1    3    3  502    0  0.28334469541E+03 -0.67830348320E+03  0.35216619852E+03  0.81510788435E+03  0.25500000920E-02 0. -1.
       -2    1    3    3    0  502 -0.28334469541E+03  0.67830348320E+03  0.16821804304E+04  0.18357861619E+04  0.25500000920E-02 0.  1.
</event>
<event>
 5   0  0.2911632E-05  0.1700457E+04  0.7818609E-02  0.8761104E-01
        1   -1    0    0  501    0  0.00000000000E+00  0.00000000000E+00  0.19919471355E+04  0.19919471355E+04  0.50400001928E-02 0. -1.
       -1   -1    0    0    0  501  0.00000000000E+00  0.00000000000E+00 -0.36290546026E+03  0.36290546030E+03  0.50400001928E-02 0.  1.
    10030    2    1    2    0    0  0.00000000000E+00  0.00000000000E+00  0.16290416752E+04  0.23548525958E+04  0.17004569881E+04 0.  0.
        1    1    3    3  502    0  0.25226628382E+03  0.65973057771E+03  0.15908876783E+03  0.72401101455E+03  0.50400001928E-02 0.  1.
       -1    1    3    3    0  502 -0.25226628382E+03 -0.65973057771E+03  0.14699529074E+04  0.16308415812E+04  0.50400001928E-02 0. -1.
</event>
<event>
 5   0  0.5859822E-05  0.1702216E+04  0.7818609E-02  0.8760102E-01
       -2   -1    0    0    0  501  0.00000000000E+00  0.00000000000E+00  0.80124952177E+03  0.80124952178E+03  0.25500000920E-02 0.  1.
        2   -1    0    0  501    0  0.00000000000E+00  0.00000000000E+00 -0.90406878114E+03  0.90406878115E+03  0.25500000920E-02 0. -1.
    10030    2    1    2    0    0  0.00000000000E+00  0.00000000000E+00 -0.10281925937E+03  0.17053183029E+04  0.17022158248E+04 0.  0.
        5    1    3    3  502    0  0.21853823845E+03  0.20284231043E+03 -0.85001912331E+03  0.90080994919E+03  0.46999998093E+01 0. -1.
       -5    1    3    3    0  502 -0.21853823845E+03 -0.20284231043E+03  0.74719986394E+03  0.80450835374E+03  0.46999998093E+01 0.  1.
</event>
<event>
 5   0  0.2993769E-05  0.1700492E+04  0.7818609E-02  0.8761084E-01
       -1   -1    0    0    0  501  0.00000000000E+00  0.00000000000E+00  0.39585576426E+03  0.39585576429E+03  0.50400001928E-02 0.  1.
        1   -1    0    0  501    0  0.00000000000E+00  0.00000000000E+00 -0.18262170951E+04  0.18262170951E+04  0.50400001928E-02 0. -1.
    10030    2    1    2    0    0  0.00000000000E+00  0.00000000000E+00 -0.14303613309E+04  0.22220728594E+04  0.17004923569E+04 0.  0.
        3    1    3    3  502    0 -0.51311858373E+03  0.33953877427E+03 -0.14819737084E+04  0.16046256083E+04  0.10100000352E+00 0. -1.
       -3    1    3    3    0  502  0.51311858373E+03 -0.33953877427E+03  0.51612377552E+02  0.61744725112E+03  0.10100000352E+00 0.  1.
</event>
<event>
 5   0  0.5652631E-05  0.1706068E+04  0.7818609E-02  0.8757911E-01
       -2   -1    0    0    0  501  0.00000000000E+00  0.00000000000E+00  0.31069825940E+04  0.31069825940E+04  0.25500000920E-02 0.  1.
        2   -1    0    0  501    0  0.00000000000E+00  0.00000000000E+00 -0.23420389358E+03  0.23420389359E+03  0.25500000920E-02 0. -1.
    10030    2    1    2    0    0  0.00000000000E+00  0.00000000000E+00  0.28727787004E+04  0.33411864876E+04  0.17060684873E+04 0.  0.
        2    1    3    3  502    0  0.44845486678E+03  0.11307679660E+03  0.28401346863E+04  0.28775446418E+04  0.25500000920E-02 0.  1.
       -2    1    3    3    0  502 -0.44845486678E+03 -0.11307679660E+03  0.32644014131E+02  0.46364184575E+03  0.25500000920E-02 0. -1.
</event>
<event>
 5   0  0.2098250E-05  0.1699122E+04  0.7818609E-02  0.8761866E-01
       -3   -1    0    0    0  501  0.00000000000E+00  0.00000000000E+00  0.66683727563E+03  0.66683728328E+03  0.10100000352E+00 0.  1.
        3   -1    0    0  501    0  0.00000000000E+00  0.00000000000E+00 -0.10823532009E+04  0.10823532056E+04  0.10100000352E+00 0. -1.
    10030    2    1    2    0    0  0.00000000000E+00  0.00000000000E+00 -0.41551592531E+03  0.17491904889E+04  0.16991215031E+04 0.  0.
        3    1    3    3  502    0  0.30288248375E+03 -0.32130642742E+03 -0.95493999571E+03  0.10520865102E+04  0.10100000352E+00 0. -1.
       -3    1    3    3    0  502 -0.30288248375E+03  0.32130642742E+03  0.53942407041E+03  0.69710397876E+03  0.10100000352E+00 0.  1.
</event>
<event>
 5   0  0.5859822E-05  0.1703954E+04  0.7818609E-02  0.8759112E-01
        2   -1    0    0  501    0  0.00000000000E+00  0.00000000000E+00  0.37776943401E+03  0.37776943402E+03  0.25500000920E-02 0.  1.
       -2   -1    0    0    0  501  0.00000000000E+00  0.00000000000E+00 -0.19214499026E+04  0.19214499026E+04  0.25500000920E-02 0. -1.
    10030    2    1    2    0    0  0.00000000000E+00  0.00000000000E+00 -0.15436804686E+04  0.22992193366E+04  0.17039542742E+04 0.  0.
        5    1    3    3  502    0  0.36405538210E+03 -0.72073234833E+03 -0.11385328510E+04  0.13958046360E+04  0.46999998093E+01 0. -1.
       -5    1    3    3    0  502 -0.36405538210E+03  0.72073234833E+03 -0.40514761757E+03  0.90341470056E+03  0.46999998093E+01 0.  1.
</event>
<event>
 5   0  0.2911632E-05  0.1698314E+04  0.7818609E-02  0.8762326E-01
        1   -1    0    0  501    0  0.00000000000E+00  0.00000000000E+00  0.16329429552E+04  0.16329429552E+04  0.50400001928E-02 0.  1.
       -1   -1    0    0    0  501  0.00000000000E+00  0.00000000000E+00 -0.44157554104E+03  0.44157554107E+03  0.50400001928E-02 0. -1.
    10030    2    1    2    0    0  0.00000000000E+00  0.00000000000E+00  0.11913674141E+04  0.20745184962E+04  0.16983140687E+04 0.  0.
        1    1    3    3  502    0  0.60189789101E+03 -0.76594767606E+02  0.13213506513E+04  0.14539997845E+04  0.50400001928E-02 0.  1.
       -1    1    3    3    0  502 -0.60189789101E+03  0.76594767606E+02 -0.12998323718E+03  0.62051871172E+03  0.50400001928E-02 0. -1.
</event>
<event>
 5   0  0.2966258E-05  0.1702049E+04  0.7818609E-02  0.8760197E-01
        1   -1    0    0  501    0  0.00000000000E+00  0.00000000000E+00  0.11115535274E+04  0.11115535274E+04  0.50400001928E-02 0.  1.
       -1   -1    0    0    0  501  0.00000000000E+00  0.00000000000E+00 -0.65155886852E+03  0.65155886854E+03  0.50400001928E-02 0. -1.
    10030    2    1    2    0    0  0.00000000000E+00  0.00000000000E+00  0.45999465888E+03  0.17631123959E+04  0.17020488344E+04 0.  0.
        4    1    3    3  502    0  0.35999721505E+03 -0.70891919614E+03 -0.84330215710E+02  0.79954838483E+03  0.12699999809E+01 0. -1.
       -4    1    3    3    0  502 -0.35999721505E+03  0.70891919614E+03  0.54432487459E+03  0.96356401111E+03  0.12699999809E+01 0.  1.
</event>
<event>
 5   0  0.5671132E-05  0.1704779E+04  0.7818609E-02  0.8758643E-01
       -2   -1    0    0    0  501  0.00000000000E+00  0.00000000000E+00  0.13558175546E+04  0.13558175546E+04  0.25500000920E-02 0.  1.
        2   -1    0    0  501    0  0.00000000000E+00  0.00000000000E+00 -0.53588900599E+03  0.53588900599E+03  0.25500000920E-02 0. -1.
    10030    2    1    2    0    0  0.00000000000E+00  0.00000000000E+00  0.81992854861E+03  0.18917065606E+04  0.17047788380E+04 0.  0.
        3    1    3    3  502    0  0.20874184497E+03  0.23825806580E+03 -0.46815163005E+03  0.56524863792E+03  0.10100000352E+00 0. -1.
       -3    1    3    3    0  502 -0.20874184497E+03 -0.23825806580E+03  0.12880801787E+04  0.13264579227E+04  0.10100000352E+00 0.  1.
</event>
<event>
 5   0  0.2987859E-05  0.1699328E+04  0.7818609E-02  0.8761748E-01
       -1   -1    0    0    0  501  0.00000000000E+00  0.00000000000E+00  0.40472779660E+03  0.40472779663E+03  0.50400001928E-02 0.  1.
        1   -1    0    0  501    0  0.00000000000E+00  0.00000000000E+00 -0.17837391284E+04  0.17837391285E+04  0.50400001928E-02 0. -1.
    10030    2    1    2    0    0  0.00000000000E+00  0.00000000000E+00 -0.13790113318E+04  0.21884669251E+04  0.16993278756E+04 0.  0.
        5    1    3    3  502    0 -0.65072168905E+02 -0.53434840616E+03  0.15709207500E+03  0.56076966426E+03  0.46999998093E+01 0.  1.
       -5    1    3    3    0  502  0.65072168905E+02  0.53434840616E+03 -0.15361034069E+04  0.16276972608E+04  0.46999998093E+01 0. -1.
</event>
<event>
 5   0  0.5821584E-05  0.1697744E+04  0.7818609E-02  0.8762652E-01
       -2   -1    0    0    0  501  0.00000000000E+00  0.00000000000E+00  0.45264597781E+03  0.45264597782E+03  0.25500000920E-02 0. -1.
        2   -1    0    0  501    0  0.00000000000E+00  0.00000000000E+00 -0.15919358789E+04  0.15919358789E+04  0.25500000920E-02 0.  1.
    10030    2    1    2    0    0  0.00000000000E+00  0.00000000000E+00 -0.11392899011E+04  0.20445818567E+04  0.16977436467E+04 0.  0.
        1    1    3    3  502    0  0.42652297960E+03  0.67522296309E+03 -0.22324465080E+03  0.82926839813E+03  0.50400001928E-02 0.  1.
       -1    1    3    3    0  502 -0.42652297960E+03 -0.67522296309E+03 -0.91604525027E+03  0.12153134586E+04  0.50400001928E-02 0. -1.
</event>
<event>
 5   0  0.2911632E-05  0.1700012E+04  0.7818609E-02  0.8761358E-01
       -1   -1    0    0    0  501  0.00000000000E+00  0.00000000000E+00  0.75182342983E+03  0.75182342985E+03  0.50400001928E-02 0. -1.
        1   -1    0    0  501    0  0.00000000000E+00  0.00000000000E+00 -0.96101010375E+03  0.96101010376E+03  0.50400001928E-02 0.  1.
    10030    2    1    2    0    0  0.00000000000E+00  0.00000000000E+00 -0.20918667392E+03  0.17128335336E+04  0.17000116615E+04 0.  0.
        1    1    3    3  502    0 -0.15087956925E+02 -0.69214344178E+03 -0.60148607555E+03  0.91710178799E+03  0.50400001928E-02 0.  1.
       -1    1    3    3    0  502  0.15087956925E+02  0.69214344178E+03  0.39229940163E+03  0.79573174562E+03  0.50400001928E-02 0. -1.
</event>
<event>
 5   0  0.5652631E-05  0.1701385E+04  0.7818609E-02  0.8760575E-01
       -2   -1    0    0    0  501  0.00000000000E+00  0.00000000000E+00  0.64402786910E+03  0.64402786910E+03  0.25500000920E-02 0.  1.
        2   -1    0    0  501    0  0.00000000000E+00  0.00000000000E+00 -0.11236743323E+04  0.11236743323E+04  0.25500000920E-02 0. -1.
    10030    2    1    2    0    0  0.00000000000E+00  0.00000000000E+00 -0.47964646321E+03  0.17677022014E+04  0.17013848310E+04 0.  0.
        2    1    3    3  502    0 -0.19633996659E+03  0.48228512210E+03 -0.93874711466E+03  0.10734963748E+04  0.25500000920E-02 0. -1.
       -2    1    3    3    0  502  0.19633996659E+03 -0.48228512210E+03  0.45910065146E+03  0.69420582658E+03  0.25500000920E-02 0.  1.
</event>
<event>
 5   0  0.2993769E-05  0.1707332E+04  0.7818609E-02  0.8757194E-01
        1   -1    0    0  501    0  0.00000000000E+00  0.00000000000E+00  0.93710461044E+03  0.93710461046E+03  0.50400001928E-02 0. -1.
       -1   -1    0    0    0  501  0.00000000000E+00  0.00000000000E+00 -0.77765671448E+03  0.77765671450E+03  0.50400001928E-02 0.  1.
    10030    2    1    2    0    0  0.00000000000E+00  0.00000000000E+00  0.15944789596E+03  0.17147613250E+04  0.17073320620E+04 0.  0.
        3    1    3    3  502    0 -0.11977292593E+03  0.82250478791E+03  0.27521418581E+03  0.87555841506E+03  0.10100000352E+00 0. -1.
       -3    1    3    3    0  502  0.11977292593E+03 -0.82250478791E+03 -0.11576628984E+03  0.83920290990E+03  0.10100000352E+00 0.  1.
</event>
<event>
 5   0  0.5755321E-05  0.1666649E+04  0.7818609E-02  0.8780618E-01
       -2   -1    0    0    0  501  0.00000000000E+00  0.00000000000E+00  0.48601246473E+03  0.48601246474E+03  0.25500000920E-02 0. -1.
        2   -1    0    0  501    0  0.00000000000E+00  0.00000000000E+00 -0.14288305953E+04  0.14288305953E+04  0.25500000920E-02 0.  1.
    10030    2    1    2    0    0  0.00000000000E+00  0.00000000000E+00 -0.94281813053E+03  0.19148430600E+04  0.16666487084E+04 0.  0.
        4    1    3    3  502    0  0.40133096492E+03  0.27576882408E+03 -0.12483640029E+04  0.13399736133E+04  0.12699999809E+01 0.  1.
       -4    1    3    3    0  502 -0.40133096492E+03 -0.27576882408E+03  0.30554587235E+03  0.57486944670E+03  0.12699999809E+01 0. -1.
</event>
<event>
 5   0  0.5821584E-05  0.1701532E+04  0.7818609E-02  0.8760491E-01
        2   -1    0    0  501    0  0.00000000000E+00  0.00000000000E+00  0.15347663158E+04  0.15347663158E+04  0.25500000920E-02 0.  1.
       -2   -1    0    0    0  501  0.00000000000E+00  0.00000000000E+00 -0.47160479886E+03  0.47160479887E+03  0.25500000920E-02 0. -1.
    10030    2    1    2    0    0  0.00000000000E+00  0.00000000000E+00  0.10631615169E+04  0.20063711146E+04  0.17015324383E+04 0.  0.
        1    1    3    3  502    0 -0.47657672490E+03 -0.39110737451E+03  0.12228844734E+04  0.13695023872E+04  0.50400001928E-02 0.  1.
       -1    1    3    3    0  502  0.47657672490E+03  0.39110737451E+03 -0.15972295655E+03  0.63686872743E+03  0.50400001928E-02 0. -1.
</event>
<event>
 5   0  0.2993769E-05  0.1702122E+04  0.7818609E-02  0.8760155E-01
       -1   -1    0    0    0  501  0.00000000000E+00  0.00000000000E+00  0.61715540735E+03  0.61715540737E+03  0.50400001928E-02 0. -1.
        1   -1    0    0  501    0  0.00000000000E+00  0.00000000000E+00 -0.11736175308E+04  0.11736175308E+04  0.50400001928E-02 0.  1.
    10030    2    1    2    0    0  0.00000000000E+00  0.00000000000E+00 -0.55646212348E+03  0.17907729382E+04  0.17021215060E+04 0.  0.
        3    1    3    3  502    0 -0.59183351381E+03 -0.45466663776E+03 -0.70857764311E+03  0.10291117267E+04  0.10100000352E+00 0. -1.
       -3    1    3    3    0  502  0.59183351381E+03  0.45466663776E+03  0.15211551963E+03  0.76166121148E+03  0.10100000352E+00 0.  1.
</event>
<event>
 5   0  0.2987859E-05  0.1698762E+04  0.7818609E-02  0.8762071E-01
       -1   -1    0    0    0  501  0.00000000000E+00  0.00000000000E+00  0.47278973587E+03  0.47278973590E+03  0.50400001928E-02 0.  1.
        1   -1    0    0  501    0  0.00000000000E+00  0.00000000000E+00 -0.15259378505E+04  0.15259378505E+04  0.50400001928E-02 0. -1.
    10030    2    1    2    0    0  0.00000000000E+00  0.00000000000E+00 -0.10531481146E+04  0.19987275864E+04  0.16987616117E+04 0.  0.
        5    1    3    3  502    0 -0.66948110843E+03 -0.49900102869E+03 -0.70967746291E+03  0.10958426769E+04  0.46999998093E+01 0.  1.
       -5    1    3    3    0  502  0.66948110843E+03  0.49900102869E+03 -0.34347065170E+03  0.90288490948E+03  0.46999998093E+01 0. -1.
</event>
<event>
 5   0  0.2993769E-05  0.1694815E+04  0.7818609E-02  0.8764327E-01
       -1   -1    0    0    0  501  0.00000000000E+00  0.00000000000E+00  0.10547417416E+04  0.10547417417E+04  0.50400001928E-02 0. -1.
        1   -1    0    0  501    0  0.00000000000E+00  0.00000000000E+00 -0.68082937427E+03  0.68082937428E+03  0.50400001928E-02 0.  1.
    10030    2    1    2    0    0  0.00000000000E+00  0.00000000000E+00  0.37391236738E+03  0.17355711159E+04  0.16948146329E+04 0.  0.
        3    1    3    3  502    0  0.34617359853E+03  0.30395399901E+03  0.91530899120E+03  0.10247022755E+04  0.10100000352E+00 0. -1.
       -3    1    3    3    0  502 -0.34617359853E+03 -0.30395399901E+03 -0.54139662382E+03  0.71086884045E+03  0.10100000352E+00 0.  1.
</event>
<event>
 5   0  0.2098250E-05  0.1698276E+04  0.7818609E-02  0.8762348E-01
       -3   -1    0    0    0  501  0.00000000000E+00  0.00000000000E+00  0.88453429686E+03  0.88453430262E+03  0.10100000352E+00 0. -1.
        3   -1    0    0  501    0  0.00000000000E+00  0.00000000000E+00 -0.81515809365E+03  0.81515809991E+03  0.10100000352E+00 0.  1.
    10030    2    1    2    0    0  0.00000000000E+00  0.00000000000E+00  0.69376203205E+02  0.16996924025E+04  0.16982759510E+04 0.  0.
        2    1    3    3  502    0 -0.75057817592E+03  0.33666913848E+03 -0.17601443361E+03  0.84124597344E+03  0.25500000920E-02 0.  1.
       -2    1    3    3    0  502  0.75057817592E+03 -0.33666913848E+03  0.24539063681E+03  0.85844642909E+03  0.25500000920E-02 0. -1.
</event>
<event>
 5   0  0.5652631E-05  0.1695716E+04  0.7818609E-02  0.8763811E-01
        2   -1    0    0  501    0  0.00000000000E+00  0.00000000000E+00  0.11634024693E+04  0.11634024693E+04  0.25500000920E-02 0. -1.
       -2   -1    0    0    0  501  0.00000000000E+00  0.00000000000E+00 -0.61789733319E+03  0.61789733320E+03  0.25500000920E-02 0.  1.
    10030    2    1    2    0    0  0.00000000000E+00  0.00000000000E+00  0.54550513612E+03  0.17812998025E+04  0.16957161121E+04 0.  0.
        2    1    3    3  502    0  0.94033736086E+02  0.70738092214E+03  0.75371801196E+03  0.10379407276E+04  0.25500000920E-02 0. -1.
       -2    1    3    3    0  502 -0.94033736086E+02 -0.70738092214E+03 -0.20821287584E+03  0.74335907488E+03  0.25500000920E-02 0.  1.
</event>
<event>
 5   0  0.2993769E-05  0.1694959E+04  0.7818609E-02  0.8764245E-01
       -1   -1    0    0    0  501  0.00000000000E+00  0.00000000000E+00  0.98992088353E+03  0.98992088354E+03  0.50400001928E-02 0. -1.
        1   -1    0    0  501    0  0.00000000000E+00  0.00000000000E+00 -0.72553425263E+03  0.72553425265E+03  0.50400001928E-02 0.  1.
    10030    2    1    2    0    0  0.00000000000E+00  0.00000000000E+00  0.26438663090E+03  0.17154551362E+04  0.16949590065E+04 0.  0.
        3    1    3    3  502    0 -0.67537059123E+02  0.45924708467E+03 -0.58543112973E+03  0.74712700192E+03  0.10100000352E+00 0.  1.
       -3    1    3    3    0  502  0.67537059123E+02 -0.45924708467E+03  0.84981776063E+03  0.96832813427E+03  0.10100000352E+00 0. -1.
</event>
<event>
 5   0  0.5821584E-05  0.1722264E+04  0.7818609E-02  0.8748767E-01
        2   -1    0    0  501    0  0.00000000000E+00  0.00000000000E+00  0.60295858061E+03  0.60295858061E+03  0.25500000920E-02 0.  1.
       -2   -1    0    0    0  501  0.00000000000E+00  0.00000000000E+00 -0.12298492719E+04  0.12298492719E+04  0.25500000920E-02 0. -1.
    10030    2    1    2    0    0  0.00000000000E+00  0.00000000000E+00 -0.62689069131E+03  0.18328078525E+04  0.17222638257E+04 0.  0.
        1    1    3    3  502    0 -0.84327510807E+03  0.12602289624E+03 -0.44182638253E+03  0.96031517253E+03  0.50400001928E-02 0. -1.
       -1    1    3    3    0  502  0.84327510807E+03 -0.12602289624E+03 -0.18506430878E+03  0.87249268001E+03  0.50400001928E-02 0.  1.
</event>
<event>
 5   0  0.5755321E-05  0.1702100E+04  0.7818609E-02  0.8760168E-01
        2   -1    0    0  501    0  0.00000000000E+00  0.00000000000E+00  0.25297421980E+04  0.25297421980E+04  0.25500000920E-02 0.  1.
       -2   -1    0    0    0  501  0.00000000000E+00  0.00000000000E+00 -0.28630814935E+03  0.28630814936E+03  0.25500000920E-02 0. -1.
    10030    2    1    2    0    0  0.00000000000E+00  0.00000000000E+00  0.22434340486E+04  0.28160503474E+04  0.17020996529E+04 0.  0.
        4    1    3    3  502    0 -0.10808783362E+03 -0.70838043221E+03  0.18813242095E+04  0.20131736663E+04  0.12699999809E+01 0.  1.
       -4    1    3    3    0  502  0.10808783362E+03  0.70838043221E+03  0.36210983917E+03  0.80287668109E+03  0.12699999809E+01 0. -1.
</event>
<event>
 5   0  0.2987859E-05  0.1703660E+04  0.7818609E-02  0.8759280E-01
        1   -1    0    0  501    0  0.00000000000E+00  0.00000000000E+00  0.15677502055E+04  0.15677502055E+04  0.50400001928E-02 0.  1.
       -1   -1    0    0    0  501  0.00000000000E+00  0.00000000000E+00 -0.46283776750E+03  0.46283776753E+03  0.50400001928E-02 0. -1.
    10030    2    1    2    0    0  0.00000000000E+00  0.00000000000E+00  0.11049124380E+04  0.20305879730E+04  0.17036595964E+04 0.  0.
        5    1    3    3  502    0  0.37188026472E+03  0.53847183919E+03  0.12023903601E+04  0.13689454047E+04  0.46999998093E+01 0.  1.
       -5    1    3    3    0  502 -0.37188026472E+03 -0.53847183919E+03 -0.97477922170E+02  0.66164256831E+03  0.46999998093E+01 0. -1.
</event>
<event>
 5   0  0.5671132E-05  0.1698357E+04  0.7818609E-02  0.8762302E-01
       -2   -1    0    0    0  501  0.00000000000E+00  0.00000000000E+00  0.55531210504E+03  0.55531210504E+03  0.25500000920E-02 0.  1.
        2   -1    0    0  501    0  0.00000000000E+00  0.00000000000E+00 -0.12985565739E+04  0.12985565739E+04  0.25500000920E-02 0. -1.
    10030    2    1    2    0    0  0.00000000000E+00  0.00000000000E+00 -0.74324446886E+03  0.18538686789E+04  0.16983570703E+04 0.  0.
        3    1    3    3  502    0 -0.17936072754E+02  0.56590840532E+03  0.31920200786E+03  0.64997227475E+03  0.10100000352E+00 0.  1.
       -3    1    3    3    0  502  0.17936072754E+02 -0.56590840532E+03 -0.10624464767E+04  0.12038964042E+04  0.10100000352E+00 0. -1.
</event>
<event>
 5   0  0.5671132E-05  0.1715045E+04  0.7818609E-02  0.8752830E-01
       -2   -1    0    0    0  501  0.00000000000E+00  0.00000000000E+00  0.78543131778E+03  0.78543131779E+03  0.25500000920E-02 0. -1.
        2   -1    0    0  501    0  0.00000000000E+00  0.00000000000E+00 -0.93623075688E+03  0.93623075688E+03  0.25500000920E-02 0.  1.
    10030    2    1    2    0    0  0.00000000000E+00  0.00000000000E+00 -0.15079943909E+03  0.17216620747E+04  0.17150451389E+04 0.  0.
        3    1    3    3  502    0  0.50580841169E+03 -0.19226143214E+03 -0.74320186316E+03  0.91932346170E+03  0.10100000352E+00 0.  1.
       -3    1    3    3    0  502 -0.50580841169E+03  0.19226143214E+03  0.59240242407E+03  0.80233861297E+03  0.10100000352E+00 0. -1.
</event>
<event>
 5   0  0.2967704E-05  0.1693328E+04  0.7818609E-02  0.8765179E-01
        1   -1    0    0  501    0  0.00000000000E+00  0.00000000000E+00  0.11165820232E+04  0.11165820232E+04  0.50400001928E-02 0.  1.
       -1   -1    0    0    0  501  0.00000000000E+00  0.00000000000E+00 -0.64199483650E+03  0.64199483652E+03  0.50400001928E-02 0. -1.
    10030    2    1    2    0    0  0.00000000000E+00  0.00000000000E+00  0.47458718667E+03  0.17585768597E+04  0.16933279581E+04 0.  0.
        2    1    3    3  502    0 -0.41519997802E+03  0.54488571484E+03 -0.27942056642E+03  0.73984276500E+03  0.25500000920E-02 0. -1.
       -2    1    3    3    0  502  0.41519997802E+03 -0.54488571484E+03  0.75400775309E+03  0.10187340947E+04  0.25500000920E-02 0.  1.
</event>
<event>
 5   0  0.2987859E-05  0.1711307E+04  0.7818609E-02  0.8754942E-01
        1   -1    0    0  501    0  0.00000000000E+00  0.00000000000E+00  0.12934462276E+04  0.12934462276E+04  0.50400001928E-02 0. -1.
       -1   -1    0    0    0  501  0.00000000000E+00  0.00000000000E+00 -0.56604015047E+03  0.56604015049E+03  0.50400001928E-02 0.  1.
    10030    2    1    2    0    0  0.00000000000E+00  0.00000000000E+00  0.72740607709E+03  0.18594863781E+04  0.17113065153E+04 0.  0.
        5    1    3    3  502    0  0.34654153356E+03 -0.76217204673E+03  0.17200974093E+03  0.85475534762E+03  0.46999998093E+01 0.  1.
       -5    1    3    3    0  502 -0.34654153356E+03  0.76217204673E+03  0.55539633615E+03  0.10047310304E+04  0.46999998093E+01 0. -1.
</event>
<event>
 5   0  0.2911632E-05  0.1699153E+04  0.7818609E-02  0.8761847E-01
       -1   -1    0    0    0  501  0.00000000000E+00  0.00000000000E+00  0.55214072949E+03  0.55214072951E+03  0.50400001928E-02 0.  1.
        1   -1    0    0  501    0  0.00000000000E+00  0.00000000000E+00 -0.13072400926E+04  0.13072400926E+04  0.50400001928E-02 0. -1.
    10030    2    1    2    0    0  0.00000000000E+00  0.00000000000E+00 -0.75509936313E+03  0.18593808221E+04  0.16991533167E+04 0.  0.
        1    1    3    3  502    0 -0.76722925306E+03  0.32720623866E+03 -0.20084217111E+03  0.85792903384E+03  0.50400001928E-02 0. -1.
       -1    1    3    3    0  502  0.76722925306E+03 -0.32720623866E+03 -0.55425719202E+03  0.10014517883E+04  0.50400001928E-02 0.  1.
</event>
<event>
 5   0  0.5859822E-05  0.1696018E+04  0.7818609E-02  0.8763639E-01
       -2   -1    0    0    0  501  0.00000000000E+00  0.00000000000E+00  0.69673545465E+03  0.69673545465E+03  0.25500000920E-02 0.  1.
        2   -1    0    0  501    0  0.00000000000E+00  0.00000000000E+00 -0.10321265023E+04  0.10321265023E+04  0.25500000920E-02 0. -1.
    10030    2    1    2    0    0  0.00000000000E+00  0.00000000000E+00 -0.33539104762E+03  0.17288619569E+04  0.16960178393E+04 0.  0.
        5    1    3    3  502    0 -0.63378094008E+03  0.11594589694E+03  0.39432096143E+03  0.75540243688E+03  0.46999998093E+01 0.  1.
       -5    1    3    3    0  502  0.63378094008E+03 -0.11594589694E+03 -0.72971200905E+03  0.97345952005E+03  0.46999998093E+01 0. -1.
</event>
<event>
 5   0  0.5671132E-05  0.1702905E+04  0.7818609E-02  0.8759709E-01
       -2   -1    0    0    0  501  0.00000000000E+00  0.00000000000E+00  0.34051540265E+03  0.34051540266E+03  0.25500000920E-02 0.  1.
        2   -1    0    0  501    0  0.00000000000E+00  0.00000000000E+00 -0.21290425357E+04  0.21290425357E+04  0.25500000920E-02 0. -1.
    10030    2    1    2    0    0  0.00000000000E+00  0.00000000000E+00 -0.17885271331E+04  0.24695579384E+04  0.17029054892E+04 0.  0.
        3    1    3    3  502    0 -0.20578359083E+03  0.16527017537E+03 -0.20682208292E+04  0.20849936512E+04  0.10100000352E+00 0. -1.
       -3    1    3    3    0  502  0.20578359083E+03 -0.16527017537E+03  0.27969369611E+03  0.38456428717E+03  0.10100000352E+00 0.  1.
</event>
<event>
 5   0  0.5755321E-05  0.1699040E+04  0.7818609E-02  0.8761912E-01
       -2   -1    0    0    0  501  0.00000000000E+00  0.00000000000E+00  0.67584547733E+03  0.67584547734E+03  0.25500000920E-02 0.  1.
        2   -1    0    0  501    0  0.00000000000E+00  0.00000000000E+00 -0.10678248110E+04  0.10678248110E+04  0.25500000920E-02 0. -1.
    10030    2    1    2    0    0  0.00000000000E+00  0.00000000000E+00 -0.39197933364E+03  0.17436702883E+04  0.16990403987E+04 0.  0.
        4    1    3    3  502    0 -0.56440572507E+03 -0.20516377380E+03 -0.81263648310E+03  0.10104581452E+04  0.12699999809E+01 0. -1.
       -4    1    3    3    0  502  0.56440572507E+03  0.20516377380E+03  0.42065714946E+03  0.73321214315E+03  0.12699999809E+01 0.  1.
</event>
<event>
 5   0  0.5671132E-05  0.1699821E+04  0.7818609E-02  0.8761466E-01
        2   -1    0    0  501    0  0.00000000000E+00  0.00000000000E+00  0.18321375915E+04  0.18321375915E+04  0.25500000920E-02 0.  1.
       -2   -1    0    0    0  501  0.00000000000E+00  0.00000000000E+00 -0.39426515991E+03  0.39426515991E+03  0.25500000920E-02 0. -1.
    10030    2    1    2    0    0  0.00000000000E+00  0.00000000000E+00  0.14378724316E+04  0.22264027514E+04  0.16998211912E+04 0.  0.
        3    1    3    3  502    0 -0.16115467176E+03  0.74517067295E+03  0.12109312159E+04  0.14309453449E+04  0.10100000352E+00 0.  1.
       -3    1    3    3    0  502  0.16115467176E+03 -0.74517067295E+03  0.22694121565E+03  0.79545740654E+03  0.10100000352E+00 0. -1.
</event>
<event>
 5   0  0.2987859E-05  0.1700992E+04  0.7818609E-02  0.8760799E-01
        1   -1    0    0  501    0  0.00000000000E+00  0.00000000000E+00  0.99863058150E+03  0.99863058151E+03  0.50400001928E-02 0.  1.
       -1   -1    0    0    0  501  0.00000000000E+00  0.00000000000E+00 -0.72433499225E+03  0.72433499227E+03  0.50400001928E-02 0. -1.
    10030    2    1    2    0    0  0.00000000000E+00  0.00000000000E+00  0.27429558925E+03  0.17229655738E+04  0.17009915632E+04 0.  0.
        5    1    3    3  502    0  0.82319764347E+03 -0.19285655947E+03  0.23038565973E+03  0.87632622633E+03  0.46999998093E+01 0.  1.
       -5    1    3    3    0  502 -0.82319764347E+03  0.19285655947E+03  0.43909929521E+02  0.84663934745E+03  0.46999998093E+01 0. -1.
</event>
<event>
 5   0  0.2966258E-05  0.1704429E+04  0.7818609E-02  0.8758842E-01
        1   -1    0    0  501    0  0.00000000000E+00  0.00000000000E+00  0.96348294117E+03  0.96348294118E+03  0.50400001928E-02 0. -1.
       -1   -1    0    0    0  501  0.00000000000E+00  0.00000000000E+00 -0.75379596317E+03  0.75379596318E+03  0.50400001928E-02 0.  1.
    10030    2    1    2    0    0  0.00000000000E+00  0.00000000000E+00  0.20968697800E+03  0.17172789044E+04  0.17044289972E+04 0.  0.
        4    1    3    3  502    0 -0.67772754309E+02  0.58420409828E+03 -0.51655610567E+03  0.78276394774E+03  0.12699999809E+01 0.  1.
       -4    1    3    3    0  502  0.67772754309E+02 -0.58420409828E+03  0.72624308367E+03  0.93451495662E+03  0.12699999809E+01 0. -1.
</event>
<event>
 5   0  0.2987859E-05  0.1700408E+04  0.7818609E-02  0.8761132E-01
       -1   -1    0    0    0  501  0.00000000000E+00  0.00000000000E+00  0.60000683629E+03  0.60000683631E+03  0.50400001928E-02 0. -1.
        1   -1    0    0  501    0  0.00000000000E+00  0.00000000000E+00 -0.12047312230E+04  0.12047312230E+04  0.50400001928E-02 0.  1.
    10030    2    1    2    0    0  0.00000000000E+00  0.00000000000E+00 -0.60472438667E+03  0.18047380593E+04  0.17004081506E+04 0.  0.
        5    1    3    3  502    0  0.83710787610E+03 -0.96914354816E+02 -0.42189032582E+03  0.94242003662E+03  0.46999998093E+01 0.  1.
       -5    1    3    3    0  502 -0.83710787610E+03  0.96914354816E+02 -0.18283406085E+03  0.86231802266E+03  0.46999998093E+01 0. -1.
</event>
<event>
 5   0  0.2966258E-05  0.1701743E+04  0.7818609E-02  0.8760371E-01
        1   -1    0    0  501    0  0.00000000000E+00  0.00000000000E+00  0.57118262689E+03  0.57118262692E+03  0.50400001928E-02 0. -1.
       -1   -1    0    0    0  501  0.00000000000E+00  0.00000000000E+00 -0.12675150586E+04  0.12675150586E+04  0.50400001928E-02 0.  1.
    10030    2    1    2    0    0  0.00000000000E+00  0.00000000000E+00 -0.69633243168E+03  0.18386976855E+04  0.17017433188E+04 0.  0.
        4    1    3    3  502    0 -0.49964554336E+03  0.51976302860E+03 -0.83639645606E+03  0.11042463129E+04  0.12699999809E+01 0.  1.
       -4    1    3    3    0  502  0.49964554336E+03 -0.51976302860E+03  0.14006402439E+03  0.73445137261E+03  0.12699999809E+01 0. -1.
</event>
<event>
 5   0  0.5671132E-05  0.1699318E+04  0.7818609E-02  0.8761754E-01
       -2   -1    0    0    0  501  0.00000000000E+00  0.00000000000E+00  0.37988359092E+03  0.37988359093E+03  0.25500000920E-02 0.  1.
        2   -1    0    0  501    0  0.00000000000E+00  0.00000000000E+00 -0.19003721109E+04  0.19003721109E+04  0.25500000920E-02 0. -1.
    10030    2    1    2    0    0  0.00000000000E+00  0.00000000000E+00 -0.15204885200E+04  0.22802557018E+04  0.16993177238E+04 0.  0.
        3    1    3    3  502    0  0.36543073951E+02  0.44777515510E+03  0.20746512367E+03  0.49485328484E+03  0.10100000352E+00 0.  1.
       -3    1    3    3    0  502 -0.36543073951E+02 -0.44777515510E+03 -0.17279536436E+04  0.17854024170E+04  0.10100000352E+00 0. -1.
</event>
<event>
 5   0  0.2993769E-05  0.1698445E+04  0.7818609E-02  0.8762252E-01
        1   -1    0    0  501    0  0.00000000000E+00  0.00000000000E+00  0.10565498869E+04  0.10565498869E+04  0.50400001928E-02 0.  1.
       -1   -1    0    0    0  501  0.00000000000E+00  0.00000000000E+00 -0.68257911848E+03  0.68257911850E+03  0.50400001928E-02 0. -1.
    10030    2    1    2    0    0  0.00000000000E+00  0.00000000000E+00  0.37397076841E+03  0.17391290054E+04  0.16984450423E+04 0.  0.
        3    1    3    3  502    0 -0.37863309826E+02 -0.34099997813E+03  0.98242291555E+03  0.10406101146E+04  0.10100000352E+00 0.  1.
       -3    1    3    3    0  502  0.37863309826E+02  0.34099997813E+03 -0.60845214714E+03  0.69851889085E+03  0.10100000352E+00 0. -1.
</event>
<event>
 5   0  0.2098250E-05  0.1699571E+04  0.7818609E-02  0.8761609E-01
        4   -1    0    0  501    0  0.00000000000E+00  0.00000000000E+00  0.88580127391E+03  0.88580218433E+03  0.12699999809E+01 0. -1.
       -4   -1    0    0    0  501  0.00000000000E+00  0.00000000000E+00 -0.81523271955E+03  0.81523370877E+03  0.12699999809E+01 0.  1.
    10030    2    1    2    0    0  0.00000000000E+00  0.00000000000E+00  0.70568554359E+02  0.17010358931E+04  0.16995714721E+04 0.  0.
        2    1    3    3  502    0  0.75039970519E+03 -0.31437477879E+03 -0.21029335268E+03  0.84033000261E+03  0.25500000920E-02 0.  1.
       -2    1    3    3    0  502 -0.75039970519E+03  0.31437477879E+03  0.28086190704E+03  0.86070589049E+03  0.25500000920E-02 0. -1.
</event>
<event>
 5   0  0.5671132E-05  0.1704049E+04  0.7818609E-02  0.8759059E-01
       -2   -1    0    0    0  501  0.00000000000E+00  0.00000000000E+00  0.86087597882E+03  0.86087597882E+03  0.25500000920E-02 0.  1.
        2   -1    0    0  501    0  0.00000000000E+00  0.00000000000E+00 -0.84326386977E+03  0.84326386977E+03  0.25500000920E-02 0. -1.
    10030    2    1    2    0    0  0.00000000000E+00  0.00000000000E+00  0.17612109053E+02  0.17041398486E+04  0.17040488365E+04 0.  0.
        3    1    3    3  502    0  0.80412572294E+03  0.14692908157E+03  0.24910885014E+03  0.85455342883E+03  0.10100000352E+00 0. -1.
       -3    1    3    3    0  502 -0.80412572294E+03 -0.14692908157E+03 -0.23149674109E+03  0.84958641976E+03  0.10100000352E+00 0.  1.
</event>
<event>
 5   0  0.2993769E-05  0.1700734E+04  0.7818609E-02  0.8760946E-01
       -1   -1    0    0    0  501  0.00000000000E+00  0.00000000000E+00  0.35296799909E+03  0.35296799912E+03  0.50400001928E-02 0.  1.
        1   -1    0    0  501    0  0.00000000000E+00  0.00000000000E+00 -0.20486946275E+04  0.20486946275E+04  0.50400001928E-02 0. -1.
    10030    2    1    2    0    0  0.00000000000E+00  0.00000000000E+00 -0.16957266284E+04  0.24016626266E+04  0.17007335399E+04 0.  0.
        3    1    3    3  502    0  0.54540753119E+03  0.64362523036E+03 -0.99864333105E+03  0.13072915991E+04  0.10100000352E+00 0. -1.
       -3    1    3    3    0  502 -0.54540753119E+03 -0.64362523036E+03 -0.69708329736E+03  0.10943710275E+04  0.10100000352E+00 0.  1.
</event>
<event>
 5   0  0.5755321E-05  0.1701278E+04  0.7818609E-02  0.8760636E-01
       -2   -1    0    0    0  501  0.00000000000E+00  0.00000000000E+00  0.53029429610E+03  0.53029429611E+03  0.25500000920E-02 0.  1.
        2   -1    0    0  501    0  0.00000000000E+00  0.00000000000E+00 -0.13644995711E+04  0.13644995711E+04  0.25500000920E-02 0. -1.
    10030    2    1    2    0    0  0.00000000000E+00  0.00000000000E+00 -0.83420527500E+03  0.18947938672E+04  0.17012775665E+04 0.  0.
        4    1    3    3  502    0 -0.12384291591E+03 -0.41262030541E+03 -0.12340136702E+04  0.13070516193E+04  0.12699999809E+01 0. -1.
       -4    1    3    3    0  502  0.12384291591E+03  0.41262030541E+03  0.39980839520E+03  0.58774224796E+03  0.12699999809E+01 0.  1.
</event>
<event>
 5   0  0.2098250E-05  0.1652024E+04  0.7818609E-02  0.8789210E-01
       -4   -1    0    0    0  501  0.00000000000E+00  0.00000000000E+00  0.11703366041E+04  0.11703372932E+04  0.12699999809E+01 0. -1.
        4   -1    0    0  501    0  0.00000000000E+00  0.00000000000E+00 -0.58298950955E+03  0.58299089285E+03  0.12699999809E+01 0.  1.
    10030    2    1    2    0    0  0.00000000000E+00  0.00000000000E+00  0.58734709458E+03  0.17533281860E+04  0.16520239461E+04 0.  0.
        4    1    3    3  502    0  0.82559387602E+03  0.25282224150E+02  0.30115776201E+03  0.87917122877E+03  0.12699999809E+01 0. -1.
       -4    1    3    3    0  502 -0.82559387602E+03 -0.25282224150E+02  0.28618933257E+03  0.87415695728E+03  0.12699999809E+01 0.  1.
</event>
<event>
 5   0  0.2967704E-05  0.1707562E+04  0.7818609E-02  0.8757063E-01
       -1   -1    0    0    0  501  0.00000000000E+00  0.00000000000E+00  0.92575003132E+03  0.92575003133E+03  0.50400001928E-02 0. -1.
        1   -1    0    0  501    0  0.00000000000E+00  0.00000000000E+00 -0.78740672732E+03  0.78740672733E+03  0.50400001928E-02 0.  1.
    10030    2    1    2    0    0  0.00000000000E+00  0.00000000000E+00  0.13834330400E+03  0.17131567587E+04  0.17075617734E+04 0.  0.
        2    1    3    3  502    0 -0.46664385572E+03 -0.31002054491E+03  0.71554389795E+03  0.90877516265E+03  0.25500000920E-02 0. -1.
       -2    1    3    3    0  502  0.46664385572E+03  0.31002054491E+03 -0.57720059395E+03  0.80438159602E+03  0.25500000920E-02 0.  1.
</event>
<event>
 5   0  0.2966258E-05  0.1704378E+04  0.7818609E-02  0.8758871E-01
       -1   -1    0    0    0  501  0.00000000000E+00  0.00000000000E+00  0.34183584757E+03  0.34183584760E+03  0.50400001928E-02 0.  1.
        1   -1    0    0  501    0  0.00000000000E+00  0.00000000000E+00 -0.21244890522E+04  0.21244890522E+04  0.50400001928E-02 0. -1.
    10030    2    1    2    0    0  0.00000000000E+00  0.00000000000E+00 -0.17826532046E+04  0.24663248998E+04  0.17043784977E+04 0.  0.
        4    1    3    3  502    0  0.74247270567E+03 -0.79298843380E+02 -0.14856246362E+04  0.16627195187E+04  0.12699999809E+01 0.  1.
       -4    1    3    3    0  502 -0.74247270567E+03  0.79298843380E+02 -0.29702856846E+03  0.80360538115E+03  0.12699999809E+01 0. -1.
</event>
<event>
 5   0  0.2993769E-05  0.1701390E+04  0.7818609E-02  0.8760572E-01
       -1   -1    0    0    0  501  0.00000000000E+00  0.00000000000E+00  0.11671289662E+04  0.11671289662E+04  0.50400001928E-02 0. -1.
        1   -1    0    0  501    0  0.00000000000E+00  0.00000000000E+00 -0.62005314055E+03  0.62005314057E+03  0.50400001928E-02 0.  1.
    10030    2    1    2    0    0  0.00000000000E+00  0.00000000000E+00  0.54707582566E+03  0.17871821068E+04  0.17013899976E+04 0.  0.
        3    1    3    3  502    0 -0.77165555792E+02  0.76412838738E+03  0.65782005085E+03  0.10112239835E+04  0.10100000352E+00 0. -1.
       -3    1    3    3    0  502  0.77165555792E+02 -0.76412838738E+03 -0.11074422519E+03  0.77595812324E+03  0.10100000352E+00 0.  1.
</event>
<event>
 5   0  0.2987859E-05  0.1698307E+04  0.7818609E-02  0.8762330E-01
        1   -1    0    0  501    0  0.00000000000E+00  0.00000000000E+00  0.16325908728E+04  0.16325908728E+04  0.50400001928E-02 0. -1.
       -1   -1    0    0    0  501  0.00000000000E+00  0.00000000000E+00 -0.44166733239E+03  0.44166733242E+03  0.50400001928E-02 0.  1.
    10030    2    1    2    0    0  0.00000000000E+00  0.00000000000E+00  0.11909235404E+04  0.20742582052E+04  0.16983074583E+04 0.  0.
        5    1    3    3  502    0 -0.41824346583E+03 -0.39917811099E+03  0.13550398856E+04  0.14732365535E+04  0.46999998093E+01 0. -1.
       -5    1    3    3    0  502  0.41824346583E+03  0.39917811099E+03 -0.16411634525E+03  0.60102165167E+03  0.46999998093E+01 0.  1.
</event>
<event>
 5   0  0.5671132E-05  0.1700035E+04  0.7818609E-02  0.8761344E-01
        2   -1    0    0  501    0  0.00000000000E+00  0.00000000000E+00  0.10250488673E+04  0.10250488673E+04  0.25500000920E-02 0. -1.
       -2   -1    0    0    0  501  0.00000000000E+00  0.00000000000E+00 -0.70487373375E+03  0.70487373375E+03  0.25500000920E-02 0.  1.
    10030    2    1    2    0    0  0.00000000000E+00  0.00000000000E+00  0.32017513354E+03  0.17299226010E+04  0.17000353201E+04 0.  0.
        3    1    3    3  502    0  0.40832052733E+03 -0.49630829164E+03 -0.40600406308E+03  0.76018871528E+03  0.10100000352E+00 0.  1.
       -3    1    3    3    0  502 -0.40832052733E+03  0.49630829164E+03  0.72617919662E+03  0.96973388576E+03  0.10100000352E+00 0. -1.
</event>
<event>
 5   0  0.2911632E-05  0.1699198E+04  0.7818609E-02  0.8761822E-01
        1   -1    0    0  501    0  0.00000000000E+00  0.00000000000E+00  0.11842720485E+04  0.11842720485E+04  0.50400001928E-02 0.  1.
       -1   -1    0    0    0  501  0.00000000000E+00  0.00000000000E+00 -0.60950398299E+03  0.60950398301E+03  0.50400001928E-02 0. -1.
    10030    2    1    2    0    0  0.00000000000E+00  0.00000000000E+00  0.57476806549E+03  0.17937760315E+04  0.16991980821E+04 0.  0.
        1    1    3    3  502    0  0.69697172111E+03 -0.46745779932E+03  0.42716301522E+03  0.94167649210E+03  0.50400001928E-02 0.  1.
       -1    1    3    3    0  502 -0.69697172111E+03  0.46745779932E+03  0.14760505026E+03  0.85209953941E+03  0.50400001928E-02 0. -1.
</event>
<event>
 5   0  0.5821584E-05  0.1703223E+04  0.7818609E-02  0.8759528E-01
       -2   -1    0    0    0  501  0.00000000000E+00  0.00000000000E+00  0.54759112909E+03  0.54759112910E+03  0.25500000920E-02 0. -1.
        2   -1    0    0  501    0  0.00000000000E+00  0.00000000000E+00 -0.13244222185E+04  0.13244222185E+04  0.25500000920E-02 0.  1.
    10030    2    1    2    0    0  0.00000000000E+00  0.00000000000E+00 -0.77683108938E+03  0.18720133476E+04  0.17032226607E+04 0.  0.
        1    1    3    3  502    0  0.83567380825E+03 -0.16299626076E+03 -0.40817990631E+03  0.94420830899E+03  0.50400001928E-02 0.  1.
       -1    1    3    3    0  502 -0.83567380825E+03  0.16299626076E+03 -0.36865118307E+03  0.92780503859E+03  0.50400001928E-02 0. -1.
</event>
<event>
 5   0  0.2993769E-05  0.1698803E+04  0.7818609E-02  0.8762048E-01
        1   -1    0    0  501    0  0.00000000000E+00  0.00000000000E+00  0.11258903717E+04  0.11258903717E+04  0.50400001928E-02 0. -1.
       -1   -1    0    0    0  501  0.00000000000E+00  0.00000000000E+00 -0.64081061718E+03  0.64081061720E+03  0.50400001928E-02 0.  1.
    10030    2    1    2    0    0  0.00000000000E+00  0.00000000000E+00  0.48507975449E+03  0.17667009889E+04  0.16988025241E+04 0.  0.
        3    1    3    3  502    0  0.69321760283E+03  0.18371852222E+03 -0.23082212285E+03  0.75338038392E+03  0.10100000352E+00 0.  1.
       -3    1    3    3    0  502 -0.69321760283E+03 -0.18371852222E+03  0.71590187734E+03  0.10133206050E+04  0.10100000352E+00 0. -1.
</event>
<event>
 5   0  0.2967704E-05  0.1698816E+04  0.7818609E-02  0.8762040E-01
       -1   -1    0    0    0  501  0.00000000000E+00  0.00000000000E+00  0.60753924962E+03  0.60753924965E+03  0.50400001928E-02 0.  1.
        1   -1    0    0  501    0  0.00000000000E+00  0.00000000000E+00 -0.11875670369E+04  0.11875670369E+04  0.50400001928E-02 0. -1.
    10030    2    1    2    0    0  0.00000000000E+00  0.00000000000E+00 -0.58002778726E+03  0.17951062865E+04  0.16988155715E+04 0.  0.
        2    1    3    3  502    0  0.48760588975E+02 -0.81418083753E+03 -0.39454429696E+02  0.81659334020E+03  0.25500000920E-02 0.  1.
       -2    1    3    3    0  502 -0.48760588975E+02  0.81418083753E+03 -0.54057335757E+03  0.97851294634E+03  0.25500000920E-02 0. -1.
</event>
<event>
 5   0  0.2987859E-05  0.1697659E+04  0.7818609E-02  0.8762701E-01
        1   -1    0    0  501    0  0.00000000000E+00  0.00000000000E+00  0.16664860976E+04  0.16664860976E+04  0.50400001928E-02 0.  1.
       -1   -1    0    0    0  501  0.00000000000E+00  0.00000000000E+00 -0.43235367564E+03  0.43235367567E+03  0.50400001928E-02 0. -1.
    10030    2    1    2    0    0  0.00000000000E+00  0.00000000000E+00  0.12341324219E+04  0.20988397733E+04  0.16976588465E+04 0.  0.
        5    1    3    3  502    0 -0.26520720698E+03 -0.36137752447E+03 -0.27407601010E+03  0.52542204668E+03  0.46999998093E+01 0. -1.
       -5    1    3    3    0  502  0.26520720698E+03  0.36137752447E+03  0.15082084320E+04  0.15734177266E+04  0.46999998093E+01 0.  1.
</event>
<event>
 5   0  0.5859822E-05  0.1695421E+04  0.7818609E-02  0.8763980E-01
       -2   -1    0    0    0  501  0.00000000000E+00  0.00000000000E+00  0.79163151252E+03  0.79163151253E+03  0.25500000920E-02 0.  1.
        2   -1    0    0  501    0  0.00000000000E+00  0.00000000000E+00 -0.90776212205E+03  0.90776212205E+03  0.25500000920E-02 0. -1.
    10030    2    1    2    0    0  0.00000000000E+00  0.00000000000E+00 -0.11613060952E+03  0.16993936346E+04  0.16954210117E+04 0.  0.
        5    1    3    3  502    0 -0.16945956686E+03  0.57252177220E+03  0.54508654331E+03  0.80847953230E+03  0.46999998093E+01 0.  1.
       -5    1    3    3    0  502  0.16945956686E+03 -0.57252177220E+03 -0.66121715283E+03  0.89091410228E+03  0.46999998093E+01 0. -1.
</event>
<event>
 5   0  0.5859822E-05  0.1699657E+04  0.7818609E-02  0.8761560E-01
        2   -1    0    0  501    0  0.00000000000E+00  0.00000000000E+00  0.13693914195E+04  0.13693914195E+04  0.25500000920E-02 0.  1.
       -2   -1    0    0    0  501  0.00000000000E+00  0.00000000000E+00 -0.52739406159E+03  0.52739406159E+03  0.25500000920E-02 0. -1.
    10030    2    1    2    0    0  0.00000000000E+00  0.00000000000E+00  0.84199735794E+03  0.18967854811E+04  0.16996574980E+04 0.  0.
        5    1    3    3  502    0 -0.84082252764E+03 -0.11882013181E+02  0.55796509407E+03  0.10091931636E+04  0.46999998093E+01 0.  1.
       -5    1    3    3    0  502  0.84082252764E+03  0.11882013181E+02  0.28403226387E+03  0.88759231753E+03  0.46999998093E+01 0. -1.
</event>
<event>
 5   0  0.5859822E-05  0.1691070E+04  0.7818609E-02  0.8766474E-01
        2   -1    0    0  501    0  0.00000000000E+00  0.00000000000E+00  0.75932899889E+03  0.75932899890E+03  0.25500000920E-02 0. -1.
       -2   -1    0    0    0  501  0.00000000000E+00  0.00000000000E+00 -0.94152751686E+03  0.94152751686E+03  0.25500000920E-02 0.  1.
    10030    2    1    2    0    0  0.00000000000E+00  0.00000000000E+00 -0.18219851797E+03  0.17008565158E+04  0.16910696577E+04 0.  0.
        5    1    3    3  502    0 -0.46627426888E+03  0.58155036839E+03  0.31032777361E+03  0.80742674086E+03  0.46999998093E+01 0.  1.
       -5    1    3    3    0  502  0.46627426888E+03 -0.58155036839E+03 -0.49252629157E+03  0.89342977490E+03  0.46999998093E+01 0. -1.
</event>
<event>
 5   0  0.2966258E-05  0.1703646E+04  0.7818609E-02  0.8759288E-01
        1   -1    0    0  501    0  0.00000000000E+00  0.00000000000E+00  0.13970087396E+04  0.13970087396E+04  0.50400001928E-02 0. -1.
       -1   -1    0    0    0  501  0.00000000000E+00  0.00000000000E+00 -0.51939734635E+03  0.51939734638E+03  0.50400001928E-02 0.  1.
    10030    2    1    2    0    0  0.00000000000E+00  0.00000000000E+00  0.87761139325E+03  0.19164060860E+04  0.17036462452E+04 0.  0.
        4    1    3    3  502    0 -0.13100707376E+03 -0.10239768835E+03 -0.50096342817E+03  0.52783909405E+03  0.12699999809E+01 0.  1.
       -4    1    3    3    0  502  0.13100707376E+03  0.10239768835E+03  0.13785748214E+04  0.13885669919E+04  0.12699999809E+01 0. -1.
</event>
<event>
 5   0  0.5652631E-05  0.1698125E+04  0.7818609E-02  0.8762435E-01
        2   -1    0    0  501    0  0.00000000000E+00  0.00000000000E+00  0.98944615024E+03  0.98944615025E+03  0.25500000920E-02 0.  1.
       -2   -1    0    0    0  501  0.00000000000E+00  0.00000000000E+00 -0.72859653338E+03  0.72859653339E+03  0.25500000920E-02 0. -1.
    10030    2    1    2    0    0  0.00000000000E+00  0.00000000000E+00  0.26084961686E+03  0.17180426836E+04  0.16981248894E+04 0.  0.
        2    1    3    3  502    0 -0.45998075064E+03  0.10801202327E+03  0.84414811846E+03  0.96738561806E+03  0.25500000920E-02 0.  1.
       -2    1    3    3    0  502  0.45998075064E+03 -0.10801202327E+03 -0.58329850160E+03  0.75065706557E+03  0.25500000920E-02 0. -1.
</event>
<event>
 5   0  0.5671132E-05  0.1699391E+04  0.7818609E-02  0.8761712E-01
        2   -1    0    0  501    0  0.00000000000E+00  0.00000000000E+00  0.21532210006E+04  0.21532210006E+04  0.25500000920E-02 0. -1.
       -2   -1    0    0    0  501  0.00000000000E+00  0.00000000000E+00 -0.33530337402E+03  0.33530337403E+03  0.25500000920E-02 0.  1.
    10030    2    1    2    0    0  0.00000000000E+00  0.00000000000E+00  0.18179176266E+04  0.24885243747E+04  0.16993907927E+04 0.  0.
        3    1    3    3  502    0 -0.37047222203E+03 -0.72761977179E+03  0.56459359532E+03  0.99269639753E+03  0.10100000352E+00 0.  1.
       -3    1    3    3    0  502  0.37047222203E+03  0.72761977179E+03  0.12533240313E+04  0.14958279771E+04  0.10100000352E+00 0. -1.
</event>
<event>
 5   0  0.2911632E-05  0.1704582E+04  0.7818609E-02  0.8758755E-01
        1   -1    0    0  501    0  0.00000000000E+00  0.00000000000E+00  0.13970769826E+04  0.13970769826E+04  0.50400001928E-02 0. -1.
       -1   -1    0    0    0  501  0.00000000000E+00  0.00000000000E+00 -0.51994269052E+03  0.51994269054E+03  0.50400001928E-02 0.  1.
    10030    2    1    2    0    0  0.00000000000E+00  0.00000000000E+00  0.87713429205E+03  0.19170196731E+04  0.17045820194E+04 0.  0.
        1    1    3    3  502    0 -0.31829621717E+03  0.69722723527E+03  0.19333459182E+02  0.76668903875E+03  0.50400001928E-02 0.  1.
       -1    1    3    3    0  502  0.31829621717E+03 -0.69722723527E+03  0.85780083287E+03  0.11503306344E+04  0.50400001928E-02 0. -1.
</event>
<event>
 5   0  0.5671132E-05  0.1713324E+04  0.7818609E-02  0.8753802E-01
        2   -1    0    0  501    0  0.00000000000E+00  0.00000000000E+00  0.94753470336E+03  0.94753470336E+03  0.25500000920E-02 0. -1.
       -2   -1    0    0    0  501  0.00000000000E+00  0.00000000000E+00 -0.77450427929E+03  0.77450427929E+03  0.25500000920E-02 0.  1.
    10030    2    1    2    0    0  0.00000000000E+00  0.00000000000E+00  0.17303042407E+03  0.17220389827E+04  0.17133238836E+04 0.  0.
        3    1    3    3  502    0 -0.30727783716E+03  0.22578171707E+03  0.85753698079E+03  0.93849173496E+03  0.10100000352E+00 0. -1.
       -3    1    3    3    0  502  0.30727783716E+03 -0.22578171707E+03 -0.68450655672E+03  0.78354724769E+03  0.10100000352E+00 0.  1.
</event>
<event>
 5   0  0.2966258E-05  0.1705800E+04  0.7818609E-02  0.8758064E-01
       -1   -1    0    0    0  501  0.00000000000E+00  0.00000000000E+00  0.43161500162E+03  0.43161500165E+03  0.50400001928E-02 0. -1.
        1   -1    0    0  501    0  0.00000000000E+00  0.00000000000E+00 -0.16853865510E+04  0.16853865510E+04  0.50400001928E-02 0.  1.
    10030    2    1    2    0    0  0.00000000000E+00  0.00000000000E+00 -0.12537715494E+04  0.21170015527E+04  0.17057996588E+04 0.  0.
        4    1    3    3  502    0  0.38176607401E+03 -0.26538922806E+02 -0.15728534734E+04  0.16187400382E+04  0.12699999809E+01 0.  1.
       -4    1    3    3    0  502 -0.38176607401E+03  0.26538922806E+02  0.31908192398E+03  0.49826151447E+03  0.12699999809E+01 0. -1.
</event>
<event>
 5   0  0.5859822E-05  0.1699559E+04  0.7818609E-02  0.8761616E-01
       -2   -1    0    0    0  501  0.00000000000E+00  0.00000000000E+00  0.42521037086E+03  0.42521037087E+03  0.25500000920E-02 0.  1.
        2   -1    0    0  501    0  0.00000000000E+00  0.00000000000E+00 -0.16982781316E+04  0.16982781316E+04  0.25500000920E-02 0. -1.
    10030    2    1    2    0    0  0.00000000000E+00  0.00000000000E+00 -0.12730677608E+04  0.21234885025E+04  0.16995593243E+04 0.  0.
        5    1    3    3  502    0  0.56825379649E+03  0.24358186450E+03  0.91854313193E+02  0.62506304225E+03  0.46999998093E+01 0.  1.
       -5    1    3    3    0  502 -0.56825379649E+03 -0.24358186450E+03 -0.13649220740E+04  0.14984254603E+04  0.46999998093E+01 0. -1.
</event>
<event>
 5   0  0.2993769E-05  0.1695210E+04  0.7818609E-02  0.8764101E-01
       -1   -1    0    0    0  501  0.00000000000E+00  0.00000000000E+00  0.76018286604E+03  0.76018286605E+03  0.50400001928E-02 0. -1.
        1   -1    0    0  501    0  0.00000000000E+00  0.00000000000E+00 -0.94508037581E+03  0.94508037582E+03  0.50400001928E-02 0.  1.
    10030    2    1    2    0    0  0.00000000000E+00  0.00000000000E+00 -0.18489750977E+03  0.17052632419E+04  0.16952096139E+04 0.  0.
        3    1    3    3  502    0  0.28079976136E+03 -0.73163692827E+03 -0.41730796421E+03  0.88785530802E+03  0.10100000352E+00 0. -1.
       -3    1    3    3    0  502 -0.28079976136E+03  0.73163692827E+03  0.23241045443E+03  0.81740793385E+03  0.10100000352E+00 0.  1.
</event>
<event>
 5   0  0.5652631E-05  0.1701542E+04  0.7818609E-02  0.8760485E-01
        2   -1    0    0  501    0  0.00000000000E+00  0.00000000000E+00  0.18714842123E+04  0.18714842123E+04  0.25500000920E-02 0.  1.
       -2   -1    0    0    0  501  0.00000000000E+00  0.00000000000E+00 -0.38675793323E+03  0.38675793324E+03  0.25500000920E-02 0. -1.
    10030    2    1    2    0    0  0.00000000000E+00  0.00000000000E+00  0.14847262790E+04  0.22582421455E+04  0.17015420841E+04 0.  0.
        2    1    3    3  502    0  0.23507136695E+03 -0.12392031031E+03 -0.33026642453E+03  0.42389940085E+03  0.25500000920E-02 0. -1.
       -2    1    3    3    0  502 -0.23507136695E+03  0.12392031031E+03  0.18149927036E+04  0.18343427447E+04  0.25500000920E-02 0.  1.
</event>
<event>
 5   0  0.2987859E-05  0.1705033E+04  0.7818609E-02  0.8758499E-01
       -1   -1    0    0    0  501  0.00000000000E+00  0.00000000000E+00  0.78446493513E+03  0.78446493514E+03  0.50400001928E-02 0.  1.
        1   -1    0    0  501    0  0.00000000000E+00  0.00000000000E+00 -0.92647114716E+03  0.92647114718E+03  0.50400001928E-02 0. -1.
    10030    2    1    2    0    0  0.00000000000E+00  0.00000000000E+00 -0.14200621204E+03  0.17109360823E+04  0.17050327016E+04 0.  0.
        5    1    3    3  502    0 -0.68632993659E+03  0.46757550370E+03 -0.26424818350E+03  0.87150721512E+03  0.46999998093E+01 0. -1.
       -5    1    3    3    0  502  0.68632993659E+03 -0.46757550370E+03  0.12224197146E+03  0.83942886721E+03  0.46999998093E+01 0.  1.
</event>
<event>
 5   0  0.2967704E-05  0.1704237E+04  0.7818609E-02  0.8758951E-01
        1   -1    0    0  501    0  0.00000000000E+00  0.00000000000E+00  0.42419987434E+03  0.42419987437E+03  0.50400001928E-02 0.  1.
       -1   -1    0    0    0  501  0.00000000000E+00  0.00000000000E+00 -0.17117078317E+04  0.17117078317E+04  0.50400001928E-02 0. -1.
    10030    2    1    2    0    0  0.00000000000E+00  0.00000000000E+00 -0.12875079573E+04  0.21359077060E+04  0.17042373627E+04 0.  0.
        2    1    3    3  502    0 -0.21501469031E+03 -0.40212345115E+03 -0.15459257390E+04  0.16117757218E+04  0.25500000920E-02 0. -1.
       -2    1    3    3    0  502  0.21501469031E+03  0.40212345115E+03  0.25841778165E+03  0.52413198423E+03  0.25500000920E-02 0.  1.
</event>
<event>
 5   0  0.2987859E-05  0.1699684E+04  0.7818609E-02  0.8761545E-01
        1   -1    0    0  501    0  0.00000000000E+00  0.00000000000E+00  0.18902070846E+04  0.18902070846E+04  0.50400001928E-02 0.  1.
       -1   -1    0    0    0  501  0.00000000000E+00  0.00000000000E+00 -0.38209117782E+03  0.38209117785E+03  0.50400001928E-02 0. -1.
    10030    2    1    2    0    0  0.00000000000E+00  0.00000000000E+00  0.15081159068E+04  0.22722982624E+04  0.16996840310E+04 0.  0.
        5    1    3    3  502    0 -0.35344185555E+03 -0.41277670191E+03  0.16275562374E+04  0.17158866940E+04  0.46999998093E+01 0.  1.
       -5    1    3    3    0  502  0.35344185555E+03  0.41277670191E+03 -0.11944033061E+03  0.55641156842E+03  0.46999998093E+01 0. -1.
</event>
<event>
 5   0  0.5859822E-05  0.1701576E+04  0.7818609E-02  0.8760466E-01
       -2   -1    0    0    0  501  0.00000000000E+00  0.00000000000E+00  0.13811988131E+04  0.13811988131E+04  0.25500000920E-02 0.  1.
        2   -1    0    0  501    0  0.00000000000E+00  0.00000000000E+00 -0.52406691718E+03  0.52406691719E+03  0.25500000920E-02 0. -1.
    10030    2    1    2    0    0  0.00000000000E+00  0.00000000000E+00  0.85713189595E+03  0.19052657303E+04  0.17015764503E+04 0.  0.
        5    1    3    3  502    0  0.65759487569E+03  0.33782727182E+03  0.89998783430E+03  0.11647139039E+04  0.46999998093E+01 0.  1.
       -5    1    3    3    0  502 -0.65759487569E+03 -0.33782727182E+03 -0.42855938351E+02  0.74055182639E+03  0.46999998093E+01 0. -1.
</event>
<event>
 5   0  0.2987859E-05  0.1699454E+04  0.7818609E-02  0.8761676E-01
        1   -1    0    0  501    0  0.00000000000E+00  0.00000000000E+00  0.16841264451E+04  0.16841264451E+04  0.50400001928E-02 0.  1.
       -1   -1    0    0    0  501  0.00000000000E+00  0.00000000000E+00 -0.42873015399E+03  0.42873015401E+03  0.50400001928E-02 0. -1.
    10030    2    1    2    0    0  0.00000000000E+00  0.00000000000E+00  0.12553962911E+04  0.21128565991E+04  0.16994537831E+04 0.  0.
        5    1    3    3  502    0  0.52255745646E+02 -0.54835132664E+03 -0.17667412509E+03  0.57849431877E+03  0.46999998093E+01 0. -1.
       -5    1    3    3    0  502 -0.52255745646E+02  0.54835132664E+03  0.14320704162E+04  0.15343622804E+04  0.46999998093E+01 0.  1.
</event>
<event>
 5   0  0.5821584E-05  0.1698452E+04  0.7818609E-02  0.8762247E-01
        2   -1    0    0  501    0  0.00000000000E+00  0.00000000000E+00  0.17674542135E+04  0.17674542135E+04  0.25500000920E-02 0.  1.
       -2   -1    0    0    0  501  0.00000000000E+00  0.00000000000E+00 -0.40803614445E+03  0.40803614445E+03  0.25500000920E-02 0. -1.
    10030    2    1    2    0    0  0.00000000000E+00  0.00000000000E+00  0.13594180691E+04  0.21754903580E+04  0.16984524754E+04 0.  0.
        1    1    3    3  502    0  0.43284070242E+03 -0.28327127986E+03  0.15423622045E+04  0.16267989617E+04  0.50400001928E-02 0.  1.
       -1    1    3    3    0  502 -0.43284070242E+03  0.28327127986E+03 -0.18294413546E+03  0.54869139632E+03  0.50400001928E-02 0. -1.
</event>
<event>
 5   0  0.5859822E-05  0.1677795E+04  0.7818609E-02  0.8774131E-01
        2   -1    0    0  501    0  0.00000000000E+00  0.00000000000E+00  0.17341693555E+04  0.17341693555E+04  0.25500000920E-02 0.  1.
       -2   -1    0    0    0  501  0.00000000000E+00  0.00000000000E+00 -0.40581346215E+03  0.40581346216E+03  0.25500000920E-02 0. -1.
    10030    2    1    2    0    0  0.00000000000E+00  0.00000000000E+00  0.13283558933E+04  0.21399828177E+04  0.16777953035E+04 0.  0.
        5    1    3    3  502    0 -0.12327647345E+03  0.81997622803E+03  0.50199173773E+03  0.96931723300E+03  0.46999998093E+01 0. -1.
       -5    1    3    3    0  502  0.12327647345E+03 -0.81997622803E+03  0.82636415561E+03  0.11706655847E+04  0.46999998093E+01 0.  1.
</event>
<event>
 5   0  0.5859822E-05  0.1699091E+04  0.7818609E-02  0.8761883E-01
        2   -1    0    0  501    0  0.00000000000E+00  0.00000000000E+00  0.13938050744E+04  0.13938050744E+04  0.25500000920E-02 0. -1.
       -2   -1    0    0    0  501  0.00000000000E+00  0.00000000000E+00 -0.51781079088E+03  0.51781079089E+03  0.25500000920E-02 0.  1.
    10030    2    1    2    0    0  0.00000000000E+00  0.00000000000E+00  0.87599428356E+03  0.19116158653E+04  0.16990907073E+04 0.  0.
        5    1    3    3  502    0 -0.25265463135E+03  0.79057538995E+03  0.23404552831E+03  0.86234749914E+03  0.46999998093E+01 0.  1.
       -5    1    3    3    0  502  0.25265463135E+03 -0.79057538995E+03  0.64194875525E+03  0.10492683662E+04  0.46999998093E+01 0. -1.
</event>
<event>
 5   0  0.2987859E-05  0.1703228E+04  0.7818609E-02  0.8759526E-01
       -1   -1    0    0    0  501  0.00000000000E+00  0.00000000000E+00  0.56433626519E+03  0.56433626522E+03  0.50400001928E-02 0. -1.
        1   -1    0    0  501    0  0.00000000000E+00  0.00000000000E+00 -0.12851313739E+04  0.12851313739E+04  0.50400001928E-02 0.  1.
    10030    2    1    2    0    0  0.00000000000E+00  0.00000000000E+00 -0.72079510869E+03  0.18494676391E+04  0.17032278061E+04 0.  0.
        5    1    3    3  502    0 -0.64828597901E+03  0.36460837020E+03 -0.81074848835E+03  0.11002495969E+04  0.46999998093E+01 0.  1.
       -5    1    3    3    0  502  0.64828597901E+03 -0.36460837020E+03  0.89953379662E+02  0.74921804217E+03  0.46999998093E+01 0. -1.
</event>
<event>
 5   0  0.2987859E-05  0.1697935E+04  0.7818609E-02  0.8762543E-01
        1   -1    0    0  501    0  0.00000000000E+00  0.00000000000E+00  0.15421017260E+04  0.15421017260E+04  0.50400001928E-02 0. -1.
       -1   -1    0    0    0  501  0.00000000000E+00  0.00000000000E+00 -0.46737899155E+03  0.46737899158E+03  0.50400001928E-02 0.  1.
    10030    2    1    2    0    0  0.00000000000E+00  0.00000000000E+00  0.10747227345E+04  0.20094807176E+04  0.16979351573E+04 0.  0.
        5    1    3    3  502    0 -0.65039592833E+03  0.28376503804E+03 -0.14181223582E+02  0.70976098618E+03  0.46999998093E+01 0.  1.
       -5    1    3    3    0  502  0.65039592833E+03 -0.28376503804E+03  0.10889039580E+04  0.12997197314E+04  0.46999998093E+01 0. -1.
</event>
<event>
 5   0  0.5859822E-05  0.1701997E+04  0.7818609E-02  0.8760226E-01
        2   -1    0    0  501    0  0.00000000000E+00  0.00000000000E+00  0.97893404849E+03  0.97893404850E+03  0.25500000920E-02 0.  1.
       -2   -1    0    0    0  501  0.00000000000E+00  0.00000000000E+00 -0.73978236722E+03  0.73978236722E+03  0.25500000920E-02 0. -1.
    10030    2    1    2    0    0  0.00000000000E+00  0.00000000000E+00  0.23915168127E+03  0.17187164157E+04  0.17019966484E+04 0.  0.
        5    1    3    3  502    0  0.52942061180E+03 -0.43297893596E+03 -0.39177705856E+03  0.78820574522E+03  0.46999998093E+01 0. -1.
       -5    1    3    3    0  502 -0.52942061180E+03  0.43297893596E+03  0.63092873983E+03  0.93051067051E+03  0.46999998093E+01 0.  1.
</event>
<event>
 5   0  0.2966258E-05  0.1698375E+04  0.7818609E-02  0.8762292E-01
        1   -1    0    0  501    0  0.00000000000E+00  0.00000000000E+00  0.73703321609E+03  0.73703321611E+03  0.50400001928E-02 0. -1.
       -1   -1    0    0    0  501  0.00000000000E+00  0.00000000000E+00 -0.97840828762E+03  0.97840828763E+03  0.50400001928E-02 0.  1.
    10030    2    1    2    0    0  0.00000000000E+00  0.00000000000E+00 -0.24137507153E+03  0.17154415037E+04  0.16983749962E+04 0.  0.
        4    1    3    3  502    0  0.65379301747E+03 -0.33546518711E+03 -0.55056455014E+03  0.91820756816E+03  0.12699999809E+01 0.  1.
       -4    1    3    3    0  502 -0.65379301747E+03  0.33546518711E+03  0.30918947861E+03  0.79723393558E+03  0.12699999809E+01 0. -1.
</event>
<event>
 5   0  0.5821584E-05  0.1703402E+04  0.7818609E-02  0.8759426E-01
        2   -1    0    0  501    0  0.00000000000E+00  0.00000000000E+00  0.75343884441E+03  0.75343884441E+03  0.25500000920E-02 0.  1.
       -2   -1    0    0    0  501  0.00000000000E+00  0.00000000000E+00 -0.96277823947E+03  0.96277823947E+03  0.25500000920E-02 0. -1.
    10030    2    1    2    0    0  0.00000000000E+00  0.00000000000E+00 -0.20933939506E+03  0.17162170839E+04  0.17034019187E+04 0.  0.
        1    1    3    3  502    0 -0.56975639556E+03  0.62388382721E+03  0.35682426404E+01  0.84490597851E+03  0.50400001928E-02 0. -1.
       -1    1    3    3    0  502  0.56975639556E+03 -0.62388382721E+03 -0.21290763770E+03  0.87131110538E+03  0.50400001928E-02 0.  1.
</event>
<event>
 5   0  0.2987859E-05  0.1700906E+04  0.7818609E-02  0.8760848E-01
        1   -1    0    0  501    0  0.00000000000E+00  0.00000000000E+00  0.98285711912E+03  0.98285711913E+03  0.50400001928E-02 0. -1.
       -1   -1    0    0    0  501  0.00000000000E+00  0.00000000000E+00 -0.73588552150E+03  0.73588552152E+03  0.50400001928E-02 0.  1.
    10030    2    1    2    0    0  0.00000000000E+00  0.00000000000E+00  0.24697159761E+03  0.17187426407E+04  0.17009060217E+04 0.  0.
        5    1    3    3  502    0  0.42164227802E+03 -0.72437013496E+03 -0.22087161446E+02  0.83845347858E+03  0.46999998093E+01 0. -1.
       -5    1    3    3    0  502 -0.42164227802E+03  0.72437013496E+03  0.26905875906E+03  0.88028916207E+03  0.46999998093E+01 0.  1.
</event>
<event>
 5   0  0.2911632E-05  0.1703618E+04  0.7818609E-02  0.8759304E-01
       -1   -1    0    0    0  501  0.00000000000E+00  0.00000000000E+00  0.84878880066E+03  0.84878880068E+03  0.50400001928E-02 0.  1.
        1   -1    0    0  501    0  0.00000000000E+00  0.00000000000E+00 -0.85483957297E+03  0.85483957298E+03  0.50400001928E-02 0. -1.
    10030    2    1    2    0    0  0.00000000000E+00  0.00000000000E+00 -0.60507723042E+01  0.17036283737E+04  0.17036176284E+04 0.  0.
        1    1    3    3  502    0  0.31653233187E+03  0.35412229702E+03  0.70407378983E+03  0.84930278459E+03  0.50400001928E-02 0.  1.
       -1    1    3    3    0  502 -0.31653233187E+03 -0.35412229702E+03 -0.71012456213E+03  0.85432558907E+03  0.50400001928E-02 0. -1.
</event>
<event>
 5   0  0.2911632E-05  0.1703950E+04  0.7818609E-02  0.8759115E-01
        1   -1    0    0  501    0  0.00000000000E+00  0.00000000000E+00  0.74078292830E+03  0.74078292832E+03  0.50400001928E-02 0.  1.
       -1   -1    0    0    0  501  0.00000000000E+00  0.00000000000E+00 -0.97985712283E+03  0.97985712284E+03  0.50400001928E-02 0. -1.
    10030    2    1    2    0    0  0.00000000000E+00  0.00000000000E+00 -0.23907419452E+03  0.17206400512E+04  0.17039500331E+04 0.  0.
        1    1    3    3  502    0  0.75574089922E+03  0.38682476420E+03 -0.47538481539E+02  0.85031618367E+03  0.50400001928E-02 0. -1.
       -1    1    3    3    0  502 -0.75574089922E+03 -0.38682476420E+03 -0.19153571298E+03  0.87032386749E+03  0.50400001928E-02 0.  1.
</event>
<event>
 5   0  0.2966258E-05  0.1700387E+04  0.7818609E-02  0.8761144E-01
        1   -1    0    0  501    0  0.00000000000E+00  0.00000000000E+00  0.63324949070E+03  0.63324949072E+03  0.50400001928E-02 0. -1.
       -1   -1    0    0    0  501  0.00000000000E+00  0.00000000000E+00 -0.11414596364E+04  0.11414596364E+04  0.50400001928E-02 0.  1.
    10030    2    1    2    0    0  0.00000000000E+00  0.00000000000E+00 -0.50821014573E+03  0.17747091272E+04  0.17003867013E+04 0.  0.
        4    1    3    3  502    0  0.31517532352E+03  0.64529631687E+03  0.22085058957E+03  0.75134507181E+03  0.12699999809E+01 0. -1.
       -4    1    3    3    0  502 -0.31517532352E+03 -0.64529631687E+03 -0.72906073530E+03  0.10233640553E+04  0.12699999809E+01 0.  1.
</event>
<event>
 5   0  0.5755321E-05  0.1702248E+04  0.7818609E-02  0.8760083E-01
       -2   -1    0    0    0  501  0.00000000000E+00  0.00000000000E+00  0.98360760004E+03  0.98360760005E+03  0.25500000920E-02 0. -1.
        2   -1    0    0  501    0  0.00000000000E+00  0.00000000000E+00 -0.73648495684E+03  0.73648495684E+03  0.25500000920E-02 0.  1.
    10030    2    1    2    0    0  0.00000000000E+00  0.00000000000E+00  0.24712264321E+03  0.17200925569E+04  0.17022481615E+04 0.  0.
        4    1    3    3  502    0 -0.57643819958E+03  0.34324743720E+03  0.65279854926E+03  0.93608085115E+03  0.12699999809E+01 0. -1.
       -4    1    3    3    0  502  0.57643819958E+03 -0.34324743720E+03 -0.40567590606E+03  0.78401170574E+03  0.12699999809E+01 0.  1.
</event>
<event>
 5   0  0.5671132E-05  0.1699709E+04  0.7818609E-02  0.8761530E-01
       -2   -1    0    0    0  501  0.00000000000E+00  0.00000000000E+00  0.99404689912E+03  0.99404689913E+03  0.25500000920E-02 0.  1.
        2   -1    0    0  501    0  0.00000000000E+00  0.00000000000E+00 -0.72657807049E+03  0.72657807050E+03  0.25500000920E-02 0. -1.
    10030    2    1    2    0    0  0.00000000000E+00  0.00000000000E+00  0.26746882863E+03  0.17206249696E+04  0.16997090080E+04 0.  0.
        3    1    3    3  502    0  0.80210418569E+03  0.11675204742E+03  0.39231956107E+03  0.90050919678E+03  0.10100000352E+00 0.  1.
       -3    1    3    3    0  502 -0.80210418569E+03 -0.11675204742E+03 -0.12485073245E+03  0.82011577285E+03  0.10100000352E+00 0. -1.
</event>
<event>
 5   0  0.2966258E-05  0.1698326E+04  0.7818609E-02  0.8762320E-01
       -1   -1    0    0    0  501  0.00000000000E+00  0.00000000000E+00  0.13214124613E+04  0.13214124613E+04  0.50400001928E-02 0. -1.
        1   -1    0    0  501    0  0.00000000000E+00  0.00000000000E+00 -0.54568690874E+03  0.54568690877E+03  0.50400001928E-02 0.  1.
    10030    2    1    2    0    0  0.00000000000E+00  0.00000000000E+00  0.77572555256E+03  0.18670993701E+04  0.16983256239E+04 0.  0.
        4    1    3    3  502    0 -0.36416144209E+03 -0.21223976013E+03 -0.42256239103E+03  0.59684156934E+03  0.12699999809E+01 0.  1.
       -4    1    3    3    0  502  0.36416144209E+03  0.21223976013E+03  0.11982879436E+04  0.12702578007E+04  0.12699999809E+01 0. -1.
</event>
<event>
 5   0  0.5859822E-05  0.1699469E+04  0.7818609E-02  0.8761667E-01
       -2   -1    0    0    0  501  0.00000000000E+00  0.00000000000E+00  0.74015239935E+03  0.74015239935E+03  0.25500000920E-02 0.  1.
        2   -1    0    0  501    0  0.00000000000E+00  0.00000000000E+00 -0.97554113571E+03  0.97554113571E+03  0.25500000920E-02 0. -1.
    10030    2    1    2    0    0  0.00000000000E+00  0.00000000000E+00 -0.23538873636E+03  0.17156935351E+04  0.16994694611E+04 0.  0.
        5    1    3    3  502    0  0.16255531620E+03 -0.13579781614E+03 -0.94844859103E+03  0.97182410832E+03  0.46999998093E+01 0. -1.
       -5    1    3    3    0  502 -0.16255531620E+03  0.13579781614E+03  0.71305985467E+03  0.74386942674E+03  0.46999998093E+01 0.  1.
</event>
<event>
 5   0  0.5671132E-05  0.1698040E+04  0.7818609E-02  0.8762483E-01
       -2   -1    0    0    0  501  0.00000000000E+00  0.00000000000E+00  0.19864565792E+04  0.19864565792E+04  0.25500000920E-02 0. -1.
        2   -1    0    0  501    0  0.00000000000E+00  0.00000000000E+00 -0.36287476581E+03  0.36287476582E+03  0.25500000920E-02 0.  1.
    10030    2    1    2    0    0  0.00000000000E+00  0.00000000000E+00  0.16235818134E+04  0.23493313450E+04  0.16980400066E+04 0.  0.
        3    1    3    3  502    0  0.18552050751E+03  0.12386369922E+02  0.19579419676E+04  0.19667506297E+04  0.10100000352E+00 0. -1.
       -3    1    3    3    0  502 -0.18552050751E+03 -0.12386369922E+02 -0.33436015415E+03  0.38258071534E+03  0.10100000352E+00 0.  1.
</event>
<event>
 5   0  0.5755321E-05  0.1701010E+04  0.7818609E-02  0.8760788E-01
        2   -1    0    0  501    0  0.00000000000E+00  0.00000000000E+00  0.22394039619E+04  0.22394039619E+04  0.25500000920E-02 0.  1.
       -2   -1    0    0    0  501  0.00000000000E+00  0.00000000000E+00 -0.32301413563E+03  0.32301413564E+03  0.25500000920E-02 0. -1.
    10030    2    1    2    0    0  0.00000000000E+00  0.00000000000E+00  0.19163898263E+04  0.25624180976E+04  0.17010104469E+04 0.  0.
        4    1    3    3  502    0 -0.12774001925E+02  0.12157210416E+03  0.22261000304E+04  0.22294541730E+04  0.12699999809E+01 0.  1.
       -4    1    3    3    0  502  0.12774001925E+02 -0.12157210416E+03 -0.30971020407E+03  0.33296392453E+03  0.12699999809E+01 0. -1.
</event>
<event>
 5   0  0.5652631E-05  0.1696930E+04  0.7818609E-02  0.8763117E-01
        2   -1    0    0  501    0  0.00000000000E+00  0.00000000000E+00  0.11105557998E+04  0.11105557998E+04  0.25500000920E-02 0.  1.
       -2   -1    0    0    0  501  0.00000000000E+00  0.00000000000E+00 -0.64822790758E+03  0.64822790759E+03  0.25500000920E-02 0. -1.
    10030    2    1    2    0    0  0.00000000000E+00  0.00000000000E+00  0.46232789221E+03  0.17587837074E+04  0.16969304787E+04 0.  0.
        2    1    3    3  502    0  0.13657202501E+03 -0.79463511211E+03  0.50498374179E+03  0.95137030587E+03  0.25500000920E-02 0.  1.
       -2    1    3    3    0  502 -0.13657202501E+03  0.79463511211E+03 -0.42655849588E+02  0.80741340150E+03  0.25500000920E-02 0. -1.
</event>
<event>
 5   0  0.5652631E-05  0.1700448E+04  0.7818609E-02  0.8761109E-01
       -2   -1    0    0    0  501  0.00000000000E+00  0.00000000000E+00  0.62154432382E+03  0.62154432382E+03  0.25500000920E-02 0.  1.
        2   -1    0    0  501    0  0.00000000000E+00  0.00000000000E+00 -0.11630403655E+04  0.11630403655E+04  0.25500000920E-02 0. -1.
    10030    2    1    2    0    0  0.00000000000E+00  0.00000000000E+00 -0.54149604166E+03  0.17845846893E+04  0.17004483380E+04 0.  0.
        2    1    3    3  502    0  0.76649397282E+03 -0.29498271281E+03 -0.39974009893E+02  0.82226864996E+03  0.25500000920E-02 0.  1.
       -2    1    3    3    0  502 -0.76649397282E+03  0.29498271281E+03 -0.50152203177E+03  0.96231603934E+03  0.25500000920E-02 0. -1.
</event>
<event>
 5   0  0.5652631E-05  0.1698894E+04  0.7818609E-02  0.8761996E-01
       -2   -1    0    0    0  501  0.00000000000E+00  0.00000000000E+00  0.11065685196E+04  0.11065685196E+04  0.25500000920E-02 0.  1.
        2   -1    0    0  501    0  0.00000000000E+00  0.00000000000E+00 -0.65206974543E+03  0.65206974544E+03  0.25500000920E-02 0. -1.
    10030    2    1    2    0    0  0.00000000000E+00  0.00000000000E+00  0.45449877416E+03  0.17586382650E+04  0.16988935845E+04 0.  0.
        2    1    3    3  502    0 -0.55673761886E+03 -0.24851884529E+03 -0.38502484264E+03  0.72108426843E+03  0.25500000920E-02 0. -1.
       -2    1    3    3    0  502  0.55673761886E+03  0.24851884529E+03  0.83952361679E+03  0.10375539966E+04  0.25500000920E-02 0.  1.
</event>
<event>
 5   0  0.5671132E-05  0.1698927E+04  0.7818609E-02  0.8761977E-01
       -2   -1    0    0    0  501  0.00000000000E+00  0.00000000000E+00  0.41584335564E+03  0.41584335565E+03  0.25500000920E-02 0.  1.
        2   -1    0    0  501    0  0.00000000000E+00  0.00000000000E+00 -0.17352398980E+04  0.17352398980E+04  0.25500000920E-02 0. -1.
    10030    2    1    2    0    0  0.00000000000E+00  0.00000000000E+00 -0.13193965424E+04  0.21510832537E+04  0.16989266989E+04 0.  0.
        3    1    3    3  502    0  0.32291479313E+03  0.36827384257E+03 -0.15384489329E+04  0.16145354490E+04  0.10100000352E+00 0. -1.
       -3    1    3    3    0  502 -0.32291479313E+03 -0.36827384257E+03  0.21905239049E+03  0.53654780470E+03  0.10100000352E+00 0.  1.
</event>
<event>
 5   0  0.5755321E-05  0.1700541E+04  0.7818609E-02  0.8761056E-01
       -2   -1    0    0    0  501  0.00000000000E+00  0.00000000000E+00  0.52938780905E+03  0.52938780905E+03  0.25500000920E-02 0.  1.
        2   -1    0    0  501    0  0.00000000000E+00  0.00000000000E+00 -0.13656533944E+04  0.13656533944E+04  0.25500000920E-02 0. -1.
    10030    2    1    2    0    0  0.00000000000E+00  0.00000000000E+00 -0.83626558536E+03  0.18950412035E+04  0.17005413942E+04 0.  0.
        4    1    3    3  502    0  0.17630121610E+03 -0.56002631202E+03 -0.11034935406E+04  0.12499644779E+04  0.12699999809E+01 0. -1.
       -4    1    3    3    0  502 -0.17630121610E+03  0.56002631202E+03  0.26722795521E+03  0.64507672559E+03  0.12699999809E+01 0.  1.
</event>
<event>
 5   0  0.5821584E-05  0.1702389E+04  0.7818609E-02  0.8760003E-01
        2   -1    0    0  501    0  0.00000000000E+00  0.00000000000E+00  0.82868059118E+03  0.82868059119E+03  0.25500000920E-02 0. -1.
       -2   -1    0    0    0  501  0.00000000000E+00  0.00000000000E+00 -0.87431968562E+03  0.87431968562E+03  0.25500000920E-02 0.  1.
    10030    2    1    2    0    0  0.00000000000E+00  0.00000000000E+00 -0.45639094435E+02  0.17030002768E+04  0.17023886207E+04 0.  0.
        1    1    3    3  502    0 -0.18930143460E+03 -0.21892373003E+03  0.77794861619E+03  0.83004016900E+03  0.50400001928E-02 0. -1.
       -1    1    3    3    0  502  0.18930143460E+03  0.21892373003E+03 -0.82358771062E+03  0.87296010781E+03  0.50400001928E-02 0.  1.
</event>
<event>
 5   0  0.2911632E-05  0.1693354E+04  0.7818609E-02  0.8765164E-01
       -1   -1    0    0    0  501  0.00000000000E+00  0.00000000000E+00  0.32345429667E+03  0.32345429671E+03  0.50400001928E-02 0.  1.
        1   -1    0    0  501    0  0.00000000000E+00  0.00000000000E+00 -0.22162690936E+04  0.22162690936E+04  0.50400001928E-02 0. -1.
    10030    2    1    2    0    0  0.00000000000E+00  0.00000000000E+00 -0.18928147970E+04  0.25397233903E+04  0.16933537858E+04 0.  0.
        1    1    3    3  502    0  0.47283128289E+03  0.40286002860E+03 -0.83527845776E+02  0.62677151001E+03  0.50400001928E-02 0.  1.
       -1    1    3    3    0  502 -0.47283128289E+03 -0.40286002860E+03 -0.18092869512E+04  0.19129518803E+04  0.50400001928E-02 0. -1.
</event>
<event>
 5   0  0.2993769E-05  0.1704307E+04  0.7818609E-02  0.8758912E-01
        1   -1    0    0  501    0  0.00000000000E+00  0.00000000000E+00  0.12206777451E+04  0.12206777451E+04  0.50400001928E-02 0. -1.
       -1   -1    0    0    0  501  0.00000000000E+00  0.00000000000E+00 -0.59488699490E+03  0.59488699492E+03  0.50400001928E-02 0.  1.
    10030    2    1    2    0    0  0.00000000000E+00  0.00000000000E+00  0.62579075016E+03  0.18155647400E+04  0.17043066808E+04 0.  0.
        3    1    3    3  502    0  0.44247219665E+03  0.24687018053E+03  0.10427787517E+04  0.11593593343E+04  0.10100000352E+00 0. -1.
       -3    1    3    3    0  502 -0.44247219665E+03 -0.24687018053E+03 -0.41698800154E+03  0.65620540570E+03  0.10100000352E+00 0.  1.
</event>
<event>
 5   0  0.2911632E-05  0.1700859E+04  0.7818609E-02  0.8760875E-01
        1   -1    0    0  501    0  0.00000000000E+00  0.00000000000E+00  0.12794558113E+04  0.12794558113E+04  0.50400001928E-02 0. -1.
       -1   -1    0    0    0  501  0.00000000000E+00  0.00000000000E+00 -0.56526370736E+03  0.56526370738E+03  0.50400001928E-02 0.  1.
    10030    2    1    2    0    0  0.00000000000E+00  0.00000000000E+00  0.71419210393E+03  0.18447195187E+04  0.17008585306E+04 0.  0.
        1    1    3    3  502    0 -0.55607580490E+03  0.50958417479E+03 -0.68985173740E+02  0.75740034738E+03  0.50400001928E-02 0.  1.
       -1    1    3    3    0  502  0.55607580490E+03 -0.50958417479E+03  0.78317727767E+03  0.10873191713E+04  0.50400001928E-02 0. -1.
</event>
<event>
 5   0  0.5755321E-05  0.1699652E+04  0.7818609E-02  0.8761563E-01
        2   -1    0    0  501    0  0.00000000000E+00  0.00000000000E+00  0.85851410624E+03  0.85851410624E+03  0.25500000920E-02 0.  1.
       -2   -1    0    0    0  501  0.00000000000E+00  0.00000000000E+00 -0.84122563313E+03  0.84122563313E+03  0.25500000920E-02 0. -1.
    10030    2    1    2    0    0  0.00000000000E+00  0.00000000000E+00  0.17288473110E+02  0.16997397394E+04  0.16996518144E+04 0.  0.
        4    1    3    3  502    0  0.92262303987E+02 -0.42467003153E+03 -0.72169861022E+03  0.84244137203E+03  0.12699999809E+01 0. -1.
       -4    1    3    3    0  502 -0.92262303987E+02  0.42467003153E+03  0.73898708333E+03  0.85729836734E+03  0.12699999809E+01 0.  1.
</event>
<event>
 5   0  0.5652631E-05  0.1700076E+04  0.7818609E-02  0.8761321E-01
       -2   -1    0    0    0  501  0.00000000000E+00  0.00000000000E+00  0.74363788474E+03  0.74363788475E+03  0.25500000920E-02 0.  1.
        2   -1    0    0  501    0  0.00000000000E+00  0.00000000000E+00 -0.97166213683E+03  0.97166213683E+03  0.25500000920E-02 0. -1.
    10030    2    1    2    0    0  0.00000000000E+00  0.00000000000E+00 -0.22802425209E+03  0.17153000216E+04  0.17000762055E+04 0.  0.
        2    1    3    3  502    0 -0.49340820284E+02  0.66014358557E+03  0.42399895772E+03  0.78612924273E+03  0.25500000920E-02 0.  1.
       -2    1    3    3    0  502  0.49340820284E+02 -0.66014358557E+03 -0.65202320981E+03  0.92917077885E+03  0.25500000920E-02 0. -1.
</event>
<event>
 5   0  0.5652631E-05  0.1699153E+04  0.7818609E-02  0.8761848E-01
       -2   -1    0    0    0  501  0.00000000000E+00  0.00000000000E+00  0.11382219564E+04  0.11382219564E+04  0.25500000920E-02 0. -1.
        2   -1    0    0  501    0  0.00000000000E+00  0.00000000000E+00 -0.63412937728E+03  0.63412937728E+03  0.25500000920E-02 0.  1.
    10030    2    1    2    0    0  0.00000000000E+00  0.00000000000E+00  0.50409257909E+03  0.17723513337E+04  0.16991527070E+04 0.  0.
        2    1    3    3  502    0  0.71896064889E+03 -0.59107756710E+02 -0.21604176233E+03  0.75304195410E+03  0.25500000920E-02 0.  1.
       -2    1    3    3    0  502 -0.71896064889E+03  0.59107756710E+02  0.72013434142E+03  0.10193093796E+04  0.25500000920E-02 0. -1.
</event>
<event>
 5   0  0.5821584E-05  0.1700261E+04  0.7818609E-02  0.8761216E-01
        2   -1    0    0  501    0  0.00000000000E+00  0.00000000000E+00  0.22685707426E+04  0.22685707426E+04  0.25500000920E-02 0. -1.
       -2   -1    0    0    0  501  0.00000000000E+00  0.00000000000E+00 -0.31858026760E+03  0.31858026761E+03  0.25500000920E-02 0.  1.
    10030    2    1    2    0    0  0.00000000000E+00  0.00000000000E+00  0.19499904750E+04  0.25871510102E+04  0.17002610085E+04 0.  0.
        1    1    3    3  502    0 -0.10564295394E+03 -0.80484120181E+03  0.59067826343E+03  0.10039076674E+04  0.50400001928E-02 0.  1.
       -1    1    3    3    0  502  0.10564295394E+03  0.80484120181E+03  0.13593122116E+04  0.15832433428E+04  0.50400001928E-02 0. -1.
</event>
<event>
 5   0  0.5859822E-05  0.1697079E+04  0.7818609E-02  0.8763032E-01
       -2   -1    0    0    0  501  0.00000000000E+00  0.00000000000E+00  0.44009324073E+03  0.44009324074E+03  0.25500000920E-02 0.  1.
        2   -1    0    0  501    0  0.00000000000E+00  0.00000000000E+00 -0.16360600583E+04  0.16360600583E+04  0.25500000920E-02 0. -1.
    10030    2    1    2    0    0  0.00000000000E+00  0.00000000000E+00 -0.11959668175E+04  0.20761532990E+04  0.16970786347E+04 0.  0.
        5    1    3    3  502    0 -0.12152098448E+03  0.18579875278E+02  0.42912521890E+03  0.44641136290E+03  0.46999998093E+01 0.  1.
       -5    1    3    3    0  502  0.12152098448E+03 -0.18579875278E+02 -0.16250920364E+04  0.16297419361E+04  0.46999998093E+01 0. -1.
</event>
<event>
 5   0  0.2967704E-05  0.1700180E+04  0.7818609E-02  0.8761262E-01
       -1   -1    0    0    0  501  0.00000000000E+00  0.00000000000E+00  0.68333343977E+03  0.68333343979E+03  0.50400001928E-02 0.  1.
        1   -1    0    0  501    0  0.00000000000E+00  0.00000000000E+00 -0.10575407413E+04  0.10575407414E+04  0.50400001928E-02 0. -1.
    10030    2    1    2    0    0  0.00000000000E+00  0.00000000000E+00 -0.37420730158E+03  0.17408741811E+04  0.17001799346E+04 0.  0.
        2    1    3    3  502    0  0.83826538902E+03 -0.56665612636E+02 -0.54571859509E+02  0.84194889509E+03  0.25500000920E-02 0.  1.
       -2    1    3    3    0  502 -0.83826538902E+03  0.56665612636E+02 -0.31963544207E+03  0.89892528606E+03  0.25500000920E-02 0. -1.
</event>
<event>
 5   0  0.2993769E-05  0.1695413E+04  0.7818609E-02  0.8763985E-01
       -1   -1    0    0    0  501  0.00000000000E+00  0.00000000000E+00  0.61629967872E+03  0.61629967874E+03  0.50400001928E-02 0. -1.
        1   -1    0    0  501    0  0.00000000000E+00  0.00000000000E+00 -0.11660018192E+04  0.11660018192E+04  0.50400001928E-02 0.  1.
    10030    2    1    2    0    0  0.00000000000E+00  0.00000000000E+00 -0.54970214046E+03  0.17823014979E+04  0.16954132789E+04 0.  0.
        3    1    3    3  502    0  0.72961722695E+03  0.18840883117E+03  0.13333599985E+03  0.76525661355E+03  0.10100000352E+00 0. -1.
       -3    1    3    3    0  502 -0.72961722695E+03 -0.18840883117E+03 -0.68303814031E+03  0.10170448844E+04  0.10100000352E+00 0.  1.
</event>
<event>
 5   0  0.2911632E-05  0.1697706E+04  0.7818609E-02  0.8762674E-01
        1   -1    0    0  501    0  0.00000000000E+00  0.00000000000E+00  0.85515582674E+03  0.85515582676E+03  0.50400001928E-02 0.  1.
       -1   -1    0    0    0  501  0.00000000000E+00  0.00000000000E+00 -0.84259691219E+03  0.84259691221E+03  0.50400001928E-02 0. -1.
    10030    2    1    2    0    0  0.00000000000E+00  0.00000000000E+00  0.12558914550E+02  0.16977527390E+04  0.16977062868E+04 0.  0.
        1    1    3    3  502    0 -0.69645541272E+03  0.48448158777E+03  0.34192731803E+02  0.84908285446E+03  0.50400001928E-02 0. -1.
       -1    1    3    3    0  502  0.69645541272E+03 -0.48448158777E+03 -0.21633817253E+02  0.84866988451E+03  0.50400001928E-02 0.  1.
</event>
<event>
 5   0  0.2967704E-05  0.1698324E+04  0.7818609E-02  0.8762321E-01
       -1   -1    0    0    0  501  0.00000000000E+00  0.00000000000E+00  0.16909852170E+04  0.16909852171E+04  0.50400001928E-02 0. -1.
        1   -1    0    0  501    0  0.00000000000E+00  0.00000000000E+00 -0.42642386502E+03  0.42642386505E+03  0.50400001928E-02 0.  1.
    10030    2    1    2    0    0  0.00000000000E+00  0.00000000000E+00  0.12645613520E+04  0.21174090821E+04  0.16983244119E+04 0.  0.
        2    1    3    3  502    0 -0.39224433778E+02 -0.82951595138E+03  0.85335258059E+03  0.11907333440E+04  0.25500000920E-02 0. -1.
       -2    1    3    3    0  502  0.39224433778E+02  0.82951595138E+03  0.41120877144E+03  0.92667573806E+03  0.25500000920E-02 0.  1.
</event>
<event>
 5   0  0.5671132E-05  0.1712733E+04  0.7818609E-02  0.8754136E-01
       -2   -1    0    0    0  501  0.00000000000E+00  0.00000000000E+00  0.10712058626E+04  0.10712058626E+04  0.25500000920E-02 0.  1.
        2   -1    0    0  501    0  0.00000000000E+00  0.00000000000E+00 -0.68461473003E+03  0.68461473004E+03  0.25500000920E-02 0. -1.
    10030    2    1    2    0    0  0.00000000000E+00  0.00000000000E+00  0.38659113255E+03  0.17558205926E+04  0.17127326848E+04 0.  0.
        3    1    3    3  502    0  0.22323878402E+03  0.73227770421E+03 -0.20015272879E+03  0.79128207095E+03  0.10100000352E+00 0. -1.
       -3    1    3    3    0  502 -0.22323878402E+03 -0.73227770421E+03  0.58674386134E+03  0.96453852167E+03  0.10100000352E+00 0.  1.
</event>
<event>
 5   0  0.2967704E-05  0.1700721E+04  0.7818609E-02  0.8760953E-01
        1   -1    0    0  501    0  0.00000000000E+00  0.00000000000E+00  0.86149585069E+03  0.86149585071E+03  0.50400001928E-02 0. -1.
       -1   -1    0    0    0  501  0.00000000000E+00  0.00000000000E+00 -0.83936874965E+03  0.83936874967E+03  0.50400001928E-02 0.  1.
    10030    2    1    2    0    0  0.00000000000E+00  0.00000000000E+00  0.22127101043E+02  0.17008646004E+04  0.17007206650E+04 0.  0.
        2    1    3    3  502    0  0.64792519344E+03 -0.50447949557E+02 -0.53739935000E+03  0.84329716785E+03  0.25500000920E-02 0.  1.
       -2    1    3    3    0  502 -0.64792519344E+03  0.50447949557E+02  0.55952645104E+03  0.85756743253E+03  0.25500000920E-02 0. -1.
</event>
<event>
 5   0  0.5859822E-05  0.1697447E+04  0.7818609E-02  0.8762822E-01
        2   -1    0    0  501    0  0.00000000000E+00  0.00000000000E+00  0.87136110319E+03  0.87136110319E+03  0.25500000920E-02 0.  1.
       -2   -1    0    0    0  501  0.00000000000E+00  0.00000000000E+00 -0.82667386865E+03  0.82667386865E+03  0.25500000920E-02 0. -1.
    10030    2    1    2    0    0  0.00000000000E+00  0.00000000000E+00  0.44687234544E+02  0.16980349718E+04  0.16974468524E+04 0.  0.
        5    1    3    3  502    0  0.50008266044E+03 -0.53806867989E+03  0.44758947055E+03  0.86020869311E+03  0.46999998093E+01 0.  1.
       -5    1    3    3    0  502 -0.50008266044E+03  0.53806867989E+03 -0.40290223600E+03  0.83782627873E+03  0.46999998093E+01 0. -1.
</event>
<event>
 5   0  0.5821584E-05  0.1701812E+04  0.7818609E-02  0.8760332E-01
        2   -1    0    0  501    0  0.00000000000E+00  0.00000000000E+00  0.95700088601E+03  0.95700088601E+03  0.25500000920E-02 0. -1.
       -2   -1    0    0    0  501  0.00000000000E+00  0.00000000000E+00 -0.75657310497E+03  0.75657310498E+03  0.25500000920E-02 0.  1.
    10030    2    1    2    0    0  0.00000000000E+00  0.00000000000E+00  0.20042778104E+03  0.17135739910E+04  0.17018121304E+04 0.  0.
        1    1    3    3  502    0  0.13406177435E+03  0.82065765961E+03  0.28198741007E+03  0.87804809269E+03  0.50400001928E-02 0.  1.
       -1    1    3    3    0  502 -0.13406177435E+03 -0.82065765961E+03 -0.81559629029E+02  0.83552589830E+03  0.50400001928E-02 0. -1.
</event>
<event>
 5   0  0.2987859E-05  0.1697657E+04  0.7818609E-02  0.8762702E-01
        1   -1    0    0  501    0  0.00000000000E+00  0.00000000000E+00  0.81699257630E+03  0.81699257631E+03  0.50400001928E-02 0.  1.
       -1   -1    0    0    0  501  0.00000000000E+00  0.00000000000E+00 -0.88190495355E+03  0.88190495356E+03  0.50400001928E-02 0. -1.
    10030    2    1    2    0    0  0.00000000000E+00  0.00000000000E+00 -0.64912377253E+02  0.16988975299E+04  0.16976569737E+04 0.  0.
        5    1    3    3  502    0  0.29017806590E+03 -0.23887955652E+03  0.72916562948E+03  0.82034831484E+03  0.46999998093E+01 0.  1.
       -5    1    3    3    0  502 -0.29017806590E+03  0.23887955652E+03 -0.79407800674E+03  0.87854921503E+03  0.46999998093E+01 0. -1.
</event>
<event>
 5   0  0.2993769E-05  0.1695551E+04  0.7818609E-02  0.8763906E-01
       -1   -1    0    0    0  501  0.00000000000E+00  0.00000000000E+00  0.30756250969E+03  0.30756250973E+03  0.50400001928E-02 0. -1.
        1   -1    0    0  501    0  0.00000000000E+00  0.00000000000E+00 -0.23368363070E+04  0.23368363070E+04  0.50400001928E-02 0.  1.
    10030    2    1    2    0    0  0.00000000000E+00  0.00000000000E+00 -0.20292737973E+04  0.26443988167E+04  0.16955509304E+04 0.  0.
        3    1    3    3  502    0  0.56662028578E+03  0.54480745007E+03 -0.15099194628E+04  0.17022721581E+04  0.10100000352E+00 0.  1.
       -3    1    3    3    0  502 -0.56662028578E+03 -0.54480745007E+03 -0.51935433450E+03  0.94212665862E+03  0.10100000352E+00 0. -1.
</event>
<event>
 5   0  0.2911632E-05  0.1700337E+04  0.7818609E-02  0.8761172E-01
        1   -1    0    0  501    0  0.00000000000E+00  0.00000000000E+00  0.69347174258E+03  0.69347174260E+03  0.50400001928E-02 0.  1.
       -1   -1    0    0    0  501  0.00000000000E+00  0.00000000000E+00 -0.10422724305E+04  0.10422724306E+04  0.50400001928E-02 0. -1.
    10030    2    1    2    0    0  0.00000000000E+00  0.00000000000E+00 -0.34880068797E+03  0.17357441732E+04  0.17003370003E+04 0.  0.
        1    1    3    3  502    0 -0.11096603706E+03  0.58380598814E+03  0.44624327934E+03  0.74315271482E+03  0.50400001928E-02 0.  1.
       -1    1    3    3    0  502  0.11096603706E+03 -0.58380598814E+03 -0.79504396731E+03  0.99259145833E+03  0.50400001928E-02 0. -1.
</event>
<event>
 5   0  0.2987859E-05  0.1700022E+04  0.7818609E-02  0.8761352E-01
        1   -1    0    0  501    0  0.00000000000E+00  0.00000000000E+00  0.99527620081E+03  0.99527620082E+03  0.50400001928E-02 0. -1.
       -1   -1    0    0    0  501  0.00000000000E+00  0.00000000000E+00 -0.72594779766E+03  0.72594779767E+03  0.50400001928E-02 0.  1.
    10030    2    1    2    0    0  0.00000000000E+00  0.00000000000E+00  0.26932840315E+03  0.17212239985E+04  0.17000218423E+04 0.  0.
        5    1    3    3  502    0 -0.73280518842E+03  0.19565657500E+03 -0.25380251447E+03  0.79982669739E+03  0.46999998093E+01 0.  1.
       -5    1    3    3    0  502  0.73280518842E+03 -0.19565657500E+03  0.52313091762E+03  0.92139730111E+03  0.46999998093E+01 0. -1.
</event>
<event>
 5   0  0.5652631E-05  0.1702257E+04  0.7818609E-02  0.8760078E-01
        2   -1    0    0  501    0  0.00000000000E+00  0.00000000000E+00  0.21854648678E+04  0.21854648678E+04  0.25500000920E-02 0.  1.
       -2   -1    0    0    0  501  0.00000000000E+00  0.00000000000E+00 -0.33147166235E+03  0.33147166236E+03  0.25500000920E-02 0. -1.
    10030    2    1    2    0    0  0.00000000000E+00  0.00000000000E+00  0.18539932055E+04  0.25169365302E+04  0.17022569404E+04 0.  0.
        2    1    3    3  502    0 -0.66162229381E+02 -0.18148918098E+03  0.21526237172E+04  0.21612738446E+04  0.25500000920E-02 0.  1.
       -2    1    3    3    0  502  0.66162229381E+02  0.18148918098E+03 -0.29863051171E+03  0.35566268562E+03  0.25500000920E-02 0. -1.
</event>
<event>
 5   0  0.2967704E-05  0.1702659E+04  0.7818609E-02  0.8759850E-01
        1   -1    0    0  501    0  0.00000000000E+00  0.00000000000E+00  0.62238013956E+03  0.62238013958E+03  0.50400001928E-02 0. -1.
       -1   -1    0    0    0  501  0.00000000000E+00  0.00000000000E+00 -0.11644998129E+04  0.11644998129E+04  0.50400001928E-02 0.  1.
    10030    2    1    2    0    0  0.00000000000E+00  0.00000000000E+00 -0.54211967335E+03  0.17868799525E+04  0.17026585754E+04 0.  0.
        2    1    3    3  502    0 -0.21940141832E+02  0.65900223076E+03 -0.83621017826E+03  0.10649003579E+04  0.25500000920E-02 0.  1.
       -2    1    3    3    0  502  0.21940141832E+02 -0.65900223076E+03  0.29409050491E+03  0.72197959463E+03  0.25500000920E-02 0. -1.
</event>
<event>
 5   0  0.5859822E-05  0.1703933E+04  0.7818609E-02  0.8759125E-01
        2   -1    0    0  501    0  0.00000000000E+00  0.00000000000E+00  0.14148337331E+04  0.14148337331E+04  0.25500000920E-02 0. -1.
       -2   -1    0    0    0  501  0.00000000000E+00  0.00000000000E+00 -0.51302613256E+03  0.51302613257E+03  0.25500000920E-02 0.  1.
    10030    2    1    2    0    0  0.00000000000E+00  0.00000000000E+00  0.90180760056E+03  0.19278598657E+04  0.17039327197E+04 0.  0.
        5    1    3    3  502    0  0.14398150345E+03 -0.22532054979E+03 -0.46430382994E+03  0.53581728228E+03  0.46999998093E+01 0.  1.
       -5    1    3    3    0  502 -0.14398150345E+03  0.22532054979E+03  0.13661114305E+04  0.13920425834E+04  0.46999998093E+01 0. -1.
</event>
<event>
 5   0  0.2911632E-05  0.1700607E+04  0.7818609E-02  0.8761018E-01
       -1   -1    0    0    0  501  0.00000000000E+00  0.00000000000E+00  0.60518333443E+03  0.60518333445E+03  0.50400001928E-02 0. -1.
        1   -1    0    0  501    0  0.00000000000E+00  0.00000000000E+00 -0.11947061462E+04  0.11947061462E+04  0.50400001928E-02 0.  1.
    10030    2    1    2    0    0  0.00000000000E+00  0.00000000000E+00 -0.58952281175E+03  0.17998894806E+04  0.17006072436E+04 0.  0.
        1    1    3    3  502    0  0.44965335875E+03  0.31167166319E+03  0.39415312845E+03  0.67430264523E+03  0.50400001928E-02 0. -1.
       -1    1    3    3    0  502 -0.44965335875E+03 -0.31167166319E+03 -0.98367594020E+03  0.11255868354E+04  0.50400001928E-02 0.  1.
</event>
<event>
 5   0  0.5671132E-05  0.1696093E+04  0.7818609E-02  0.8763596E-01
        2   -1    0    0  501    0  0.00000000000E+00  0.00000000000E+00  0.26951863821E+04  0.26951863821E+04  0.25500000920E-02 0.  1.
       -2   -1    0    0    0  501  0.00000000000E+00  0.00000000000E+00 -0.26683967389E+03  0.26683967391E+03  0.25500000920E-02 0. -1.
    10030    2    1    2    0    0  0.00000000000E+00  0.00000000000E+00  0.24283467082E+04  0.29620260560E+04  0.16960927513E+04 0.  0.
        3    1    3    3  502    0  0.50456960622E+03 -0.67859894147E+03  0.11024098892E+04  0.13893864059E+04  0.10100000352E+00 0. -1.
       -3    1    3    3    0  502 -0.50456960622E+03  0.67859894147E+03  0.13259368190E+04  0.15726396501E+04  0.10100000352E+00 0.  1.
</event>
<event>
 5   0  0.5859822E-05  0.1698347E+04  0.7818609E-02  0.8762308E-01
       -2   -1    0    0    0  501  0.00000000000E+00  0.00000000000E+00  0.41683599938E+03  0.41683599939E+03  0.25500000920E-02 0.  1.
        2   -1    0    0  501    0  0.00000000000E+00  0.00000000000E+00 -0.17299262191E+04  0.17299262191E+04  0.25500000920E-02 0. -1.
    10030    2    1    2    0    0  0.00000000000E+00  0.00000000000E+00 -0.13130902197E+04  0.21467622185E+04  0.16983468720E+04 0.  0.
        5    1    3    3  502    0 -0.23772566385E+03 -0.76057939889E+03 -0.10274016611E+04  0.13002195109E+04  0.46999998093E+01 0. -1.
       -5    1    3    3    0  502  0.23772566385E+03  0.76057939889E+03 -0.28568855861E+03  0.84654270760E+03  0.46999998093E+01 0.  1.
</event>
<event>
 5   0  0.5859822E-05  0.1685016E+04  0.7818609E-02  0.8769957E-01
       -2   -1    0    0    0  501  0.00000000000E+00  0.00000000000E+00  0.38647597969E+03  0.38647597970E+03  0.25500000920E-02 0.  1.
        2   -1    0    0  501    0  0.00000000000E+00  0.00000000000E+00 -0.18366467496E+04  0.18366467496E+04  0.25500000920E-02 0. -1.
    10030    2    1    2    0    0  0.00000000000E+00  0.00000000000E+00 -0.14501707699E+04  0.22231227293E+04  0.16850161446E+04 0.  0.
        5    1    3    3  502    0 -0.82545355673E+03  0.16586106757E+03 -0.68519187279E+03  0.10855383276E+04  0.46999998093E+01 0.  1.
       -5    1    3    3    0  502  0.82545355673E+03 -0.16586106757E+03 -0.76497889712E+03  0.11375844017E+04  0.46999998093E+01 0. -1.
</event>
<event>
 5   0  0.5671132E-05  0.1700767E+04  0.7818609E-02  0.8760927E-01
        2   -1    0    0  501    0  0.00000000000E+00  0.00000000000E+00  0.71508821325E+03  0.71508821326E+03  0.25500000920E-02 0. -1.
       -2   -1    0    0    0  501  0.00000000000E+00  0.00000000000E+00 -0.10112770897E+04  0.10112770897E+04  0.25500000920E-02 0.  1.
    10030    2    1    2    0    0  0.00000000000E+00  0.00000000000E+00 -0.29618887647E+03  0.17263653030E+04  0.17007672706E+04 0.  0.
        3    1    3    3  502    0 -0.83913712800E+03  0.10562666773E+03 -0.58193906183E+02  0.84775860565E+03  0.10100000352E+00 0.  1.
       -3    1    3    3    0  502  0.83913712800E+03 -0.10562666773E+03 -0.23799497029E+03  0.87860669734E+03  0.10100000352E+00 0. -1.
</event>
<event>
 5   0  0.2911632E-05  0.1712805E+04  0.7818609E-02  0.8754095E-01
       -1   -1    0    0    0  501  0.00000000000E+00  0.00000000000E+00  0.49748317688E+03  0.49748317690E+03  0.50400001928E-02 0. -1.
        1   -1    0    0  501    0  0.00000000000E+00  0.00000000000E+00 -0.14742716393E+04  0.14742716393E+04  0.50400001928E-02 0.  1.
    10030    2    1    2    0    0  0.00000000000E+00  0.00000000000E+00 -0.97678846241E+03  0.19717548162E+04  0.17128051129E+04 0.  0.
        1    1    3    3  502    0 -0.17852278815E+03  0.10062995413E+03  0.46884087639E+03  0.51167229840E+03  0.50400001928E-02 0. -1.
       -1    1    3    3    0  502  0.17852278815E+03 -0.10062995413E+03 -0.14456293388E+04  0.14600825178E+04  0.50400001928E-02 0.  1.
</event>
<event>
 5   0  0.2966258E-05  0.1698213E+04  0.7818609E-02  0.8762384E-01
       -1   -1    0    0    0  501  0.00000000000E+00  0.00000000000E+00  0.41903893925E+03  0.41903893928E+03  0.50400001928E-02 0.  1.
        1   -1    0    0  501    0  0.00000000000E+00  0.00000000000E+00 -0.17205597972E+04  0.17205597972E+04  0.50400001928E-02 0. -1.
    10030    2    1    2    0    0  0.00000000000E+00  0.00000000000E+00 -0.13015208579E+04  0.21395987364E+04  0.16982126514E+04 0.  0.
        4    1    3    3  502    0  0.30188417122E+03 -0.60020527689E+03 -0.13049442691E+04  0.14677402991E+04  0.12699999809E+01 0. -1.
       -4    1    3    3    0  502 -0.30188417122E+03  0.60020527689E+03  0.34234111556E+01  0.67185843738E+03  0.12699999809E+01 0.  1.
</event>
<event>
 5   0  0.2987859E-05  0.1700814E+04  0.7818609E-02  0.8760900E-01
        1   -1    0    0  501    0  0.00000000000E+00  0.00000000000E+00  0.10045989979E+04  0.10045989979E+04  0.50400001928E-02 0. -1.
       -1   -1    0    0    0  501  0.00000000000E+00  0.00000000000E+00 -0.71988168680E+03  0.71988168681E+03  0.50400001928E-02 0.  1.
    10030    2    1    2    0    0  0.00000000000E+00  0.00000000000E+00  0.28471731110E+03  0.17244806847E+04  0.17008144181E+04 0.  0.
        5    1    3    3  502    0 -0.42965501406E+03 -0.24871146369E+03 -0.55769013972E+03  0.74666003323E+03  0.46999998093E+01 0.  1.
       -5    1    3    3    0  502  0.42965501406E+03  0.24871146369E+03  0.84240745082E+03  0.97782065149E+03  0.46999998093E+01 0. -1.
</event>
<event>
 5   0  0.5652631E-05  0.1696618E+04  0.7818609E-02  0.8763296E-01
       -2   -1    0    0    0  501  0.00000000000E+00  0.00000000000E+00  0.11631840369E+04  0.11631840369E+04  0.25500000920E-02 0. -1.
        2   -1    0    0  501    0  0.00000000000E+00  0.00000000000E+00 -0.61867089258E+03  0.61867089259E+03  0.25500000920E-02 0.  1.
    10030    2    1    2    0    0  0.00000000000E+00  0.00000000000E+00  0.54451314432E+03  0.17818549295E+04  0.16966179374E+04 0.  0.
        2    1    3    3  502    0  0.99609757317E+02  0.15577284637E+03 -0.59725080640E+03  0.62521660980E+03  0.25500000920E-02 0.  1.
       -2    1    3    3    0  502 -0.99609757317E+02 -0.15577284637E+03  0.11417639507E+04  0.11566383197E+04  0.25500000920E-02 0. -1.
</event>
<event>
 5   0  0.2993769E-05  0.1668239E+04  0.7818609E-02  0.8779689E-01
       -1   -1    0    0    0  501  0.00000000000E+00  0.00000000000E+00  0.61411840192E+03  0.61411840194E+03  0.50400001928E-02 0. -1.
        1   -1    0    0  501    0  0.00000000000E+00  0.00000000000E+00 -0.11329336298E+04  0.11329336298E+04  0.50400001928E-02 0.  1.
    10030    2    1    2    0    0  0.00000000000E+00  0.00000000000E+00 -0.51881522785E+03  0.17470520317E+04  0.16682390599E+04 0.  0.
        3    1    3    3  502    0 -0.11028500172E+03  0.82557947981E+03 -0.21244344432E+03  0.85957924959E+03  0.10100000352E+00 0. -1.
       -3    1    3    3    0  502  0.11028500172E+03 -0.82557947981E+03 -0.30637178354E+03  0.88747278214E+03  0.10100000352E+00 0.  1.
</event>
<event>
 5   0  0.2966258E-05  0.1698344E+04  0.7818609E-02  0.8762309E-01
        1   -1    0    0  501    0  0.00000000000E+00  0.00000000000E+00  0.27690753230E+03  0.27690753235E+03  0.50400001928E-02 0.  1.
       -1   -1    0    0    0  501  0.00000000000E+00  0.00000000000E+00 -0.26040928767E+04  0.26040928767E+04  0.50400001928E-02 0. -1.
    10030    2    1    2    0    0  0.00000000000E+00  0.00000000000E+00 -0.23271853444E+04  0.28810004091E+04  0.16983438197E+04 0.  0.
        4    1    3    3  502    0 -0.43528699691E+03  0.21664986032E+03  0.17393955567E+02  0.48653478216E+03  0.12699999809E+01 0.  1.
       -4    1    3    3    0  502  0.43528699691E+03 -0.21664986032E+03 -0.23445793000E+04  0.23944656269E+04  0.12699999809E+01 0. -1.
</event>
<event>
 5   0  0.5755321E-05  0.1699879E+04  0.7818609E-02  0.8761434E-01
       -2   -1    0    0    0  501  0.00000000000E+00  0.00000000000E+00  0.35777522508E+03  0.35777522509E+03  0.25500000920E-02 0. -1.
        2   -1    0    0  501    0  0.00000000000E+00  0.00000000000E+00 -0.20191362383E+04  0.20191362383E+04  0.25500000920E-02 0.  1.
    10030    2    1    2    0    0  0.00000000000E+00  0.00000000000E+00 -0.16613610132E+04  0.23769114634E+04  0.16998787276E+04 0.  0.
        4    1    3    3  502    0 -0.20339282359E+03  0.20701529887E+03  0.28634660050E+03  0.40770082557E+03  0.12699999809E+01 0. -1.
       -4    1    3    3    0  502  0.20339282359E+03 -0.20701529887E+03 -0.19477076137E+04  0.19692106378E+04  0.12699999809E+01 0.  1.
</event>
<event>
 5   0  0.2966258E-05  0.1702913E+04  0.7818609E-02  0.8759705E-01
       -1   -1    0    0    0  501  0.00000000000E+00  0.00000000000E+00  0.46071954337E+03  0.46071954339E+03  0.50400001928E-02 0. -1.
        1   -1    0    0  501    0  0.00000000000E+00  0.00000000000E+00 -0.15735771602E+04  0.15735771602E+04  0.50400001928E-02 0.  1.
    10030    2    1    2    0    0  0.00000000000E+00  0.00000000000E+00 -0.11128576168E+04  0.20342967036E+04  0.17029125060E+04 0.  0.
        4    1    3    3  502    0 -0.27418417039E+03 -0.45933353310E+03  0.23490760591E+03  0.58424947594E+03  0.12699999809E+01 0. -1.
       -4    1    3    3    0  502  0.27418417039E+03  0.45933353310E+03 -0.13477652228E+04  0.14500472277E+04  0.12699999809E+01 0.  1.
</event>
<event>
 5   0  0.2966258E-05  0.1692416E+04  0.7818609E-02  0.8765702E-01
       -1   -1    0    0    0  501  0.00000000000E+00  0.00000000000E+00  0.10446367657E+04  0.10446367657E+04  0.50400001928E-02 0. -1.
        1   -1    0    0  501    0  0.00000000000E+00  0.00000000000E+00 -0.68547084871E+03  0.68547084873E+03  0.50400001928E-02 0.  1.
    10030    2    1    2    0    0  0.00000000000E+00  0.00000000000E+00  0.35916591697E+03  0.17301076144E+04  0.16924160840E+04 0.  0.
        4    1    3    3  502    0 -0.77411511953E+03 -0.28484960214E+03  0.37266208432E+03  0.90513654004E+03  0.12699999809E+01 0.  1.
       -4    1    3    3    0  502  0.77411511953E+03  0.28484960214E+03 -0.13496167354E+02  0.82497107438E+03  0.12699999809E+01 0. -1.
</event>
<event>
 5   0  0.2911632E-05  0.1693404E+04  0.7818609E-02  0.8765135E-01
       -1   -1    0    0    0  501  0.00000000000E+00  0.00000000000E+00  0.72347773116E+03  0.72347773118E+03  0.50400001928E-02 0. -1.
        1   -1    0    0  501    0  0.00000000000E+00  0.00000000000E+00 -0.99091382722E+03  0.99091382723E+03  0.50400001928E-02 0.  1.
    10030    2    1    2    0    0  0.00000000000E+00  0.00000000000E+00 -0.26743609606E+03  0.17143915584E+04  0.16934037764E+04 0.  0.
        1    1    3    3  502    0 -0.15945005705E+02  0.51350895759E+03  0.54764511779E+03  0.75090669713E+03  0.50400001928E-02 0. -1.
       -1    1    3    3    0  502  0.15945005705E+02 -0.51350895759E+03 -0.81508121384E+03  0.96348486128E+03  0.50400001928E-02 0.  1.
</event>
<event>
 5   0  0.5821584E-05  0.1700822E+04  0.7818609E-02  0.8760895E-01
       -2   -1    0    0    0  501  0.00000000000E+00  0.00000000000E+00  0.48159801073E+03  0.48159801073E+03  0.25500000920E-02 0. -1.
        2   -1    0    0  501    0  0.00000000000E+00  0.00000000000E+00 -0.15016656043E+04  0.15016656043E+04  0.25500000920E-02 0.  1.
    10030    2    1    2    0    0  0.00000000000E+00  0.00000000000E+00 -0.10200675936E+04  0.19832636151E+04  0.17008223515E+04 0.  0.
        1    1    3    3  502    0 -0.12204045647E+01  0.83667309372E+03 -0.33251719498E+03  0.90032829575E+03  0.50400001928E-02 0. -1.
       -1    1    3    3    0  502  0.12204045647E+01 -0.83667309372E+03 -0.68755039862E+03  0.10829353193E+04  0.50400001928E-02 0.  1.
</event>
<event>
 5   0  0.2993769E-05  0.1699772E+04  0.7818609E-02  0.8761495E-01
       -1   -1    0    0    0  501  0.00000000000E+00  0.00000000000E+00  0.59691723667E+03  0.59691723670E+03  0.50400001928E-02 0. -1.
        1   -1    0    0  501    0  0.00000000000E+00  0.00000000000E+00 -0.12100605321E+04  0.12100605321E+04  0.50400001928E-02 0.  1.
    10030    2    1    2    0    0  0.00000000000E+00  0.00000000000E+00 -0.61314329538E+03  0.18069777688E+04  0.16997717365E+04 0.  0.
        3    1    3    3  502    0 -0.74451263210E+03  0.32327129472E+03 -0.38680771022E+02  0.81258821158E+03  0.10100000352E+00 0. -1.
       -3    1    3    3    0  502  0.74451263210E+03 -0.32327129472E+03 -0.57446252436E+03  0.99438955718E+03  0.10100000352E+00 0.  1.
</event>
<event>
 5   0  0.5652631E-05  0.1704950E+04  0.7818609E-02  0.8758546E-01
       -2   -1    0    0    0  501  0.00000000000E+00  0.00000000000E+00  0.82327314098E+03  0.82327314098E+03  0.25500000920E-02 0.  1.
        2   -1    0    0  501    0  0.00000000000E+00  0.00000000000E+00 -0.88271272639E+03  0.88271272639E+03  0.25500000920E-02 0. -1.
    10030    2    1    2    0    0  0.00000000000E+00  0.00000000000E+00 -0.59439585410E+02  0.17059858674E+04  0.17049500624E+04 0.  0.
        2    1    3    3  502    0 -0.19299919194E+03  0.43591563402E+03 -0.73686163548E+03  0.87763101468E+03  0.25500000920E-02 0. -1.
       -2    1    3    3    0  502  0.19299919194E+03 -0.43591563402E+03  0.67742205007E+03  0.82835485270E+03  0.25500000920E-02 0.  1.
</event>
<event>
 5   0  0.5671132E-05  0.1698610E+04  0.7818609E-02  0.8762157E-01
        2   -1    0    0  501    0  0.00000000000E+00  0.00000000000E+00  0.21821297248E+04  0.21821297248E+04  0.25500000920E-02 0.  1.
       -2   -1    0    0    0  501  0.00000000000E+00  0.00000000000E+00 -0.33055735994E+03  0.33055735995E+03  0.25500000920E-02 0. -1.
    10030    2    1    2    0    0  0.00000000000E+00  0.00000000000E+00  0.18515723649E+04  0.25126870848E+04  0.16986100681E+04 0.  0.
        3    1    3    3  502    0  0.54211360039E+03 -0.17606395392E+03  0.18571724058E+04  0.19426721356E+04  0.10100000352E+00 0.  1.
       -3    1    3    3    0  502 -0.54211360039E+03  0.17606395392E+03 -0.56000408864E+01  0.57001494915E+03  0.10100000352E+00 0. -1.
</event>
<event>
 5   0  0.2098250E-05  0.1701272E+04  0.7818609E-02  0.8760639E-01
        3   -1    0    0  501    0  0.00000000000E+00  0.00000000000E+00  0.19776447181E+04  0.19776447207E+04  0.10100000352E+00 0.  1.
       -3   -1    0    0    0  501  0.00000000000E+00  0.00000000000E+00 -0.36588059476E+03  0.36588060870E+03  0.10100000352E+00 0. -1.
    10030    2    1    2    0    0  0.00000000000E+00  0.00000000000E+00  0.16117641233E+04  0.23435253294E+04  0.17012722828E+04 0.  0.
        5    1    3    3  502    0 -0.35290958423E+03  0.26071453411E+03 -0.19794863040E+03  0.48137614525E+03  0.46999998093E+01 0. -1.
       -5    1    3    3    0  502  0.35290958423E+03 -0.26071453411E+03  0.18097127537E+04  0.18621491841E+04  0.46999998093E+01 0.  1.
</event>
<event>
 5   0  0.2987859E-05  0.1700315E+04  0.7818609E-02  0.8761185E-01
        1   -1    0    0  501    0  0.00000000000E+00  0.00000000000E+00  0.13472603999E+04  0.13472603999E+04  0.50400001928E-02 0.  1.
       -1   -1    0    0    0  501  0.00000000000E+00  0.00000000000E+00 -0.53647192142E+03  0.53647192145E+03  0.50400001928E-02 0. -1.
    10030    2    1    2    0    0  0.00000000000E+00  0.00000000000E+00  0.81078847851E+03  0.18837323214E+04  0.17003145302E+04 0.  0.
        5    1    3    3  502    0  0.70838128205E+03 -0.65831204502E+02  0.92101057183E+03  0.11637956658E+04  0.46999998093E+01 0.  1.
       -5    1    3    3    0  502 -0.70838128205E+03  0.65831204502E+02 -0.11022209332E+03  0.71993665562E+03  0.46999998093E+01 0. -1.
</event>
<event>
 5   0  0.5755321E-05  0.1702427E+04  0.7818609E-02  0.8759981E-01
       -2   -1    0    0    0  501  0.00000000000E+00  0.00000000000E+00  0.52801775043E+03  0.52801775044E+03  0.25500000920E-02 0.  1.
        2   -1    0    0  501    0  0.00000000000E+00  0.00000000000E+00 -0.13722355239E+04  0.13722355239E+04  0.25500000920E-02 0. -1.
    10030    2    1    2    0    0  0.00000000000E+00  0.00000000000E+00 -0.84421777349E+03  0.19002532744E+04  0.17024273428E+04 0.  0.
        4    1    3    3  502    0  0.27137434310E+03 -0.40770907422E+03  0.35498948482E+03  0.60488831244E+03  0.12699999809E+01 0.  1.
       -4    1    3    3    0  502 -0.27137434310E+03  0.40770907422E+03 -0.11992072583E+04  0.12953649619E+04  0.12699999809E+01 0. -1.
</event>
<event>
 5   0  0.5755321E-05  0.1702602E+04  0.7818609E-02  0.8759882E-01
        2   -1    0    0  501    0  0.00000000000E+00  0.00000000000E+00  0.23863586632E+04  0.23863586632E+04  0.25500000920E-02 0. -1.
       -2   -1    0    0    0  501  0.00000000000E+00  0.00000000000E+00 -0.30369000003E+03  0.30369000004E+03  0.25500000920E-02 0.  1.
    10030    2    1    2    0    0  0.00000000000E+00  0.00000000000E+00  0.20826686631E+04  0.26900486632E+04  0.17026018472E+04 0.  0.
        4    1    3    3  502    0  0.23393701631E+03 -0.34451286048E+03  0.22144462883E+04  0.22532619944E+04  0.12699999809E+01 0. -1.
       -4    1    3    3    0  502 -0.23393701631E+03  0.34451286048E+03 -0.13177762520E+03  0.43678666880E+03  0.12699999809E+01 0.  1.
</event>
<event>
 5   0  0.5652631E-05  0.1684176E+04  0.7818609E-02  0.8770441E-01
        2   -1    0    0  501    0  0.00000000000E+00  0.00000000000E+00  0.10466844855E+04  0.10466844855E+04  0.25500000920E-02 0.  1.
       -2   -1    0    0    0  501  0.00000000000E+00  0.00000000000E+00 -0.67748391424E+03  0.67748391425E+03  0.25500000920E-02 0. -1.
    10030    2    1    2    0    0  0.00000000000E+00  0.00000000000E+00  0.36920057127E+03  0.17241683998E+04  0.16841756467E+04 0.  0.
        2    1    3    3  502    0  0.15597655696E+03  0.10553491820E+03  0.10248493466E+04  0.10420088716E+04  0.25500000920E-02 0.  1.
       -2    1    3    3    0  502 -0.15597655696E+03 -0.10553491820E+03 -0.65564877532E+03  0.68215952817E+03  0.25500000920E-02 0. -1.
</event>
<event>
 5   0  0.2987859E-05  0.1701530E+04  0.7818609E-02  0.8760492E-01
        1   -1    0    0  501    0  0.00000000000E+00  0.00000000000E+00  0.16902234255E+04  0.16902234255E+04  0.50400001928E-02 0.  1.
       -1   -1    0    0    0  501  0.00000000000E+00  0.00000000000E+00 -0.42822791086E+03  0.42822791089E+03  0.50400001928E-02 0. -1.
    10030    2    1    2    0    0  0.00000000000E+00  0.00000000000E+00  0.12619955146E+04  0.21184513364E+04  0.17015297193E+04 0.  0.
        5    1    3    3  502    0  0.64245677458E+03 -0.37010806903E+03  0.11158387279E+03  0.74980246774E+03  0.46999998093E+01 0. -1.
       -5    1    3    3    0  502 -0.64245677458E+03  0.37010806903E+03  0.11504116418E+04  0.13686488686E+04  0.46999998093E+01 0.  1.
</event>
<event>
 5   0  0.5671132E-05  0.1699440E+04  0.7818609E-02  0.8761684E-01
       -2   -1    0    0    0  501  0.00000000000E+00  0.00000000000E+00  0.51530550547E+03  0.51530550547E+03  0.25500000920E-02 0. -1.
        2   -1    0    0  501    0  0.00000000000E+00  0.00000000000E+00 -0.14011569634E+04  0.14011569634E+04  0.25500000920E-02 0.  1.
    10030    2    1    2    0    0  0.00000000000E+00  0.00000000000E+00 -0.88585145794E+03  0.19164624689E+04  0.16994397868E+04 0.  0.
        3    1    3    3  502    0  0.98494627470E+02 -0.68425522065E+03  0.11425230117E+03  0.70068537672E+03  0.10100000352E+00 0. -1.
       -3    1    3    3    0  502 -0.98494627470E+02  0.68425522065E+03 -0.10001037591E+04  0.12157770922E+04  0.10100000352E+00 0.  1.
</event>
<event>
 5   0  0.2098250E-05  0.1705855E+04  0.7818609E-02  0.8758032E-01
       -3   -1    0    0    0  501  0.00000000000E+00  0.00000000000E+00  0.30123914417E+03  0.30123916110E+03  0.10100000352E+00 0.  1.
        3   -1    0    0  501    0  0.00000000000E+00  0.00000000000E+00 -0.24149759011E+04  0.24149759032E+04  0.10100000352E+00 0. -1.
    10030    2    1    2    0    0  0.00000000000E+00  0.00000000000E+00 -0.21137367569E+04  0.27162150643E+04  0.17058549757E+04 0.  0.
        1    1    3    3  502    0 -0.62229940265E+03 -0.36892808505E+03 -0.33747621908E+03  0.79828232909E+03  0.50400001928E-02 0.  1.
       -1    1    3    3    0  502  0.62229940265E+03  0.36892808505E+03 -0.17762605378E+04  0.19179327352E+04  0.50400001928E-02 0. -1.
</event>
<event>
 5   0  0.2993769E-05  0.1698437E+04  0.7818609E-02  0.8762257E-01
       -1   -1    0    0    0  501  0.00000000000E+00  0.00000000000E+00  0.58978438738E+03  0.58978438740E+03  0.50400001928E-02 0.  1.
        1   -1    0    0  501    0  0.00000000000E+00  0.00000000000E+00 -0.12227717059E+04  0.12227717059E+04  0.50400001928E-02 0. -1.
    10030    2    1    2    0    0  0.00000000000E+00  0.00000000000E+00 -0.63298731856E+03  0.18125560933E+04  0.16984365299E+04 0.  0.
        3    1    3    3  502    0 -0.20424732816E+03 -0.13000039301E+03  0.55217262034E+03  0.60291930314E+03  0.10100000352E+00 0.  1.
       -3    1    3    3    0  502  0.20424732816E+03  0.13000039301E+03 -0.11851599389E+04  0.12096367902E+04  0.10100000352E+00 0. -1.
</event>
<event>
 5   0  0.2098250E-05  0.1691883E+04  0.7818609E-02  0.8766008E-01
        3   -1    0    0  501    0  0.00000000000E+00  0.00000000000E+00  0.15987099843E+04  0.15987099875E+04  0.10100000352E+00 0.  1.
       -3   -1    0    0    0  501  0.00000000000E+00  0.00000000000E+00 -0.44762131692E+03  0.44762132831E+03  0.10100000352E+00 0. -1.
    10030    2    1    2    0    0  0.00000000000E+00  0.00000000000E+00  0.11510886674E+04  0.20463313158E+04  0.16918826005E+04 0.  0.
        3    1    3    3  502    0  0.25226997353E+02 -0.54662517459E+03  0.13558180007E+04  0.14620800060E+04  0.10100000352E+00 0.  1.
       -3    1    3    3    0  502 -0.25226997353E+02  0.54662517459E+03 -0.20472933327E+03  0.58425130979E+03  0.10100000352E+00 0. -1.
</event>
<event>
 5   0  0.5755321E-05  0.1700410E+04  0.7818609E-02  0.8761130E-01
        2   -1    0    0  501    0  0.00000000000E+00  0.00000000000E+00  0.94264870745E+03  0.94264870745E+03  0.25500000920E-02 0. -1.
       -2   -1    0    0    0  501  0.00000000000E+00  0.00000000000E+00 -0.76682727473E+03  0.76682727474E+03  0.25500000920E-02 0.  1.
    10030    2    1    2    0    0  0.00000000000E+00  0.00000000000E+00  0.17582143272E+03  0.17094759822E+04  0.17004102321E+04 0.  0.
        4    1    3    3  502    0  0.40461399646E+03  0.27293498976E+03  0.78778402158E+03  0.92672070891E+03  0.12699999809E+01 0. -1.
       -4    1    3    3    0  502 -0.40461399646E+03 -0.27293498976E+03 -0.61196258887E+03  0.78275527327E+03  0.12699999809E+01 0.  1.
</event>
<event>
 5   0  0.2966258E-05  0.1677356E+04  0.7818609E-02  0.8774385E-01
       -1   -1    0    0    0  501  0.00000000000E+00  0.00000000000E+00  0.57670243597E+03  0.57670243599E+03  0.50400001928E-02 0.  1.
        1   -1    0    0  501    0  0.00000000000E+00  0.00000000000E+00 -0.12196602289E+04  0.12196602289E+04  0.50400001928E-02 0. -1.
    10030    2    1    2    0    0  0.00000000000E+00  0.00000000000E+00 -0.64295779289E+03  0.17963626649E+04  0.16773562830E+04 0.  0.
        4    1    3    3  502    0 -0.14483362944E+03  0.14341716769E+03  0.54977209644E+03  0.58634139810E+03  0.12699999809E+01 0.  1.
       -4    1    3    3    0  502  0.14483362944E+03 -0.14341716769E+03 -0.11927298893E+04  0.12100212668E+04  0.12699999809E+01 0. -1.
</event>
<event>
 5   0  0.2993769E-05  0.1699960E+04  0.7818609E-02  0.8761387E-01
       -1   -1    0    0    0  501  0.00000000000E+00  0.00000000000E+00  0.54570000856E+03  0.54570000858E+03  0.50400001928E-02 0.  1.
        1   -1    0    0  501    0  0.00000000000E+00  0.00000000000E+00 -0.13239250846E+04  0.13239250846E+04  0.50400001928E-02 0. -1.
    10030    2    1    2    0    0  0.00000000000E+00  0.00000000000E+00 -0.77822507601E+03  0.18696250932E+04  0.16999599172E+04 0.  0.
        3    1    3    3  502    0  0.61946104551E+03 -0.17250679965E+03 -0.10004454175E+04  0.11892777751E+04  0.10100000352E+00 0. -1.
       -3    1    3    3    0  502 -0.61946104551E+03  0.17250679965E+03  0.22222034145E+03  0.68034731806E+03  0.10100000352E+00 0.  1.
</event>
<event>
 5   0  0.5652631E-05  0.1702460E+04  0.7818609E-02  0.8759963E-01
        2   -1    0    0  501    0  0.00000000000E+00  0.00000000000E+00  0.16710190581E+04  0.16710190581E+04  0.25500000920E-02 0.  1.
       -2   -1    0    0    0  501  0.00000000000E+00  0.00000000000E+00 -0.43362302140E+03  0.43362302141E+03  0.25500000920E-02 0. -1.
    10030    2    1    2    0    0  0.00000000000E+00  0.00000000000E+00  0.12373960367E+04  0.21046420795E+04  0.17024597884E+04 0.  0.
        2    1    3    3  502    0  0.57632090562E+03 -0.59782633432E+03  0.38725357212E+03  0.91624638683E+03  0.25500000920E-02 0. -1.
       -2    1    3    3    0  502 -0.57632090562E+03  0.59782633432E+03  0.85014246456E+03  0.11883956926E+04  0.25500000920E-02 0.  1.
</event>
<event>
 5   0  0.2993769E-05  0.1700043E+04  0.7818609E-02  0.8761340E-01
       -1   -1    0    0    0  501  0.00000000000E+00  0.00000000000E+00  0.37667558893E+03  0.37667558897E+03  0.50400001928E-02 0.  1.
        1   -1    0    0  501    0  0.00000000000E+00  0.00000000000E+00 -0.19181926056E+04  0.19181926056E+04  0.50400001928E-02 0. -1.
    10030    2    1    2    0    0  0.00000000000E+00  0.00000000000E+00 -0.15415170166E+04  0.22948681945E+04  0.17000427400E+04 0.  0.
        3    1    3    3  502    0  0.13862719122E+03  0.19383313927E+03 -0.18721778295E+04  0.18872833967E+04  0.10100000352E+00 0. -1.
       -3    1    3    3    0  502 -0.13862719122E+03 -0.19383313927E+03  0.33066081288E+03  0.40758479781E+03  0.10100000352E+00 0.  1.
</event>
<event>
 5   0  0.5755321E-05  0.1699931E+04  0.7818609E-02  0.8761404E-01
       -2   -1    0    0    0  501  0.00000000000E+00  0.00000000000E+00  0.67091363876E+03  0.67091363876E+03  0.25500000920E-02 0.  1.
        2   -1    0    0  501    0  0.00000000000E+00  0.00000000000E+00 -0.10768026827E+04  0.10768026827E+04  0.25500000920E-02 0. -1.
    10030    2    1    2    0    0  0.00000000000E+00  0.00000000000E+00 -0.40588904399E+03  0.17477163215E+04  0.16999312999E+04 0.  0.
        4    1    3    3  502    0 -0.14459416505E+03  0.78364101865E+03 -0.50695800463E+03  0.94446214854E+03  0.12699999809E+01 0. -1.
       -4    1    3    3    0  502  0.14459416505E+03 -0.78364101865E+03  0.10106896065E+03  0.80325417296E+03  0.12699999809E+01 0.  1.
</event>
<event>
 5   0  0.5821584E-05  0.1679450E+04  0.7818609E-02  0.8773173E-01
        2   -1    0    0  501    0  0.00000000000E+00  0.00000000000E+00  0.11480092582E+04  0.11480092582E+04  0.25500000920E-02 0. -1.
       -2   -1    0    0    0  501  0.00000000000E+00  0.00000000000E+00 -0.61422647378E+03  0.61422647378E+03  0.25500000920E-02 0.  1.
    10030    2    1    2    0    0  0.00000000000E+00  0.00000000000E+00  0.53378278447E+03  0.17622357320E+04  0.16794495272E+04 0.  0.
        1    1    3    3  502    0 -0.52024674374E+03  0.12562945745E+02 -0.42462670316E+03  0.67165641443E+03  0.50400001928E-02 0.  1.
       -1    1    3    3    0  502  0.52024674374E+03 -0.12562945745E+02  0.95840948763E+03  0.10905793176E+04  0.50400001928E-02 0. -1.
</event>
<event>
 5   0  0.5671132E-05  0.1697724E+04  0.7818609E-02  0.8762664E-01
       -2   -1    0    0    0  501  0.00000000000E+00  0.00000000000E+00  0.69781555993E+03  0.69781555994E+03  0.25500000920E-02 0. -1.
        2   -1    0    0  501    0  0.00000000000E+00  0.00000000000E+00 -0.10326032312E+04  0.10326032312E+04  0.25500000920E-02 0.  1.
    10030    2    1    2    0    0  0.00000000000E+00  0.00000000000E+00 -0.33478767129E+03  0.17304187912E+04  0.16977238904E+04 0.  0.
        3    1    3    3  502    0  0.62349145114E+03 -0.57482173124E+03 -0.20559874255E+03  0.87260097725E+03  0.10100000352E+00 0. -1.
       -3    1    3    3    0  502 -0.62349145114E+03  0.57482173124E+03 -0.12918892873E+03  0.85781781391E+03  0.10100000352E+00 0.  1.
</event>
<event>
 5   0  0.5671132E-05  0.1720585E+04  0.7818609E-02  0.8749710E-01
        2   -1    0    0  501    0  0.00000000000E+00  0.00000000000E+00  0.59289318310E+03  0.59289318311E+03  0.25500000920E-02 0.  1.
       -2   -1    0    0    0  501  0.00000000000E+00  0.00000000000E+00 -0.12482914550E+04  0.12482914550E+04  0.25500000920E-02 0. -1.
    10030    2    1    2    0    0  0.00000000000E+00  0.00000000000E+00 -0.65539827187E+03  0.18411846381E+04  0.17205853588E+04 0.  0.
        3    1    3    3  502    0  0.29611283720E+03  0.71860781673E+03 -0.72236362945E+03  0.10610792760E+04  0.10100000352E+00 0. -1.
       -3    1    3    3    0  502 -0.29611283720E+03 -0.71860781673E+03  0.66965357579E+02  0.78010536208E+03  0.10100000352E+00 0.  1.
</event>
<event>
 5   0  0.5859822E-05  0.1702562E+04  0.7818609E-02  0.8759905E-01
       -2   -1    0    0    0  501  0.00000000000E+00  0.00000000000E+00  0.10659102674E+04  0.10659102674E+04  0.25500000920E-02 0.  1.
        2   -1    0    0  501    0  0.00000000000E+00  0.00000000000E+00 -0.67986895746E+03  0.67986895747E+03  0.25500000920E-02 0. -1.
    10030    2    1    2    0    0  0.00000000000E+00  0.00000000000E+00  0.38604130991E+03  0.17457792248E+04  0.17025619545E+04 0.  0.
        5    1    3    3  502    0  0.60867784131E+03 -0.17965032948E+03 -0.38873821107E+03  0.74424622413E+03  0.46999998093E+01 0. -1.
       -5    1    3    3    0  502 -0.60867784131E+03  0.17965032948E+03  0.77477952097E+03  0.10015330007E+04  0.46999998093E+01 0.  1.
</event>
<event>
 5   0  0.2993769E-05  0.1700891E+04  0.7818609E-02  0.8760856E-01
        1   -1    0    0  501    0  0.00000000000E+00  0.00000000000E+00  0.11954774369E+04  0.11954774369E+04  0.50400001928E-02 0.  1.
       -1   -1    0    0    0  501  0.00000000000E+00  0.00000000000E+00 -0.60499481710E+03  0.60499481712E+03  0.50400001928E-02 0. -1.
    10030    2    1    2    0    0  0.00000000000E+00  0.00000000000E+00  0.59048261978E+03  0.18004722540E+04  0.17008911233E+04 0.  0.
        3    1    3    3  502    0 -0.30730025068E+03  0.14684148373E+03  0.11201348295E+04  0.11707680863E+04  0.10100000352E+00 0.  1.
       -3    1    3    3    0  502  0.30730025068E+03 -0.14684148373E+03 -0.52965220970E+03  0.62970416773E+03  0.10100000352E+00 0. -1.
</event>
<event>
 5   0  0.2966258E-05  0.1700313E+04  0.7818609E-02  0.8761186E-01
       -1   -1    0    0    0  501  0.00000000000E+00  0.00000000000E+00  0.11329721192E+04  0.11329721192E+04  0.50400001928E-02 0.  1.
        1   -1    0    0  501    0  0.00000000000E+00  0.00000000000E+00 -0.63793803986E+03  0.63793803988E+03  0.50400001928E-02 0. -1.
    10030    2    1    2    0    0  0.00000000000E+00  0.00000000000E+00  0.49503407935E+03  0.17709101591E+04  0.17003129276E+04 0.  0.
        4    1    3    3  502    0 -0.81494397498E+03 -0.13536053121E+03  0.38411945265E+02  0.82700256723E+03  0.12699999809E+01 0. -1.
       -4    1    3    3    0  502  0.81494397498E+03  0.13536053121E+03  0.45662213408E+03  0.94390759188E+03  0.12699999809E+01 0.  1.
</event>
<event>
 5   0  0.5755321E-05  0.1697664E+04  0.7818609E-02  0.8762698E-01
        2   -1    0    0  501    0  0.00000000000E+00  0.00000000000E+00  0.44909516415E+03  0.44909516416E+03  0.25500000920E-02 0.  1.
       -2   -1    0    0    0  501  0.00000000000E+00  0.00000000000E+00 -0.16043713657E+04  0.16043713657E+04  0.25500000920E-02 0. -1.
    10030    2    1    2    0    0  0.00000000000E+00  0.00000000000E+00 -0.11552762016E+04  0.20534665299E+04  0.16976635967E+04 0.  0.
        4    1    3    3  502    0  0.66143141048E+03  0.41231703183E+03 -0.98427595945E+03  0.12555069186E+04  0.12699999809E+01 0. -1.
       -4    1    3    3    0  502 -0.66143141048E+03 -0.41231703183E+03 -0.17100024215E+03  0.79795961127E+03  0.12699999809E+01 0.  1.
</event>
<event>
 5   0  0.2993769E-05  0.1714192E+04  0.7818609E-02  0.8753311E-01
        1   -1    0    0  501    0  0.00000000000E+00  0.00000000000E+00  0.22102347672E+04  0.22102347672E+04  0.50400001928E-02 0. -1.
       -1   -1    0    0    0  501  0.00000000000E+00  0.00000000000E+00 -0.33236893133E+03  0.33236893137E+03  0.50400001928E-02 0.  1.
    10030    2    1    2    0    0  0.00000000000E+00  0.00000000000E+00  0.18778658358E+04  0.25426036985E+04  0.17141917835E+04 0.  0.
        3    1    3    3  502    0 -0.48854407029E+03 -0.70173453460E+03  0.10267680100E+04  0.13361733504E+04  0.10100000352E+00 0. -1.
       -3    1    3    3    0  502  0.48854407029E+03  0.70173453460E+03  0.85109782585E+03  0.12064303482E+04  0.10100000352E+00 0.  1.
</event>
<event>
 5   0  0.2967704E-05  0.1699444E+04  0.7818609E-02  0.8761682E-01
       -1   -1    0    0    0  501  0.00000000000E+00  0.00000000000E+00  0.63863662723E+03  0.63863662725E+03  0.50400001928E-02 0. -1.
        1   -1    0    0  501    0  0.00000000000E+00  0.00000000000E+00 -0.11305759001E+04  0.11305759001E+04  0.50400001928E-02 0.  1.
    10030    2    1    2    0    0  0.00000000000E+00  0.00000000000E+00 -0.49193927289E+03  0.17692125274E+04  0.16994436498E+04 0.  0.
        2    1    3    3  502    0  0.34025421210E+03  0.77512168679E+03 -0.32275836822E+03  0.90595779286E+03  0.25500000920E-02 0.  1.
       -2    1    3    3    0  502 -0.34025421210E+03 -0.77512168679E+03 -0.16918090467E+03  0.86325473453E+03  0.25500000920E-02 0. -1.
</event>
<event>
 5   0  0.2993769E-05  0.1701093E+04  0.7818609E-02  0.8760741E-01
       -1   -1    0    0    0  501  0.00000000000E+00  0.00000000000E+00  0.10578509769E+04  0.10578509770E+04  0.50400001928E-02 0.  1.
        1   -1    0    0  501    0  0.00000000000E+00  0.00000000000E+00 -0.68386663141E+03  0.68386663143E+03  0.50400001928E-02 0. -1.
    10030    2    1    2    0    0  0.00000000000E+00  0.00000000000E+00  0.37398434553E+03  0.17417176084E+04  0.17010925715E+04 0.  0.
        3    1    3    3  502    0  0.60576176320E+03  0.59028777716E+03  0.95173325139E+02  0.85114331675E+03  0.10100000352E+00 0. -1.
       -3    1    3    3    0  502 -0.60576176320E+03 -0.59028777716E+03  0.27881102040E+03  0.89057429164E+03  0.10100000352E+00 0.  1.
</event>
<event>
 5   0  0.2993769E-05  0.1700550E+04  0.7818609E-02  0.8761050E-01
       -1   -1    0    0    0  501  0.00000000000E+00  0.00000000000E+00  0.11571073394E+04  0.11571073394E+04  0.50400001928E-02 0. -1.
        1   -1    0    0  501    0  0.00000000000E+00  0.00000000000E+00 -0.62480631408E+03  0.62480631410E+03  0.50400001928E-02 0.  1.
    10030    2    1    2    0    0  0.00000000000E+00  0.00000000000E+00  0.53230102527E+03  0.17819136535E+04  0.17005504658E+04 0.  0.
        3    1    3    3  502    0 -0.31380096870E+03  0.59703140812E+03  0.80865754203E+03  0.10530168948E+04  0.10100000352E+00 0. -1.
       -3    1    3    3    0  502  0.31380096870E+03 -0.59703140812E+03 -0.27635651676E+03  0.72889675867E+03  0.10100000352E+00 0.  1.
</event>
<event>
 5   0  0.2987859E-05  0.1699713E+04  0.7818609E-02  0.8761528E-01
       -1   -1    0    0    0  501  0.00000000000E+00  0.00000000000E+00  0.31165258847E+03  0.31165258851E+03  0.50400001928E-02 0. -1.
        1   -1    0    0  501    0  0.00000000000E+00  0.00000000000E+00 -0.23175049366E+04  0.23175049366E+04  0.50400001928E-02 0.  1.
    10030    2    1    2    0    0  0.00000000000E+00  0.00000000000E+00 -0.20058523481E+04  0.26291575251E+04  0.16997134021E+04 0.  0.
        5    1    3    3  502    0 -0.47781933656E+03  0.15850936996E+03  0.56165816214E+02  0.50657006195E+03  0.46999998093E+01 0. -1.
       -5    1    3    3    0  502  0.47781933656E+03 -0.15850936996E+03 -0.20620181643E+04  0.21225874632E+04  0.46999998093E+01 0.  1.
</event>
<event>
 5   0  0.2967704E-05  0.1700891E+04  0.7818609E-02  0.8760857E-01
       -1   -1    0    0    0  501  0.00000000000E+00  0.00000000000E+00  0.60715445808E+03  0.60715445810E+03  0.50400001928E-02 0. -1.
        1   -1    0    0  501    0  0.00000000000E+00  0.00000000000E+00 -0.11912245136E+04  0.11912245136E+04  0.50400001928E-02 0.  1.
    10030    2    1    2    0    0  0.00000000000E+00  0.00000000000E+00 -0.58407005554E+03  0.17983789717E+04  0.17008906773E+04 0.  0.
        2    1    3    3  502    0  0.19959213994E+03 -0.43475537624E+03  0.45140778301E+03  0.65773721657E+03  0.25500000920E-02 0. -1.
       -2    1    3    3    0  502 -0.19959213994E+03  0.43475537624E+03 -0.10354778385E+04  0.11406417552E+04  0.25500000920E-02 0.  1.
</event>
<event>
 5   0  0.2967704E-05  0.1699065E+04  0.7818609E-02  0.8761898E-01
       -1   -1    0    0    0  501  0.00000000000E+00  0.00000000000E+00  0.16571470818E+04  0.16571470818E+04  0.50400001928E-02 0.  1.
        1   -1    0    0  501    0  0.00000000000E+00  0.00000000000E+00 -0.43551064413E+03  0.43551064416E+03  0.50400001928E-02 0. -1.
    10030    2    1    2    0    0  0.00000000000E+00  0.00000000000E+00  0.12216364377E+04  0.20926577260E+04  0.16990646757E+04 0.  0.
        2    1    3    3  502    0 -0.35837057347E+03 -0.61549046050E+03  0.40458956326E+02  0.71336869993E+03  0.25500000920E-02 0. -1.
       -2    1    3    3    0  502  0.35837057347E+03  0.61549046050E+03  0.11811774814E+04  0.13792890260E+04  0.25500000920E-02 0.  1.
</event>
<event>
 5   0  0.5859822E-05  0.1699770E+04  0.7818609E-02  0.8761496E-01
       -2   -1    0    0    0  501  0.00000000000E+00  0.00000000000E+00  0.12848442540E+04  0.12848442540E+04  0.25500000920E-02 0.  1.
        2   -1    0    0  501    0  0.00000000000E+00  0.00000000000E+00 -0.56217275722E+03  0.56217275723E+03  0.25500000920E-02 0. -1.
    10030    2    1    2    0    0  0.00000000000E+00  0.00000000000E+00  0.72267149678E+03  0.18470170112E+04  0.16997699102E+04 0.  0.
        5    1    3    3  502    0 -0.31018198876E+03 -0.77402841795E+03  0.18295169615E+03  0.85371322531E+03  0.46999998093E+01 0. -1.
       -5    1    3    3    0  502  0.31018198876E+03  0.77402841795E+03  0.53971980063E+03  0.99330378593E+03  0.46999998093E+01 0.  1.
</event>
<event>
 5   0  0.2993769E-05  0.1704775E+04  0.7818609E-02  0.8758646E-01
        1   -1    0    0  501    0  0.00000000000E+00  0.00000000000E+00  0.22769469604E+04  0.22769469604E+04  0.50400001928E-02 0.  1.
       -1   -1    0    0    0  501  0.00000000000E+00  0.00000000000E+00 -0.31909597790E+03  0.31909597794E+03  0.50400001928E-02 0. -1.
    10030    2    1    2    0    0  0.00000000000E+00  0.00000000000E+00  0.19578509825E+04  0.25960429384E+04  0.17047751958E+04 0.  0.
        3    1    3    3  502    0 -0.18855544160E+03 -0.30419729486E+03  0.21569868918E+04  0.21864769860E+04  0.10100000352E+00 0.  1.
       -3    1    3    3    0  502  0.18855544160E+03  0.30419729486E+03 -0.19913590929E+03  0.40956595236E+03  0.10100000352E+00 0. -1.
</event>
<event>
 5   0  0.5859822E-05  0.1699894E+04  0.7818609E-02  0.8761425E-01
        2   -1    0    0  501    0  0.00000000000E+00  0.00000000000E+00  0.76169876627E+03  0.76169876627E+03  0.25500000920E-02 0. -1.
       -2   -1    0    0    0  501  0.00000000000E+00  0.00000000000E+00 -0.94841924029E+03  0.94841924030E+03  0.25500000920E-02 0.  1.
    10030    2    1    2    0    0  0.00000000000E+00  0.00000000000E+00 -0.18672047402E+03  0.17101180066E+04  0.16998938381E+04 0.  0.
        5    1    3    3  502    0 -0.39042360111E+03  0.70946413135E+03  0.16629626724E+03  0.82670821967E+03  0.46999998093E+01 0. -1.
       -5    1    3    3    0  502  0.39042360111E+03 -0.70946413135E+03 -0.35301674126E+03  0.88340978690E+03  0.46999998093E+01 0.  1.
</event>
<event>
 5   0  0.2993769E-05  0.1699901E+04  0.7818609E-02  0.8761421E-01
       -1   -1    0    0    0  501  0.00000000000E+00  0.00000000000E+00  0.65921596397E+03  0.65921596399E+03  0.50400001928E-02 0.  1.
        1   -1    0    0  501    0  0.00000000000E+00  0.00000000000E+00 -0.10958718087E+04  0.10958718087E+04  0.50400001928E-02 0. -1.
    10030    2    1    2    0    0  0.00000000000E+00  0.00000000000E+00 -0.43665584474E+03  0.17550877727E+04  0.16999013981E+04 0.  0.
        3    1    3    3  502    0 -0.36767042822E+03  0.30437572539E+03 -0.94443020010E+03  0.10581939988E+04  0.10100000352E+00 0. -1.
       -3    1    3    3    0  502  0.36767042822E+03 -0.30437572539E+03  0.50777435535E+03  0.69689377393E+03  0.10100000352E+00 0.  1.
</event>
<event>
 5   0  0.5755321E-05  0.1723273E+04  0.7818609E-02  0.8748201E-01
        2   -1    0    0  501    0  0.00000000000E+00  0.00000000000E+00  0.21125301795E+04  0.21125301795E+04  0.25500000920E-02 0. -1.
       -2   -1    0    0    0  501  0.00000000000E+00  0.00000000000E+00 -0.35143511880E+03  0.35143511881E+03  0.25500000920E-02 0.  1.
    10030    2    1    2    0    0  0.00000000000E+00  0.00000000000E+00  0.17610950607E+04  0.24639652983E+04  0.17232728102E+04 0.  0.
        4    1    3    3  502    0 -0.72193894632E+03 -0.31631528504E+03  0.13782481858E+04  0.15877093173E+04  0.12699999809E+01 0. -1.
       -4    1    3    3    0  502  0.72193894632E+03  0.31631528504E+03  0.38284687497E+03  0.87625598105E+03  0.12699999809E+01 0.  1.
</event>
<event>
 5   0  0.2966258E-05  0.1699938E+04  0.7818609E-02  0.8761400E-01
        1   -1    0    0  501    0  0.00000000000E+00  0.00000000000E+00  0.10438740678E+04  0.10438740678E+04  0.50400001928E-02 0. -1.
       -1   -1    0    0    0  501  0.00000000000E+00  0.00000000000E+00 -0.69208281973E+03  0.69208281975E+03  0.50400001928E-02 0.  1.
    10030    2    1    2    0    0  0.00000000000E+00  0.00000000000E+00  0.35179124810E+03  0.17359568876E+04  0.16999380087E+04 0.  0.
        4    1    3    3  502    0 -0.42748651167E+03  0.36668175990E+03  0.82597282127E+03  0.99971643234E+03  0.12699999809E+01 0. -1.
       -4    1    3    3    0  502  0.42748651167E+03 -0.36668175990E+03 -0.47418157318E+03  0.73624045525E+03  0.12699999809E+01 0.  1.
</event>
<event>
 5   0  0.5755321E-05  0.1700150E+04  0.7818609E-02  0.8761279E-01
       -2   -1    0    0    0  501  0.00000000000E+00  0.00000000000E+00  0.37698302446E+03  0.37698302447E+03  0.25500000920E-02 0.  1.
        2   -1    0    0  501    0  0.00000000000E+00  0.00000000000E+00 -0.19168707348E+04  0.19168707348E+04  0.25500000920E-02 0. -1.
    10030    2    1    2    0    0  0.00000000000E+00  0.00000000000E+00 -0.15398877104E+04  0.22938537593E+04  0.17001502606E+04 0.  0.
        4    1    3    3  502    0  0.11211229694E+03  0.18502278201E+03  0.33921837040E+03  0.40233482662E+03  0.12699999809E+01 0.  1.
       -4    1    3    3    0  502 -0.11211229694E+03 -0.18502278201E+03 -0.18791060808E+04  0.18915189327E+04  0.12699999809E+01 0. -1.
</event>
<event>
 5   0  0.5652631E-05  0.1699682E+04  0.7818609E-02  0.8761546E-01
        2   -1    0    0  501    0  0.00000000000E+00  0.00000000000E+00  0.80176950745E+03  0.80176950745E+03  0.25500000920E-02 0.  1.
       -2   -1    0    0    0  501  0.00000000000E+00  0.00000000000E+00 -0.90079470389E+03  0.90079470389E+03  0.25500000920E-02 0. -1.
    10030    2    1    2    0    0  0.00000000000E+00  0.00000000000E+00 -0.99025196442E+02  0.17025642113E+04  0.16996820009E+04 0.  0.
        2    1    3    3  502    0  0.43831230258E+03 -0.45699054170E+03 -0.61728209675E+03  0.88430493427E+03  0.25500000920E-02 0. -1.
       -2    1    3    3    0  502 -0.43831230258E+03  0.45699054170E+03  0.51825690031E+03  0.81825927708E+03  0.25500000920E-02 0.  1.
</event>
<event>
 5   0  0.2911632E-05  0.1698982E+04  0.7818609E-02  0.8761945E-01
       -1   -1    0    0    0  501  0.00000000000E+00  0.00000000000E+00  0.47376248553E+03  0.47376248556E+03  0.50400001928E-02 0. -1.
        1   -1    0    0  501    0  0.00000000000E+00  0.00000000000E+00 -0.15231997682E+04  0.15231997682E+04  0.50400001928E-02 0.  1.
    10030    2    1    2    0    0  0.00000000000E+00  0.00000000000E+00 -0.10494372827E+04  0.19969622538E+04  0.16989819401E+04 0.  0.
        1    1    3    3  502    0 -0.31173011893E+03  0.59817590986E+03 -0.11316613113E+04  0.13174397177E+04  0.50400001928E-02 0.  1.
       -1    1    3    3    0  502  0.31173011893E+03 -0.59817590986E+03  0.82224028610E+02  0.67952253611E+03  0.50400001928E-02 0. -1.
</event>
<event>
 5   0  0.2098250E-05  0.1700188E+04  0.7818609E-02  0.8761257E-01
       -3   -1    0    0    0  501  0.00000000000E+00  0.00000000000E+00  0.99790252977E+03  0.99790253488E+03  0.10100000352E+00 0.  1.
        3   -1    0    0  501    0  0.00000000000E+00  0.00000000000E+00 -0.72417867369E+03  0.72417868073E+03  0.10100000352E+00 0. -1.
    10030    2    1    2    0    0  0.00000000000E+00  0.00000000000E+00  0.27372385608E+03  0.17220812156E+04  0.17001879201E+04 0.  0.
        3    1    3    3  502    0  0.41652325053E+03 -0.65199156978E+03  0.49364071930E+03  0.91775039921E+03  0.10100000352E+00 0.  1.
       -3    1    3    3    0  502 -0.41652325053E+03  0.65199156978E+03 -0.21991686321E+03  0.80433081641E+03  0.10100000352E+00 0. -1.
</event>
<event>
 5   0  0.2911632E-05  0.1700752E+04  0.7818609E-02  0.8760936E-01
        1   -1    0    0  501    0  0.00000000000E+00  0.00000000000E+00  0.26028788007E+04  0.26028788007E+04  0.50400001928E-02 0.  1.
       -1   -1    0    0    0  501  0.00000000000E+00  0.00000000000E+00 -0.27782280868E+03  0.27782280873E+03  0.50400001928E-02 0. -1.
    10030    2    1    2    0    0  0.00000000000E+00  0.00000000000E+00  0.23250559921E+04  0.28807016095E+04  0.17007517152E+04 0.  0.
        1    1    3    3  502    0 -0.54069637346E+03  0.39332486520E+02  0.22722320968E+04  0.23360090570E+04  0.50400001928E-02 0.  1.
       -1    1    3    3    0  502  0.54069637346E+03 -0.39332486520E+02  0.52823895275E+02  0.54469255246E+03  0.50400001928E-02 0. -1.
</event>
<event>
 5   0  0.5859822E-05  0.1701257E+04  0.7818609E-02  0.8760648E-01
       -2   -1    0    0    0  501  0.00000000000E+00  0.00000000000E+00  0.31675036768E+03  0.31675036769E+03  0.25500000920E-02 0. -1.
        2   -1    0    0  501    0  0.00000000000E+00  0.00000000000E+00 -0.22843497845E+04  0.22843497845E+04  0.25500000920E-02 0.  1.
    10030    2    1    2    0    0  0.00000000000E+00  0.00000000000E+00 -0.19675994169E+04  0.26011001522E+04  0.17012567522E+04 0.  0.
        5    1    3    3  502    0 -0.57547205083E+03 -0.19469263322E+03 -0.73511449937E+02  0.61196350053E+03  0.46999998093E+01 0. -1.
       -5    1    3    3    0  502  0.57547205083E+03  0.19469263322E+03 -0.18940879669E+04  0.19891366517E+04  0.46999998093E+01 0.  1.
</event>
<event>
 5   0  0.5671132E-05  0.1699091E+04  0.7818609E-02  0.8761883E-01
        2   -1    0    0  501    0  0.00000000000E+00  0.00000000000E+00  0.14446689109E+04  0.14446689109E+04  0.25500000920E-02 0.  1.
       -2   -1    0    0    0  501  0.00000000000E+00  0.00000000000E+00 -0.49958000213E+03  0.49958000213E+03  0.25500000920E-02 0. -1.
    10030    2    1    2    0    0  0.00000000000E+00  0.00000000000E+00  0.94508890873E+03  0.19442489130E+04  0.16990911660E+04 0.  0.
        3    1    3    3  502    0 -0.61611710507E+03  0.30189560890E+03  0.10458159042E+04  0.12507886159E+04  0.10100000352E+00 0.  1.
       -3    1    3    3    0  502  0.61611710507E+03 -0.30189560890E+03 -0.10072699552E+03  0.69346029711E+03  0.10100000352E+00 0. -1.
</event>
<event>
 5   0  0.5859822E-05  0.1693540E+04  0.7818609E-02  0.8765057E-01
       -2   -1    0    0    0  501  0.00000000000E+00  0.00000000000E+00  0.75429762982E+03  0.75429762982E+03  0.25500000920E-02 0. -1.
        2   -1    0    0  501    0  0.00000000000E+00  0.00000000000E+00 -0.95057877636E+03  0.95057877637E+03  0.25500000920E-02 0.  1.
    10030    2    1    2    0    0  0.00000000000E+00  0.00000000000E+00 -0.19628114654E+03  0.17048764062E+04  0.16935398643E+04 0.  0.
        5    1    3    3  502    0  0.82775023575E+03 -0.16226017280E+03 -0.23492930677E+02  0.84384407579E+03  0.46999998093E+01 0. -1.
       -5    1    3    3    0  502 -0.82775023575E+03  0.16226017280E+03 -0.17278821587E+03  0.86103233040E+03  0.46999998093E+01 0.  1.
</event>
<event>
 5   0  0.2967704E-05  0.1700014E+04  0.7818609E-02  0.8761356E-01
        1   -1    0    0  501    0  0.00000000000E+00  0.00000000000E+00  0.65347619388E+03  0.65347619390E+03  0.50400001928E-02 0. -1.
       -1   -1    0    0    0  501  0.00000000000E+00  0.00000000000E+00 -0.11056436263E+04  0.11056436264E+04  0.50400001928E-02 0.  1.
    10030    2    1    2    0    0  0.00000000000E+00  0.00000000000E+00 -0.45216743247E+03  0.17591198203E+04  0.17000138691E+04 0.  0.
        2    1    3    3  502    0  0.48971330904E+03 -0.57042193792E+03  0.18433122315E+03  0.77406609029E+03  0.25500000920E-02 0. -1.
       -2    1    3    3    0  502 -0.48971330904E+03  0.57042193792E+03 -0.63649865562E+03  0.98505372996E+03  0.25500000920E-02 0.  1.
</event>
<event>
 5   0  0.5755321E-05  0.1702373E+04  0.7818609E-02  0.8760012E-01
        2   -1    0    0  501    0  0.00000000000E+00  0.00000000000E+00  0.17649821906E+04  0.17649821906E+04  0.25500000920E-02 0.  1.
       -2   -1    0    0    0  501  0.00000000000E+00  0.00000000000E+00 -0.41049599476E+03  0.41049599477E+03  0.25500000920E-02 0. -1.
    10030    2    1    2    0    0  0.00000000000E+00  0.00000000000E+00  0.13544861958E+04  0.21754781853E+04  0.17023726032E+04 0.  0.
        4    1    3    3  502    0 -0.38839478176E+03  0.69061047428E+03  0.10746774293E+04  0.13351878234E+04  0.12699999809E+01 0.  1.
       -4    1    3    3    0  502  0.38839478176E+03 -0.69061047428E+03  0.27980876646E+03  0.84029036194E+03  0.12699999809E+01 0. -1.
</event>
<event>
 5   0  0.2911632E-05  0.1703330E+04  0.7818609E-02  0.8759467E-01
        1   -1    0    0  501    0  0.00000000000E+00  0.00000000000E+00  0.17614767514E+04  0.17614767514E+04  0.50400001928E-02 0.  1.
       -1   -1    0    0    0  501  0.00000000000E+00  0.00000000000E+00 -0.41177580022E+03  0.41177580025E+03  0.50400001928E-02 0. -1.
    10030    2    1    2    0    0  0.00000000000E+00  0.00000000000E+00  0.13497009512E+04  0.21732525517E+04  0.17033302662E+04 0.  0.
        1    1    3    3  502    0 -0.82702312445E+03 -0.19648642364E+03  0.74187189434E+03  0.11282500036E+04  0.50400001928E-02 0.  1.
       -1    1    3    3    0  502  0.82702312445E+03  0.19648642364E+03  0.60782905689E+03  0.10450025481E+04  0.50400001928E-02 0. -1.
</event>
<event>
 5   0  0.5671132E-05  0.1696636E+04  0.7818609E-02  0.8763285E-01
        2   -1    0    0  501    0  0.00000000000E+00  0.00000000000E+00  0.10972788885E+04  0.10972788885E+04  0.25500000920E-02 0.  1.
       -2   -1    0    0    0  501  0.00000000000E+00  0.00000000000E+00 -0.65584406675E+03  0.65584406676E+03  0.25500000920E-02 0. -1.
    10030    2    1    2    0    0  0.00000000000E+00  0.00000000000E+00  0.44143482174E+03  0.17531229552E+04  0.16966364945E+04 0.  0.
        3    1    3    3  502    0 -0.24648716632E+03  0.91942108958E+02 -0.61262863239E+03  0.66672567521E+03  0.10100000352E+00 0. -1.
       -3    1    3    3    0  502  0.24648716632E+03 -0.91942108958E+02  0.10540634541E+04  0.10863972800E+04  0.10100000352E+00 0.  1.
</event>
<event>
 5   0  0.2911632E-05  0.1699176E+04  0.7818609E-02  0.8761834E-01
       -1   -1    0    0    0  501  0.00000000000E+00  0.00000000000E+00  0.67477804157E+03  0.67477804159E+03  0.50400001928E-02 0. -1.
        1   -1    0    0  501    0  0.00000000000E+00  0.00000000000E+00 -0.10696846307E+04  0.10696846307E+04  0.50400001928E-02 0.  1.
    10030    2    1    2    0    0  0.00000000000E+00  0.00000000000E+00 -0.39490658911E+03  0.17444626723E+04  0.16991759182E+04 0.  0.
        1    1    3    3  502    0  0.41687970739E+03 -0.21598995590E+03  0.52948558180E+03  0.70766894297E+03  0.50400001928E-02 0. -1.
       -1    1    3    3    0  502 -0.41687970739E+03  0.21598995590E+03 -0.92439217091E+03  0.10367937293E+04  0.50400001928E-02 0.  1.
</event>
<event>
 5   0  0.5859822E-05  0.1695000E+04  0.7818609E-02  0.8764221E-01
        2   -1    0    0  501    0  0.00000000000E+00  0.00000000000E+00  0.26691315423E+04  0.26691315423E+04  0.25500000920E-02 0. -1.
       -2   -1    0    0    0  501  0.00000000000E+00  0.00000000000E+00 -0.26909741279E+03  0.26909741281E+03  0.25500000920E-02 0.  1.
    10030    2    1    2    0    0  0.00000000000E+00  0.00000000000E+00  0.24000341295E+04  0.29382289551E+04  0.16950001681E+04 0.  0.
        5    1    3    3  502    0 -0.57202804939E+03 -0.27876562780E+02  0.11713191507E+03  0.58458118989E+03  0.46999998093E+01 0.  1.
       -5    1    3    3    0  502  0.57202804939E+03  0.27876562780E+02  0.22829022144E+04  0.23536477652E+04  0.46999998093E+01 0. -1.
</event>
<event>
 5   0  0.2098250E-05  0.1698742E+04  0.7818609E-02  0.8762082E-01
        3   -1    0    0  501    0  0.00000000000E+00  0.00000000000E+00  0.63389799373E+03  0.63389800177E+03  0.10100000352E+00 0.  1.
       -3   -1    0    0    0  501  0.00000000000E+00  0.00000000000E+00 -0.11380867492E+04  0.11380867537E+04  0.10100000352E+00 0. -1.
    10030    2    1    2    0    0  0.00000000000E+00  0.00000000000E+00 -0.50418875551E+03  0.17719847555E+04  0.16987417910E+04 0.  0.
        5    1    3    3  502    0  0.35125545196E+03  0.27173484074E+03  0.50313069735E+03  0.67110565845E+03  0.46999998093E+01 0.  1.
       -5    1    3    3    0  502 -0.35125545196E+03 -0.27173484074E+03 -0.10073194529E+04  0.11008790970E+04  0.46999998093E+01 0. -1.
</event>
<event>
 5   0  0.2966258E-05  0.1700914E+04  0.7818609E-02  0.8760843E-01
        1   -1    0    0  501    0  0.00000000000E+00  0.00000000000E+00  0.55300690480E+03  0.55300690482E+03  0.50400001928E-02 0.  1.
       -1   -1    0    0    0  501  0.00000000000E+00  0.00000000000E+00 -0.13078983299E+04  0.13078983299E+04  0.50400001928E-02 0. -1.
    10030    2    1    2    0    0  0.00000000000E+00  0.00000000000E+00 -0.75489142511E+03  0.18609052347E+04  0.17009136454E+04 0.  0.
        4    1    3    3  502    0 -0.13023491751E+03 -0.81841251574E+03 -0.16838244582E+03  0.84564439371E+03  0.12699999809E+01 0. -1.
       -4    1    3    3    0  502  0.13023491751E+03  0.81841251574E+03 -0.58650897929E+03  0.10152608410E+04  0.12699999809E+01 0.  1.
</event>
<event>
 5   0  0.5652631E-05  0.1700259E+04  0.7818609E-02  0.8761216E-01
        2   -1    0    0  501    0  0.00000000000E+00  0.00000000000E+00  0.70171030292E+03  0.70171030293E+03  0.25500000920E-02 0.  1.
       -2   -1    0    0    0  501  0.00000000000E+00  0.00000000000E+00 -0.10299413192E+04  0.10299413192E+04  0.25500000920E-02 0. -1.
    10030    2    1    2    0    0  0.00000000000E+00  0.00000000000E+00 -0.32823101626E+03  0.17316516221E+04  0.17002593156E+04 0.  0.
        2    1    3    3  502    0  0.39309578564E+03  0.42447938528E+03 -0.79852360539E+03  0.98607656578E+03  0.25500000920E-02 0. -1.
       -2    1    3    3    0  502 -0.39309578564E+03 -0.42447938528E+03  0.47029258913E+03  0.74557505633E+03  0.25500000920E-02 0.  1.
</event>
<event>
 5   0  0.5671132E-05  0.1699422E+04  0.7818609E-02  0.8761694E-01
        2   -1    0    0  501    0  0.00000000000E+00  0.00000000000E+00  0.13531945419E+04  0.13531945419E+04  0.25500000920E-02 0. -1.
       -2   -1    0    0    0  501  0.00000000000E+00  0.00000000000E+00 -0.53355898754E+03  0.53355898755E+03  0.25500000920E-02 0.  1.
    10030    2    1    2    0    0  0.00000000000E+00  0.00000000000E+00  0.81963555435E+03  0.18867535294E+04  0.16994223839E+04 0.  0.
        3    1    3    3  502    0 -0.50420664790E+03  0.62671215881E+03  0.71390109814E+03  0.10754753655E+04  0.10100000352E+00 0.  1.
       -3    1    3    3    0  502  0.50420664790E+03 -0.62671215881E+03  0.10573445622E+03  0.81127816390E+03  0.10100000352E+00 0. -1.
</event>
<event>
 5   0  0.2987859E-05  0.1700908E+04  0.7818609E-02  0.8760847E-01
        1   -1    0    0  501    0  0.00000000000E+00  0.00000000000E+00  0.15438990395E+04  0.15438990395E+04  0.50400001928E-02 0.  1.
       -1   -1    0    0    0  501  0.00000000000E+00  0.00000000000E+00 -0.46847079087E+03  0.46847079089E+03  0.50400001928E-02 0. -1.
    10030    2    1    2    0    0  0.00000000000E+00  0.00000000000E+00  0.10754282486E+04  0.20123698304E+04  0.17009075273E+04 0.  0.
        5    1    3    3  502    0 -0.24970831743E+03  0.18763835142E+03  0.14735629546E+04  0.15063108132E+04  0.46999998093E+01 0.  1.
       -5    1    3    3    0  502  0.24970831743E+03 -0.18763835142E+03 -0.39813470603E+03  0.50605901717E+03  0.46999998093E+01 0. -1.
</event>
<event>
 5   0  0.2098250E-05  0.1702740E+04  0.7818609E-02  0.8759803E-01
       -4   -1    0    0    0  501  0.00000000000E+00  0.00000000000E+00  0.78111672772E+03  0.78111776016E+03  0.12699999809E+01 0. -1.
        4   -1    0    0  501    0  0.00000000000E+00  0.00000000000E+00 -0.92793950393E+03  0.92794037301E+03  0.12699999809E+01 0.  1.
    10030    2    1    2    0    0  0.00000000000E+00  0.00000000000E+00 -0.14682277621E+03  0.17090581332E+04  0.17027397849E+04 0.  0.
        3    1    3    3  502    0 -0.12292138695E+03 -0.54900518150E+03 -0.71477728136E+03  0.90962790680E+03  0.10100000352E+00 0.  1.
       -3    1    3    3    0  502  0.12292138695E+03  0.54900518150E+03  0.56795450515E+03  0.79943022636E+03  0.10100000352E+00 0. -1.
</event>
<event>
 5   0  0.5755321E-05  0.1698981E+04  0.7818609E-02  0.8761945E-01
       -2   -1    0    0    0  501  0.00000000000E+00  0.00000000000E+00  0.73385698493E+03  0.73385698493E+03  0.25500000920E-02 0.  1.
        2   -1    0    0  501    0  0.00000000000E+00  0.00000000000E+00 -0.98334490519E+03  0.98334490519E+03  0.25500000920E-02 0. -1.
    10030    2    1    2    0    0  0.00000000000E+00  0.00000000000E+00 -0.24948792026E+03  0.17172018901E+04  0.16989814917E+04 0.  0.
        4    1    3    3  502    0 -0.76939731056E+02 -0.43480772572E+03  0.60874907566E+03  0.75203359671E+03  0.12699999809E+01 0.  1.
       -4    1    3    3    0  502  0.76939731056E+02  0.43480772572E+03 -0.85823699592E+03  0.96516829342E+03  0.12699999809E+01 0. -1.
</event>
<event>
 5   0  0.5652631E-05  0.1696425E+04  0.7818609E-02  0.8763406E-01
       -2   -1    0    0    0  501  0.00000000000E+00  0.00000000000E+00  0.74399005182E+03  0.74399005183E+03  0.25500000920E-02 0.  1.
        2   -1    0    0  501    0  0.00000000000E+00  0.00000000000E+00 -0.96703447271E+03  0.96703447271E+03  0.25500000920E-02 0. -1.
    10030    2    1    2    0    0  0.00000000000E+00  0.00000000000E+00 -0.22304442089E+03  0.17110245245E+04  0.16964245076E+04 0.  0.
        2    1    3    3  502    0 -0.93597687837E+02  0.84240356264E+03 -0.78688426330E+02  0.85123214106E+03  0.25500000920E-02 0. -1.
       -2    1    3    3    0  502  0.93597687837E+02 -0.84240356264E+03 -0.14435599456E+03  0.85979238348E+03  0.25500000920E-02 0.  1.
</event>
<event>
 5   0  0.2967704E-05  0.1699912E+04  0.7818609E-02  0.8761415E-01
       -1   -1    0    0    0  501  0.00000000000E+00  0.00000000000E+00  0.10163347888E+04  0.10163347888E+04  0.50400001928E-02 0. -1.
        1   -1    0    0  501    0  0.00000000000E+00  0.00000000000E+00 -0.71081415001E+03  0.71081415003E+03  0.50400001928E-02 0.  1.
    10030    2    1    2    0    0  0.00000000000E+00  0.00000000000E+00  0.30552063878E+03  0.17271489388E+04  0.16999119378E+04 0.  0.
        2    1    3    3  502    0  0.29277670460E+03  0.32550602248E+03  0.89296104241E+03  0.99451083086E+03  0.25500000920E-02 0. -1.
       -2    1    3    3    0  502 -0.29277670460E+03 -0.32550602248E+03 -0.58744040363E+03  0.73263810797E+03  0.25500000920E-02 0.  1.
</event>
<event>
 5   0  0.5652631E-05  0.1700854E+04  0.7818609E-02  0.8760877E-01
       -2   -1    0    0    0  501  0.00000000000E+00  0.00000000000E+00  0.43144002146E+03  0.43144002147E+03  0.25500000920E-02 0. -1.
        2   -1    0    0  501    0  0.00000000000E+00  0.00000000000E+00 -0.16763083114E+04  0.16763083114E+04  0.25500000920E-02 0.  1.
    10030    2    1    2    0    0  0.00000000000E+00  0.00000000000E+00 -0.12448682899E+04  0.21077483329E+04  0.17008544839E+04 0.  0.
        2    1    3    3  502    0  0.27422392658E+03 -0.68529791537E+03 -0.99023772921E+02  0.74474002332E+03  0.25500000920E-02 0. -1.
       -2    1    3    3    0  502 -0.27422392658E+03  0.68529791537E+03 -0.11458445170E+04  0.13630083096E+04  0.25500000920E-02 0.  1.
</event>
<event>
 5   0  0.5859822E-05  0.1700356E+04  0.7818609E-02  0.8761161E-01
       -2   -1    0    0    0  501  0.00000000000E+00  0.00000000000E+00  0.75103761615E+03  0.75103761615E+03  0.25500000920E-02 0. -1.
        2   -1    0    0  501    0  0.00000000000E+00  0.00000000000E+00 -0.96240532568E+03  0.96240532569E+03  0.25500000920E-02 0.  1.
    10030    2    1    2    0    0  0.00000000000E+00  0.00000000000E+00 -0.21136770954E+03  0.17134429418E+04  0.17003559646E+04 0.  0.
        5    1    3    3  502    0  0.31155695852E+03 -0.36034083005E+03  0.60391436084E+03  0.76918651667E+03  0.46999998093E+01 0. -1.
       -5    1    3    3    0  502 -0.31155695852E+03  0.36034083005E+03 -0.81528207037E+03  0.94425642517E+03  0.46999998093E+01 0.  1.
</event>
<event>
 5   0  0.5755321E-05  0.1704682E+04  0.7818609E-02  0.8758699E-01
       -2   -1    0    0    0  501  0.00000000000E+00  0.00000000000E+00  0.67256189922E+03  0.67256189923E+03  0.25500000920E-02 0.  1.
        2   -1    0    0  501    0  0.00000000000E+00  0.00000000000E+00 -0.10801754289E+04  0.10801754289E+04  0.25500000920E-02 0. -1.
    10030    2    1    2    0    0  0.00000000000E+00  0.00000000000E+00 -0.40761352964E+03  0.17527373281E+04  0.17046815983E+04 0.  0.
        4    1    3    3  502    0  0.78862060815E+03  0.74948851002E+02 -0.52722689402E+03  0.95158268403E+03  0.12699999809E+01 0.  1.
       -4    1    3    3    0  502 -0.78862060815E+03 -0.74948851002E+02  0.11961336438E+03  0.80115464406E+03  0.12699999809E+01 0. -1.
</event>
<event>
 5   0  0.5652631E-05  0.1701922E+04  0.7818609E-02  0.8760269E-01
       -2   -1    0    0    0  501  0.00000000000E+00  0.00000000000E+00  0.70375158032E+03  0.70375158033E+03  0.25500000920E-02 0. -1.
        2   -1    0    0  501    0  0.00000000000E+00  0.00000000000E+00 -0.10289628118E+04  0.10289628118E+04  0.25500000920E-02 0.  1.
    10030    2    1    2    0    0  0.00000000000E+00  0.00000000000E+00 -0.32521123148E+03  0.17327143921E+04  0.17019215081E+04 0.  0.
        2    1    3    3  502    0 -0.77334397742E+03  0.34539057947E+03 -0.78783444844E+02  0.85062470631E+03  0.25500000920E-02 0. -1.
       -2    1    3    3    0  502  0.77334397742E+03 -0.34539057947E+03 -0.24642778664E+03  0.88208968582E+03  0.25500000920E-02 0.  1.
</event>
<event>
 5   0  0.5859822E-05  0.1710827E+04  0.7818609E-02  0.8755213E-01
       -2   -1    0    0    0  501  0.00000000000E+00  0.00000000000E+00  0.50259368364E+03  0.50259368365E+03  0.25500000920E-02 0. -1.
        2   -1    0    0  501    0  0.00000000000E+00  0.00000000000E+00 -0.14559123131E+04  0.14559123131E+04  0.25500000920E-02 0.  1.
    10030    2    1    2    0    0  0.00000000000E+00  0.00000000000E+00 -0.95331862943E+03  0.19585059967E+04  0.17108270894E+04 0.  0.
        5    1    3    3  502    0 -0.43141810726E+03  0.75242085547E+02 -0.13178344485E+04  0.13887017961E+04  0.46999998093E+01 0.  1.
       -5    1    3    3    0  502  0.43141810726E+03 -0.75242085547E+02  0.36451581909E+03  0.56980420065E+03  0.46999998093E+01 0. -1.
</event>
<event>
 5   0  0.2911632E-05  0.1702093E+04  0.7818609E-02  0.8760172E-01
       -1   -1    0    0    0  501  0.00000000000E+00  0.00000000000E+00  0.57675529643E+03  0.57675529646E+03  0.50400001928E-02 0. -1.
        1   -1    0    0  501    0  0.00000000000E+00  0.00000000000E+00 -0.12557840448E+04  0.12557840448E+04  0.50400001928E-02 0.  1.
    10030    2    1    2    0    0  0.00000000000E+00  0.00000000000E+00 -0.67902874832E+03  0.18325393412E+04  0.17020929458E+04 0.  0.
        1    1    3    3  502    0 -0.44428509629E+02 -0.23621381410E+03  0.53945374374E+03  0.59057700607E+03  0.50400001928E-02 0. -1.
       -1    1    3    3    0  502  0.44428509629E+02  0.23621381410E+03 -0.12184824921E+04  0.12419623351E+04  0.50400001928E-02 0.  1.
</event>
<event>
 5   0  0.5671132E-05  0.1697734E+04  0.7818609E-02  0.8762658E-01
       -2   -1    0    0    0  501  0.00000000000E+00  0.00000000000E+00  0.47450039415E+03  0.47450039416E+03  0.25500000920E-02 0.  1.
        2   -1    0    0  501    0  0.00000000000E+00  0.00000000000E+00 -0.15185973768E+04  0.15185973768E+04  0.25500000920E-02 0. -1.
    10030    2    1    2    0    0  0.00000000000E+00  0.00000000000E+00 -0.10440969827E+04  0.19930977710E+04  0.16977338471E+04 0.  0.
        3    1    3    3  502    0 -0.21006833762E+03 -0.47404293886E+03 -0.13110871557E+04  0.14098918236E+04  0.10100000352E+00 0. -1.
       -3    1    3    3    0  502  0.21006833762E+03  0.47404293886E+03  0.26699017300E+03  0.58320594736E+03  0.10100000352E+00 0.  1.
</event>
<event>
 5   0  0.2911632E-05  0.1685670E+04  0.7818609E-02  0.8769580E-01
        1   -1    0    0  501    0  0.00000000000E+00  0.00000000000E+00  0.77873038511E+03  0.77873038512E+03  0.50400001928E-02 0. -1.
       -1   -1    0    0    0  501  0.00000000000E+00  0.00000000000E+00 -0.91221642666E+03  0.91221642667E+03  0.50400001928E-02 0.  1.
    10030    2    1    2    0    0  0.00000000000E+00  0.00000000000E+00 -0.13348604155E+03  0.16909468118E+04  0.16856697770E+04 0.  0.
        1    1    3    3  502    0 -0.46597262396E+03  0.53776974967E+03 -0.51986925991E+03  0.88124391480E+03  0.50400001928E-02 0.  1.
       -1    1    3    3    0  502  0.46597262396E+03 -0.53776974967E+03  0.38638321837E+03  0.80970289700E+03  0.50400001928E-02 0. -1.
</event>
<event>
 5   0  0.5652631E-05  0.1697817E+04  0.7818609E-02  0.8762610E-01
       -2   -1    0    0    0  501  0.00000000000E+00  0.00000000000E+00  0.42992975323E+03  0.42992975324E+03  0.25500000920E-02 0. -1.
        2   -1    0    0  501    0  0.00000000000E+00  0.00000000000E+00 -0.16761947823E+04  0.16761947823E+04  0.25500000920E-02 0.  1.
    10030    2    1    2    0    0  0.00000000000E+00  0.00000000000E+00 -0.12462650291E+04  0.21061245356E+04  0.16978174332E+04 0.  0.
        2    1    3    3  502    0 -0.18316998480E+03  0.55303229729E+03 -0.13890782635E+04  0.15062982398E+04  0.25500000920E-02 0.  1.
       -2    1    3    3    0  502  0.18316998480E+03 -0.55303229729E+03  0.14281323436E+03  0.59982629577E+03  0.25500000920E-02 0. -1.
</event>
<event>
 5   0  0.5859822E-05  0.1703037E+04  0.7818609E-02  0.8759634E-01
       -2   -1    0    0    0  501  0.00000000000E+00  0.00000000000E+00  0.70389013480E+03  0.70389013481E+03  0.25500000920E-02 0.  1.
        2   -1    0    0  501    0  0.00000000000E+00  0.00000000000E+00 -0.10301097022E+04  0.10301097022E+04  0.25500000920E-02 0. -1.
    10030    2    1    2    0    0  0.00000000000E+00  0.00000000000E+00 -0.32621956742E+03  0.17339998370E+04  0.17030373539E+04 0.  0.
        5    1    3    3  502    0 -0.82628132612E+03  0.14690413691E+03 -0.16476513791E+02  0.83941361726E+03  0.46999998093E+01 0. -1.
       -5    1    3    3    0  502  0.82628132612E+03 -0.14690413691E+03 -0.30974305363E+03  0.89458621977E+03  0.46999998093E+01 0.  1.
</event>
<event>
 5   0  0.2993769E-05  0.1695684E+04  0.7818609E-02  0.8763830E-01
       -1   -1    0    0    0  501  0.00000000000E+00  0.00000000000E+00  0.56674293463E+03  0.56674293466E+03  0.50400001928E-02 0. -1.
        1   -1    0    0  501    0  0.00000000000E+00  0.00000000000E+00 -0.12683635920E+04  0.12683635920E+04  0.50400001928E-02 0.  1.
    10030    2    1    2    0    0  0.00000000000E+00  0.00000000000E+00 -0.70162065733E+03  0.18351065266E+04  0.16956840559E+04 0.  0.
        3    1    3    3  502    0  0.23739540079E+03 -0.43447489291E+03  0.39404703754E+03  0.63277016909E+03  0.10100000352E+00 0. -1.
       -3    1    3    3    0  502 -0.23739540079E+03  0.43447489291E+03 -0.10956676949E+04  0.12023363575E+04  0.10100000352E+00 0.  1.
</event>
<event>
 5   0  0.2911632E-05  0.1697636E+04  0.7818609E-02  0.8762714E-01
        1   -1    0    0  501    0  0.00000000000E+00  0.00000000000E+00  0.77145537061E+03  0.77145537063E+03  0.50400001928E-02 0.  1.
       -1   -1    0    0    0  501  0.00000000000E+00  0.00000000000E+00 -0.93393895158E+03  0.93393895159E+03  0.50400001928E-02 0. -1.
    10030    2    1    2    0    0  0.00000000000E+00  0.00000000000E+00 -0.16248358096E+03  0.17053943222E+04  0.16976362626E+04 0.  0.
        1    1    3    3  502    0  0.39697085624E+03  0.73000276375E+03  0.92761563434E+02  0.83611877354E+03  0.50400001928E-02 0.  1.
       -1    1    3    3    0  502 -0.39697085624E+03 -0.73000276375E+03 -0.25524514440E+03  0.86927554869E+03  0.50400001928E-02 0. -1.
</event>
<event>
 5   0  0.2987859E-05  0.1696894E+04  0.7818609E-02  0.8763138E-01
       -1   -1    0    0    0  501  0.00000000000E+00  0.00000000000E+00  0.65898375652E+03  0.65898375653E+03  0.50400001928E-02 0.  1.
        1   -1    0    0  501    0  0.00000000000E+00  0.00000000000E+00 -0.10923821645E+04  0.10923821646E+04  0.50400001928E-02 0. -1.
    10030    2    1    2    0    0  0.00000000000E+00  0.00000000000E+00 -0.43339840803E+03  0.17513659211E+04  0.16968937532E+04 0.  0.
        5    1    3    3  502    0 -0.42060116679E+03 -0.76275277952E+02 -0.97310803937E+03  0.10628662220E+04  0.46999998093E+01 0. -1.
       -5    1    3    3    0  502  0.42060116679E+03  0.76275277952E+02  0.53970963134E+03  0.68849969912E+03  0.46999998093E+01 0.  1.
</event>
<event>
 5   0  0.2098250E-05  0.1686377E+04  0.7818609E-02  0.8769172E-01
       -3   -1    0    0    0  501  0.00000000000E+00  0.00000000000E+00  0.10094684499E+04  0.10094684549E+04  0.10100000352E+00 0. -1.
        3   -1    0    0  501    0  0.00000000000E+00  0.00000000000E+00 -0.70429851691E+03  0.70429852415E+03  0.10100000352E+00 0.  1.
    10030    2    1    2    0    0  0.00000000000E+00  0.00000000000E+00  0.30516993297E+03  0.17137669791E+04  0.16863773512E+04 0.  0.
        5    1    3    3  502    0  0.42229192611E+03  0.37309522959E+03  0.78999986245E+03  0.97038775439E+03  0.46999998093E+01 0. -1.
       -5    1    3    3    0  502 -0.42229192611E+03 -0.37309522959E+03 -0.48482992948E+03  0.74337922470E+03  0.46999998093E+01 0.  1.
</event>
<event>
 5   0  0.2098250E-05  0.1702551E+04  0.7818609E-02  0.8759911E-01
        3   -1    0    0  501    0  0.00000000000E+00  0.00000000000E+00  0.63625352714E+03  0.63625353516E+03  0.10100000352E+00 0. -1.
       -3   -1    0    0    0  501  0.00000000000E+00  0.00000000000E+00 -0.11389642654E+04  0.11389642698E+04  0.10100000352E+00 0.  1.
    10030    2    1    2    0    0  0.00000000000E+00  0.00000000000E+00 -0.50271073821E+03  0.17752178050E+04  0.17025510767E+04 0.  0.
        1    1    3    3  502    0 -0.76259572025E+03  0.19569615117E+03 -0.58893426188E+03  0.98320536052E+03  0.50400001928E-02 0.  1.
       -1    1    3    3    0  502  0.76259572025E+03 -0.19569615117E+03  0.86223523667E+02  0.79201244446E+03  0.50400001928E-02 0. -1.
</event>
<event>
 5   0  0.2993769E-05  0.1698442E+04  0.7818609E-02  0.8762254E-01
       -1   -1    0    0    0  501  0.00000000000E+00  0.00000000000E+00  0.50469983593E+03  0.50469983595E+03  0.50400001928E-02 0. -1.
        1   -1    0    0  501    0  0.00000000000E+00  0.00000000000E+00 -0.14289207932E+04  0.14289207932E+04  0.50400001928E-02 0.  1.
    10030    2    1    2    0    0  0.00000000000E+00  0.00000000000E+00 -0.92422095723E+03  0.19336206291E+04  0.16984417445E+04 0.  0.
        3    1    3    3  502    0  0.27847640396E+03 -0.10282999084E+02  0.45116554359E+03  0.53028785160E+03  0.10100000352E+00 0. -1.
       -3    1    3    3    0  502 -0.27847640396E+03  0.10282999084E+02 -0.13753865008E+04  0.14033327775E+04  0.10100000352E+00 0.  1.
</event>
<event>
 5   0  0.5859822E-05  0.1698600E+04  0.7818609E-02  0.8762163E-01
       -2   -1    0    0    0  501  0.00000000000E+00  0.00000000000E+00  0.59376699987E+03  0.59376699988E+03  0.25500000920E-02 0. -1.
        2   -1    0    0  501    0  0.00000000000E+00  0.00000000000E+00 -0.12148037720E+04  0.12148037720E+04  0.25500000920E-02 0.  1.
    10030    2    1    2    0    0  0.00000000000E+00  0.00000000000E+00 -0.62103677216E+03  0.18085707719E+04  0.16985998836E+04 0.  0.
        5    1    3    3  502    0 -0.10182404412E+03  0.74248690560E+03  0.11489019474E+03  0.75820629633E+03  0.46999998093E+01 0. -1.
       -5    1    3    3    0  502  0.10182404412E+03 -0.74248690560E+03 -0.73592696690E+03  0.10503644756E+04  0.46999998093E+01 0.  1.
</event>
<event>
 5   0  0.2098250E-05  0.1699393E+04  0.7818609E-02  0.8761710E-01
        3   -1    0    0  501    0  0.00000000000E+00  0.00000000000E+00  0.58428051787E+03  0.58428052660E+03  0.10100000352E+00 0.  1.
       -3   -1    0    0    0  501  0.00000000000E+00  0.00000000000E+00 -0.12356812766E+04  0.12356812808E+04  0.10100000352E+00 0. -1.
    10030    2    1    2    0    0  0.00000000000E+00  0.00000000000E+00 -0.65140075875E+03  0.18199618073E+04  0.16993934305E+04 0.  0.
        1    1    3    3  502    0  0.82568476560E+03 -0.61416145734E+02 -0.53018478333E+03  0.98316996476E+03  0.50400001928E-02 0. -1.
       -1    1    3    3    0  502 -0.82568476560E+03  0.61416145734E+02 -0.12121597542E+03  0.83679184259E+03  0.50400001928E-02 0.  1.
</event>
<event>
 5   0  0.5859822E-05  0.1702972E+04  0.7818609E-02  0.8759671E-01
       -2   -1    0    0    0  501  0.00000000000E+00  0.00000000000E+00  0.50405068803E+03  0.50405068803E+03  0.25500000920E-02 0. -1.
        2   -1    0    0  501    0  0.00000000000E+00  0.00000000000E+00 -0.14384037984E+04  0.14384037984E+04  0.25500000920E-02 0.  1.
    10030    2    1    2    0    0  0.00000000000E+00  0.00000000000E+00 -0.93435311040E+03  0.19424544865E+04  0.17029720189E+04 0.  0.
        5    1    3    3  502    0 -0.58017524768E+03 -0.61651013749E+03 -0.36314627757E+03  0.92118693899E+03  0.46999998093E+01 0. -1.
       -5    1    3    3    0  502  0.58017524768E+03  0.61651013749E+03 -0.57120683282E+03  0.10212675475E+04  0.46999998093E+01 0.  1.
</event>
<event>
 5   0  0.2911632E-05  0.1699527E+04  0.7818609E-02  0.8761634E-01
       -1   -1    0    0    0  501  0.00000000000E+00  0.00000000000E+00  0.97861738220E+03  0.97861738221E+03  0.50400001928E-02 0.  1.
        1   -1    0    0  501    0  0.00000000000E+00  0.00000000000E+00 -0.73787594676E+03  0.73787594678E+03  0.50400001928E-02 0. -1.
    10030    2    1    2    0    0  0.00000000000E+00  0.00000000000E+00  0.24074143543E+03  0.17164933290E+04  0.16995272607E+04 0.  0.
        1    1    3    3  502    0 -0.84053824470E+03  0.10622401408E+03  0.54063630969E+02  0.84894697019E+03  0.50400001928E-02 0.  1.
       -1    1    3    3    0  502  0.84053824470E+03 -0.10622401408E+03  0.18667780447E+03  0.86754635880E+03  0.50400001928E-02 0. -1.
</event>
<event>
 5   0  0.2987859E-05  0.1702683E+04  0.7818609E-02  0.8759836E-01
       -1   -1    0    0    0  501  0.00000000000E+00  0.00000000000E+00  0.75365961584E+03  0.75365961585E+03  0.50400001928E-02 0.  1.
        1   -1    0    0  501    0  0.00000000000E+00  0.00000000000E+00 -0.96168359560E+03  0.96168359562E+03  0.50400001928E-02 0. -1.
    10030    2    1    2    0    0  0.00000000000E+00  0.00000000000E+00 -0.20802397976E+03  0.17153432115E+04  0.17026826942E+04 0.  0.
        5    1    3    3  502    0 -0.59287523971E+03  0.42579527920E+03  0.33737513014E+03  0.80414348104E+03  0.46999998093E+01 0.  1.
       -5    1    3    3    0  502  0.59287523971E+03 -0.42579527920E+03 -0.54539910991E+03  0.91119973043E+03  0.46999998093E+01 0. -1.
</event>
<event>
 5   0  0.5671132E-05  0.1699305E+04  0.7818609E-02  0.8761761E-01
        2   -1    0    0  501    0  0.00000000000E+00  0.00000000000E+00  0.13216695289E+04  0.13216695289E+04  0.25500000920E-02 0. -1.
       -2   -1    0    0    0  501  0.00000000000E+00  0.00000000000E+00 -0.54621026687E+03  0.54621026687E+03  0.25500000920E-02 0.  1.
    10030    2    1    2    0    0  0.00000000000E+00  0.00000000000E+00  0.77545926202E+03  0.18678797958E+04  0.16993051122E+04 0.  0.
        3    1    3    3  502    0 -0.28177062376E+03 -0.78782399566E+03  0.55020391435E+03  0.10013918764E+04  0.10100000352E+00 0. -1.
       -3    1    3    3    0  502  0.28177062376E+03  0.78782399566E+03  0.22525534768E+03  0.86648791936E+03  0.10100000352E+00 0.  1.
</event>
<event>
 5   0  0.5859822E-05  0.1702164E+04  0.7818609E-02  0.8760131E-01
        2   -1    0    0  501    0  0.00000000000E+00  0.00000000000E+00  0.77701566996E+03  0.77701566997E+03  0.25500000920E-02 0.  1.
       -2   -1    0    0    0  501  0.00000000000E+00  0.00000000000E+00 -0.93220841204E+03  0.93220841204E+03  0.25500000920E-02 0. -1.
    10030    2    1    2    0    0  0.00000000000E+00  0.00000000000E+00 -0.15519274207E+03  0.17092240820E+04  0.17021639684E+04 0.  0.
        5    1    3    3  502    0  0.76386709528E+03 -0.22698784390E+03 -0.37767031319E+03  0.88185791145E+03  0.46999998093E+01 0. -1.
       -5    1    3    3    0  502 -0.76386709528E+03  0.22698784390E+03  0.22247757112E+03  0.82736617055E+03  0.46999998093E+01 0.  1.
</event>
<event>
 5   0  0.2098250E-05  0.1710651E+04  0.7818609E-02  0.8755313E-01
        3   -1    0    0  501    0  0.00000000000E+00  0.00000000000E+00  0.10237971749E+04  0.10237971799E+04  0.10100000352E+00 0.  1.
       -3   -1    0    0    0  501  0.00000000000E+00  0.00000000000E+00 -0.71457672738E+03  0.71457673452E+03  0.10100000352E+00 0. -1.
    10030    2    1    2    0    0  0.00000000000E+00  0.00000000000E+00  0.30922044753E+03  0.17383739144E+04  0.17106509232E+04 0.  0.
        3    1    3    3  502    0  0.23652260474E+03  0.59848808958E+03  0.72716882640E+03  0.97103318595E+03  0.10100000352E+00 0.  1.
       -3    1    3    3    0  502 -0.23652260474E+03 -0.59848808958E+03 -0.41794837888E+03  0.76734072845E+03  0.10100000352E+00 0. -1.
</event>
<event>
 5   0  0.5755321E-05  0.1696894E+04  0.7818609E-02  0.8763138E-01
       -2   -1    0    0    0  501  0.00000000000E+00  0.00000000000E+00  0.31692485586E+03  0.31692485588E+03  0.25500000920E-02 0.  1.
        2   -1    0    0  501    0  0.00000000000E+00  0.00000000000E+00 -0.22713978443E+04  0.22713978443E+04  0.25500000920E-02 0. -1.
    10030    2    1    2    0    0  0.00000000000E+00  0.00000000000E+00 -0.19544729885E+04  0.25883227002E+04  0.16968941445E+04 0.  0.
        4    1    3    3  502    0  0.56123943310E+03 -0.41318309857E+03 -0.23914272864E+03  0.73681804523E+03  0.12699999809E+01 0.  1.
       -4    1    3    3    0  502 -0.56123943310E+03  0.41318309857E+03 -0.17153302598E+04  0.18515046550E+04  0.12699999809E+01 0. -1.
</event>
<event>
 5   0  0.2911632E-05  0.1686621E+04  0.7818609E-02  0.8769032E-01
       -1   -1    0    0    0  501  0.00000000000E+00  0.00000000000E+00  0.10762585687E+04  0.10762585687E+04  0.50400001928E-02 0.  1.
        1   -1    0    0  501    0  0.00000000000E+00  0.00000000000E+00 -0.66078246304E+03  0.66078246305E+03  0.50400001928E-02 0. -1.
    10030    2    1    2    0    0  0.00000000000E+00  0.00000000000E+00  0.41547610567E+03  0.17370410318E+04  0.16866212235E+04 0.  0.
        1    1    3    3  502    0  0.21589626639E+03 -0.80057410773E+03  0.49379712076E+02  0.83064339870E+03  0.50400001928E-02 0. -1.
       -1    1    3    3    0  502 -0.21589626639E+03  0.80057410773E+03  0.36609639360E+03  0.90639763307E+03  0.50400001928E-02 0.  1.
</event>
<event>
 5   0  0.2966258E-05  0.1664276E+04  0.7818609E-02  0.8782006E-01
       -1   -1    0    0    0  501  0.00000000000E+00  0.00000000000E+00  0.46628874408E+03  0.46628874411E+03  0.50400001928E-02 0. -1.
        1   -1    0    0  501    0  0.00000000000E+00  0.00000000000E+00 -0.14850313085E+04  0.14850313085E+04  0.50400001928E-02 0.  1.
    10030    2    1    2    0    0  0.00000000000E+00  0.00000000000E+00 -0.10187425644E+04  0.19513200526E+04  0.16642756788E+04 0.  0.
        4    1    3    3  502    0  0.21684783373E+03 -0.70876191354E+02 -0.14476475200E+04  0.14655140302E+04  0.12699999809E+01 0.  1.
       -4    1    3    3    0  502 -0.21684783373E+03  0.70876191354E+02  0.42890495566E+03  0.48580602238E+03  0.12699999809E+01 0. -1.
</event>
<event>
 5   0  0.2966258E-05  0.1698189E+04  0.7818609E-02  0.8762398E-01
        1   -1    0    0  501    0  0.00000000000E+00  0.00000000000E+00  0.10127103098E+04  0.10127103098E+04  0.50400001928E-02 0.  1.
       -1   -1    0    0    0  501  0.00000000000E+00  0.00000000000E+00 -0.71191314042E+03  0.71191314044E+03  0.50400001928E-02 0. -1.
    10030    2    1    2    0    0  0.00000000000E+00  0.00000000000E+00  0.30079716938E+03  0.17246234503E+04  0.16981893617E+04 0.  0.
        4    1    3    3  502    0  0.10508090787E+03  0.77631668757E+03 -0.18219048369E+03  0.80430378704E+03  0.12699999809E+01 0. -1.
       -4    1    3    3    0  502 -0.10508090787E+03 -0.77631668757E+03  0.48298765307E+03  0.92031966322E+03  0.12699999809E+01 0.  1.
</event>
<event>
 5   0  0.2966258E-05  0.1697010E+04  0.7818609E-02  0.8763071E-01
       -1   -1    0    0    0  501  0.00000000000E+00  0.00000000000E+00  0.15560883075E+04  0.15560883075E+04  0.50400001928E-02 0.  1.
        1   -1    0    0  501    0  0.00000000000E+00  0.00000000000E+00 -0.46267361453E+03  0.46267361456E+03  0.50400001928E-02 0. -1.
    10030    2    1    2    0    0  0.00000000000E+00  0.00000000000E+00  0.10934146930E+04  0.20187619221E+04  0.16970103144E+04 0.  0.
        4    1    3    3  502    0  0.40466289036E+03  0.42343548322E+03 -0.18362291217E+03  0.61381483369E+03  0.12699999809E+01 0. -1.
       -4    1    3    3    0  502 -0.40466289036E+03 -0.42343548322E+03  0.12770376051E+04  0.14049470884E+04  0.12699999809E+01 0.  1.
</event>
<event>
 5   0  0.2911632E-05  0.1699416E+04  0.7818609E-02  0.8761697E-01
        1   -1    0    0  501    0  0.00000000000E+00  0.00000000000E+00  0.11686319001E+04  0.11686319001E+04  0.50400001928E-02 0.  1.
       -1   -1    0    0    0  501  0.00000000000E+00  0.00000000000E+00 -0.61781974037E+03  0.61781974039E+03  0.50400001928E-02 0. -1.
    10030    2    1    2    0    0  0.00000000000E+00  0.00000000000E+00  0.55081215975E+03  0.17864516405E+04  0.16994162023E+04 0.  0.
        1    1    3    3  502    0 -0.70559715163E+03 -0.54271672502E+02  0.76980252143E+03  0.10456618368E+04  0.50400001928E-02 0. -1.
       -1    1    3    3    0  502  0.70559715163E+03  0.54271672502E+02 -0.21899036168E+03  0.74078980376E+03  0.50400001928E-02 0.  1.
</event>
<event>
 5   0  0.2987859E-05  0.1700889E+04  0.7818609E-02  0.8760858E-01
        1   -1    0    0  501    0  0.00000000000E+00  0.00000000000E+00  0.11158324226E+04  0.11158324226E+04  0.50400001928E-02 0. -1.
       -1   -1    0    0    0  501  0.00000000000E+00  0.00000000000E+00 -0.64817587747E+03  0.64817587749E+03  0.50400001928E-02 0.  1.
    10030    2    1    2    0    0  0.00000000000E+00  0.00000000000E+00  0.46765654513E+03  0.17640083001E+04  0.17008887790E+04 0.  0.
        5    1    3    3  502    0 -0.53367033708E+03  0.62355862139E+03  0.46481332403E+03  0.94324063694E+03  0.46999998093E+01 0. -1.
       -5    1    3    3    0  502  0.53367033708E+03 -0.62355862139E+03  0.28432211054E+01  0.82076766316E+03  0.46999998093E+01 0.  1.
</event>
<event>
 5   0  0.5755321E-05  0.1702676E+04  0.7818609E-02  0.8759839E-01
       -2   -1    0    0    0  501  0.00000000000E+00  0.00000000000E+00  0.66037269154E+03  0.66037269154E+03  0.25500000920E-02 0.  1.
        2   -1    0    0  501    0  0.00000000000E+00  0.00000000000E+00 -0.10975266373E+04  0.10975266373E+04  0.25500000920E-02 0. -1.
    10030    2    1    2    0    0  0.00000000000E+00  0.00000000000E+00 -0.43715394579E+03  0.17578993289E+04  0.17026762693E+04 0.  0.
        4    1    3    3  502    0  0.22505141065E+02  0.10484204790E+02 -0.10971518198E+04  0.10974334278E+04  0.12699999809E+01 0. -1.
       -4    1    3    3    0  502 -0.22505141065E+02 -0.10484204790E+02  0.65999787398E+03  0.66046590107E+03  0.12699999809E+01 0.  1.
</event>
<event>
 5   0  0.2987859E-05  0.1700151E+04  0.7818609E-02  0.8761278E-01
       -1   -1    0    0    0  501  0.00000000000E+00  0.00000000000E+00  0.10339750915E+04  0.10339750915E+04  0.50400001928E-02 0. -1.
        1   -1    0    0  501    0  0.00000000000E+00  0.00000000000E+00 -0.69888358313E+03  0.69888358315E+03  0.50400001928E-02 0.  1.
    10030    2    1    2    0    0  0.00000000000E+00  0.00000000000E+00  0.33509150838E+03  0.17328586747E+04  0.17001508367E+04 0.  0.
        5    1    3    3  502    0 -0.17828560644E+03  0.61196280856E+03 -0.40569929797E+03  0.75557808789E+03  0.46999998093E+01 0.  1.
       -5    1    3    3    0  502  0.17828560644E+03 -0.61196280856E+03  0.74079080636E+03  0.97728058679E+03  0.46999998093E+01 0. -1.
</event>
<event>
 5   0  0.5755321E-05  0.1700655E+04  0.7818609E-02  0.8760991E-01
       -2   -1    0    0    0  501  0.00000000000E+00  0.00000000000E+00  0.61111416247E+03  0.61111416248E+03  0.25500000920E-02 0. -1.
        2   -1    0    0  501    0  0.00000000000E+00  0.00000000000E+00 -0.11831776455E+04  0.11831776455E+04  0.25500000920E-02 0.  1.
    10030    2    1    2    0    0  0.00000000000E+00  0.00000000000E+00 -0.57206348303E+03  0.17942918080E+04  0.17006547162E+04 0.  0.
        4    1    3    3  502    0 -0.22590834657E+03 -0.81320265420E+03 -0.39527938974E+03  0.93197668786E+03  0.12699999809E+01 0. -1.
       -4    1    3    3    0  502  0.22590834657E+03  0.81320265420E+03 -0.17678409329E+03  0.86231512012E+03  0.12699999809E+01 0.  1.
</event>
<event>
 5   0  0.2911632E-05  0.1699032E+04  0.7818609E-02  0.8761917E-01
        1   -1    0    0  501    0  0.00000000000E+00  0.00000000000E+00  0.74450042658E+03  0.74450042660E+03  0.50400001928E-02 0. -1.
       -1   -1    0    0    0  501  0.00000000000E+00  0.00000000000E+00 -0.96934445947E+03  0.96934445949E+03  0.50400001928E-02 0.  1.
    10030    2    1    2    0    0  0.00000000000E+00  0.00000000000E+00 -0.22484403289E+03  0.17138448861E+04  0.16990319168E+04 0.  0.
        1    1    3    3  502    0  0.52614936027E+01 -0.63599895933E+03 -0.68049712434E+03  0.93144978171E+03  0.50400001928E-02 0.  1.
       -1    1    3    3    0  502 -0.52614936027E+01  0.63599895933E+03  0.45565309145E+03  0.78239510438E+03  0.50400001928E-02 0. -1.
</event>
<event>
 5   0  0.5821584E-05  0.1697941E+04  0.7818609E-02  0.8762539E-01
        2   -1    0    0  501    0  0.00000000000E+00  0.00000000000E+00  0.13503797220E+04  0.13503797220E+04  0.25500000920E-02 0.  1.
       -2   -1    0    0    0  501  0.00000000000E+00  0.00000000000E+00 -0.53373963767E+03  0.53373963768E+03  0.25500000920E-02 0. -1.
    10030    2    1    2    0    0  0.00000000000E+00  0.00000000000E+00  0.81664008435E+03  0.18841193597E+04  0.16979413224E+04 0.  0.
        1    1    3    3  502    0 -0.25219789441E+03  0.79736680232E+03  0.57047161489E+03  0.10123415722E+04  0.50400001928E-02 0.  1.
       -1    1    3    3    0  502  0.25219789441E+03 -0.79736680232E+03  0.24616846946E+03  0.87177778750E+03  0.50400001928E-02 0. -1.
</event>
<event>
 5   0  0.2993769E-05  0.1692223E+04  0.7818609E-02  0.8765812E-01
        1   -1    0    0  501    0  0.00000000000E+00  0.00000000000E+00  0.98034864903E+03  0.98034864904E+03  0.50400001928E-02 0.  1.
       -1   -1    0    0    0  501  0.00000000000E+00  0.00000000000E+00 -0.73025509989E+03  0.73025509991E+03  0.50400001928E-02 0. -1.
    10030    2    1    2    0    0  0.00000000000E+00  0.00000000000E+00  0.25009354913E+03  0.17106037489E+04  0.16922229175E+04 0.  0.
        3    1    3    3  502    0  0.38841831782E+02 -0.11367344628E+03 -0.72159114104E+03  0.73152178731E+03  0.10100000352E+00 0. -1.
       -3    1    3    3    0  502 -0.38841831782E+02  0.11367344628E+03  0.97168469017E+03  0.97908196164E+03  0.10100000352E+00 0.  1.
</event>
<event>
 5   0  0.5652631E-05  0.1699769E+04  0.7818609E-02  0.8761496E-01
        2   -1    0    0  501    0  0.00000000000E+00  0.00000000000E+00  0.15890785022E+04  0.15890785022E+04  0.25500000920E-02 0.  1.
       -2   -1    0    0    0  501  0.00000000000E+00  0.00000000000E+00 -0.45454266591E+03  0.45454266592E+03  0.25500000920E-02 0. -1.
    10030    2    1    2    0    0  0.00000000000E+00  0.00000000000E+00  0.11345358362E+04  0.20436211681E+04  0.16997693711E+04 0.  0.
        2    1    3    3  502    0  0.49387421723E+03 -0.11604978450E+03  0.13870561798E+04  0.14769238778E+04  0.25500000920E-02 0.  1.
       -2    1    3    3    0  502 -0.49387421723E+03  0.11604978450E+03 -0.25252034352E+03  0.56669729029E+03  0.25500000920E-02 0. -1.
</event>
<event>
 5   0  0.2911632E-05  0.1702469E+04  0.7818609E-02  0.8759957E-01
        1   -1    0    0  501    0  0.00000000000E+00  0.00000000000E+00  0.23592595496E+04  0.23592595496E+04  0.50400001928E-02 0.  1.
       -1   -1    0    0    0  501  0.00000000000E+00  0.00000000000E+00 -0.30713039322E+03  0.30713039326E+03  0.50400001928E-02 0. -1.
    10030    2    1    2    0    0  0.00000000000E+00  0.00000000000E+00  0.20521291563E+04  0.26663899428E+04  0.17024691636E+04 0.  0.
        1    1    3    3  502    0  0.45100420283E+03 -0.72168160339E+03  0.99589008766E+03  0.13099718296E+04  0.50400001928E-02 0.  1.
       -1    1    3    3    0  502 -0.45100420283E+03  0.72168160339E+03  0.10562390687E+04  0.13564181132E+04  0.50400001928E-02 0. -1.
</event>
<event>
 5   0  0.2993769E-05  0.1698635E+04  0.7818609E-02  0.8762143E-01
        1   -1    0    0  501    0  0.00000000000E+00  0.00000000000E+00  0.68683095668E+03  0.68683095669E+03  0.50400001928E-02 0.  1.
       -1   -1    0    0    0  501  0.00000000000E+00  0.00000000000E+00 -0.10502441921E+04  0.10502441921E+04  0.50400001928E-02 0. -1.
    10030    2    1    2    0    0  0.00000000000E+00  0.00000000000E+00 -0.36341323542E+03  0.17370751488E+04  0.16986350087E+04 0.  0.
        3    1    3    3  502    0  0.59544355117E+03 -0.23135678423E+03  0.39065678924E+03  0.74879351054E+03  0.10100000352E+00 0.  1.
       -3    1    3    3    0  502 -0.59544355117E+03  0.23135678423E+03 -0.75407002466E+03  0.98828163827E+03  0.10100000352E+00 0. -1.
</event>
<event>
 5   0  0.2911632E-05  0.1698837E+04  0.7818609E-02  0.8762028E-01
        1   -1    0    0  501    0  0.00000000000E+00  0.00000000000E+00  0.88080885440E+03  0.88080885442E+03  0.50400001928E-02 0.  1.
       -1   -1    0    0    0  501  0.00000000000E+00  0.00000000000E+00 -0.81914688033E+03  0.81914688034E+03  0.50400001928E-02 0. -1.
    10030    2    1    2    0    0  0.00000000000E+00  0.00000000000E+00  0.61661974072E+02  0.16999557348E+04  0.16988370437E+04 0.  0.
        1    1    3    3  502    0  0.84386723399E+03  0.40278995402E+02 -0.57417330807E+02  0.84677686316E+03  0.50400001928E-02 0.  1.
       -1    1    3    3    0  502 -0.84386723399E+03 -0.40278995402E+02  0.11907930488E+03  0.85317887160E+03  0.50400001928E-02 0. -1.
</event>
<event>
 5   0  0.5859822E-05  0.1698177E+04  0.7818609E-02  0.8762405E-01
        2   -1    0    0  501    0  0.00000000000E+00  0.00000000000E+00  0.63018446405E+03  0.63018446406E+03  0.25500000920E-02 0.  1.
       -2   -1    0    0    0  501  0.00000000000E+00  0.00000000000E+00 -0.11440316917E+04  0.11440316917E+04  0.25500000920E-02 0. -1.
    10030    2    1    2    0    0  0.00000000000E+00  0.00000000000E+00 -0.51384722768E+03  0.17742161558E+04  0.16981766675E+04 0.  0.
        5    1    3    3  502    0 -0.10601613338E+02 -0.18436050111E+03 -0.11227833952E+04  0.11378777751E+04  0.46999998093E+01 0. -1.
       -5    1    3    3    0  502  0.10601613338E+02  0.18436050111E+03  0.60893616753E+03  0.63633838066E+03  0.46999998093E+01 0.  1.
</event>
<event>
 5   0  0.5671132E-05  0.1698309E+04  0.7818609E-02  0.8762329E-01
        2   -1    0    0  501    0  0.00000000000E+00  0.00000000000E+00  0.17112128856E+04  0.17112128856E+04  0.25500000920E-02 0. -1.
       -2   -1    0    0    0  501  0.00000000000E+00  0.00000000000E+00 -0.42137574498E+03  0.42137574499E+03  0.25500000920E-02 0.  1.
    10030    2    1    2    0    0  0.00000000000E+00  0.00000000000E+00  0.12898371407E+04  0.21325886306E+04  0.16983092822E+04 0.  0.
        3    1    3    3  502    0  0.19533916657E+03  0.33416017168E+03 -0.30415705956E+03  0.49227221881E+03  0.10100000352E+00 0.  1.
       -3    1    3    3    0  502 -0.19533916657E+03 -0.33416017168E+03  0.15939942002E+04  0.16403164118E+04  0.10100000352E+00 0. -1.
</event>
<event>
 5   0  0.5821584E-05  0.1698013E+04  0.7818609E-02  0.8762499E-01
        2   -1    0    0  501    0  0.00000000000E+00  0.00000000000E+00  0.15562713563E+04  0.15562713563E+04  0.25500000920E-02 0. -1.
       -2   -1    0    0    0  501  0.00000000000E+00  0.00000000000E+00 -0.46316594489E+03  0.46316594489E+03  0.25500000920E-02 0.  1.
    10030    2    1    2    0    0  0.00000000000E+00  0.00000000000E+00  0.10931054115E+04  0.20194373012E+04  0.16980128307E+04 0.  0.
        1    1    3    3  502    0 -0.31001723030E+02 -0.14983267406E+03 -0.44663349205E+03  0.47211483063E+03  0.50400001928E-02 0.  1.
       -1    1    3    3    0  502  0.31001723030E+02  0.14983267406E+03  0.15397389035E+04  0.15473224706E+04  0.50400001928E-02 0. -1.
</event>
<event>
 5   0  0.2967704E-05  0.1702124E+04  0.7818609E-02  0.8760154E-01
       -1   -1    0    0    0  501  0.00000000000E+00  0.00000000000E+00  0.19222497363E+04  0.19222497363E+04  0.50400001928E-02 0. -1.
        1   -1    0    0  501    0  0.00000000000E+00  0.00000000000E+00 -0.37680139549E+03  0.37680139553E+03  0.50400001928E-02 0.  1.
    10030    2    1    2    0    0  0.00000000000E+00  0.00000000000E+00  0.15454483408E+04  0.22990511318E+04  0.17021238300E+04 0.  0.
        2    1    3    3  502    0  0.30310038680E+03  0.22804444534E+03 -0.25631819050E+03  0.45779157738E+03  0.25500000920E-02 0.  1.
       -2    1    3    3    0  502 -0.30310038680E+03 -0.22804444534E+03  0.18017665313E+04  0.18412595545E+04  0.25500000920E-02 0. -1.
</event>
<event>
 5   0  0.2911632E-05  0.1703958E+04  0.7818609E-02  0.8759110E-01
        1   -1    0    0  501    0  0.00000000000E+00  0.00000000000E+00  0.11062202893E+04  0.11062202893E+04  0.50400001928E-02 0.  1.
       -1   -1    0    0    0  501  0.00000000000E+00  0.00000000000E+00 -0.65616942973E+03  0.65616942975E+03  0.50400001928E-02 0. -1.
    10030    2    1    2    0    0  0.00000000000E+00  0.00000000000E+00  0.45005085954E+03  0.17623897190E+04  0.17039576713E+04 0.  0.
        1    1    3    3  502    0  0.35284798519E+03 -0.52040386675E+03 -0.36962143749E+03  0.72934346658E+03  0.50400001928E-02 0. -1.
       -1    1    3    3    0  502 -0.35284798519E+03  0.52040386675E+03  0.81967229702E+03  0.10330462525E+04  0.50400001928E-02 0.  1.
</event>
<event>
 5   0  0.5859822E-05  0.1705022E+04  0.7818609E-02  0.8758505E-01
        2   -1    0    0  501    0  0.00000000000E+00  0.00000000000E+00  0.60309627571E+03  0.60309627571E+03  0.25500000920E-02 0. -1.
       -2   -1    0    0    0  501  0.00000000000E+00  0.00000000000E+00 -0.12050725867E+04  0.12050725867E+04  0.25500000920E-02 0.  1.
    10030    2    1    2    0    0  0.00000000000E+00  0.00000000000E+00 -0.60197631102E+03  0.18081688624E+04  0.17050217465E+04 0.  0.
        5    1    3    3  502    0 -0.50288418971E+02 -0.58221624355E+03 -0.95922057903E+03  0.11232234366E+04  0.46999998093E+01 0.  1.
       -5    1    3    3    0  502  0.50288418971E+02  0.58221624355E+03  0.35724426801E+03  0.68494542583E+03  0.46999998093E+01 0. -1.
</event>
<event>
 5   0  0.2987859E-05  0.1708693E+04  0.7818609E-02  0.8756422E-01
        1   -1    0    0  501    0  0.00000000000E+00  0.00000000000E+00  0.80511062633E+03  0.80511062635E+03  0.50400001928E-02 0.  1.
       -1   -1    0    0    0  501  0.00000000000E+00  0.00000000000E+00 -0.90659328716E+03  0.90659328717E+03  0.50400001928E-02 0. -1.
    10030    2    1    2    0    0  0.00000000000E+00  0.00000000000E+00 -0.10148266083E+03  0.17117039135E+04  0.17086929382E+04 0.  0.
        5    1    3    3  502    0 -0.62868462826E+03  0.47592344660E+03  0.27868204206E+03  0.83632126567E+03  0.46999998093E+01 0.  1.
       -5    1    3    3    0  502  0.62868462826E+03 -0.47592344660E+03 -0.38016470289E+03  0.87538264785E+03  0.46999998093E+01 0. -1.
</event>
<event>
 5   0  0.2966258E-05  0.1716160E+04  0.7818609E-02  0.8752201E-01
        1   -1    0    0  501    0  0.00000000000E+00  0.00000000000E+00  0.51028504350E+03  0.51028504352E+03  0.50400001928E-02 0. -1.
       -1   -1    0    0    0  501  0.00000000000E+00  0.00000000000E+00 -0.14429223392E+04  0.14429223392E+04  0.50400001928E-02 0.  1.
    10030    2    1    2    0    0  0.00000000000E+00  0.00000000000E+00 -0.93263729573E+03  0.19532073828E+04  0.17161604688E+04 0.  0.
        4    1    3    3  502    0 -0.58433386450E+03 -0.30625444584E+03  0.15816144239E+03  0.67842059635E+03  0.12699999809E+01 0. -1.
       -4    1    3    3    0  502  0.58433386450E+03  0.30625444584E+03 -0.10907987381E+04  0.12747867864E+04  0.12699999809E+01 0.  1.
</event>
<event>
 5   0  0.5859822E-05  0.1688217E+04  0.7818609E-02  0.8768113E-01
       -2   -1    0    0    0  501  0.00000000000E+00  0.00000000000E+00  0.45461828864E+03  0.45461828865E+03  0.25500000920E-02 0.  1.
        2   -1    0    0  501    0  0.00000000000E+00  0.00000000000E+00 -0.15672911365E+04  0.15672911365E+04  0.25500000920E-02 0. -1.
    10030    2    1    2    0    0  0.00000000000E+00  0.00000000000E+00 -0.11126728478E+04  0.20219094251E+04  0.16882170646E+04 0.  0.
        5    1    3    3  502    0  0.74916820466E+03  0.38868821423E+03 -0.57174847129E+03  0.10194360849E+04  0.46999998093E+01 0.  1.
       -5    1    3    3    0  502 -0.74916820466E+03 -0.38868821423E+03 -0.54092437656E+03  0.10024733402E+04  0.46999998093E+01 0. -1.
</event>
<event>
 5   0  0.2098250E-05  0.1699944E+04  0.7818609E-02  0.8761397E-01
       -3   -1    0    0    0  501  0.00000000000E+00  0.00000000000E+00  0.30988523695E+03  0.30988525341E+03  0.10100000352E+00 0.  1.
        3   -1    0    0  501    0  0.00000000000E+00  0.00000000000E+00 -0.23313535414E+04  0.23313535436E+04  0.10100000352E+00 0. -1.
    10030    2    1    2    0    0  0.00000000000E+00  0.00000000000E+00 -0.20214683044E+04  0.26412387970E+04  0.16999436099E+04 0.  0.
        2    1    3    3  502    0  0.45935668675E+03 -0.48005169129E+03 -0.18712420902E+03  0.69027071616E+03  0.25500000920E-02 0.  1.
       -2    1    3    3    0  502 -0.45935668675E+03  0.48005169129E+03 -0.18343440954E+04  0.19509680808E+04  0.25500000920E-02 0. -1.
</event>
<event>
 5   0  0.5859822E-05  0.1700872E+04  0.7818609E-02  0.8760867E-01
        2   -1    0    0  501    0  0.00000000000E+00  0.00000000000E+00  0.11490751366E+04  0.11490751366E+04  0.25500000920E-02 0.  1.
       -2   -1    0    0    0  501  0.00000000000E+00  0.00000000000E+00 -0.62941176588E+03  0.62941176589E+03  0.25500000920E-02 0. -1.
    10030    2    1    2    0    0  0.00000000000E+00  0.00000000000E+00  0.51966337068E+03  0.17784869025E+04  0.17008720244E+04 0.  0.
        5    1    3    3  502    0 -0.41215229238E+03  0.65074186925E+03  0.63667277033E+03  0.99935419096E+03  0.46999998093E+01 0.  1.
       -5    1    3    3    0  502  0.41215229238E+03 -0.65074186925E+03 -0.11700939965E+03  0.77913271149E+03  0.46999998093E+01 0. -1.
</event>
<event>
 5   0  0.5755321E-05  0.1700771E+04  0.7818609E-02  0.8760925E-01
        2   -1    0    0  501    0  0.00000000000E+00  0.00000000000E+00  0.92801677376E+03  0.92801677377E+03  0.25500000920E-02 0. -1.
       -2   -1    0    0    0  501  0.00000000000E+00  0.00000000000E+00 -0.77924803913E+03  0.77924803913E+03  0.25500000920E-02 0.  1.
    10030    2    1    2    0    0  0.00000000000E+00  0.00000000000E+00  0.14876873464E+03  0.17072648129E+04  0.17007707091E+04 0.  0.
        4    1    3    3  502    0  0.38114051289E+02  0.76438075348E+03 -0.29773722249E+03  0.82120623704E+03  0.12699999809E+01 0.  1.
       -4    1    3    3    0  502 -0.38114051289E+02 -0.76438075348E+03  0.44650595712E+03  0.88605857586E+03  0.12699999809E+01 0. -1.
</event>
<event>
 5   0  0.5821584E-05  0.1692818E+04  0.7818609E-02  0.8765471E-01
        2   -1    0    0  501    0  0.00000000000E+00  0.00000000000E+00  0.21532862841E+04  0.21532862841E+04  0.25500000920E-02 0.  1.
       -2   -1    0    0    0  501  0.00000000000E+00  0.00000000000E+00 -0.33270468048E+03  0.33270468049E+03  0.25500000920E-02 0. -1.
    10030    2    1    2    0    0  0.00000000000E+00  0.00000000000E+00  0.18205816036E+04  0.24859909646E+04  0.16928182716E+04 0.  0.
        1    1    3    3  502    0 -0.16118043553E+03  0.59690194336E+03  0.61400195296E+02  0.62132201537E+03  0.50400001928E-02 0. -1.
       -1    1    3    3    0  502  0.16118043553E+03 -0.59690194336E+03  0.17591814083E+04  0.18646689492E+04  0.50400001928E-02 0.  1.
</event>
<event>
 5   0  0.5821584E-05  0.1701352E+04  0.7818609E-02  0.8760594E-01
       -2   -1    0    0    0  501  0.00000000000E+00  0.00000000000E+00  0.85813869545E+03  0.85813869545E+03  0.25500000920E-02 0. -1.
        2   -1    0    0  501    0  0.00000000000E+00  0.00000000000E+00 -0.84327825772E+03  0.84327825772E+03  0.25500000920E-02 0.  1.
    10030    2    1    2    0    0  0.00000000000E+00  0.00000000000E+00  0.14860437728E+02  0.17014169532E+04  0.17013520553E+04 0.  0.
        1    1    3    3  502    0  0.40377432332E+03 -0.90518526314E+02  0.75070980367E+03  0.85720039497E+03  0.50400001928E-02 0. -1.
       -1    1    3    3    0  502 -0.40377432332E+03  0.90518526314E+02 -0.73584936594E+03  0.84421655821E+03  0.50400001928E-02 0.  1.
</event>
<event>
 5   0  0.2967704E-05  0.1704375E+04  0.7818609E-02  0.8758873E-01
        1   -1    0    0  501    0  0.00000000000E+00  0.00000000000E+00  0.44485977433E+03  0.44485977436E+03  0.50400001928E-02 0.  1.
       -1   -1    0    0    0  501  0.00000000000E+00  0.00000000000E+00 -0.16324782991E+04  0.16324782991E+04  0.50400001928E-02 0. -1.
    10030    2    1    2    0    0  0.00000000000E+00  0.00000000000E+00 -0.11876185248E+04  0.20773380735E+04  0.17043754607E+04 0.  0.
        2    1    3    3  502    0  0.46930602118E+02  0.37061012402E+03 -0.15273616500E+04  0.15723828908E+04  0.25500000920E-02 0. -1.
       -2    1    3    3    0  502 -0.46930602118E+02 -0.37061012402E+03  0.33974312516E+03  0.50495518271E+03  0.25500000920E-02 0.  1.
</event>
<event>
 5   0  0.5821584E-05  0.1699290E+04  0.7818609E-02  0.8761769E-01
       -2   -1    0    0    0  501  0.00000000000E+00  0.00000000000E+00  0.12458863161E+04  0.12458863161E+04  0.25500000920E-02 0. -1.
        2   -1    0    0  501    0  0.00000000000E+00  0.00000000000E+00 -0.57942430872E+03  0.57942430872E+03  0.25500000920E-02 0.  1.
    10030    2    1    2    0    0  0.00000000000E+00  0.00000000000E+00  0.66646200743E+03  0.18253106249E+04  0.16992902253E+04 0.  0.
        1    1    3    3  502    0  0.76232689538E+03  0.33086232952E+03  0.52322278299E+03  0.98202558886E+03  0.50400001928E-02 0. -1.
       -1    1    3    3    0  502 -0.76232689538E+03 -0.33086232952E+03  0.14323922444E+03  0.84328503601E+03  0.50400001928E-02 0.  1.
</event>
<event>
 5   0  0.2987859E-05  0.1695037E+04  0.7818609E-02  0.8764200E-01
        1   -1    0    0  501    0  0.00000000000E+00  0.00000000000E+00  0.42716283835E+03  0.42716283838E+03  0.50400001928E-02 0. -1.
       -1   -1    0    0    0  501  0.00000000000E+00  0.00000000000E+00 -0.16815310117E+04  0.16815310117E+04  0.50400001928E-02 0.  1.
    10030    2    1    2    0    0  0.00000000000E+00  0.00000000000E+00 -0.12543681733E+04  0.21086938501E+04  0.16950369433E+04 0.  0.
        5    1    3    3  502    0  0.95324680128E+01  0.78430686523E+03 -0.10265138574E+04  0.12918904428E+04  0.46999998093E+01 0.  1.
       -5    1    3    3    0  502 -0.95324680128E+01 -0.78430686523E+03 -0.22785431590E+03  0.81680340724E+03  0.46999998093E+01 0. -1.
</event>
<event>
 5   0  0.2993769E-05  0.1686095E+04  0.7818609E-02  0.8769335E-01
       -1   -1    0    0    0  501  0.00000000000E+00  0.00000000000E+00  0.86450259850E+03  0.86450259851E+03  0.50400001928E-02 0.  1.
        1   -1    0    0  501    0  0.00000000000E+00  0.00000000000E+00 -0.82212441852E+03  0.82212441854E+03  0.50400001928E-02 0. -1.
    10030    2    1    2    0    0  0.00000000000E+00  0.00000000000E+00  0.42378179975E+02  0.16866270171E+04  0.16860945361E+04 0.  0.
        3    1    3    3  502    0  0.95077423499E+02 -0.57233271359E+03  0.63303921386E+03  0.85868685095E+03  0.10100000352E+00 0.  1.
       -3    1    3    3    0  502 -0.95077423499E+02  0.57233271359E+03 -0.59066103388E+03  0.82794016611E+03  0.10100000352E+00 0. -1.
</event>
<event>
 5   0  0.5755321E-05  0.1698402E+04  0.7818609E-02  0.8762276E-01
       -2   -1    0    0    0  501  0.00000000000E+00  0.00000000000E+00  0.87573388416E+03  0.87573388416E+03  0.25500000920E-02 0.  1.
        2   -1    0    0  501    0  0.00000000000E+00  0.00000000000E+00 -0.82347246575E+03  0.82347246575E+03  0.25500000920E-02 0. -1.
    10030    2    1    2    0    0  0.00000000000E+00  0.00000000000E+00  0.52261418411E+02  0.16992063499E+04  0.16984024740E+04 0.  0.
        4    1    3    3  502    0  0.51211943927E+03  0.35042918455E+03 -0.55386274455E+03  0.83176468197E+03  0.12699999809E+01 0.  1.
       -4    1    3    3    0  502 -0.51211943927E+03 -0.35042918455E+03  0.60612416296E+03  0.86744166795E+03  0.12699999809E+01 0. -1.
</event>
<event>
 5   0  0.2966258E-05  0.1695910E+04  0.7818609E-02  0.8763701E-01
       -1   -1    0    0    0  501  0.00000000000E+00  0.00000000000E+00  0.99274477355E+03  0.99274477357E+03  0.50400001928E-02 0. -1.
        1   -1    0    0  501    0  0.00000000000E+00  0.00000000000E+00 -0.72428218950E+03  0.72428218952E+03  0.50400001928E-02 0.  1.
    10030    2    1    2    0    0  0.00000000000E+00  0.00000000000E+00  0.26846258405E+03  0.17170269631E+04  0.16959096181E+04 0.  0.
        4    1    3    3  502    0 -0.21415038312E+03  0.12056894056E+02  0.96482453510E+03  0.98837935618E+03  0.12699999809E+01 0. -1.
       -4    1    3    3    0  502  0.21415038312E+03 -0.12056894056E+02 -0.69636195105E+03  0.72864760691E+03  0.12699999809E+01 0.  1.
</event>
<event>
 5   0  0.5671132E-05  0.1699708E+04  0.7818609E-02  0.8761531E-01
        2   -1    0    0  501    0  0.00000000000E+00  0.00000000000E+00  0.12080692859E+04  0.12080692859E+04  0.25500000920E-02 0.  1.
       -2   -1    0    0    0  501  0.00000000000E+00  0.00000000000E+00 -0.59785637170E+03  0.59785637171E+03  0.25500000920E-02 0. -1.
    10030    2    1    2    0    0  0.00000000000E+00  0.00000000000E+00  0.61021291422E+03  0.18059256576E+04  0.16997081162E+04 0.  0.
        3    1    3    3  502    0  0.59593220133E+03  0.97380240061E+02  0.94050293752E+03  0.11176600044E+04  0.10100000352E+00 0.  1.
       -3    1    3    3    0  502 -0.59593220133E+03 -0.97380240061E+02 -0.33029002330E+03  0.68826565324E+03  0.10100000352E+00 0. -1.
</event>
<event>
 5   0  0.5671132E-05  0.1698822E+04  0.7818609E-02  0.8762036E-01
       -2   -1    0    0    0  501  0.00000000000E+00  0.00000000000E+00  0.51039985931E+03  0.51039985932E+03  0.25500000920E-02 0. -1.
        2   -1    0    0  501    0  0.00000000000E+00  0.00000000000E+00 -0.14135961426E+04  0.14135961426E+04  0.25500000920E-02 0.  1.
    10030    2    1    2    0    0  0.00000000000E+00  0.00000000000E+00 -0.90319628324E+03  0.19239960019E+04  0.16988222653E+04 0.  0.
        3    1    3    3  502    0 -0.35781485741E+03 -0.52495067150E+03 -0.10901523687E+04  0.12617594370E+04  0.10100000352E+00 0.  1.
       -3    1    3    3    0  502  0.35781485741E+03  0.52495067150E+03  0.18695608550E+03  0.66223656483E+03  0.10100000352E+00 0. -1.
</event>
<event>
 5   0  0.5671132E-05  0.1694245E+04  0.7818609E-02  0.8764654E-01
        2   -1    0    0  501    0  0.00000000000E+00  0.00000000000E+00  0.92770304074E+03  0.92770304075E+03  0.25500000920E-02 0.  1.
       -2   -1    0    0    0  501  0.00000000000E+00  0.00000000000E+00 -0.77354086955E+03  0.77354086956E+03  0.25500000920E-02 0. -1.
    10030    2    1    2    0    0  0.00000000000E+00  0.00000000000E+00  0.15416217119E+03  0.17012439103E+04  0.16942446303E+04 0.  0.
        3    1    3    3  502    0  0.65754791474E+03  0.52740386468E+03  0.16164366003E+03  0.85828478939E+03  0.10100000352E+00 0.  1.
       -3    1    3    3    0  502 -0.65754791474E+03 -0.52740386468E+03 -0.74814888419E+01  0.84295912092E+03  0.10100000352E+00 0. -1.
</event>
<event>
 5   0  0.2967704E-05  0.1699914E+04  0.7818609E-02  0.8761413E-01
       -1   -1    0    0    0  501  0.00000000000E+00  0.00000000000E+00  0.61767883558E+03  0.61767883560E+03  0.50400001928E-02 0. -1.
        1   -1    0    0  501    0  0.00000000000E+00  0.00000000000E+00 -0.11695833048E+04  0.11695833048E+04  0.50400001928E-02 0.  1.
    10030    2    1    2    0    0  0.00000000000E+00  0.00000000000E+00 -0.55190446925E+03  0.17872621404E+04  0.16999139436E+04 0.  0.
        2    1    3    3  502    0 -0.64243943786E+03  0.27989528186E+03  0.22975910517E+03  0.73746799695E+03  0.25500000920E-02 0. -1.
       -2    1    3    3    0  502  0.64243943786E+03 -0.27989528186E+03 -0.78166357442E+03  0.10497941435E+04  0.25500000920E-02 0.  1.
</event>
<event>
 5   0  0.5859822E-05  0.1697860E+04  0.7818609E-02  0.8762586E-01
        2   -1    0    0  501    0  0.00000000000E+00  0.00000000000E+00  0.14103486328E+04  0.14103486328E+04  0.25500000920E-02 0.  1.
       -2   -1    0    0    0  501  0.00000000000E+00  0.00000000000E+00 -0.51099576406E+03  0.51099576407E+03  0.25500000920E-02 0. -1.
    10030    2    1    2    0    0  0.00000000000E+00  0.00000000000E+00  0.89935286877E+03  0.19213443969E+04  0.16978600381E+04 0.  0.
        5    1    3    3  502    0  0.15567512773E+03  0.46572189939E+03  0.12333054761E+04  0.13274773521E+04  0.46999998093E+01 0.  1.
       -5    1    3    3    0  502 -0.15567512773E+03 -0.46572189939E+03 -0.33395260732E+03  0.59386704480E+03  0.46999998093E+01 0. -1.
</event>
<event>
 5   0  0.5859822E-05  0.1690218E+04  0.7818609E-02  0.8766963E-01
        2   -1    0    0  501    0  0.00000000000E+00  0.00000000000E+00  0.28173004156E+04  0.28173004156E+04  0.25500000920E-02 0.  1.
       -2   -1    0    0    0  501  0.00000000000E+00  0.00000000000E+00 -0.25350836760E+03  0.25350836761E+03  0.25500000920E-02 0. -1.
    10030    2    1    2    0    0  0.00000000000E+00  0.00000000000E+00  0.25637920480E+04  0.30708087832E+04  0.16902180089E+04 0.  0.
        5    1    3    3  502    0  0.48951096874E+03 -0.62084705385E+03  0.18242535440E+04  0.19882140568E+04  0.46999998093E+01 0.  1.
       -5    1    3    3    0  502 -0.48951096874E+03  0.62084705385E+03  0.73953850401E+03  0.10825947264E+04  0.46999998093E+01 0. -1.
</event>
<event>
 5   0  0.5755321E-05  0.1699380E+04  0.7818609E-02  0.8761718E-01
        2   -1    0    0  501    0  0.00000000000E+00  0.00000000000E+00  0.12138279865E+04  0.12138279865E+04  0.25500000920E-02 0. -1.
       -2   -1    0    0    0  501  0.00000000000E+00  0.00000000000E+00 -0.59479029556E+03  0.59479029557E+03  0.25500000920E-02 0.  1.
    10030    2    1    2    0    0  0.00000000000E+00  0.00000000000E+00  0.61903769094E+03  0.18086182821E+04  0.16993800127E+04 0.  0.
        4    1    3    3  502    0 -0.72425485462E+03  0.17981203864E+03 -0.12291740732E+03  0.75629872775E+03  0.12699999809E+01 0.  1.
       -4    1    3    3    0  502  0.72425485462E+03 -0.17981203864E+03  0.74195509826E+03  0.10523195543E+04  0.12699999809E+01 0. -1.
</event>
<event>
 5   0  0.5755321E-05  0.1696407E+04  0.7818609E-02  0.8763416E-01
       -2   -1    0    0    0  501  0.00000000000E+00  0.00000000000E+00  0.63844051770E+03  0.63844051770E+03  0.25500000920E-02 0. -1.
        2   -1    0    0  501    0  0.00000000000E+00  0.00000000000E+00 -0.11268852276E+04  0.11268852276E+04  0.25500000920E-02 0.  1.
    10030    2    1    2    0    0  0.00000000000E+00  0.00000000000E+00 -0.48844470992E+03  0.17653257453E+04  0.16964070126E+04 0.  0.
        4    1    3    3  502    0  0.28118506344E+03 -0.60943649033E+03 -0.78391496930E+03  0.10319894223E+04  0.12699999809E+01 0.  1.
       -4    1    3    3    0  502 -0.28118506344E+03  0.60943649033E+03  0.29547025938E+03  0.73333632307E+03  0.12699999809E+01 0. -1.
</event>
<event>
 5   0  0.2967704E-05  0.1701249E+04  0.7818609E-02  0.8760652E-01
       -1   -1    0    0    0  501  0.00000000000E+00  0.00000000000E+00  0.25134266605E+03  0.25134266610E+03  0.50400001928E-02 0.  1.
        1   -1    0    0  501    0  0.00000000000E+00  0.00000000000E+00 -0.28787870816E+04  0.28787870816E+04  0.50400001928E-02 0. -1.
    10030    2    1    2    0    0  0.00000000000E+00  0.00000000000E+00 -0.26274444156E+04  0.31301297477E+04  0.17012489767E+04 0.  0.
        2    1    3    3  502    0 -0.47267273593E+03 -0.68960363332E+03 -0.10252075752E+04  0.13228844464E+04  0.25500000920E-02 0. -1.
       -2    1    3    3    0  502  0.47267273593E+03  0.68960363332E+03 -0.16022368404E+04  0.18072453013E+04  0.25500000920E-02 0.  1.
</event>
<event>
 5   0  0.5671132E-05  0.1705331E+04  0.7818609E-02  0.8758330E-01
       -2   -1    0    0    0  501  0.00000000000E+00  0.00000000000E+00  0.42132415495E+03  0.42132415496E+03  0.25500000920E-02 0. -1.
        2   -1    0    0  501    0  0.00000000000E+00  0.00000000000E+00 -0.17256035026E+04  0.17256035026E+04  0.25500000920E-02 0.  1.
    10030    2    1    2    0    0  0.00000000000E+00  0.00000000000E+00 -0.13042793477E+04  0.21469276576E+04  0.17053309796E+04 0.  0.
        3    1    3    3  502    0 -0.21867738703E+03  0.51662660897E+03 -0.14605346374E+04  0.15645715995E+04  0.10100000352E+00 0.  1.
       -3    1    3    3    0  502  0.21867738703E+03 -0.51662660897E+03  0.15625528969E+03  0.58235605813E+03  0.10100000352E+00 0. -1.
</event>
<event>
 5   0  0.2966258E-05  0.1718190E+04  0.7818609E-02  0.8751058E-01
       -1   -1    0    0    0  501  0.00000000000E+00  0.00000000000E+00  0.54683174599E+03  0.54683174601E+03  0.50400001928E-02 0.  1.
        1   -1    0    0  501    0  0.00000000000E+00  0.00000000000E+00 -0.13496730044E+04  0.13496730044E+04  0.50400001928E-02 0. -1.
    10030    2    1    2    0    0  0.00000000000E+00  0.00000000000E+00 -0.80284125839E+03  0.18965047504E+04  0.17181897981E+04 0.  0.
        4    1    3    3  502    0 -0.42433051564E+03  0.67850922826E+03 -0.56568598401E+02  0.80226727377E+03  0.12699999809E+01 0.  1.
       -4    1    3    3    0  502  0.42433051564E+03 -0.67850922826E+03 -0.74627265999E+03  0.10942374766E+04  0.12699999809E+01 0. -1.
</event>
<event>
 5   0  0.5821584E-05  0.1699806E+04  0.7818609E-02  0.8761475E-01
       -2   -1    0    0    0  501  0.00000000000E+00  0.00000000000E+00  0.40609894317E+03  0.40609894318E+03  0.25500000920E-02 0. -1.
        2   -1    0    0  501    0  0.00000000000E+00  0.00000000000E+00 -0.17787175531E+04  0.17787175531E+04  0.25500000920E-02 0.  1.
    10030    2    1    2    0    0  0.00000000000E+00  0.00000000000E+00 -0.13726186099E+04  0.21848164963E+04  0.16998062460E+04 0.  0.
        1    1    3    3  502    0  0.42497294952E+03 -0.13297528896E+03 -0.16167790883E+04  0.16769791458E+04  0.50400001928E-02 0.  1.
       -1    1    3    3    0  502 -0.42497294952E+03  0.13297528896E+03  0.24416047833E+03  0.50783735044E+03  0.50400001928E-02 0. -1.
</event>
<event>
 5   0  0.5652631E-05  0.1698104E+04  0.7818609E-02  0.8762446E-01
       -2   -1    0    0    0  501  0.00000000000E+00  0.00000000000E+00  0.11608636936E+04  0.11608636936E+04  0.25500000920E-02 0. -1.
        2   -1    0    0  501    0  0.00000000000E+00  0.00000000000E+00 -0.62099412132E+03  0.62099412133E+03  0.25500000920E-02 0.  1.
    10030    2    1    2    0    0  0.00000000000E+00  0.00000000000E+00  0.53986957230E+03  0.17818578150E+04  0.16981042717E+04 0.  0.
        2    1    3    3  502    0  0.44733044725E+03  0.68908014040E+03  0.49487560650E+03  0.95908176650E+03  0.25500000920E-02 0. -1.
       -2    1    3    3    0  502 -0.44733044725E+03 -0.68908014040E+03  0.44993965806E+02  0.82277604845E+03  0.25500000920E-02 0.  1.
</event>
<event>
 5   0  0.2966258E-05  0.1704066E+04  0.7818609E-02  0.8759049E-01
        1   -1    0    0  501    0  0.00000000000E+00  0.00000000000E+00  0.15100478453E+04  0.15100478453E+04  0.50400001928E-02 0. -1.
       -1   -1    0    0    0  501  0.00000000000E+00  0.00000000000E+00 -0.48075327652E+03  0.48075327655E+03  0.50400001928E-02 0.  1.
    10030    2    1    2    0    0  0.00000000000E+00  0.00000000000E+00  0.10292945688E+04  0.19908011219E+04  0.17040662538E+04 0.  0.
        4    1    3    3  502    0 -0.58565123114E+03  0.61742272463E+03  0.46562674953E+03  0.97005570366E+03  0.12699999809E+01 0. -1.
       -4    1    3    3    0  502  0.58565123114E+03 -0.61742272463E+03  0.56366781927E+03  0.10207454182E+04  0.12699999809E+01 0.  1.
</event>
<event>
 5   0  0.2967704E-05  0.1698438E+04  0.7818609E-02  0.8762256E-01
        1   -1    0    0  501    0  0.00000000000E+00  0.00000000000E+00  0.11426134073E+04  0.11426134073E+04  0.50400001928E-02 0.  1.
       -1   -1    0    0    0  501  0.00000000000E+00  0.00000000000E+00 -0.63116115113E+03  0.63116115115E+03  0.50400001928E-02 0. -1.
    10030    2    1    2    0    0  0.00000000000E+00  0.00000000000E+00  0.51145225616E+03  0.17737745585E+04  0.16984383339E+04 0.  0.
        2    1    3    3  502    0  0.51582383881E+03  0.64402375395E+03  0.45988919681E+02  0.82641140425E+03  0.25500000920E-02 0. -1.
       -2    1    3    3    0  502 -0.51582383881E+03 -0.64402375395E+03  0.46546333648E+03  0.94736315421E+03  0.25500000920E-02 0.  1.
</event>
<event>
 5   0  0.5755321E-05  0.1700895E+04  0.7818609E-02  0.8760854E-01
        2   -1    0    0  501    0  0.00000000000E+00  0.00000000000E+00  0.66869796667E+03  0.66869796668E+03  0.25500000920E-02 0.  1.
       -2   -1    0    0    0  501  0.00000000000E+00  0.00000000000E+00 -0.10815961460E+04  0.10815961460E+04  0.25500000920E-02 0. -1.
    10030    2    1    2    0    0  0.00000000000E+00  0.00000000000E+00 -0.41289817935E+03  0.17502941127E+04  0.17008952274E+04 0.  0.
        4    1    3    3  502    0  0.42813280876E+03  0.45621854657E+03  0.38632468395E+03  0.73531043683E+03  0.12699999809E+01 0.  1.
       -4    1    3    3    0  502 -0.42813280876E+03 -0.45621854657E+03 -0.79922286330E+03  0.10149836759E+04  0.12699999809E+01 0. -1.
</event>
<event>
 5   0  0.5755321E-05  0.1701483E+04  0.7818609E-02  0.8760519E-01
        2   -1    0    0  501    0  0.00000000000E+00  0.00000000000E+00  0.14614133971E+04  0.14614133971E+04  0.25500000920E-02 0.  1.
       -2   -1    0    0    0  501  0.00000000000E+00  0.00000000000E+00 -0.49524708006E+03  0.49524708007E+03  0.25500000920E-02 0. -1.
    10030    2    1    2    0    0  0.00000000000E+00  0.00000000000E+00  0.96616631700E+03  0.19566604771E+04  0.17014825508E+04 0.  0.
        4    1    3    3  502    0 -0.76313720576E+03  0.25825327706E+03  0.16880989029E+03  0.82314733911E+03  0.12699999809E+01 0. -1.
       -4    1    3    3    0  502  0.76313720576E+03 -0.25825327706E+03  0.79735642671E+03  0.11335131380E+04  0.12699999809E+01 0.  1.
</event>
<event>
 5   0  0.2966258E-05  0.1702308E+04  0.7818609E-02  0.8760049E-01
       -1   -1    0    0    0  501  0.00000000000E+00  0.00000000000E+00  0.35574021220E+03  0.35574021224E+03  0.50400001928E-02 0. -1.
        1   -1    0    0  501    0  0.00000000000E+00  0.00000000000E+00 -0.20364951439E+04  0.20364951439E+04  0.50400001928E-02 0.  1.
    10030    2    1    2    0    0  0.00000000000E+00  0.00000000000E+00 -0.16807549317E+04  0.23922353562E+04  0.17023080975E+04 0.  0.
        4    1    3    3  502    0 -0.78035040742E+03  0.22691488627E+03 -0.48479628951E+03  0.94629074770E+03  0.12699999809E+01 0.  1.
       -4    1    3    3    0  502  0.78035040742E+03 -0.22691488627E+03 -0.11959586422E+04  0.14459446085E+04  0.12699999809E+01 0. -1.
</event>
<event>
 5   0  0.2967704E-05  0.1710605E+04  0.7818609E-02  0.8755339E-01
        1   -1    0    0  501    0  0.00000000000E+00  0.00000000000E+00  0.62900952055E+03  0.62900952057E+03  0.50400001928E-02 0.  1.
       -1   -1    0    0    0  501  0.00000000000E+00  0.00000000000E+00 -0.11630061978E+04  0.11630061979E+04  0.50400001928E-02 0. -1.
    10030    2    1    2    0    0  0.00000000000E+00  0.00000000000E+00 -0.53399667729E+03  0.17920157184E+04  0.17106045375E+04 0.  0.
        2    1    3    3  502    0  0.21425095365E+03 -0.57050829368E+03  0.36169549723E+03  0.70866551844E+03  0.25500000920E-02 0.  1.
       -2    1    3    3    0  502 -0.21425095365E+03  0.57050829368E+03 -0.89569217452E+03  0.10833502000E+04  0.25500000920E-02 0. -1.
</event>
<event>
 5   0  0.5859822E-05  0.1699241E+04  0.7818609E-02  0.8761797E-01
       -2   -1    0    0    0  501  0.00000000000E+00  0.00000000000E+00  0.63441725757E+03  0.63441725757E+03  0.25500000920E-02 0.  1.
        2   -1    0    0  501    0  0.00000000000E+00  0.00000000000E+00 -0.11378239366E+04  0.11378239366E+04  0.25500000920E-02 0. -1.
    10030    2    1    2    0    0  0.00000000000E+00  0.00000000000E+00 -0.50340667899E+03  0.17722411941E+04  0.16992411735E+04 0.  0.
        5    1    3    3  502    0  0.45009317293E+03  0.44565386565E+03 -0.84228218473E+03  0.10538750405E+04  0.46999998093E+01 0. -1.
       -5    1    3    3    0  502 -0.45009317293E+03 -0.44565386565E+03  0.33887550574E+03  0.71836615363E+03  0.46999998093E+01 0.  1.
</event>
<event>
 5   0  0.5859822E-05  0.1703367E+04  0.7818609E-02  0.8759446E-01
       -2   -1    0    0    0  501  0.00000000000E+00  0.00000000000E+00  0.75299349602E+03  0.75299349602E+03  0.25500000920E-02 0. -1.
        2   -1    0    0  501    0  0.00000000000E+00  0.00000000000E+00 -0.96330862582E+03  0.96330862582E+03  0.25500000920E-02 0.  1.
    10030    2    1    2    0    0  0.00000000000E+00  0.00000000000E+00 -0.21031512980E+03  0.17163021218E+04  0.17033674059E+04 0.  0.
        5    1    3    3  502    0 -0.66971517371E+03  0.22005914208E+03 -0.58669729546E+03  0.91715879018E+03  0.46999998093E+01 0.  1.
       -5    1    3    3    0  502  0.66971517371E+03 -0.22005914208E+03  0.37638216566E+03  0.79914333166E+03  0.46999998093E+01 0. -1.
</event>
<event>
 5   0  0.2987859E-05  0.1701547E+04  0.7818609E-02  0.8760483E-01
       -1   -1    0    0    0  501  0.00000000000E+00  0.00000000000E+00  0.79883176921E+03  0.79883176922E+03  0.50400001928E-02 0. -1.
        1   -1    0    0  501    0  0.00000000000E+00  0.00000000000E+00 -0.90609211531E+03  0.90609211532E+03  0.50400001928E-02 0.  1.
    10030    2    1    2    0    0  0.00000000000E+00  0.00000000000E+00 -0.10726034610E+03  0.17049238845E+04  0.17015465525E+04 0.  0.
        5    1    3    3  502    0 -0.31874835095E+03  0.56076837229E+03  0.50220633074E+03  0.81749309920E+03  0.46999998093E+01 0. -1.
       -5    1    3    3    0  502  0.31874835095E+03 -0.56076837229E+03 -0.60946667684E+03  0.88743078534E+03  0.46999998093E+01 0.  1.
</event>
<event>
 5   0  0.5652631E-05  0.1693394E+04  0.7818609E-02  0.8765141E-01
       -2   -1    0    0    0  501  0.00000000000E+00  0.00000000000E+00  0.33030409295E+03  0.33030409296E+03  0.25500000920E-02 0.  1.
        2   -1    0    0  501    0  0.00000000000E+00  0.00000000000E+00 -0.21704108022E+04  0.21704108022E+04  0.25500000920E-02 0. -1.
    10030    2    1    2    0    0  0.00000000000E+00  0.00000000000E+00 -0.18401067093E+04  0.25007148952E+04  0.16933937184E+04 0.  0.
        2    1    3    3  502    0 -0.12790849072E+03  0.77008753729E+03 -0.14042377858E+04  0.16066359750E+04  0.25500000920E-02 0. -1.
       -2    1    3    3    0  502  0.12790849072E+03 -0.77008753729E+03 -0.43586892351E+03  0.89407892022E+03  0.25500000920E-02 0.  1.
</event>
<event>
 5   0  0.2966258E-05  0.1723611E+04  0.7818609E-02  0.8748011E-01
        1   -1    0    0  501    0  0.00000000000E+00  0.00000000000E+00  0.13125832103E+04  0.13125832103E+04  0.50400001928E-02 0. -1.
       -1   -1    0    0    0  501  0.00000000000E+00  0.00000000000E+00 -0.56583756092E+03  0.56583756094E+03  0.50400001928E-02 0.  1.
    10030    2    1    2    0    0  0.00000000000E+00  0.00000000000E+00  0.74674564934E+03  0.18784207712E+04  0.17236111884E+04 0.  0.
        4    1    3    3  502    0  0.71306759843E+03 -0.40323794097E+03  0.66507152568E+03  0.10551720164E+04  0.12699999809E+01 0. -1.
       -4    1    3    3    0  502 -0.71306759843E+03  0.40323794097E+03  0.81674123655E+02  0.82324875484E+03  0.12699999809E+01 0.  1.
</event>
<event>
 5   0  0.5671132E-05  0.1699444E+04  0.7818609E-02  0.8761681E-01
       -2   -1    0    0    0  501  0.00000000000E+00  0.00000000000E+00  0.58343151224E+03  0.58343151225E+03  0.25500000920E-02 0.  1.
        2   -1    0    0  501    0  0.00000000000E+00  0.00000000000E+00 -0.12375533051E+04  0.12375533051E+04  0.25500000920E-02 0. -1.
    10030    2    1    2    0    0  0.00000000000E+00  0.00000000000E+00 -0.65412179287E+03  0.18209848174E+04  0.16994441401E+04 0.  0.
        3    1    3    3  502    0  0.40502264827E+03 -0.66977566242E+03 -0.68144801231E+03  0.10377929405E+04  0.10100000352E+00 0. -1.
       -3    1    3    3    0  502 -0.40502264827E+03  0.66977566242E+03  0.27326219438E+02  0.78319187691E+03  0.10100000352E+00 0.  1.
</event>
<event>
 5   0  0.2098250E-05  0.1698752E+04  0.7818609E-02  0.8762077E-01
        4   -1    0    0  501    0  0.00000000000E+00  0.00000000000E+00  0.93064736994E+03  0.93064823649E+03  0.12699999809E+01 0.  1.
       -4   -1    0    0    0  501  0.00000000000E+00  0.00000000000E+00 -0.77519989110E+03  0.77520093141E+03  0.12699999809E+01 0. -1.
    10030    2    1    2    0    0  0.00000000000E+00  0.00000000000E+00  0.15544747884E+03  0.17058491679E+04  0.16987517373E+04 0.  0.
        4    1    3    3  502    0 -0.17441634540E+03 -0.72155321830E+03  0.49221656668E+03  0.89069572234E+03  0.12699999809E+01 0.  1.
       -4    1    3    3    0  502  0.17441634540E+03  0.72155321830E+03 -0.33676908784E+03  0.81515344556E+03  0.12699999809E+01 0. -1.
</event>
<event>
 5   0  0.5652631E-05  0.1703070E+04  0.7818609E-02  0.8759615E-01
       -2   -1    0    0    0  501  0.00000000000E+00  0.00000000000E+00  0.55697382723E+03  0.55697382723E+03  0.25500000920E-02 0. -1.
        2   -1    0    0  501    0  0.00000000000E+00  0.00000000000E+00 -0.13018776112E+04  0.13018776112E+04  0.25500000920E-02 0.  1.
    10030    2    1    2    0    0  0.00000000000E+00  0.00000000000E+00 -0.74490378394E+03  0.18588514384E+04  0.17030698819E+04 0.  0.
        2    1    3    3  502    0  0.40850969018E+03 -0.73256889233E+03 -0.53276965474E+03  0.99367039505E+03  0.25500000920E-02 0. -1.
       -2    1    3    3    0  502 -0.40850969018E+03  0.73256889233E+03 -0.21213412920E+03  0.86518104335E+03  0.25500000920E-02 0.  1.
</event>
<event>
 5   0  0.2993769E-05  0.1701788E+04  0.7818609E-02  0.8760345E-01
       -1   -1    0    0    0  501  0.00000000000E+00  0.00000000000E+00  0.69772016233E+03  0.69772016235E+03  0.50400001928E-02 0. -1.
        1   -1    0    0  501    0  0.00000000000E+00  0.00000000000E+00 -0.10376945964E+04  0.10376945964E+04  0.50400001928E-02 0.  1.
    10030    2    1    2    0    0  0.00000000000E+00  0.00000000000E+00 -0.33997443404E+03  0.17354147587E+04  0.17017878155E+04 0.  0.
        3    1    3    3  502    0  0.60073618314E+02 -0.18042533572E+03 -0.10157476519E+04  0.10333951055E+04  0.10100000352E+00 0.  1.
       -3    1    3    3    0  502 -0.60073618314E+02  0.18042533572E+03  0.67577321788E+03  0.70201965328E+03  0.10100000352E+00 0. -1.
</event>
<event>
 5   0  0.5652631E-05  0.1700406E+04  0.7818609E-02  0.8761133E-01
        2   -1    0    0  501    0  0.00000000000E+00  0.00000000000E+00  0.11346513997E+04  0.11346513997E+04  0.25500000920E-02 0.  1.
       -2   -1    0    0    0  501  0.00000000000E+00  0.00000000000E+00 -0.63706389002E+03  0.63706389002E+03  0.25500000920E-02 0. -1.
    10030    2    1    2    0    0  0.00000000000E+00  0.00000000000E+00  0.49758750966E+03  0.17717152897E+04  0.17004063450E+04 0.  0.
        2    1    3    3  502    0  0.23264646837E+02  0.41850098400E+03 -0.52193015129E+03  0.66939928311E+03  0.25500000920E-02 0. -1.
       -2    1    3    3    0  502 -0.23264646837E+02 -0.41850098400E+03  0.10195176609E+04  0.11023160066E+04  0.25500000920E-02 0.  1.
</event>
<event>
 5   0  0.2987859E-05  0.1699728E+04  0.7818609E-02  0.8761520E-01
       -1   -1    0    0    0  501  0.00000000000E+00  0.00000000000E+00  0.41588393302E+03  0.41588393305E+03  0.50400001928E-02 0.  1.
        1   -1    0    0  501    0  0.00000000000E+00  0.00000000000E+00 -0.17367076562E+04  0.17367076562E+04  0.50400001928E-02 0. -1.
    10030    2    1    2    0    0  0.00000000000E+00  0.00000000000E+00 -0.13208237232E+04  0.21525915893E+04  0.16997279907E+04 0.  0.
        5    1    3    3  502    0  0.53412129571E+03 -0.16332934108E+03 -0.14716061190E+04  0.15740421505E+04  0.46999998093E+01 0. -1.
       -5    1    3    3    0  502 -0.53412129571E+03  0.16332934108E+03  0.15078239580E+03  0.57854943874E+03  0.46999998093E+01 0.  1.
</event>
<event>
 5   0  0.2966258E-05  0.1701204E+04  0.7818609E-02  0.8760678E-01
        1   -1    0    0  501    0  0.00000000000E+00  0.00000000000E+00  0.57238666608E+03  0.57238666611E+03  0.50400001928E-02 0. -1.
       -1   -1    0    0    0  501  0.00000000000E+00  0.00000000000E+00 -0.12640478169E+04  0.12640478169E+04  0.50400001928E-02 0.  1.
    10030    2    1    2    0    0  0.00000000000E+00  0.00000000000E+00 -0.69166115085E+03  0.18364344830E+04  0.17012044154E+04 0.  0.
        4    1    3    3  502    0  0.72868479962E+03  0.29442741133E+03  0.53831480094E+01  0.78593869285E+03  0.12699999809E+01 0. -1.
       -4    1    3    3    0  502 -0.72868479962E+03 -0.29442741133E+03 -0.69704429886E+03  0.10504957902E+04  0.12699999809E+01 0.  1.
</event>
<event>
 5   0  0.5671132E-05  0.1694109E+04  0.7818609E-02  0.8764731E-01
       -2   -1    0    0    0  501  0.00000000000E+00  0.00000000000E+00  0.63061321169E+03  0.63061321169E+03  0.25500000920E-02 0. -1.
        2   -1    0    0  501    0  0.00000000000E+00  0.00000000000E+00 -0.11377833449E+04  0.11377833449E+04  0.25500000920E-02 0.  1.
    10030    2    1    2    0    0  0.00000000000E+00  0.00000000000E+00 -0.50717013317E+03  0.17683965566E+04  0.16941088623E+04 0.  0.
        3    1    3    3  502    0  0.23507763423E+03  0.29156662354E+03 -0.10466564330E+04  0.11116484557E+04  0.10100000352E+00 0.  1.
       -3    1    3    3    0  502 -0.23507763423E+03 -0.29156662354E+03  0.53948629984E+03  0.65674810087E+03  0.10100000352E+00 0. -1.
</event>
<event>
 5   0  0.2993769E-05  0.1690381E+04  0.7818609E-02  0.8766870E-01
       -1   -1    0    0    0  501  0.00000000000E+00  0.00000000000E+00  0.67583442361E+03  0.67583442363E+03  0.50400001928E-02 0.  1.
        1   -1    0    0  501    0  0.00000000000E+00  0.00000000000E+00 -0.10569848344E+04  0.10569848345E+04  0.50400001928E-02 0. -1.
    10030    2    1    2    0    0  0.00000000000E+00  0.00000000000E+00 -0.38115041083E+03  0.17328192581E+04  0.16903807102E+04 0.  0.
        3    1    3    3  502    0 -0.35593593215E+03  0.50730743867E+03 -0.77971731689E+03  0.99599715340E+03  0.10100000352E+00 0. -1.
       -3    1    3    3    0  502  0.35593593215E+03 -0.50730743867E+03  0.39856690606E+03  0.73682210467E+03  0.10100000352E+00 0.  1.
</event>
<event>
 5   0  0.2967704E-05  0.1699599E+04  0.7818609E-02  0.8761593E-01
       -1   -1    0    0    0  501  0.00000000000E+00  0.00000000000E+00  0.67432964013E+03  0.67432964015E+03  0.50400001928E-02 0.  1.
        1   -1    0    0  501    0  0.00000000000E+00  0.00000000000E+00 -0.10709287861E+04  0.10709287861E+04  0.50400001928E-02 0. -1.
    10030    2    1    2    0    0  0.00000000000E+00  0.00000000000E+00 -0.39659914593E+03  0.17452584262E+04  0.16995988032E+04 0.  0.
        2    1    3    3  502    0 -0.38404271611E+03 -0.74268112705E+03 -0.35435250091E+03  0.90809127249E+03  0.25500000920E-02 0. -1.
       -2    1    3    3    0  502  0.38404271611E+03  0.74268112705E+03 -0.42246645025E+02  0.83716715374E+03  0.25500000920E-02 0.  1.
</event>
<event>
 5   0  0.2967704E-05  0.1700079E+04  0.7818609E-02  0.8761320E-01
        1   -1    0    0  501    0  0.00000000000E+00  0.00000000000E+00  0.58086432165E+03  0.58086432167E+03  0.50400001928E-02 0.  1.
       -1   -1    0    0    0  501  0.00000000000E+00  0.00000000000E+00 -0.12439510544E+04  0.12439510544E+04  0.50400001928E-02 0. -1.
    10030    2    1    2    0    0  0.00000000000E+00  0.00000000000E+00 -0.66308673276E+03  0.18248153761E+04  0.17000785693E+04 0.  0.
        2    1    3    3  502    0 -0.75806273437E+03  0.15766894217E+03  0.44976189379E+02  0.77559104055E+03  0.25500000920E-02 0.  1.
       -2    1    3    3    0  502  0.75806273437E+03 -0.15766894217E+03 -0.70806292214E+03  0.10492243355E+04  0.25500000920E-02 0. -1.
</event>
<event>
 5   0  0.5755321E-05  0.1692563E+04  0.7818609E-02  0.8765617E-01
       -2   -1    0    0    0  501  0.00000000000E+00  0.00000000000E+00  0.11778164724E+04  0.11778164724E+04  0.25500000920E-02 0. -1.
        2   -1    0    0  501    0  0.00000000000E+00  0.00000000000E+00 -0.60806789007E+03  0.60806789008E+03  0.25500000920E-02 0.  1.
    10030    2    1    2    0    0  0.00000000000E+00  0.00000000000E+00  0.56974858234E+03  0.17858843625E+04  0.16925630000E+04 0.  0.
        4    1    3    3  502    0 -0.68514200104E+03 -0.48377515230E+03  0.40393556707E+03  0.93092615971E+03  0.12699999809E+01 0.  1.
       -4    1    3    3    0  502  0.68514200104E+03  0.48377515230E+03  0.16581301527E+03  0.85495820279E+03  0.12699999809E+01 0. -1.
</event>
<event>
 5   0  0.2911632E-05  0.1701022E+04  0.7818609E-02  0.8760782E-01
       -1   -1    0    0    0  501  0.00000000000E+00  0.00000000000E+00  0.81865016030E+03  0.81865016031E+03  0.50400001928E-02 0. -1.
        1   -1    0    0  501    0  0.00000000000E+00  0.00000000000E+00 -0.88361201771E+03  0.88361201772E+03  0.50400001928E-02 0.  1.
    10030    2    1    2    0    0  0.00000000000E+00  0.00000000000E+00 -0.64961857407E+02  0.17022621780E+04  0.17010221868E+04 0.  0.
        1    1    3    3  502    0 -0.41604615006E+03  0.10197606172E+03  0.70281696678E+03  0.82307059537E+03  0.50400001928E-02 0. -1.
       -1    1    3    3    0  502  0.41604615006E+03 -0.10197606172E+03 -0.76777882418E+03  0.87919158267E+03  0.50400001928E-02 0.  1.
</event>
<event>
 5   0  0.2911632E-05  0.1698696E+04  0.7818609E-02  0.8762108E-01
        1   -1    0    0  501    0  0.00000000000E+00  0.00000000000E+00  0.13764640937E+04  0.13764640937E+04  0.50400001928E-02 0.  1.
       -1   -1    0    0    0  501  0.00000000000E+00  0.00000000000E+00 -0.52409083225E+03  0.52409083228E+03  0.50400001928E-02 0. -1.
    10030    2    1    2    0    0  0.00000000000E+00  0.00000000000E+00  0.85237326147E+03  0.19005549260E+04  0.16986962206E+04 0.  0.
        1    1    3    3  502    0  0.11786493284E+03  0.78691987631E+03  0.93802926162E+02  0.80120785263E+03  0.50400001928E-02 0. -1.
       -1    1    3    3    0  502 -0.11786493284E+03 -0.78691987631E+03  0.75857033531E+03  0.10993470734E+04  0.50400001928E-02 0.  1.
</event>
<event>
 5   0  0.5859822E-05  0.1753124E+04  0.7818609E-02  0.8731633E-01
        2   -1    0    0  501    0  0.00000000000E+00  0.00000000000E+00  0.19255088685E+04  0.19255088685E+04  0.25500000920E-02 0.  1.
       -2   -1    0    0    0  501  0.00000000000E+00  0.00000000000E+00 -0.39904291864E+03  0.39904291865E+03  0.25500000920E-02 0. -1.
    10030    2    1    2    0    0  0.00000000000E+00  0.00000000000E+00  0.15264659498E+04  0.23245517871E+04  0.17531237021E+04 0.  0.
        5    1    3    3  502    0 -0.18493177910E+03  0.47019872939E+03  0.17129787031E+04  0.17859464537E+04  0.46999998093E+01 0.  1.
       -5    1    3    3    0  502  0.18493177910E+03 -0.47019872939E+03 -0.18651275332E+03  0.53860533342E+03  0.46999998093E+01 0. -1.
</event>
<event>
 5   0  0.5821584E-05  0.1696210E+04  0.7818609E-02  0.8763529E-01
        2   -1    0    0  501    0  0.00000000000E+00  0.00000000000E+00  0.87501048960E+03  0.87501048960E+03  0.25500000920E-02 0.  1.
       -2   -1    0    0    0  501  0.00000000000E+00  0.00000000000E+00 -0.82202717304E+03  0.82202717304E+03  0.25500000920E-02 0. -1.
    10030    2    1    2    0    0  0.00000000000E+00  0.00000000000E+00  0.52983316563E+02  0.16970376626E+04  0.16962103633E+04 0.  0.
        1    1    3    3  502    0 -0.43600030260E+03  0.32058395209E+03 -0.62682917991E+03  0.82812146151E+03  0.50400001928E-02 0. -1.
       -1    1    3    3    0  502  0.43600030260E+03 -0.32058395209E+03  0.67981249647E+03  0.86891620113E+03  0.50400001928E-02 0.  1.
</event>
<event>
 5   0  0.5821584E-05  0.1699672E+04  0.7818609E-02  0.8761552E-01
        2   -1    0    0  501    0  0.00000000000E+00  0.00000000000E+00  0.90775418552E+03  0.90775418552E+03  0.25500000920E-02 0. -1.
       -2   -1    0    0    0  501  0.00000000000E+00  0.00000000000E+00 -0.79561279805E+03  0.79561279805E+03  0.25500000920E-02 0.  1.
    10030    2    1    2    0    0  0.00000000000E+00  0.00000000000E+00  0.11214138747E+03  0.17033669836E+04  0.16996715536E+04 0.  0.
        1    1    3    3  502    0  0.11230770951E+03 -0.65441568409E+01 -0.78811757317E+03  0.79610624716E+03  0.50400001928E-02 0.  1.
       -1    1    3    3    0  502 -0.11230770951E+03  0.65441568409E+01  0.90025896064E+03  0.90726073641E+03  0.50400001928E-02 0. -1.
</event>
<event>
 5   0  0.2993769E-05  0.1702436E+04  0.7818609E-02  0.8759976E-01
        1   -1    0    0  501    0  0.00000000000E+00  0.00000000000E+00  0.10430558876E+04  0.10430558876E+04  0.50400001928E-02 0.  1.
       -1   -1    0    0    0  501  0.00000000000E+00  0.00000000000E+00 -0.69466253418E+03  0.69466253420E+03  0.50400001928E-02 0. -1.
    10030    2    1    2    0    0  0.00000000000E+00  0.00000000000E+00  0.34839335344E+03  0.17377184218E+04  0.17024357212E+04 0.  0.
        3    1    3    3  502    0  0.31353378294E+03  0.78632838557E+03  0.26524208796E+03  0.88711281043E+03  0.10100000352E+00 0.  1.
       -3    1    3    3    0  502 -0.31353378294E+03 -0.78632838557E+03  0.83151265481E+02  0.85060561141E+03  0.10100000352E+00 0. -1.
</event>
<event>
 5   0  0.5859822E-05  0.1692080E+04  0.7818609E-02  0.8765894E-01
        2   -1    0    0  501    0  0.00000000000E+00  0.00000000000E+00  0.12486080618E+04  0.12486080618E+04  0.25500000920E-02 0.  1.
       -2   -1    0    0    0  501  0.00000000000E+00  0.00000000000E+00 -0.57326561824E+03  0.57326561825E+03  0.25500000920E-02 0. -1.
    10030    2    1    2    0    0  0.00000000000E+00  0.00000000000E+00  0.67534244358E+03  0.18218736801E+04  0.16920804620E+04 0.  0.
        5    1    3    3  502    0  0.11917192659E+03  0.28984345296E+03 -0.50845196773E+03  0.59729110892E+03  0.46999998093E+01 0. -1.
       -5    1    3    3    0  502 -0.11917192659E+03 -0.28984345296E+03  0.11837944113E+04  0.12245825711E+04  0.46999998093E+01 0.  1.
</event>
<event>
 5   0  0.5652631E-05  0.1694697E+04  0.7818609E-02  0.8764394E-01
       -2   -1    0    0    0  501  0.00000000000E+00  0.00000000000E+00  0.59266636038E+03  0.59266636038E+03  0.25500000920E-02 0.  1.
        2   -1    0    0  501    0  0.00000000000E+00  0.00000000000E+00 -0.12114739921E+04  0.12114739921E+04  0.25500000920E-02 0. -1.
    10030    2    1    2    0    0  0.00000000000E+00  0.00000000000E+00 -0.61880763176E+03  0.18041403525E+04  0.16946974734E+04 0.  0.
        2    1    3    3  502    0  0.41380359919E+02 -0.51421081115E+03 -0.10250316011E+04  0.11475255447E+04  0.25500000920E-02 0. -1.
       -2    1    3    3    0  502 -0.41380359919E+02  0.51421081115E+03  0.40622396938E+03  0.65661480778E+03  0.25500000920E-02 0.  1.
</event>
<event>
 5   0  0.2987859E-05  0.1700044E+04  0.7818609E-02  0.8761340E-01
        1   -1    0    0  501    0  0.00000000000E+00  0.00000000000E+00  0.14185237402E+04  0.14185237402E+04  0.50400001928E-02 0.  1.
       -1   -1    0    0    0  501  0.00000000000E+00  0.00000000000E+00 -0.50935840721E+03  0.50935840724E+03  0.50400001928E-02 0. -1.
    10030    2    1    2    0    0  0.00000000000E+00  0.00000000000E+00  0.90916533299E+03  0.19278821475E+04  0.17000435205E+04 0.  0.
        5    1    3    3  502    0 -0.40546887571E+03 -0.73764106733E+03  0.58874030979E+03  0.10272081560E+04  0.46999998093E+01 0.  1.
       -5    1    3    3    0  502  0.40546887571E+03  0.73764106733E+03  0.32042502320E+03  0.90067399145E+03  0.46999998093E+01 0. -1.
</event>
<event>
 5   0  0.5821584E-05  0.1697035E+04  0.7818609E-02  0.8763057E-01
        2   -1    0    0  501    0  0.00000000000E+00  0.00000000000E+00  0.10366835254E+04  0.10366835254E+04  0.25500000920E-02 0. -1.
       -2   -1    0    0    0  501  0.00000000000E+00  0.00000000000E+00 -0.69450513528E+03  0.69450513529E+03  0.25500000920E-02 0.  1.
    10030    2    1    2    0    0  0.00000000000E+00  0.00000000000E+00  0.34217839014E+03  0.17311886607E+04  0.16970350993E+04 0.  0.
        1    1    3    3  502    0  0.70371999334E+03 -0.28816969033E+03 -0.21294221259E+03  0.78968853695E+03  0.50400001928E-02 0.  1.
       -1    1    3    3    0  502 -0.70371999334E+03  0.28816969033E+03  0.55512060273E+03  0.94150012377E+03  0.50400001928E-02 0. -1.
</event>
<event>
 5   0  0.5755321E-05  0.1695974E+04  0.7818609E-02  0.8763664E-01
       -2   -1    0    0    0  501  0.00000000000E+00  0.00000000000E+00  0.37670257379E+03  0.37670257380E+03  0.25500000920E-02 0. -1.
        2   -1    0    0  501    0  0.00000000000E+00  0.00000000000E+00 -0.19088854264E+04  0.19088854264E+04  0.25500000920E-02 0.  1.
    10030    2    1    2    0    0  0.00000000000E+00  0.00000000000E+00 -0.15321828526E+04  0.22855880002E+04  0.16959741191E+04 0.  0.
        4    1    3    3  502    0  0.77553668989E+03  0.13271930665E+03 -0.11922762530E+04  0.14284942591E+04  0.12699999809E+01 0.  1.
       -4    1    3    3    0  502 -0.77553668989E+03 -0.13271930665E+03 -0.33990659955E+03  0.85709374110E+03  0.12699999809E+01 0. -1.
</event>
<event>
 5   0  0.5821584E-05  0.1704942E+04  0.7818609E-02  0.8758551E-01
       -2   -1    0    0    0  501  0.00000000000E+00  0.00000000000E+00  0.61376830937E+03  0.61376830937E+03  0.25500000920E-02 0.  1.
        2   -1    0    0  501    0  0.00000000000E+00  0.00000000000E+00 -0.11840080256E+04  0.11840080256E+04  0.25500000920E-02 0. -1.
    10030    2    1    2    0    0  0.00000000000E+00  0.00000000000E+00 -0.57023971619E+03  0.17977763349E+04  0.17049417634E+04 0.  0.
        1    1    3    3  502    0 -0.55658438707E+03  0.54910327091E+03 -0.64333203576E+03  0.10125100939E+04  0.50400001928E-02 0. -1.
       -1    1    3    3    0  502  0.55658438707E+03 -0.54910327091E+03  0.73092319567E+02  0.78526624100E+03  0.50400001928E-02 0.  1.
</event>
<event>
 5   0  0.5652631E-05  0.1693773E+04  0.7818609E-02  0.8764924E-01
        2   -1    0    0  501    0  0.00000000000E+00  0.00000000000E+00  0.14414909568E+04  0.14414909568E+04  0.25500000920E-02 0.  1.
       -2   -1    0    0    0  501  0.00000000000E+00  0.00000000000E+00 -0.49755180932E+03  0.49755180933E+03  0.25500000920E-02 0. -1.
    10030    2    1    2    0    0  0.00000000000E+00  0.00000000000E+00  0.94393914748E+03  0.19390427661E+04  0.16937726337E+04 0.  0.
        2    1    3    3  502    0  0.49757939699E+03  0.68451176102E+03  0.50950155057E+03  0.98779220351E+03  0.25500000920E-02 0. -1.
       -2    1    3    3    0  502 -0.49757939699E+03 -0.68451176102E+03  0.43443759691E+03  0.95125056263E+03  0.25500000920E-02 0.  1.
</event>
<event>
 5   0  0.2967704E-05  0.1695943E+04  0.7818609E-02  0.8763681E-01
       -1   -1    0    0    0  501  0.00000000000E+00  0.00000000000E+00  0.33459924717E+03  0.33459924721E+03  0.50400001928E-02 0.  1.
        1   -1    0    0  501    0  0.00000000000E+00  0.00000000000E+00 -0.21490062600E+04  0.21490062600E+04  0.50400001928E-02 0. -1.
    10030    2    1    2    0    0  0.00000000000E+00  0.00000000000E+00 -0.18144070129E+04  0.24836055073E+04  0.16959432500E+04 0.  0.
        2    1    3    3  502    0  0.24138617229E+03 -0.62160630375E+03 -0.16743154751E+04  0.18022191851E+04  0.25500000920E-02 0. -1.
       -2    1    3    3    0  502 -0.24138617229E+03  0.62160630375E+03 -0.14009153776E+03  0.68138632213E+03  0.25500000920E-02 0.  1.
</event>
<event>
 5   0  0.2967704E-05  0.1704345E+04  0.7818609E-02  0.8758890E-01
        1   -1    0    0  501    0  0.00000000000E+00  0.00000000000E+00  0.12196907921E+04  0.12196907921E+04  0.50400001928E-02 0. -1.
       -1   -1    0    0    0  501  0.00000000000E+00  0.00000000000E+00 -0.59539495096E+03  0.59539495098E+03  0.50400001928E-02 0.  1.
    10030    2    1    2    0    0  0.00000000000E+00  0.00000000000E+00  0.62429584113E+03  0.18150857431E+04  0.17043447297E+04 0.  0.
        2    1    3    3  502    0  0.18333720530E+03 -0.19849696912E+03 -0.54856342229E+03  0.61150258044E+03  0.25500000920E-02 0.  1.
       -2    1    3    3    0  502 -0.18333720530E+03  0.19849696912E+03  0.11728592634E+04  0.12035831626E+04  0.25500000920E-02 0. -1.
</event>
<event>
 5   0  0.5821584E-05  0.1705921E+04  0.7818609E-02  0.8757995E-01
       -2   -1    0    0    0  501  0.00000000000E+00  0.00000000000E+00  0.97504397029E+03  0.97504397029E+03  0.25500000920E-02 0.  1.
        2   -1    0    0  501    0  0.00000000000E+00  0.00000000000E+00 -0.74616291824E+03  0.74616291825E+03  0.25500000920E-02 0. -1.
    10030    2    1    2    0    0  0.00000000000E+00  0.00000000000E+00  0.22888105204E+03  0.17212068885E+04  0.17059210466E+04 0.  0.
        1    1    3    3  502    0 -0.35562758051E+03 -0.77527822214E+03  0.11061757466E+03  0.86009507939E+03  0.50400001928E-02 0. -1.
       -1    1    3    3    0  502  0.35562758051E+03  0.77527822214E+03  0.11826347738E+03  0.86111180915E+03  0.50400001928E-02 0.  1.
</event>
<event>
 5   0  0.2911632E-05  0.1693762E+04  0.7818609E-02  0.8764930E-01
       -1   -1    0    0    0  501  0.00000000000E+00  0.00000000000E+00  0.78213368141E+03  0.78213368142E+03  0.50400001928E-02 0.  1.
        1   -1    0    0  501    0  0.00000000000E+00  0.00000000000E+00 -0.91698794050E+03  0.91698794052E+03  0.50400001928E-02 0. -1.
    10030    2    1    2    0    0  0.00000000000E+00  0.00000000000E+00 -0.13485425909E+03  0.16991216219E+04  0.16937616760E+04 0.  0.
        1    1    3    3  502    0  0.44518216084E+03  0.71432349375E+03 -0.16132859985E+03  0.85701349302E+03  0.50400001928E-02 0. -1.
       -1    1    3    3    0  502 -0.44518216084E+03 -0.71432349375E+03  0.26474340760E+02  0.84210812892E+03  0.50400001928E-02 0.  1.
</event>
<event>
 5   0  0.2987859E-05  0.1702476E+04  0.7818609E-02  0.8759953E-01
        1   -1    0    0  501    0  0.00000000000E+00  0.00000000000E+00  0.62691383642E+03  0.62691383644E+03  0.50400001928E-02 0. -1.
       -1   -1    0    0    0  501  0.00000000000E+00  0.00000000000E+00 -0.11558310455E+04  0.11558310456E+04  0.50400001928E-02 0.  1.
    10030    2    1    2    0    0  0.00000000000E+00  0.00000000000E+00 -0.52891720912E+03  0.17827448820E+04  0.17024764022E+04 0.  0.
        5    1    3    3  502    0 -0.12640161648E+03 -0.49852692036E+03 -0.97472913488E+03  0.11021004652E+04  0.46999998093E+01 0.  1.
       -5    1    3    3    0  502  0.12640161648E+03  0.49852692036E+03  0.44581192576E+03  0.68064441680E+03  0.46999998093E+01 0. -1.
</event>
<event>
 5   0  0.5671132E-05  0.1698626E+04  0.7818609E-02  0.8762148E-01
       -2   -1    0    0    0  501  0.00000000000E+00  0.00000000000E+00  0.57724746534E+03  0.57724746535E+03  0.25500000920E-02 0.  1.
        2   -1    0    0  501    0  0.00000000000E+00  0.00000000000E+00 -0.12496076607E+04  0.12496076607E+04  0.25500000920E-02 0. -1.
    10030    2    1    2    0    0  0.00000000000E+00  0.00000000000E+00 -0.67236019537E+03  0.18268551261E+04  0.16986263330E+04 0.  0.
        3    1    3    3  502    0  0.42977114459E+03 -0.31462128010E+03  0.37530576932E+03  0.65157057737E+03  0.10100000352E+00 0.  1.
       -3    1    3    3    0  502 -0.42977114459E+03  0.31462128010E+03 -0.10476659647E+04  0.11752845487E+04  0.10100000352E+00 0. -1.
</event>
<event>
 5   0  0.2966258E-05  0.1700698E+04  0.7818609E-02  0.8760967E-01
       -1   -1    0    0    0  501  0.00000000000E+00  0.00000000000E+00  0.18399111017E+04  0.18399111017E+04  0.50400001928E-02 0.  1.
        1   -1    0    0  501    0  0.00000000000E+00  0.00000000000E+00 -0.39300442950E+03  0.39300442953E+03  0.50400001928E-02 0. -1.
    10030    2    1    2    0    0  0.00000000000E+00  0.00000000000E+00  0.14469066722E+04  0.22329155312E+04  0.17006977543E+04 0.  0.
        4    1    3    3  502    0  0.78604817574E+03 -0.18326013199E+03  0.10748596622E+04  0.13441655095E+04  0.12699999809E+01 0. -1.
       -4    1    3    3    0  502 -0.78604817574E+03  0.18326013199E+03  0.37204700994E+03  0.88875002169E+03  0.12699999809E+01 0.  1.
</event>
<event>
 5   0  0.5652631E-05  0.1704494E+04  0.7818609E-02  0.8758805E-01
       -2   -1    0    0    0  501  0.00000000000E+00  0.00000000000E+00  0.31030049059E+03  0.31030049060E+03  0.25500000920E-02 0. -1.
        2   -1    0    0  501    0  0.00000000000E+00  0.00000000000E+00 -0.23407158091E+04  0.23407158091E+04  0.25500000920E-02 0.  1.
    10030    2    1    2    0    0  0.00000000000E+00  0.00000000000E+00 -0.20304153186E+04  0.26510162997E+04  0.17044943695E+04 0.  0.
        2    1    3    3  502    0  0.61765416349E+03  0.57627142738E+03 -0.11907568444E+04  0.14599613989E+04  0.25500000920E-02 0.  1.
       -2    1    3    3    0  502 -0.61765416349E+03 -0.57627142738E+03 -0.83965847415E+03  0.11910549009E+04  0.25500000920E-02 0. -1.
</event>
<event>
 5   0  0.2966258E-05  0.1699909E+04  0.7818609E-02  0.8761416E-01
       -1   -1    0    0    0  501  0.00000000000E+00  0.00000000000E+00  0.14920745185E+04  0.14920745185E+04  0.50400001928E-02 0.  1.
        1   -1    0    0  501    0  0.00000000000E+00  0.00000000000E+00 -0.48417319971E+03  0.48417319974E+03  0.50400001928E-02 0. -1.
    10030    2    1    2    0    0  0.00000000000E+00  0.00000000000E+00  0.10079013188E+04  0.19762477183E+04  0.16999088139E+04 0.  0.
        4    1    3    3  502    0  0.43466202880E+03 -0.22669439089E+03 -0.30325477306E+03  0.57644296892E+03  0.12699999809E+01 0. -1.
       -4    1    3    3    0  502 -0.43466202880E+03  0.22669439089E+03  0.13111560919E+04  0.13998047493E+04  0.12699999809E+01 0.  1.
</event>
<event>
 5   0  0.2911632E-05  0.1700455E+04  0.7818609E-02  0.8761105E-01
       -1   -1    0    0    0  501  0.00000000000E+00  0.00000000000E+00  0.46001102866E+03  0.46001102869E+03  0.50400001928E-02 0.  1.
        1   -1    0    0  501    0  0.00000000000E+00  0.00000000000E+00 -0.15714562827E+04  0.15714562827E+04  0.50400001928E-02 0. -1.
    10030    2    1    2    0    0  0.00000000000E+00  0.00000000000E+00 -0.11114452540E+04  0.20314673114E+04  0.17004554932E+04 0.  0.
        1    1    3    3  502    0  0.31829231426E+03 -0.18761743069E+03 -0.14705370525E+04  0.15162419070E+04  0.50400001928E-02 0. -1.
       -1    1    3    3    0  502 -0.31829231426E+03  0.18761743069E+03  0.35909179847E+03  0.51522540443E+03  0.50400001928E-02 0.  1.
</event>
<event>
 5   0  0.5859822E-05  0.1700722E+04  0.7818609E-02  0.8760953E-01
       -2   -1    0    0    0  501  0.00000000000E+00  0.00000000000E+00  0.53513335328E+03  0.53513335329E+03  0.25500000920E-02 0.  1.
        2   -1    0    0  501    0  0.00000000000E+00  0.00000000000E+00 -0.13512778835E+04  0.13512778836E+04  0.25500000920E-02 0. -1.
    10030    2    1    2    0    0  0.00000000000E+00  0.00000000000E+00 -0.81614453027E+03  0.18864112368E+04  0.17007220408E+04 0.  0.
        5    1    3    3  502    0 -0.34710981686E+03  0.77189543686E+03 -0.31671450088E+03  0.90368022855E+03  0.46999998093E+01 0. -1.
       -5    1    3    3    0  502  0.34710981686E+03 -0.77189543686E+03 -0.49943002938E+03  0.98273100829E+03  0.46999998093E+01 0.  1.
</event>
<event>
 5   0  0.2993769E-05  0.1718423E+04  0.7818609E-02  0.8750926E-01
        1   -1    0    0  501    0  0.00000000000E+00  0.00000000000E+00  0.81465964639E+03  0.81465964640E+03  0.50400001928E-02 0.  1.
       -1   -1    0    0    0  501  0.00000000000E+00  0.00000000000E+00 -0.90619996475E+03  0.90619996476E+03  0.50400001928E-02 0. -1.
    10030    2    1    2    0    0  0.00000000000E+00  0.00000000000E+00 -0.91540318359E+02  0.17208596112E+04  0.17184231643E+04 0.  0.
        3    1    3    3  502    0 -0.50652974901E+03 -0.66461229151E+03 -0.24596019270E+03  0.87107882034E+03  0.10100000352E+00 0. -1.
       -3    1    3    3    0  502  0.50652974901E+03  0.66461229151E+03  0.15441987434E+03  0.84978079082E+03  0.10100000352E+00 0.  1.
</event>
<event>
 5   0  0.2993769E-05  0.1695165E+04  0.7818609E-02  0.8764127E-01
        1   -1    0    0  501    0  0.00000000000E+00  0.00000000000E+00  0.27434836572E+04  0.27434836572E+04  0.50400001928E-02 0.  1.
       -1   -1    0    0    0  501  0.00000000000E+00  0.00000000000E+00 -0.26185534088E+03  0.26185534093E+03  0.50400001928E-02 0. -1.
    10030    2    1    2    0    0  0.00000000000E+00  0.00000000000E+00  0.24816283163E+04  0.30053389981E+04  0.16951647098E+04 0.  0.
        3    1    3    3  502    0  0.58966473765E+03  0.34389035342E+03  0.35007057611E+03  0.76714698491E+03  0.10100000352E+00 0. -1.
       -3    1    3    3    0  502 -0.58966473765E+03 -0.34389035342E+03  0.21315577402E+04  0.22381920132E+04  0.10100000352E+00 0.  1.
</event>
<event>
 5   0  0.5652631E-05  0.1715564E+04  0.7818609E-02  0.8752537E-01
       -2   -1    0    0    0  501  0.00000000000E+00  0.00000000000E+00  0.58042257901E+03  0.58042257902E+03  0.25500000920E-02 0.  1.
        2   -1    0    0  501    0  0.00000000000E+00  0.00000000000E+00 -0.12676795411E+04  0.12676795411E+04  0.25500000920E-02 0. -1.
    10030    2    1    2    0    0  0.00000000000E+00  0.00000000000E+00 -0.68725696204E+03  0.18481021201E+04  0.17155638474E+04 0.  0.
        2    1    3    3  502    0  0.46530686082E+03 -0.19287589712E+03 -0.10915875717E+04  0.12021959130E+04  0.25500000920E-02 0. -1.
       -2    1    3    3    0  502 -0.46530686082E+03  0.19287589712E+03  0.40433060970E+03  0.64590620709E+03  0.25500000920E-02 0.  1.
</event>
<event>
 5   0  0.5755321E-05  0.1698238E+04  0.7818609E-02  0.8762370E-01
        2   -1    0    0  501    0  0.00000000000E+00  0.00000000000E+00  0.14651080377E+04  0.14651080377E+04  0.25500000920E-02 0. -1.
       -2   -1    0    0    0  501  0.00000000000E+00  0.00000000000E+00 -0.49211577228E+03  0.49211577228E+03  0.25500000920E-02 0.  1.
    10030    2    1    2    0    0  0.00000000000E+00  0.00000000000E+00  0.97299226541E+03  0.19572238100E+04  0.16982376435E+04 0.  0.
        4    1    3    3  502    0  0.50769931150E+03  0.65046752420E+03  0.71738411692E+03  0.10933929646E+04  0.12699999809E+01 0. -1.
       -4    1    3    3    0  502 -0.50769931150E+03 -0.65046752420E+03  0.25560814848E+03  0.86383084537E+03  0.12699999809E+01 0.  1.
</event>
<event>
 5   0  0.2993769E-05  0.1700723E+04  0.7818609E-02  0.8760952E-01
        1   -1    0    0  501    0  0.00000000000E+00  0.00000000000E+00  0.10945860258E+04  0.10945860258E+04  0.50400001928E-02 0.  1.
       -1   -1    0    0    0  501  0.00000000000E+00  0.00000000000E+00 -0.66062854750E+03  0.66062854752E+03  0.50400001928E-02 0. -1.
    10030    2    1    2    0    0  0.00000000000E+00  0.00000000000E+00  0.43395747829E+03  0.17552145733E+04  0.17007231125E+04 0.  0.
        3    1    3    3  502    0 -0.64161350066E+03 -0.26222122389E+03  0.72539540698E+03  0.10033077101E+04  0.10100000352E+00 0.  1.
       -3    1    3    3    0  502  0.64161350066E+03  0.26222122389E+03 -0.29143792869E+03  0.75190686322E+03  0.10100000352E+00 0. -1.
</event>
<event>
 5   0  0.5652631E-05  0.1698518E+04  0.7818609E-02  0.8762210E-01
        2   -1    0    0  501    0  0.00000000000E+00  0.00000000000E+00  0.13699870175E+04  0.13699870175E+04  0.25500000920E-02 0. -1.
       -2   -1    0    0    0  501  0.00000000000E+00  0.00000000000E+00 -0.52645790447E+03  0.52645790447E+03  0.25500000920E-02 0.  1.
    10030    2    1    2    0    0  0.00000000000E+00  0.00000000000E+00  0.84352911306E+03  0.18964449220E+04  0.16985175824E+04 0.  0.
        2    1    3    3  502    0  0.76861167322E+03  0.29323805445E+03  0.65726503419E+03  0.10529718828E+04  0.25500000920E-02 0. -1.
       -2    1    3    3    0  502 -0.76861167322E+03 -0.29323805445E+03  0.18626407887E+03  0.84347303921E+03  0.25500000920E-02 0.  1.
</event>
<event>
 5   0  0.5755321E-05  0.1651772E+04  0.7818609E-02  0.8789359E-01
        2   -1    0    0  501    0  0.00000000000E+00  0.00000000000E+00  0.41633885841E+03  0.41633885842E+03  0.25500000920E-02 0. -1.
       -2   -1    0    0    0  501  0.00000000000E+00  0.00000000000E+00 -0.16382997741E+04  0.16382997741E+04  0.25500000920E-02 0.  1.
    10030    2    1    2    0    0  0.00000000000E+00  0.00000000000E+00 -0.12219609157E+04  0.20546386326E+04  0.16517722091E+04 0.  0.
        4    1    3    3  502    0  0.51099506503E+03 -0.63025732331E+03 -0.41929883467E+03  0.91331997445E+03  0.12699999809E+01 0.  1.
       -4    1    3    3    0  502 -0.51099506503E+03  0.63025732331E+03 -0.80266208106E+03  0.11413186581E+04  0.12699999809E+01 0. -1.
</event>
<event>
 5   0  0.5671132E-05  0.1703619E+04  0.7818609E-02  0.8759303E-01
       -2   -1    0    0    0  501  0.00000000000E+00  0.00000000000E+00  0.98965058152E+03  0.98965058152E+03  0.25500000920E-02 0. -1.
        2   -1    0    0  501    0  0.00000000000E+00  0.00000000000E+00 -0.73316693581E+03  0.73316693582E+03  0.25500000920E-02 0.  1.
    10030    2    1    2    0    0  0.00000000000E+00  0.00000000000E+00  0.25648364571E+03  0.17228175173E+04  0.17036186010E+04 0.  0.
        3    1    3    3  502    0  0.11275453201E+03  0.27932470176E+03 -0.67750785761E+03  0.74145315484E+03  0.10100000352E+00 0.  1.
       -3    1    3    3    0  502 -0.11275453201E+03 -0.27932470176E+03  0.93399150332E+03  0.98136436250E+03  0.10100000352E+00 0. -1.
</event>
<event>
 5   0  0.2993769E-05  0.1698285E+04  0.7818609E-02  0.8762343E-01
       -1   -1    0    0    0  501  0.00000000000E+00  0.00000000000E+00  0.42914468519E+03  0.42914468522E+03  0.50400001928E-02 0.  1.
        1   -1    0    0  501    0  0.00000000000E+00  0.00000000000E+00 -0.16801861712E+04  0.16801861712E+04  0.50400001928E-02 0. -1.
    10030    2    1    2    0    0  0.00000000000E+00  0.00000000000E+00 -0.12510414860E+04  0.21093308564E+04  0.16982849767E+04 0.  0.
        3    1    3    3  502    0  0.10429877378E+03 -0.68785216694E+03 -0.20834055916E+02  0.69602651233E+03  0.10100000352E+00 0.  1.
       -3    1    3    3    0  502 -0.10429877378E+03  0.68785216694E+03 -0.12302074301E+04  0.14133043441E+04  0.10100000352E+00 0. -1.
</event>
<event>
 5   0  0.5652631E-05  0.1700153E+04  0.7818609E-02  0.8761277E-01
       -2   -1    0    0    0  501  0.00000000000E+00  0.00000000000E+00  0.35697784595E+03  0.35697784596E+03  0.25500000920E-02 0. -1.
        2   -1    0    0  501    0  0.00000000000E+00  0.00000000000E+00 -0.20243002177E+04  0.20243002177E+04  0.25500000920E-02 0.  1.
    10030    2    1    2    0    0  0.00000000000E+00  0.00000000000E+00 -0.16673223717E+04  0.23812780636E+04  0.17001533240E+04 0.  0.
        2    1    3    3  502    0 -0.58919249928E+03 -0.56401346518E+03 -0.49817895401E+03  0.95574120992E+03  0.25500000920E-02 0. -1.
       -2    1    3    3    0  502  0.58919249928E+03  0.56401346518E+03 -0.11691434177E+04  0.14255368537E+04  0.25500000920E-02 0.  1.
</event>
<event>
 5   0  0.2098250E-05  0.1699232E+04  0.7818609E-02  0.8761803E-01
        3   -1    0    0  501    0  0.00000000000E+00  0.00000000000E+00  0.17423126981E+04  0.17423127010E+04  0.10100000352E+00 0.  1.
       -3   -1    0    0    0  501  0.00000000000E+00  0.00000000000E+00 -0.41430390145E+03  0.41430391376E+03  0.10100000352E+00 0. -1.
    10030    2    1    2    0    0  0.00000000000E+00  0.00000000000E+00  0.13280087966E+04  0.21566166148E+04  0.16992315496E+04 0.  0.
        4    1    3    3  502    0  0.72095419801E+02  0.49721004682E+03 -0.20556790470E+03  0.54284008378E+03  0.12699999809E+01 0. -1.
       -4    1    3    3    0  502 -0.72095419801E+02 -0.49721004682E+03  0.15335767013E+04  0.16137765310E+04  0.12699999809E+01 0.  1.
</event>
<event>
 5   0  0.2966258E-05  0.1701871E+04  0.7818609E-02  0.8760298E-01
       -1   -1    0    0    0  501  0.00000000000E+00  0.00000000000E+00  0.72390617349E+03  0.72390617351E+03  0.50400001928E-02 0.  1.
        1   -1    0    0  501    0  0.00000000000E+00  0.00000000000E+00 -0.10002552840E+04  0.10002552840E+04  0.50400001928E-02 0. -1.
    10030    2    1    2    0    0  0.00000000000E+00  0.00000000000E+00 -0.27634911047E+03  0.17241614575E+04  0.17018707062E+04 0.  0.
        4    1    3    3  502    0  0.67074796230E+03  0.51007761522E+03 -0.18271703783E+02  0.84286266410E+03  0.12699999809E+01 0. -1.
       -4    1    3    3    0  502 -0.67074796230E+03 -0.51007761522E+03 -0.25807740668E+03  0.88129879338E+03  0.12699999809E+01 0.  1.
</event>
<event>
 5   0  0.5652631E-05  0.1698238E+04  0.7818609E-02  0.8762370E-01
       -2   -1    0    0    0  501  0.00000000000E+00  0.00000000000E+00  0.59513494620E+03  0.59513494620E+03  0.25500000920E-02 0. -1.
        2   -1    0    0  501    0  0.00000000000E+00  0.00000000000E+00 -0.12114956032E+04  0.12114956032E+04  0.25500000920E-02 0.  1.
    10030    2    1    2    0    0  0.00000000000E+00  0.00000000000E+00 -0.61636065697E+03  0.18066305494E+04  0.16982383468E+04 0.  0.
        2    1    3    3  502    0 -0.39527635576E+03 -0.73375081992E+03 -0.48093243921E+03  0.96225239633E+03  0.25500000920E-02 0.  1.
       -2    1    3    3    0  502  0.39527635576E+03  0.73375081992E+03 -0.13542821776E+03  0.84437815304E+03  0.25500000920E-02 0. -1.
</event>
<event>
 5   0  0.2987859E-05  0.1699560E+04  0.7818609E-02  0.8761615E-01
        1   -1    0    0  501    0  0.00000000000E+00  0.00000000000E+00  0.11318312811E+04  0.11318312811E+04  0.50400001928E-02 0.  1.
       -1   -1    0    0    0  501  0.00000000000E+00  0.00000000000E+00 -0.63801562904E+03  0.63801562906E+03  0.50400001928E-02 0. -1.
    10030    2    1    2    0    0  0.00000000000E+00  0.00000000000E+00  0.49381565210E+03  0.17698469102E+04  0.16995599982E+04 0.  0.
        5    1    3    3  502    0  0.25262530202E+03 -0.78640018983E+03  0.45481201763E+03  0.94293205650E+03  0.46999998093E+01 0.  1.
       -5    1    3    3    0  502 -0.25262530202E+03  0.78640018983E+03  0.39003634468E+02  0.82691485371E+03  0.46999998093E+01 0. -1.
</event>
<event>
 5   0  0.2987859E-05  0.1695801E+04  0.7818609E-02  0.8763763E-01
        1   -1    0    0  501    0  0.00000000000E+00  0.00000000000E+00  0.12609360889E+04  0.12609360889E+04  0.50400001928E-02 0. -1.
       -1   -1    0    0    0  501  0.00000000000E+00  0.00000000000E+00 -0.57015963735E+03  0.57015963738E+03  0.50400001928E-02 0.  1.
    10030    2    1    2    0    0  0.00000000000E+00  0.00000000000E+00  0.69077645150E+03  0.18310957262E+04  0.16958005345E+04 0.  0.
        5    1    3    3  502    0  0.32264001113E+03  0.68845158913E+03 -0.59854885353E+02  0.76267087571E+03  0.46999998093E+01 0.  1.
       -5    1    3    3    0  502 -0.32264001113E+03 -0.68845158913E+03  0.75063133685E+03  0.10684248505E+04  0.46999998093E+01 0. -1.
</event>
<event>
 5   0  0.2993769E-05  0.1692006E+04  0.7818609E-02  0.8765937E-01
       -1   -1    0    0    0  501  0.00000000000E+00  0.00000000000E+00  0.15337479736E+04  0.15337479736E+04  0.50400001928E-02 0. -1.
        1   -1    0    0  501    0  0.00000000000E+00  0.00000000000E+00 -0.46664864392E+03  0.46664864394E+03  0.50400001928E-02 0.  1.
    10030    2    1    2    0    0  0.00000000000E+00  0.00000000000E+00  0.10670993297E+04  0.20003966175E+04  0.16920063972E+04 0.  0.
        3    1    3    3  502    0 -0.58618213812E+03  0.49136784226E+03  0.96091697808E+03  0.12281747858E+04  0.10100000352E+00 0. -1.
       -3    1    3    3    0  502  0.58618213812E+03 -0.49136784226E+03  0.10618235159E+03  0.77222183176E+03  0.10100000352E+00 0.  1.
</event>
<event>
 5   0  0.2967704E-05  0.1697488E+04  0.7818609E-02  0.8762798E-01
        1   -1    0    0  501    0  0.00000000000E+00  0.00000000000E+00  0.46635338467E+03  0.46635338469E+03  0.50400001928E-02 0. -1.
       -1   -1    0    0    0  501  0.00000000000E+00  0.00000000000E+00 -0.15446796002E+04  0.15446796002E+04  0.50400001928E-02 0.  1.
    10030    2    1    2    0    0  0.00000000000E+00  0.00000000000E+00 -0.10783262156E+04  0.20110329849E+04  0.16974882148E+04 0.  0.
        2    1    3    3  502    0 -0.65284120839E+03  0.54101892539E+03 -0.49384208391E+03  0.98121512669E+03  0.25500000920E-02 0. -1.
       -2    1    3    3    0  502  0.65284120839E+03 -0.54101892539E+03 -0.58448413166E+03  0.10298178582E+04  0.25500000920E-02 0.  1.
</event>
<event>
 5   0  0.5859822E-05  0.1699767E+04  0.7818609E-02  0.8761497E-01
       -2   -1    0    0    0  501  0.00000000000E+00  0.00000000000E+00  0.96116051561E+03  0.96116051562E+03  0.25500000920E-02 0. -1.
        2   -1    0    0  501    0  0.00000000000E+00  0.00000000000E+00 -0.75148928147E+03  0.75148928148E+03  0.25500000920E-02 0.  1.
    10030    2    1    2    0    0  0.00000000000E+00  0.00000000000E+00  0.20967123414E+03  0.17126497971E+04  0.16997668373E+04 0.  0.
        5    1    3    3  502    0  0.14537760979E+03 -0.61644858502E+03 -0.46614828798E+03  0.78642216639E+03  0.46999998093E+01 0.  1.
       -5    1    3    3    0  502 -0.14537760979E+03  0.61644858502E+03  0.67581952212E+03  0.92622763071E+03  0.46999998093E+01 0. -1.
</event>
<event>
 5   0  0.2966258E-05  0.1700975E+04  0.7818609E-02  0.8760808E-01
        1   -1    0    0  501    0  0.00000000000E+00  0.00000000000E+00  0.14948174033E+04  0.14948174033E+04  0.50400001928E-02 0.  1.
       -1   -1    0    0    0  501  0.00000000000E+00  0.00000000000E+00 -0.48389131438E+03  0.48389131441E+03  0.50400001928E-02 0. -1.
    10030    2    1    2    0    0  0.00000000000E+00  0.00000000000E+00  0.10109260889E+04  0.19787087177E+04  0.17009752004E+04 0.  0.
        4    1    3    3  502    0  0.65767341660E+03 -0.17012343165E+03 -0.89803127568E+02  0.68523172688E+03  0.12699999809E+01 0. -1.
       -4    1    3    3    0  502 -0.65767341660E+03  0.17012343165E+03  0.11007292165E+04  0.12934769908E+04  0.12699999809E+01 0.  1.
</event>
<event>
 5   0  0.2987859E-05  0.1737951E+04  0.7818609E-02  0.8740010E-01
       -1   -1    0    0    0  501  0.00000000000E+00  0.00000000000E+00  0.59840678533E+03  0.59840678535E+03  0.50400001928E-02 0.  1.
        1   -1    0    0  501    0  0.00000000000E+00  0.00000000000E+00 -0.12618819753E+04  0.12618819753E+04  0.50400001928E-02 0. -1.
    10030    2    1    2    0    0  0.00000000000E+00  0.00000000000E+00 -0.66347518997E+03  0.18602887607E+04  0.17379513645E+04 0.  0.
        5    1    3    3  502    0 -0.59261920489E+03 -0.81601396776E+02 -0.10063734420E+04  0.11707544169E+04  0.46999998093E+01 0. -1.
       -5    1    3    3    0  502  0.59261920489E+03  0.81601396776E+02  0.34289825202E+03  0.68953434374E+03  0.46999998093E+01 0.  1.
</event>
<event>
 5   0  0.5652631E-05  0.1701903E+04  0.7818609E-02  0.8760280E-01
        2   -1    0    0  501    0  0.00000000000E+00  0.00000000000E+00  0.95982938150E+03  0.95982938150E+03  0.25500000920E-02 0. -1.
       -2   -1    0    0    0  501  0.00000000000E+00  0.00000000000E+00 -0.75442435938E+03  0.75442435938E+03  0.25500000920E-02 0.  1.
    10030    2    1    2    0    0  0.00000000000E+00  0.00000000000E+00  0.20540502212E+03  0.17142537409E+04  0.17019032478E+04 0.  0.
        2    1    3    3  502    0 -0.80178925950E+03  0.27554857156E+03  0.29195983081E+02  0.84831918367E+03  0.25500000920E-02 0.  1.
       -2    1    3    3    0  502  0.80178925950E+03 -0.27554857156E+03  0.17620903904E+03  0.86593455722E+03  0.25500000920E-02 0. -1.
</event>
<event>
 5   0  0.2967704E-05  0.1698810E+04  0.7818609E-02  0.8762043E-01
       -1   -1    0    0    0  501  0.00000000000E+00  0.00000000000E+00  0.81376731626E+03  0.81376731628E+03  0.50400001928E-02 0. -1.
        1   -1    0    0  501    0  0.00000000000E+00  0.00000000000E+00 -0.88660340798E+03  0.88660340799E+03  0.50400001928E-02 0.  1.
    10030    2    1    2    0    0  0.00000000000E+00  0.00000000000E+00 -0.72836091713E+02  0.17003707243E+04  0.16988100258E+04 0.  0.
        2    1    3    3  502    0 -0.38851675032E+03 -0.31453726155E+03  0.65095147398E+03  0.82074160103E+03  0.25500000920E-02 0. -1.
       -2    1    3    3    0  502  0.38851675032E+03  0.31453726155E+03 -0.72378756569E+03  0.87962912323E+03  0.25500000920E-02 0.  1.
</event>
<event>
 5   0  0.5859822E-05  0.1696031E+04  0.7818609E-02  0.8763631E-01
       -2   -1    0    0    0  501  0.00000000000E+00  0.00000000000E+00  0.42906958427E+03  0.42906958427E+03  0.25500000920E-02 0.  1.
        2   -1    0    0  501    0  0.00000000000E+00  0.00000000000E+00 -0.16760219118E+04  0.16760219118E+04  0.25500000920E-02 0. -1.
    10030    2    1    2    0    0  0.00000000000E+00  0.00000000000E+00 -0.12469523275E+04  0.21050914960E+04  0.16960306895E+04 0.  0.
        5    1    3    3  502    0  0.42399430099E+03 -0.38266490962E+03  0.15452577700E+03  0.59169578846E+03  0.46999998093E+01 0.  1.
       -5    1    3    3    0  502 -0.42399430099E+03  0.38266490962E+03 -0.14014781045E+04  0.15133957076E+04  0.46999998093E+01 0. -1.
</event>
<event>
 5   0  0.2911632E-05  0.1703607E+04  0.7818609E-02  0.8759310E-01
       -1   -1    0    0    0  501  0.00000000000E+00  0.00000000000E+00  0.67876004299E+03  0.67876004300E+03  0.50400001928E-02 0. -1.
        1   -1    0    0  501    0  0.00000000000E+00  0.00000000000E+00 -0.10689624297E+04  0.10689624297E+04  0.50400001928E-02 0.  1.
    10030    2    1    2    0    0  0.00000000000E+00  0.00000000000E+00 -0.39020238668E+03  0.17477224727E+04  0.17036067442E+04 0.  0.
        1    1    3    3  502    0 -0.30184881755E+03 -0.55654731397E+03 -0.77969184133E+03  0.10043789070E+04  0.50400001928E-02 0.  1.
       -1    1    3    3    0  502  0.30184881755E+03  0.55654731397E+03  0.38948945465E+03  0.74334356569E+03  0.50400001928E-02 0. -1.
</event>
<event>
 5   0  0.5671132E-05  0.1699484E+04  0.7818609E-02  0.8761659E-01
        2   -1    0    0  501    0  0.00000000000E+00  0.00000000000E+00  0.13861639849E+04  0.13861639849E+04  0.25500000920E-02 0.  1.
       -2   -1    0    0    0  501  0.00000000000E+00  0.00000000000E+00 -0.52090629812E+03  0.52090629813E+03  0.25500000920E-02 0. -1.
    10030    2    1    2    0    0  0.00000000000E+00  0.00000000000E+00  0.86525768679E+03  0.19070702830E+04  0.16994840982E+04 0.  0.
        3    1    3    3  502    0 -0.65487937065E+03 -0.39007303118E+03  0.11207024439E+02  0.76233166493E+03  0.10100000352E+00 0. -1.
       -3    1    3    3    0  502  0.65487937065E+03  0.39007303118E+03  0.85405066235E+03  0.11447386181E+04  0.10100000352E+00 0.  1.
</event>
<event>
 5   0  0.5859822E-05  0.1700805E+04  0.7818609E-02  0.8760905E-01
        2   -1    0    0  501    0  0.00000000000E+00  0.00000000000E+00  0.87300174131E+03  0.87300174132E+03  0.25500000920E-02 0. -1.
       -2   -1    0    0    0  501  0.00000000000E+00  0.00000000000E+00 -0.82838855184E+03  0.82838855184E+03  0.25500000920E-02 0.  1.
    10030    2    1    2    0    0  0.00000000000E+00  0.00000000000E+00  0.44613189473E+02  0.17013902932E+04  0.17008052778E+04 0.  0.
        5    1    3    3  502    0 -0.54012299721E+02 -0.69048854703E+03 -0.47129072617E+03  0.83775223108E+03  0.46999998093E+01 0.  1.
       -5    1    3    3    0  502  0.54012299721E+02  0.69048854703E+03  0.51590391564E+03  0.86363806208E+03  0.46999998093E+01 0. -1.
</event>
<event>
 5   0  0.2911632E-05  0.1703940E+04  0.7818609E-02  0.8759120E-01
        1   -1    0    0  501    0  0.00000000000E+00  0.00000000000E+00  0.10330502690E+04  0.10330502690E+04  0.50400001928E-02 0. -1.
       -1   -1    0    0    0  501  0.00000000000E+00  0.00000000000E+00 -0.70263068705E+03  0.70263068707E+03  0.50400001928E-02 0.  1.
    10030    2    1    2    0    0  0.00000000000E+00  0.00000000000E+00  0.33041958193E+03  0.17356809561E+04  0.17039399289E+04 0.  0.
        1    1    3    3  502    0 -0.33251676483E+03 -0.26283872684E+03 -0.58761160442E+03  0.72452673719E+03  0.50400001928E-02 0.  1.
       -1    1    3    3    0  502  0.33251676483E+03  0.26283872684E+03  0.91803118636E+03  0.10111542189E+04  0.50400001928E-02 0. -1.
</event>
<event>
 5   0  0.5652631E-05  0.1703863E+04  0.7818609E-02  0.8759164E-01
       -2   -1    0    0    0  501  0.00000000000E+00  0.00000000000E+00  0.70806869392E+03  0.70806869393E+03  0.25500000920E-02 0. -1.
        2   -1    0    0  501    0  0.00000000000E+00  0.00000000000E+00 -0.10250244117E+04  0.10250244117E+04  0.25500000920E-02 0.  1.
    10030    2    1    2    0    0  0.00000000000E+00  0.00000000000E+00 -0.31695571774E+03  0.17330931056E+04  0.17038634880E+04 0.  0.
        2    1    3    3  502    0  0.49890485701E+03  0.64035673716E+03  0.10446187670E+03  0.81845897323E+03  0.25500000920E-02 0. -1.
       -2    1    3    3    0  502 -0.49890485701E+03 -0.64035673716E+03 -0.42141759444E+03  0.91463413237E+03  0.25500000920E-02 0.  1.
</event>
<event>
 5   0  0.5859822E-05  0.1704692E+04  0.7818609E-02  0.8758693E-01
        2   -1    0    0  501    0  0.00000000000E+00  0.00000000000E+00  0.21935340879E+04  0.21935340879E+04  0.25500000920E-02 0. -1.
       -2   -1    0    0    0  501  0.00000000000E+00  0.00000000000E+00 -0.33119783888E+03  0.33119783889E+03  0.25500000920E-02 0.  1.
    10030    2    1    2    0    0  0.00000000000E+00  0.00000000000E+00  0.18623362490E+04  0.25247319268E+04  0.17046920536E+04 0.  0.
        5    1    3    3  502    0  0.68841844201E+03  0.32740177143E+03  0.14958339133E+04  0.16788844681E+04  0.46999998093E+01 0. -1.
       -5    1    3    3    0  502 -0.68841844201E+03 -0.32740177143E+03  0.36650233577E+03  0.84584745868E+03  0.46999998093E+01 0.  1.
</event>
<event>
 5   0  0.2967704E-05  0.1700625E+04  0.7818609E-02  0.8761008E-01
       -1   -1    0    0    0  501  0.00000000000E+00  0.00000000000E+00  0.56367287536E+03  0.56367287539E+03  0.50400001928E-02 0.  1.
        1   -1    0    0  501    0  0.00000000000E+00  0.00000000000E+00 -0.12827141877E+04  0.12827141877E+04  0.50400001928E-02 0. -1.
    10030    2    1    2    0    0  0.00000000000E+00  0.00000000000E+00 -0.71904131230E+03  0.18463870631E+04  0.17006248198E+04 0.  0.
        2    1    3    3  502    0 -0.37936192064E+03  0.73921332219E+03 -0.55578943433E+03  0.99962677928E+03  0.25500000920E-02 0. -1.
       -2    1    3    3    0  502  0.37936192064E+03 -0.73921332219E+03 -0.16325187797E+03  0.84676028378E+03  0.25500000920E-02 0.  1.
</event>
<event>
 5   0  0.5859822E-05  0.1704427E+04  0.7818609E-02  0.8758844E-01
        2   -1    0    0  501    0  0.00000000000E+00  0.00000000000E+00  0.84004342400E+03  0.84004342400E+03  0.25500000920E-02 0. -1.
       -2   -1    0    0    0  501  0.00000000000E+00  0.00000000000E+00 -0.86455944402E+03  0.86455944403E+03  0.25500000920E-02 0.  1.
    10030    2    1    2    0    0  0.00000000000E+00  0.00000000000E+00 -0.24516020025E+02  0.17046028680E+04  0.17044265612E+04 0.  0.
        5    1    3    3  502    0  0.80163478012E+03  0.20600319328E+03 -0.21523158241E+03  0.85522065013E+03  0.46999998093E+01 0. -1.
       -5    1    3    3    0  502 -0.80163478012E+03 -0.20600319328E+03  0.19071556239E+03  0.84938221790E+03  0.46999998093E+01 0.  1.
</event>
<event>
 5   0  0.2966258E-05  0.1699959E+04  0.7818609E-02  0.8761388E-01
        1   -1    0    0  501    0  0.00000000000E+00  0.00000000000E+00  0.76265730135E+03  0.76265730137E+03  0.50400001928E-02 0. -1.
       -1   -1    0    0    0  501  0.00000000000E+00  0.00000000000E+00 -0.94729970318E+03  0.94729970319E+03  0.50400001928E-02 0.  1.
    10030    2    1    2    0    0  0.00000000000E+00  0.00000000000E+00 -0.18464240183E+03  0.17099570046E+04  0.16999588645E+04 0.  0.
        4    1    3    3  502    0 -0.62682457500E+03 -0.56035083123E+03  0.33157496261E+02  0.84142922124E+03  0.12699999809E+01 0.  1.
       -4    1    3    3    0  502  0.62682457500E+03  0.56035083123E+03 -0.21779989809E+03  0.86852778332E+03  0.12699999809E+01 0. -1.
</event>
<event>
 5   0  0.2987859E-05  0.1700621E+04  0.7818609E-02  0.8761010E-01
       -1   -1    0    0    0  501  0.00000000000E+00  0.00000000000E+00  0.70553461351E+03  0.70553461353E+03  0.50400001928E-02 0.  1.
        1   -1    0    0  501    0  0.00000000000E+00  0.00000000000E+00 -0.10247941242E+04  0.10247941242E+04  0.50400001928E-02 0. -1.
    10030    2    1    2    0    0  0.00000000000E+00  0.00000000000E+00 -0.31925951072E+03  0.17303287378E+04  0.17006207413E+04 0.  0.
        5    1    3    3  502    0  0.69702458086E+03  0.45648143382E+03 -0.33226119251E+03  0.89701625169E+03  0.46999998093E+01 0. -1.
       -5    1    3    3    0  502 -0.69702458086E+03 -0.45648143382E+03  0.13001681788E+02  0.83331248609E+03  0.46999998093E+01 0.  1.
</event>
<event>
 5   0  0.2987859E-05  0.1693299E+04  0.7818609E-02  0.8765196E-01
        1   -1    0    0  501    0  0.00000000000E+00  0.00000000000E+00  0.13862374230E+04  0.13862374230E+04  0.50400001928E-02 0. -1.
       -1   -1    0    0    0  501  0.00000000000E+00  0.00000000000E+00 -0.51709405221E+03  0.51709405224E+03  0.50400001928E-02 0.  1.
    10030    2    1    2    0    0  0.00000000000E+00  0.00000000000E+00  0.86914337083E+03  0.19033314753E+04  0.16932987054E+04 0.  0.
        5    1    3    3  502    0  0.37294686588E+03  0.24855380360E+03  0.12419442812E+04  0.13203469414E+04  0.46999998093E+01 0. -1.
       -5    1    3    3    0  502 -0.37294686588E+03 -0.24855380360E+03 -0.37280091033E+03  0.58298453392E+03  0.46999998093E+01 0.  1.
</event>
<event>
 5   0  0.2098250E-05  0.1699818E+04  0.7818609E-02  0.8761468E-01
       -3   -1    0    0    0  501  0.00000000000E+00  0.00000000000E+00  0.54975335908E+03  0.54975336835E+03  0.10100000352E+00 0.  1.
        3   -1    0    0  501    0  0.00000000000E+00  0.00000000000E+00 -0.13139436356E+04  0.13139436395E+04  0.10100000352E+00 0. -1.
    10030    2    1    2    0    0  0.00000000000E+00  0.00000000000E+00 -0.76419027657E+03  0.18636970079E+04  0.16998175662E+04 0.  0.
        1    1    3    3  502    0  0.78897524501E+03  0.31418608413E+03 -0.34491233792E+03  0.91660206937E+03  0.50400001928E-02 0.  1.
       -1    1    3    3    0  502 -0.78897524501E+03 -0.31418608413E+03 -0.41927793865E+03  0.94709493851E+03  0.50400001928E-02 0. -1.
</event>
<event>
 5   0  0.5671132E-05  0.1696421E+04  0.7818609E-02  0.8763408E-01
        2   -1    0    0  501    0  0.00000000000E+00  0.00000000000E+00  0.40977887429E+03  0.40977887429E+03  0.25500000920E-02 0. -1.
       -2   -1    0    0    0  501  0.00000000000E+00  0.00000000000E+00 -0.17557302676E+04  0.17557302676E+04  0.25500000920E-02 0.  1.
    10030    2    1    2    0    0  0.00000000000E+00  0.00000000000E+00 -0.13459513933E+04  0.21655091419E+04  0.16964211419E+04 0.  0.
        3    1    3    3  502    0 -0.83382353376E+03  0.11829807938E+02 -0.87097786146E+03  0.12058209134E+04  0.10100000352E+00 0.  1.
       -3    1    3    3    0  502  0.83382353376E+03 -0.11829807938E+02 -0.47497353188E+03  0.95968822854E+03  0.10100000352E+00 0. -1.
</event>
<event>
 5   0  0.2987859E-05  0.1699927E+04  0.7818609E-02  0.8761406E-01
        1   -1    0    0  501    0  0.00000000000E+00  0.00000000000E+00  0.74303262916E+03  0.74303262918E+03  0.50400001928E-02 0. -1.
       -1   -1    0    0    0  501  0.00000000000E+00  0.00000000000E+00 -0.97228303947E+03  0.97228303948E+03  0.50400001928E-02 0.  1.
    10030    2    1    2    0    0  0.00000000000E+00  0.00000000000E+00 -0.22925041030E+03  0.17153156687E+04  0.16999270845E+04 0.  0.
        5    1    3    3  502    0  0.56096726787E+03 -0.61161712570E+03  0.70491653775E+02  0.83291713112E+03  0.46999998093E+01 0. -1.
       -5    1    3    3    0  502 -0.56096726787E+03  0.61161712570E+03 -0.29974206408E+03  0.88239853754E+03  0.46999998093E+01 0.  1.
</event>
<event>
 5   0  0.2987859E-05  0.1714232E+04  0.7818609E-02  0.8753288E-01
        1   -1    0    0  501    0  0.00000000000E+00  0.00000000000E+00  0.20064922857E+04  0.20064922857E+04  0.50400001928E-02 0.  1.
       -1   -1    0    0    0  501  0.00000000000E+00  0.00000000000E+00 -0.36613558313E+03  0.36613558316E+03  0.50400001928E-02 0. -1.
    10030    2    1    2    0    0  0.00000000000E+00  0.00000000000E+00  0.16403567026E+04  0.23726278689E+04  0.17142324500E+04 0.  0.
        5    1    3    3  502    0  0.79072992981E+03 -0.24287310475E+03  0.11308562802E+04  0.14011064140E+04  0.46999998093E+01 0.  1.
       -5    1    3    3    0  502 -0.79072992981E+03  0.24287310475E+03  0.50950042242E+03  0.97152145491E+03  0.46999998093E+01 0. -1.
</event>
<event>
 5   0  0.5671132E-05  0.1693843E+04  0.7818609E-02  0.8764884E-01
       -2   -1    0    0    0  501  0.00000000000E+00  0.00000000000E+00  0.82321473866E+03  0.82321473867E+03  0.25500000920E-02 0. -1.
        2   -1    0    0  501    0  0.00000000000E+00  0.00000000000E+00 -0.87131090226E+03  0.87131090227E+03  0.25500000920E-02 0.  1.
    10030    2    1    2    0    0  0.00000000000E+00  0.00000000000E+00 -0.48096163602E+02  0.16945256409E+04  0.16938429404E+04 0.  0.
        3    1    3    3  502    0 -0.36405199011E+03  0.17740829745E+03 -0.76816802419E+03  0.86838337103E+03  0.10100000352E+00 0.  1.
       -3    1    3    3    0  502  0.36405199011E+03 -0.17740829745E+03  0.72007186058E+03  0.82614226990E+03  0.10100000352E+00 0. -1.
</event>
<event>
 5   0  0.5821584E-05  0.1701862E+04  0.7818609E-02  0.8760303E-01
        2   -1    0    0  501    0  0.00000000000E+00  0.00000000000E+00  0.90214112535E+03  0.90214112535E+03  0.25500000920E-02 0. -1.
       -2   -1    0    0    0  501  0.00000000000E+00  0.00000000000E+00 -0.80262796106E+03  0.80262796107E+03  0.25500000920E-02 0.  1.
    10030    2    1    2    0    0  0.00000000000E+00  0.00000000000E+00  0.99513164286E+02  0.17047690864E+04  0.17018621472E+04 0.  0.
        1    1    3    3  502    0  0.62602920506E+03  0.22597642306E+03 -0.48134313784E+03  0.82138244791E+03  0.50400001928E-02 0.  1.
       -1    1    3    3    0  502 -0.62602920506E+03 -0.22597642306E+03  0.58085630212E+03  0.88338663851E+03  0.50400001928E-02 0. -1.
</event>
<event>
 5   0  0.5755321E-05  0.1698913E+04  0.7818609E-02  0.8761984E-01
        2   -1    0    0  501    0  0.00000000000E+00  0.00000000000E+00  0.22415627520E+04  0.22415627520E+04  0.25500000920E-02 0. -1.
       -2   -1    0    0    0  501  0.00000000000E+00  0.00000000000E+00 -0.32190783943E+03  0.32190783944E+03  0.25500000920E-02 0.  1.
    10030    2    1    2    0    0  0.00000000000E+00  0.00000000000E+00  0.19196549126E+04  0.25634705915E+04  0.16989133262E+04 0.  0.
        4    1    3    3  502    0  0.28885723146E+03 -0.26578375752E+03 -0.17685283267E+03  0.43053227899E+03  0.12699999809E+01 0.  1.
       -4    1    3    3    0  502 -0.28885723146E+03  0.26578375752E+03  0.20965077453E+04  0.21329383125E+04  0.12699999809E+01 0. -1.
</event>
<event>
 5   0  0.2967704E-05  0.1699567E+04  0.7818609E-02  0.8761611E-01
       -1   -1    0    0    0  501  0.00000000000E+00  0.00000000000E+00  0.54385505689E+03  0.54385505691E+03  0.50400001928E-02 0.  1.
        1   -1    0    0  501    0  0.00000000000E+00  0.00000000000E+00 -0.13278023419E+04  0.13278023419E+04  0.50400001928E-02 0. -1.
    10030    2    1    2    0    0  0.00000000000E+00  0.00000000000E+00 -0.78394728501E+03  0.18716573988E+04  0.16995670251E+04 0.  0.
        2    1    3    3  502    0  0.63737148414E+03  0.23859053769E+03 -0.95238624683E+03  0.11705585917E+04  0.25500000920E-02 0. -1.
       -2    1    3    3    0  502 -0.63737148414E+03 -0.23859053769E+03  0.16843896182E+03  0.70109880711E+03  0.25500000920E-02 0.  1.
</event>
<event>
 5   0  0.5859822E-05  0.1700074E+04  0.7818609E-02  0.8761322E-01
        2   -1    0    0  501    0  0.00000000000E+00  0.00000000000E+00  0.11911802476E+04  0.11911802476E+04  0.25500000920E-02 0.  1.
       -2   -1    0    0    0  501  0.00000000000E+00  0.00000000000E+00 -0.60659415156E+03  0.60659415157E+03  0.25500000920E-02 0. -1.
    10030    2    1    2    0    0  0.00000000000E+00  0.00000000000E+00  0.58458609599E+03  0.17977743991E+04  0.17000740827E+04 0.  0.
        5    1    3    3  502    0  0.18302998924E+03  0.64531709654E+03 -0.25982970810E+03  0.71935227758E+03  0.46999998093E+01 0. -1.
       -5    1    3    3    0  502 -0.18302998924E+03 -0.64531709654E+03  0.84441580408E+03  0.10784221215E+04  0.46999998093E+01 0.  1.
</event>
<event>
 5   0  0.2966258E-05  0.1696938E+04  0.7818609E-02  0.8763113E-01
       -1   -1    0    0    0  501  0.00000000000E+00  0.00000000000E+00  0.95727023585E+03  0.95727023586E+03  0.50400001928E-02 0.  1.
        1   -1    0    0  501    0  0.00000000000E+00  0.00000000000E+00 -0.75203386629E+03  0.75203386630E+03  0.50400001928E-02 0. -1.
    10030    2    1    2    0    0  0.00000000000E+00  0.00000000000E+00  0.20523636956E+03  0.17093041022E+04  0.16969379913E+04 0.  0.
        4    1    3    3  502    0  0.68719325323E+03 -0.40110798316E+03  0.39934225719E+03  0.89027974969E+03  0.12699999809E+01 0.  1.
       -4    1    3    3    0  502 -0.68719325323E+03  0.40110798316E+03 -0.19410588762E+03  0.81902435247E+03  0.12699999809E+01 0. -1.
</event>
<event>
 5   0  0.5821584E-05  0.1700187E+04  0.7818609E-02  0.8761258E-01
       -2   -1    0    0    0  501  0.00000000000E+00  0.00000000000E+00  0.51152634044E+03  0.51152634045E+03  0.25500000920E-02 0.  1.
        2   -1    0    0  501    0  0.00000000000E+00  0.00000000000E+00 -0.14127504261E+04  0.14127504261E+04  0.25500000920E-02 0. -1.
    10030    2    1    2    0    0  0.00000000000E+00  0.00000000000E+00 -0.90122408566E+03  0.19242767666E+04  0.17001871137E+04 0.  0.
        1    1    3    3  502    0  0.81776686335E+03 -0.23184162036E+03 -0.46518884258E+03  0.96896534458E+03  0.50400001928E-02 0. -1.
       -1    1    3    3    0  502 -0.81776686335E+03  0.23184162036E+03 -0.43603524309E+03  0.95531142198E+03  0.50400001928E-02 0.  1.
</event>
<event>
 5   0  0.5859822E-05  0.1696846E+04  0.7818609E-02  0.8763165E-01
        2   -1    0    0  501    0  0.00000000000E+00  0.00000000000E+00  0.68081075127E+03  0.68081075128E+03  0.25500000920E-02 0. -1.
       -2   -1    0    0    0  501  0.00000000000E+00  0.00000000000E+00 -0.10573000767E+04  0.10573000767E+04  0.25500000920E-02 0.  1.
    10030    2    1    2    0    0  0.00000000000E+00  0.00000000000E+00 -0.37648932543E+03  0.17381108280E+04  0.16968456141E+04 0.  0.
        5    1    3    3  502    0 -0.80742110345E+03 -0.24411594128E+03 -0.95050011885E+02  0.84886867408E+03  0.46999998093E+01 0.  1.
       -5    1    3    3    0  502  0.80742110345E+03  0.24411594128E+03 -0.28143931354E+03  0.88924215390E+03  0.46999998093E+01 0. -1.
</event>
<event>
 5   0  0.5652631E-05  0.1697701E+04  0.7818609E-02  0.8762677E-01
       -2   -1    0    0    0  501  0.00000000000E+00  0.00000000000E+00  0.38263747982E+03  0.38263747983E+03  0.25500000920E-02 0.  1.
        2   -1    0    0  501    0  0.00000000000E+00  0.00000000000E+00 -0.18831056824E+04  0.18831056824E+04  0.25500000920E-02 0. -1.
    10030    2    1    2    0    0  0.00000000000E+00  0.00000000000E+00 -0.15004682026E+04  0.22657431623E+04  0.16977005773E+04 0.  0.
        2    1    3    3  502    0  0.53177708355E+03 -0.36055754518E+03 -0.14906136266E+04  0.16231813188E+04  0.25500000920E-02 0. -1.
       -2    1    3    3    0  502 -0.53177708355E+03  0.36055754518E+03 -0.98545760234E+01  0.64256184344E+03  0.25500000920E-02 0.  1.
</event>
<event>
 5   0  0.2911632E-05  0.1700591E+04  0.7818609E-02  0.8761027E-01
       -1   -1    0    0    0  501  0.00000000000E+00  0.00000000000E+00  0.48440658330E+03  0.48440658332E+03  0.50400001928E-02 0. -1.
        1   -1    0    0  501    0  0.00000000000E+00  0.00000000000E+00 -0.14925530385E+04  0.14925530386E+04  0.50400001928E-02 0.  1.
    10030    2    1    2    0    0  0.00000000000E+00  0.00000000000E+00 -0.10081464552E+04  0.19769596219E+04  0.17005910947E+04 0.  0.
        1    1    3    3  502    0 -0.28852510762E+02 -0.61480142523E+03  0.17794589973E+03  0.64068557273E+03  0.50400001928E-02 0. -1.
       -1    1    3    3    0  502  0.28852510762E+02  0.61480142523E+03 -0.11860923550E+04  0.13362740491E+04  0.50400001928E-02 0.  1.
</event>
<event>
 5   0  0.2966258E-05  0.1698967E+04  0.7818609E-02  0.8761954E-01
        1   -1    0    0  501    0  0.00000000000E+00  0.00000000000E+00  0.11762447776E+04  0.11762447776E+04  0.50400001928E-02 0.  1.
       -1   -1    0    0    0  501  0.00000000000E+00  0.00000000000E+00 -0.61349643974E+03  0.61349643976E+03  0.50400001928E-02 0. -1.
    10030    2    1    2    0    0  0.00000000000E+00  0.00000000000E+00  0.56274833783E+03  0.17897412173E+04  0.16989667252E+04 0.  0.
        4    1    3    3  502    0 -0.47427476104E+03 -0.36623185616E+03 -0.35292499996E+03  0.69542791857E+03  0.12699999809E+01 0. -1.
       -4    1    3    3    0  502  0.47427476104E+03  0.36623185616E+03  0.91567333779E+03  0.10943132988E+04  0.12699999809E+01 0.  1.
</event>
<event>
 5   0  0.5652631E-05  0.1701687E+04  0.7818609E-02  0.8760403E-01
       -2   -1    0    0    0  501  0.00000000000E+00  0.00000000000E+00  0.41436877475E+03  0.41436877476E+03  0.25500000920E-02 0. -1.
        2   -1    0    0  501    0  0.00000000000E+00  0.00000000000E+00 -0.17470782254E+04  0.17470782254E+04  0.25500000920E-02 0.  1.
    10030    2    1    2    0    0  0.00000000000E+00  0.00000000000E+00 -0.13327094507E+04  0.21614470002E+04  0.17016870026E+04 0.  0.
        2    1    3    3  502    0 -0.65590236908E+03 -0.17846865335E+03 -0.16356010685E+02  0.67994595159E+03  0.25500000920E-02 0. -1.
       -2    1    3    3    0  502  0.65590236908E+03  0.17846865335E+03 -0.13163534400E+04  0.14815010486E+04  0.25500000920E-02 0.  1.
</event>
<event>
 5   0  0.5859822E-05  0.1702353E+04  0.7818609E-02  0.8760023E-01
        2   -1    0    0  501    0  0.00000000000E+00  0.00000000000E+00  0.67913402047E+03  0.67913402048E+03  0.25500000920E-02 0.  1.
       -2   -1    0    0    0  501  0.00000000000E+00  0.00000000000E+00 -0.10668018896E+04  0.10668018896E+04  0.25500000920E-02 0. -1.
    10030    2    1    2    0    0  0.00000000000E+00  0.00000000000E+00 -0.38766786916E+03  0.17459359101E+04  0.17023530261E+04 0.  0.
        5    1    3    3  502    0 -0.66784101758E+03 -0.39559327339E+03 -0.55202254819E+03  0.95250020810E+03  0.46999998093E+01 0. -1.
       -5    1    3    3    0  502  0.66784101758E+03  0.39559327339E+03  0.16435467903E+03  0.79343570202E+03  0.46999998093E+01 0.  1.
</event>
<event>
 5   0  0.2966258E-05  0.1698941E+04  0.7818609E-02  0.8761969E-01
        1   -1    0    0  501    0  0.00000000000E+00  0.00000000000E+00  0.12626752758E+04  0.12626752758E+04  0.50400001928E-02 0.  1.
       -1   -1    0    0    0  501  0.00000000000E+00  0.00000000000E+00 -0.57148519143E+03  0.57148519145E+03  0.50400001928E-02 0. -1.
    10030    2    1    2    0    0  0.00000000000E+00  0.00000000000E+00  0.69119008436E+03  0.18341604673E+04  0.16989411076E+04 0.  0.
        4    1    3    3  502    0 -0.17622670456E+03 -0.77984922121E+03  0.65545431191E+03  0.10338484546E+04  0.12699999809E+01 0. -1.
       -4    1    3    3    0  502  0.17622670456E+03  0.77984922121E+03  0.35735772449E+02  0.80031201263E+03  0.12699999809E+01 0.  1.
</event>
<event>
 5   0  0.2967704E-05  0.1703236E+04  0.7818609E-02  0.8759521E-01
        1   -1    0    0  501    0  0.00000000000E+00  0.00000000000E+00  0.22899386358E+04  0.22899386358E+04  0.50400001928E-02 0.  1.
       -1   -1    0    0    0  501  0.00000000000E+00  0.00000000000E+00 -0.31671308157E+03  0.31671308161E+03  0.50400001928E-02 0. -1.
    10030    2    1    2    0    0  0.00000000000E+00  0.00000000000E+00  0.19732255542E+04  0.26066517174E+04  0.17032363571E+04 0.  0.
        2    1    3    3  502    0 -0.33467710942E+03  0.34931090279E+03 -0.86015020546E+02  0.49135064684E+03  0.25500000920E-02 0. -1.
       -2    1    3    3    0  502  0.33467710942E+03 -0.34931090279E+03  0.20592405748E+04  0.21153010706E+04  0.25500000920E-02 0.  1.
</event>
<event>
 5   0  0.5755321E-05  0.1700911E+04  0.7818609E-02  0.8760845E-01
       -2   -1    0    0    0  501  0.00000000000E+00  0.00000000000E+00  0.58296375923E+03  0.58296375924E+03  0.25500000920E-02 0.  1.
        2   -1    0    0  501    0  0.00000000000E+00  0.00000000000E+00 -0.12406854397E+04  0.12406854397E+04  0.25500000920E-02 0. -1.
    10030    2    1    2    0    0  0.00000000000E+00  0.00000000000E+00 -0.65772168048E+03  0.18236491990E+04  0.17009111064E+04 0.  0.
        4    1    3    3  502    0 -0.43743034478E+03 -0.46373816698E+03  0.27467550077E+03  0.69415173966E+03  0.12699999809E+01 0.  1.
       -4    1    3    3    0  502  0.43743034478E+03  0.46373816698E+03 -0.93239718126E+03  0.11294974593E+04  0.12699999809E+01 0. -1.
</event>
<event>
 5   0  0.2098250E-05  0.1703827E+04  0.7818609E-02  0.8759184E-01
       -3   -1    0    0    0  501  0.00000000000E+00  0.00000000000E+00  0.71209230423E+03  0.71209231139E+03  0.10100000352E+00 0. -1.
        3   -1    0    0  501    0  0.00000000000E+00  0.00000000000E+00 -0.10191894216E+04  0.10191894266E+04  0.10100000352E+00 0.  1.
    10030    2    1    2    0    0  0.00000000000E+00  0.00000000000E+00 -0.30709711741E+03  0.17312817380E+04  0.17038274023E+04 0.  0.
        2    1    3    3  502    0  0.74954108986E+02  0.14052644023E+03  0.69683034169E+03  0.71479949913E+03  0.25500000920E-02 0. -1.
       -2    1    3    3    0  502 -0.74954108986E+02 -0.14052644023E+03 -0.10039274591E+04  0.10164822389E+04  0.25500000920E-02 0.  1.
</event>
<event>
 5   0  0.5755321E-05  0.1697957E+04  0.7818609E-02  0.8762530E-01
       -2   -1    0    0    0  501  0.00000000000E+00  0.00000000000E+00  0.42756429802E+03  0.42756429803E+03  0.25500000920E-02 0.  1.
        2   -1    0    0  501    0  0.00000000000E+00  0.00000000000E+00 -0.16857453533E+04  0.16857453533E+04  0.25500000920E-02 0. -1.
    10030    2    1    2    0    0  0.00000000000E+00  0.00000000000E+00 -0.12581810553E+04  0.21133096513E+04  0.16979570414E+04 0.  0.
        4    1    3    3  502    0  0.40763581009E+03  0.10149933999E+03  0.28914300834E+03  0.50997486395E+03  0.12699999809E+01 0.  1.
       -4    1    3    3    0  502 -0.40763581009E+03 -0.10149933999E+03 -0.15473240636E+04  0.16033347874E+04  0.12699999809E+01 0. -1.
</event>
<event>
 5   0  0.5755321E-05  0.1706676E+04  0.7818609E-02  0.8757566E-01
        2   -1    0    0  501    0  0.00000000000E+00  0.00000000000E+00  0.24668966189E+04  0.24668966189E+04  0.25500000920E-02 0.  1.
       -2   -1    0    0    0  501  0.00000000000E+00  0.00000000000E+00 -0.29518275398E+03  0.29518275399E+03  0.25500000920E-02 0. -1.
    10030    2    1    2    0    0  0.00000000000E+00  0.00000000000E+00  0.21717138649E+04  0.27620793729E+04  0.17066755260E+04 0.  0.
        4    1    3    3  502    0  0.44487649347E+03 -0.23545720091E+03 -0.29345222295E+02  0.50420030035E+03  0.12699999809E+01 0. -1.
       -4    1    3    3    0  502 -0.44487649347E+03  0.23545720091E+03  0.22010590872E+04  0.22578790726E+04  0.12699999809E+01 0.  1.
</event>
<event>
 5   0  0.5671132E-05  0.1698973E+04  0.7818609E-02  0.8761950E-01
        2   -1    0    0  501    0  0.00000000000E+00  0.00000000000E+00  0.73940494164E+03  0.73940494164E+03  0.25500000920E-02 0. -1.
       -2   -1    0    0    0  501  0.00000000000E+00  0.00000000000E+00 -0.97595741457E+03  0.97595741457E+03  0.25500000920E-02 0.  1.
    10030    2    1    2    0    0  0.00000000000E+00  0.00000000000E+00 -0.23655247293E+03  0.17153623562E+04  0.16989734962E+04 0.  0.
        3    1    3    3  502    0  0.66920120696E+03  0.41387622650E+03 -0.44152699151E+03  0.90225821176E+03  0.10100000352E+00 0.  1.
       -3    1    3    3    0  502 -0.66920120696E+03 -0.41387622650E+03  0.20497451858E+03  0.81310414445E+03  0.10100000352E+00 0. -1.
</event>
<event>
 5   0  0.2967704E-05  0.1693058E+04  0.7818609E-02  0.8765334E-01
        1   -1    0    0  501    0  0.00000000000E+00  0.00000000000E+00  0.90536729937E+03  0.90536729939E+03  0.50400001928E-02 0. -1.
       -1   -1    0    0    0  501  0.00000000000E+00  0.00000000000E+00 -0.79151405888E+03  0.79151405889E+03  0.50400001928E-02 0.  1.
    10030    2    1    2    0    0  0.00000000000E+00  0.00000000000E+00  0.11385324050E+03  0.16968813583E+04  0.16930575252E+04 0.  0.
        2    1    3    3  502    0  0.71933299694E+03  0.33888628549E+03 -0.23412047681E+03  0.82891270509E+03  0.25500000920E-02 0.  1.
       -2    1    3    3    0  502 -0.71933299694E+03 -0.33888628549E+03  0.34797371731E+03  0.86796865319E+03  0.25500000920E-02 0. -1.
</event>
<event>
 5   0  0.2911632E-05  0.1701905E+04  0.7818609E-02  0.8760279E-01
       -1   -1    0    0    0  501  0.00000000000E+00  0.00000000000E+00  0.45297999867E+03  0.45297999870E+03  0.50400001928E-02 0.  1.
        1   -1    0    0  501    0  0.00000000000E+00  0.00000000000E+00 -0.15985694406E+04  0.15985694406E+04  0.50400001928E-02 0. -1.
    10030    2    1    2    0    0  0.00000000000E+00  0.00000000000E+00 -0.11455894419E+04  0.20515494393E+04  0.17019047954E+04 0.  0.
        1    1    3    3  502    0 -0.16945362487E+03 -0.22530986277E+03 -0.15406393839E+04  0.15662211773E+04  0.50400001928E-02 0. -1.
       -1    1    3    3    0  502  0.16945362487E+03  0.22530986277E+03  0.39504994191E+03  0.48532826197E+03  0.50400001928E-02 0.  1.
</event>
<event>
 5   0  0.2987859E-05  0.1700969E+04  0.7818609E-02  0.8760812E-01
       -1   -1    0    0    0  501  0.00000000000E+00  0.00000000000E+00  0.75933677284E+03  0.75933677286E+03  0.50400001928E-02 0.  1.
        1   -1    0    0  501    0  0.00000000000E+00  0.00000000000E+00 -0.95257298450E+03  0.95257298451E+03  0.50400001928E-02 0. -1.
    10030    2    1    2    0    0  0.00000000000E+00  0.00000000000E+00 -0.19323621166E+03  0.17119097574E+04  0.17009687780E+04 0.  0.
        5    1    3    3  502    0 -0.37724150448E+02 -0.26685244641E+03 -0.90844668964E+03  0.94759211562E+03  0.46999998093E+01 0. -1.
       -5    1    3    3    0  502  0.37724150448E+02  0.26685244641E+03  0.71521047798E+03  0.76431764175E+03  0.46999998093E+01 0.  1.
</event>
<event>
 5   0  0.5821584E-05  0.1708597E+04  0.7818609E-02  0.8756476E-01
       -2   -1    0    0    0  501  0.00000000000E+00  0.00000000000E+00  0.10031165405E+04  0.10031165405E+04  0.25500000920E-02 0. -1.
        2   -1    0    0  501    0  0.00000000000E+00  0.00000000000E+00 -0.72755842382E+03  0.72755842383E+03  0.25500000920E-02 0.  1.
    10030    2    1    2    0    0  0.00000000000E+00  0.00000000000E+00  0.27555811667E+03  0.17306749643E+04  0.17085969555E+04 0.  0.
        1    1    3    3  502    0  0.12953370321E+03 -0.48015570585E+03 -0.56581696300E+03  0.75331090379E+03  0.50400001928E-02 0.  1.
       -1    1    3    3    0  502 -0.12953370321E+03  0.48015570585E+03  0.84137507966E+03  0.97736406054E+03  0.50400001928E-02 0. -1.
</event>
<event>
 5   0  0.5859822E-05  0.1698597E+04  0.7818609E-02  0.8762165E-01
       -2   -1    0    0    0  501  0.00000000000E+00  0.00000000000E+00  0.11122502949E+04  0.11122502949E+04  0.25500000920E-02 0. -1.
        2   -1    0    0  501    0  0.00000000000E+00  0.00000000000E+00 -0.64851191510E+03  0.64851191511E+03  0.25500000920E-02 0.  1.
    10030    2    1    2    0    0  0.00000000000E+00  0.00000000000E+00  0.46373837976E+03  0.17607622100E+04  0.16985965605E+04 0.  0.
        5    1    3    3  502    0 -0.65120985866E+03  0.49301386286E+03 -0.93455280702E+01  0.81685150295E+03  0.46999998093E+01 0.  1.
       -5    1    3    3    0  502  0.65120985866E+03 -0.49301386286E+03  0.47308390783E+03  0.94391070702E+03  0.46999998093E+01 0. -1.
</event>
<event>
 5   0  0.5755321E-05  0.1695377E+04  0.7818609E-02  0.8764006E-01
       -2   -1    0    0    0  501  0.00000000000E+00  0.00000000000E+00  0.48872127982E+03  0.48872127982E+03  0.25500000920E-02 0.  1.
        2   -1    0    0  501    0  0.00000000000E+00  0.00000000000E+00 -0.14703173898E+04  0.14703173898E+04  0.25500000920E-02 0. -1.
    10030    2    1    2    0    0  0.00000000000E+00  0.00000000000E+00 -0.98159610995E+03  0.19590386696E+04  0.16953765322E+04 0.  0.
        4    1    3    3  502    0  0.14202954233E+03  0.64007010162E+02 -0.14536329686E+04  0.14619574920E+04  0.12699999809E+01 0. -1.
       -4    1    3    3    0  502 -0.14202954233E+03 -0.64007010162E+02  0.47203685865E+03  0.49708117755E+03  0.12699999809E+01 0.  1.
</event>
<event>
 5   0  0.2987859E-05  0.1700604E+04  0.7818609E-02  0.8761020E-01
        1   -1    0    0  501    0  0.00000000000E+00  0.00000000000E+00  0.11318260137E+04  0.11318260137E+04  0.50400001928E-02 0.  1.
       -1   -1    0    0    0  501  0.00000000000E+00  0.00000000000E+00 -0.63880253937E+03  0.63880253939E+03  0.50400001928E-02 0. -1.
    10030    2    1    2    0    0  0.00000000000E+00  0.00000000000E+00  0.49302347434E+03  0.17706285531E+04  0.17006038124E+04 0.  0.
        5    1    3    3  502    0  0.47638422273E+03 -0.27788175322E+03  0.92033150521E+03  0.10729363289E+04  0.46999998093E+01 0.  1.
       -5    1    3    3    0  502 -0.47638422273E+03  0.27788175322E+03 -0.42730803088E+03  0.69769222418E+03  0.46999998093E+01 0. -1.
</event>
<event>
 5   0  0.2911632E-05  0.1698636E+04  0.7818609E-02  0.8762143E-01
        1   -1    0    0  501    0  0.00000000000E+00  0.00000000000E+00  0.18553395098E+04  0.18553395098E+04  0.50400001928E-02 0.  1.
       -1   -1    0    0    0  501  0.00000000000E+00  0.00000000000E+00 -0.38879205996E+03  0.38879205999E+03  0.50400001928E-02 0. -1.
    10030    2    1    2    0    0  0.00000000000E+00  0.00000000000E+00  0.14665474498E+04  0.22441315698E+04  0.16986362412E+04 0.  0.
        1    1    3    3  502    0  0.57045482164E+03 -0.48560578044E+03  0.20463788265E+03  0.77660050256E+03  0.50400001928E-02 0. -1.
       -1    1    3    3    0  502 -0.57045482164E+03  0.48560578044E+03  0.12619095672E+04  0.14675310672E+04  0.50400001928E-02 0.  1.
</event>
<event>
 5   0  0.2967704E-05  0.1698872E+04  0.7818609E-02  0.8762008E-01
        1   -1    0    0  501    0  0.00000000000E+00  0.00000000000E+00  0.83924552240E+03  0.83924552242E+03  0.50400001928E-02 0. -1.
       -1   -1    0    0    0  501  0.00000000000E+00  0.00000000000E+00 -0.85975051199E+03  0.85975051201E+03  0.50400001928E-02 0.  1.
    10030    2    1    2    0    0  0.00000000000E+00  0.00000000000E+00 -0.20504989588E+02  0.16989960344E+04  0.16988722937E+04 0.  0.
        2    1    3    3  502    0  0.58823639562E+03 -0.55543821380E+03 -0.26913057961E+03  0.85262238733E+03  0.25500000920E-02 0.  1.
       -2    1    3    3    0  502 -0.58823639562E+03  0.55543821380E+03  0.24862559002E+03  0.84637364710E+03  0.25500000920E-02 0. -1.
</event>
<event>
 5   0  0.2967704E-05  0.1695759E+04  0.7818609E-02  0.8763787E-01
        1   -1    0    0  501    0  0.00000000000E+00  0.00000000000E+00  0.43248048583E+03  0.43248048586E+03  0.50400001928E-02 0.  1.
       -1   -1    0    0    0  501  0.00000000000E+00  0.00000000000E+00 -0.16622715825E+04  0.16622715825E+04  0.50400001928E-02 0. -1.
    10030    2    1    2    0    0  0.00000000000E+00  0.00000000000E+00 -0.12297910967E+04  0.20947520683E+04  0.16957594424E+04 0.  0.
        2    1    3    3  502    0  0.46076357169E+03  0.24640789736E+03 -0.14397502025E+04  0.15316333002E+04  0.25500000920E-02 0. -1.
       -2    1    3    3    0  502 -0.46076357169E+03 -0.24640789736E+03  0.20995910581E+03  0.56311876811E+03  0.25500000920E-02 0.  1.
</event>
<event>
 5   0  0.2987859E-05  0.1698495E+04  0.7818609E-02  0.8762223E-01
        1   -1    0    0  501    0  0.00000000000E+00  0.00000000000E+00  0.12728296222E+04  0.12728296222E+04  0.50400001928E-02 0.  1.
       -1   -1    0    0    0  501  0.00000000000E+00  0.00000000000E+00 -0.56662838811E+03  0.56662838813E+03  0.50400001928E-02 0. -1.
    10030    2    1    2    0    0  0.00000000000E+00  0.00000000000E+00  0.70620123407E+03  0.18394580103E+04  0.16984950953E+04 0.  0.
        5    1    3    3  502    0 -0.71581716007E+03  0.45670507154E+03  0.36936636773E+03  0.92597372135E+03  0.46999998093E+01 0.  1.
       -5    1    3    3    0  502  0.71581716007E+03 -0.45670507154E+03  0.33683486634E+03  0.91348428897E+03  0.46999998093E+01 0. -1.
</event>
<event>
 5   0  0.5821584E-05  0.1705884E+04  0.7818609E-02  0.8758016E-01
       -2   -1    0    0    0  501  0.00000000000E+00  0.00000000000E+00  0.96896517428E+03  0.96896517428E+03  0.25500000920E-02 0. -1.
        2   -1    0    0  501    0  0.00000000000E+00  0.00000000000E+00 -0.75081142850E+03  0.75081142850E+03  0.25500000920E-02 0.  1.
    10030    2    1    2    0    0  0.00000000000E+00  0.00000000000E+00  0.21815374578E+03  0.17197766028E+04  0.17058840836E+04 0.  0.
        1    1    3    3  502    0 -0.33050306199E+03 -0.68965323834E+03  0.48985144729E+03  0.90818957469E+03  0.50400001928E-02 0. -1.
       -1    1    3    3    0  502  0.33050306199E+03  0.68965323834E+03 -0.27169770151E+03  0.81158702810E+03  0.50400001928E-02 0.  1.
</event>
<event>
 5   0  0.2967704E-05  0.1698872E+04  0.7818609E-02  0.8762008E-01
       -1   -1    0    0    0  501  0.00000000000E+00  0.00000000000E+00  0.34527318869E+03  0.34527318873E+03  0.50400001928E-02 0. -1.
        1   -1    0    0  501    0  0.00000000000E+00  0.00000000000E+00 -0.20897688054E+04  0.20897688054E+04  0.50400001928E-02 0.  1.
    10030    2    1    2    0    0  0.00000000000E+00  0.00000000000E+00 -0.17444956167E+04  0.24350419942E+04  0.16988715539E+04 0.  0.
        2    1    3    3  502    0 -0.81603251057E+03  0.22418572959E+03 -0.76718528103E+03  0.11422528420E+04  0.25500000920E-02 0. -1.
       -2    1    3    3    0  502  0.81603251057E+03 -0.22418572959E+03 -0.97731033571E+03  0.12927891522E+04  0.25500000920E-02 0.  1.
</event>
<event>
 5   0  0.2911632E-05  0.1679460E+04  0.7818609E-02  0.8773167E-01
        1   -1    0    0  501    0  0.00000000000E+00  0.00000000000E+00  0.11648660042E+04  0.11648660042E+04  0.50400001928E-02 0.  1.
       -1   -1    0    0    0  501  0.00000000000E+00  0.00000000000E+00 -0.60534540567E+03  0.60534540569E+03  0.50400001928E-02 0. -1.
    10030    2    1    2    0    0  0.00000000000E+00  0.00000000000E+00  0.55952059853E+03  0.17702114099E+04  0.16794597749E+04 0.  0.
        1    1    3    3  502    0  0.45631090030E+03 -0.22137830733E+03 -0.42567132990E+03  0.66213599345E+03  0.50400001928E-02 0. -1.
       -1    1    3    3    0  502 -0.45631090030E+03  0.22137830733E+03  0.98519192843E+03  0.11080754165E+04  0.50400001928E-02 0.  1.
</event>
<event>
 5   0  0.5755321E-05  0.1681300E+04  0.7818609E-02  0.8772102E-01
       -2   -1    0    0    0  501  0.00000000000E+00  0.00000000000E+00  0.69306299529E+03  0.69306299530E+03  0.25500000920E-02 0. -1.
        2   -1    0    0  501    0  0.00000000000E+00  0.00000000000E+00 -0.10196650196E+04  0.10196650196E+04  0.25500000920E-02 0.  1.
    10030    2    1    2    0    0  0.00000000000E+00  0.00000000000E+00 -0.32660202432E+03  0.17127280149E+04  0.16812996077E+04 0.  0.
        4    1    3    3  502    0  0.37767806666E+03 -0.30948264770E+03  0.53379335392E+03  0.72343430168E+03  0.12699999809E+01 0.  1.
       -4    1    3    3    0  502 -0.37767806666E+03  0.30948264770E+03 -0.86039537824E+03  0.98929371324E+03  0.12699999809E+01 0. -1.
</event>
<event>
 5   0  0.2987859E-05  0.1699581E+04  0.7818609E-02  0.8761604E-01
        1   -1    0    0  501    0  0.00000000000E+00  0.00000000000E+00  0.53656253628E+03  0.53656253630E+03  0.50400001928E-02 0. -1.
       -1   -1    0    0    0  501  0.00000000000E+00  0.00000000000E+00 -0.13458701903E+04  0.13458701903E+04  0.50400001928E-02 0.  1.
    10030    2    1    2    0    0  0.00000000000E+00  0.00000000000E+00 -0.80930765399E+03  0.18824327266E+04  0.16995805633E+04 0.  0.
        5    1    3    3  502    0 -0.70540417578E+03 -0.40105149342E+03 -0.68416112547E+03  0.10613839490E+04  0.46999998093E+01 0. -1.
       -5    1    3    3    0  502  0.70540417578E+03  0.40105149342E+03 -0.12514652853E+03  0.82104877759E+03  0.46999998093E+01 0.  1.
</event>
<event>
 5   0  0.2987859E-05  0.1704672E+04  0.7818609E-02  0.8758704E-01
        1   -1    0    0  501    0  0.00000000000E+00  0.00000000000E+00  0.18153830691E+04  0.18153830691E+04  0.50400001928E-02 0. -1.
       -1   -1    0    0    0  501  0.00000000000E+00  0.00000000000E+00 -0.40017819250E+03  0.40017819253E+03  0.50400001928E-02 0.  1.
    10030    2    1    2    0    0  0.00000000000E+00  0.00000000000E+00  0.14152048766E+04  0.22155612617E+04  0.17046720686E+04 0.  0.
        5    1    3    3  502    0 -0.82875060357E+03  0.19440582648E+03  0.76325381587E+03  0.11433283281E+04  0.46999998093E+01 0. -1.
       -5    1    3    3    0  502  0.82875060357E+03 -0.19440582648E+03  0.65195106075E+03  0.10722329336E+04  0.46999998093E+01 0.  1.
</event>
<event>
 5   0  0.2967704E-05  0.1697221E+04  0.7818609E-02  0.8762951E-01
       -1   -1    0    0    0  501  0.00000000000E+00  0.00000000000E+00  0.98920562793E+03  0.98920562795E+03  0.50400001928E-02 0. -1.
        1   -1    0    0  501    0  0.00000000000E+00  0.00000000000E+00 -0.72799838290E+03  0.72799838292E+03  0.50400001928E-02 0.  1.
    10030    2    1    2    0    0  0.00000000000E+00  0.00000000000E+00  0.26120724503E+03  0.17172040109E+04  0.16972213733E+04 0.  0.
        2    1    3    3  502    0 -0.35492763408E+03  0.61173485494E+03  0.60511033823E+03  0.93078014570E+03  0.25500000920E-02 0. -1.
       -2    1    3    3    0  502  0.35492763408E+03 -0.61173485494E+03 -0.34390309320E+03  0.78642386517E+03  0.25500000920E-02 0.  1.
</event>
<event>
 5   0  0.5821584E-05  0.1698501E+04  0.7818609E-02  0.8762220E-01
       -2   -1    0    0    0  501  0.00000000000E+00  0.00000000000E+00  0.51339566085E+03  0.51339566085E+03  0.25500000920E-02 0. -1.
        2   -1    0    0  501    0  0.00000000000E+00  0.00000000000E+00 -0.14048165562E+04  0.14048165562E+04  0.25500000920E-02 0.  1.
    10030    2    1    2    0    0  0.00000000000E+00  0.00000000000E+00 -0.89142089532E+03  0.19182122170E+04  0.16985013679E+04 0.  0.
        1    1    3    3  502    0 -0.52713434663E+03 -0.62745291087E+02 -0.11943456303E+04  0.13070076800E+04  0.50400001928E-02 0.  1.
       -1    1    3    3    0  502  0.52713434663E+03  0.62745291087E+02  0.30292473500E+03  0.61120453700E+03  0.50400001928E-02 0. -1.
</event>
<event>
 5   0  0.2966258E-05  0.1700812E+04  0.7818609E-02  0.8760901E-01
       -1   -1    0    0    0  501  0.00000000000E+00  0.00000000000E+00  0.79182345530E+03  0.79182345532E+03  0.50400001928E-02 0.  1.
        1   -1    0    0  501    0  0.00000000000E+00  0.00000000000E+00 -0.91332278659E+03  0.91332278661E+03  0.50400001928E-02 0. -1.
    10030    2    1    2    0    0  0.00000000000E+00  0.00000000000E+00 -0.12149933129E+03  0.17051462419E+04  0.17008120469E+04 0.  0.
        4    1    3    3  502    0 -0.64425463606E+03  0.54927886969E+03  0.19563646791E+02  0.84685043659E+03  0.12699999809E+01 0. -1.
       -4    1    3    3    0  502  0.64425463606E+03 -0.54927886969E+03 -0.14106297808E+03  0.85829580534E+03  0.12699999809E+01 0.  1.
</event>
<event>
 5   0  0.5821584E-05  0.1699305E+04  0.7818609E-02  0.8761761E-01
        2   -1    0    0  501    0  0.00000000000E+00  0.00000000000E+00  0.56019994005E+03  0.56019994006E+03  0.25500000920E-02 0. -1.
       -2   -1    0    0    0  501  0.00000000000E+00  0.00000000000E+00 -0.12886640620E+04  0.12886640620E+04  0.25500000920E-02 0.  1.
    10030    2    1    2    0    0  0.00000000000E+00  0.00000000000E+00 -0.72846412193E+03  0.18488640020E+04  0.16993051877E+04 0.  0.
        1    1    3    3  502    0  0.77737130503E+02  0.80579610293E+03 -0.64492877858E+03  0.10350282848E+04  0.50400001928E-02 0. -1.
       -1    1    3    3    0  502 -0.77737130503E+02 -0.80579610293E+03 -0.83535343346E+02  0.81383571719E+03  0.50400001928E-02 0.  1.
</event>
<event>
 5   0  0.5671132E-05  0.1701596E+04  0.7818609E-02  0.8760454E-01
        2   -1    0    0  501    0  0.00000000000E+00  0.00000000000E+00  0.86237214394E+03  0.86237214394E+03  0.25500000920E-02 0. -1.
       -2   -1    0    0    0  501  0.00000000000E+00  0.00000000000E+00 -0.83937946253E+03  0.83937946253E+03  0.25500000920E-02 0.  1.
    10030    2    1    2    0    0  0.00000000000E+00  0.00000000000E+00  0.22992681406E+02  0.17017516065E+04  0.17015962702E+04 0.  0.
        3    1    3    3  502    0  0.17297164852E+03 -0.16531781020E+03 -0.80503902283E+03  0.83984344258E+03  0.10100000352E+00 0.  1.
       -3    1    3    3    0  502 -0.17297164852E+03  0.16531781020E+03  0.82803170424E+03  0.86190816389E+03  0.10100000352E+00 0. -1.
</event>
<event>
 5   0  0.5671132E-05  0.1700446E+04  0.7818609E-02  0.8761110E-01
        2   -1    0    0  501    0  0.00000000000E+00  0.00000000000E+00  0.98128858793E+03  0.98128858793E+03  0.25500000920E-02 0.  1.
       -2   -1    0    0    0  501  0.00000000000E+00  0.00000000000E+00 -0.73666300033E+03  0.73666300034E+03  0.25500000920E-02 0. -1.
    10030    2    1    2    0    0  0.00000000000E+00  0.00000000000E+00  0.24462558759E+03  0.17179515883E+04  0.17004458185E+04 0.  0.
        3    1    3    3  502    0  0.77497628476E+03  0.88034946972E+02  0.46423541430E+03  0.90766344198E+03  0.10100000352E+00 0.  1.
       -3    1    3    3    0  502 -0.77497628476E+03 -0.88034946972E+02 -0.21960982671E+03  0.81028814628E+03  0.10100000352E+00 0. -1.
</event>
<event>
 5   0  0.2911632E-05  0.1704962E+04  0.7818609E-02  0.8758539E-01
        1   -1    0    0  501    0  0.00000000000E+00  0.00000000000E+00  0.10603420678E+04  0.10603420678E+04  0.50400001928E-02 0.  1.
       -1   -1    0    0    0  501  0.00000000000E+00  0.00000000000E+00 -0.68536768984E+03  0.68536768986E+03  0.50400001928E-02 0. -1.
    10030    2    1    2    0    0  0.00000000000E+00  0.00000000000E+00  0.37497437799E+03  0.17457097577E+04  0.17049623966E+04 0.  0.
        1    1    3    3  502    0 -0.27889139373E+02  0.33291797545E+03 -0.61554755930E+03  0.70036489080E+03  0.50400001928E-02 0. -1.
       -1    1    3    3    0  502  0.27889139373E+02 -0.33291797545E+03  0.99052193729E+03  0.10453448669E+04  0.50400001928E-02 0.  1.
</event>
<event>
 5   0  0.2987859E-05  0.1699978E+04  0.7818609E-02  0.8761377E-01
       -1   -1    0    0    0  501  0.00000000000E+00  0.00000000000E+00  0.78460938414E+03  0.78460938415E+03  0.50400001928E-02 0.  1.
        1   -1    0    0  501    0  0.00000000000E+00  0.00000000000E+00 -0.92081631615E+03  0.92081631616E+03  0.50400001928E-02 0. -1.
    10030    2    1    2    0    0  0.00000000000E+00  0.00000000000E+00 -0.13620693201E+03  0.17054257003E+04  0.16999777913E+04 0.  0.
        5    1    3    3  502    0 -0.37172795149E+03 -0.70581588684E+03  0.22626711274E+03  0.82920240734E+03  0.46999998093E+01 0.  1.
       -5    1    3    3    0  502  0.37172795149E+03  0.70581588684E+03 -0.36247404476E+03  0.87622329298E+03  0.46999998093E+01 0. -1.
</event>
<event>
 5   0  0.5671132E-05  0.1699256E+04  0.7818609E-02  0.8761789E-01
        2   -1    0    0  501    0  0.00000000000E+00  0.00000000000E+00  0.16618107326E+04  0.16618107326E+04  0.25500000920E-02 0.  1.
       -2   -1    0    0    0  501  0.00000000000E+00  0.00000000000E+00 -0.43438645319E+03  0.43438645320E+03  0.25500000920E-02 0. -1.
    10030    2    1    2    0    0  0.00000000000E+00  0.00000000000E+00  0.12274242794E+04  0.20961971858E+04  0.16992563903E+04 0.  0.
        3    1    3    3  502    0 -0.23601403106E+03  0.59819533352E+03  0.12986947555E+04  0.14491888621E+04  0.10100000352E+00 0.  1.
       -3    1    3    3    0  502  0.23601403106E+03 -0.59819533352E+03 -0.71270476136E+02  0.64700832365E+03  0.10100000352E+00 0. -1.
</event>
<event>
 5   0  0.2987859E-05  0.1693613E+04  0.7818609E-02  0.8765015E-01
        1   -1    0    0  501    0  0.00000000000E+00  0.00000000000E+00  0.10769321851E+04  0.10769321851E+04  0.50400001928E-02 0. -1.
       -1   -1    0    0    0  501  0.00000000000E+00  0.00000000000E+00 -0.66585582430E+03  0.66585582432E+03  0.50400001928E-02 0.  1.
    10030    2    1    2    0    0  0.00000000000E+00  0.00000000000E+00  0.41107636078E+03  0.17427880094E+04  0.16936133772E+04 0.  0.
        5    1    3    3  502    0  0.10483059748E+03  0.12402229552E+03  0.10607454788E+04  0.10731141807E+04  0.46999998093E+01 0. -1.
       -5    1    3    3    0  502 -0.10483059748E+03 -0.12402229552E+03 -0.64966911804E+03  0.66967382873E+03  0.46999998093E+01 0.  1.
</event>
<event>
 5   0  0.5652631E-05  0.1698669E+04  0.7818609E-02  0.8762124E-01
        2   -1    0    0  501    0  0.00000000000E+00  0.00000000000E+00  0.12618685374E+04  0.12618685374E+04  0.25500000920E-02 0. -1.
       -2   -1    0    0    0  501  0.00000000000E+00  0.00000000000E+00 -0.57166746681E+03  0.57166746682E+03  0.25500000920E-02 0.  1.
    10030    2    1    2    0    0  0.00000000000E+00  0.00000000000E+00  0.69020107056E+03  0.18335360042E+04  0.16986691146E+04 0.  0.
        2    1    3    3  502    0  0.62947327520E+03  0.15303437624E+03 -0.24779435951E+03  0.69358357039E+03  0.25500000920E-02 0.  1.
       -2    1    3    3    0  502 -0.62947327520E+03 -0.15303437624E+03  0.93799543007E+03  0.11399524338E+04  0.25500000920E-02 0. -1.
</event>
<event>
 5   0  0.2993769E-05  0.1710678E+04  0.7818609E-02  0.8755298E-01
        1   -1    0    0  501    0  0.00000000000E+00  0.00000000000E+00  0.11562806972E+04  0.11562806972E+04  0.50400001928E-02 0. -1.
       -1   -1    0    0    0  501  0.00000000000E+00  0.00000000000E+00 -0.63272244192E+03  0.63272244194E+03  0.50400001928E-02 0.  1.
    10030    2    1    2    0    0  0.00000000000E+00  0.00000000000E+00  0.52355825531E+03  0.17890031392E+04  0.17106779315E+04 0.  0.
        3    1    3    3  502    0 -0.60084207770E+03 -0.26774141459E+03  0.83353636291E+03  0.10618283976E+04  0.10100000352E+00 0. -1.
       -3    1    3    3    0  502  0.60084207770E+03  0.26774141459E+03 -0.30997810761E+03  0.72717474160E+03  0.10100000352E+00 0.  1.
</event>
<event>
 5   0  0.2911632E-05  0.1702639E+04  0.7818609E-02  0.8759861E-01
        1   -1    0    0  501    0  0.00000000000E+00  0.00000000000E+00  0.99488233494E+03  0.99488233495E+03  0.50400001928E-02 0. -1.
       -1   -1    0    0    0  501  0.00000000000E+00  0.00000000000E+00 -0.72847298051E+03  0.72847298053E+03  0.50400001928E-02 0.  1.
    10030    2    1    2    0    0  0.00000000000E+00  0.00000000000E+00  0.26640935443E+03  0.17233553155E+04  0.17026390103E+04 0.  0.
        1    1    3    3  502    0  0.51752613738E+03 -0.48058746785E+03 -0.34791798050E+03  0.78730206294E+03  0.50400001928E-02 0.  1.
       -1    1    3    3    0  502 -0.51752613738E+03  0.48058746785E+03  0.61432733493E+03  0.93605325254E+03  0.50400001928E-02 0. -1.
</event>
<event>
 5   0  0.2966258E-05  0.1699681E+04  0.7818609E-02  0.8761546E-01
        1   -1    0    0  501    0  0.00000000000E+00  0.00000000000E+00  0.80303587380E+03  0.80303587382E+03  0.50400001928E-02 0.  1.
       -1   -1    0    0    0  501  0.00000000000E+00  0.00000000000E+00 -0.89937280467E+03  0.89937280468E+03  0.50400001928E-02 0. -1.
    10030    2    1    2    0    0  0.00000000000E+00  0.00000000000E+00 -0.96336930868E+02  0.17024086785E+04  0.16996807066E+04 0.  0.
        4    1    3    3  502    0 -0.22379019495E+03  0.81934706426E+03 -0.76768631210E+02  0.85282278271E+03  0.12699999809E+01 0. -1.
       -4    1    3    3    0  502  0.22379019495E+03 -0.81934706426E+03 -0.19568299658E+02  0.84958589579E+03  0.12699999809E+01 0.  1.
</event>
<event>
 5   0  0.5755321E-05  0.1678972E+04  0.7818609E-02  0.8773449E-01
        2   -1    0    0  501    0  0.00000000000E+00  0.00000000000E+00  0.82902262290E+03  0.82902262290E+03  0.25500000920E-02 0. -1.
       -2   -1    0    0    0  501  0.00000000000E+00  0.00000000000E+00 -0.85008106510E+03  0.85008106510E+03  0.25500000920E-02 0.  1.
    10030    2    1    2    0    0  0.00000000000E+00  0.00000000000E+00 -0.21058442197E+02  0.16791036880E+04  0.16789716308E+04 0.  0.
        4    1    3    3  502    0  0.12603285692E+03 -0.74096865986E+03  0.36341994708E+03  0.83486196868E+03  0.12699999809E+01 0. -1.
       -4    1    3    3    0  502 -0.12603285692E+03  0.74096865986E+03 -0.38447838928E+03  0.84424171932E+03  0.12699999809E+01 0.  1.
</event>
<event>
 5   0  0.2993769E-05  0.1706161E+04  0.7818609E-02  0.8757858E-01
        1   -1    0    0  501    0  0.00000000000E+00  0.00000000000E+00  0.10278924071E+04  0.10278924072E+04  0.50400001928E-02 0.  1.
       -1   -1    0    0    0  501  0.00000000000E+00  0.00000000000E+00 -0.70799861791E+03  0.70799861793E+03  0.50400001928E-02 0. -1.
    10030    2    1    2    0    0  0.00000000000E+00  0.00000000000E+00  0.31989378923E+03  0.17358910251E+04  0.17061610752E+04 0.  0.
        3    1    3    3  502    0  0.58214098979E+03 -0.29479575299E+03  0.71902517960E+03  0.97097367991E+03  0.10100000352E+00 0.  1.
       -3    1    3    3    0  502 -0.58214098979E+03  0.29479575299E+03 -0.39913139037E+03  0.76491734518E+03  0.10100000352E+00 0. -1.
</event>
<event>
 5   0  0.2987859E-05  0.1700456E+04  0.7818609E-02  0.8761104E-01
       -1   -1    0    0    0  501  0.00000000000E+00  0.00000000000E+00  0.78189297812E+03  0.78189297813E+03  0.50400001928E-02 0. -1.
        1   -1    0    0  501    0  0.00000000000E+00  0.00000000000E+00 -0.92453531058E+03  0.92453531060E+03  0.50400001928E-02 0.  1.
    10030    2    1    2    0    0  0.00000000000E+00  0.00000000000E+00 -0.14264233246E+03  0.17064282887E+04  0.17004560181E+04 0.  0.
        5    1    3    3  502    0 -0.69586096919E+03  0.63396778310E+02 -0.55740233681E+03  0.89384623679E+03  0.46999998093E+01 0.  1.
       -5    1    3    3    0  502  0.69586096919E+03 -0.63396778310E+02  0.41476000434E+03  0.81258205194E+03  0.46999998093E+01 0. -1.
</event>
<event>
 5   0  0.2966258E-05  0.1700879E+04  0.7818609E-02  0.8760863E-01
        1   -1    0    0  501    0  0.00000000000E+00  0.00000000000E+00  0.22023901543E+04  0.22023901543E+04  0.50400001928E-02 0.  1.
       -1   -1    0    0    0  501  0.00000000000E+00  0.00000000000E+00 -0.32839215389E+03  0.32839215393E+03  0.50400001928E-02 0. -1.
    10030    2    1    2    0    0  0.00000000000E+00  0.00000000000E+00  0.18739980004E+04  0.25307823083E+04  0.17008793567E+04 0.  0.
        4    1    3    3  502    0  0.70926511163E+03  0.40550510784E+03  0.12883343086E+04  0.15255485226E+04  0.12699999809E+01 0.  1.
       -4    1    3    3    0  502 -0.70926511163E+03 -0.40550510784E+03  0.58566369179E+03  0.10052337857E+04  0.12699999809E+01 0. -1.
</event>
<event>
 5   0  0.5652631E-05  0.1695633E+04  0.7818609E-02  0.8763859E-01
       -2   -1    0    0    0  501  0.00000000000E+00  0.00000000000E+00  0.63799126790E+03  0.63799126791E+03  0.25500000920E-02 0.  1.
        2   -1    0    0  501    0  0.00000000000E+00  0.00000000000E+00 -0.11266501752E+04  0.11266501752E+04  0.25500000920E-02 0. -1.
    10030    2    1    2    0    0  0.00000000000E+00  0.00000000000E+00 -0.48865890727E+03  0.17646414431E+04  0.16956331841E+04 0.  0.
        2    1    3    3  502    0 -0.29144024357E+03  0.62720800381E+03 -0.75465947353E+03  0.10236396908E+04  0.25500000920E-02 0. -1.
       -2    1    3    3    0  502  0.29144024357E+03 -0.62720800381E+03  0.26600056626E+03  0.74100175227E+03  0.25500000920E-02 0.  1.
</event>
<event>
 5   0  0.5755321E-05  0.1701077E+04  0.7818609E-02  0.8760750E-01
        2   -1    0    0  501    0  0.00000000000E+00  0.00000000000E+00  0.23301424121E+04  0.23301424121E+04  0.25500000920E-02 0. -1.
       -2   -1    0    0    0  501  0.00000000000E+00  0.00000000000E+00 -0.31045995283E+03  0.31045995284E+03  0.25500000920E-02 0.  1.
    10030    2    1    2    0    0  0.00000000000E+00  0.00000000000E+00  0.20196824593E+04  0.26406023650E+04  0.17010771921E+04 0.  0.
        4    1    3    3  502    0  0.40600350407E+03 -0.62438231105E+02  0.21659508923E+04  0.22045594251E+04  0.12699999809E+01 0. -1.
       -4    1    3    3    0  502 -0.40600350407E+03  0.62438231105E+02 -0.14626843300E+03  0.43604293987E+03  0.12699999809E+01 0.  1.
</event>
<event>
 5   0  0.5755321E-05  0.1700905E+04  0.7818609E-02  0.8760848E-01
       -2   -1    0    0    0  501  0.00000000000E+00  0.00000000000E+00  0.48833798014E+03  0.48833798015E+03  0.25500000920E-02 0. -1.
        2   -1    0    0  501    0  0.00000000000E+00  0.00000000000E+00 -0.14810840429E+04  0.14810840429E+04  0.25500000920E-02 0.  1.
    10030    2    1    2    0    0  0.00000000000E+00  0.00000000000E+00 -0.99274606276E+03  0.19694220231E+04  0.17009051590E+04 0.  0.
        4    1    3    3  502    0  0.15552124124E+03  0.46465408242E+03  0.30847175423E+03  0.57900492990E+03  0.12699999809E+01 0. -1.
       -4    1    3    3    0  502 -0.15552124124E+03 -0.46465408242E+03 -0.13012178170E+04  0.13904170932E+04  0.12699999809E+01 0.  1.
</event>
<event>
 5   0  0.2966258E-05  0.1699647E+04  0.7818609E-02  0.8761566E-01
        1   -1    0    0  501    0  0.00000000000E+00  0.00000000000E+00  0.50223454353E+03  0.50223454356E+03  0.50400001928E-02 0. -1.
       -1   -1    0    0    0  501  0.00000000000E+00  0.00000000000E+00 -0.14379729460E+04  0.14379729460E+04  0.50400001928E-02 0.  1.
    10030    2    1    2    0    0  0.00000000000E+00  0.00000000000E+00 -0.93573840251E+03  0.19402074896E+04  0.16996466529E+04 0.  0.
        4    1    3    3  502    0  0.78168520913E+02 -0.60097664185E+03 -0.11479360544E+04  0.12980916916E+04  0.12699999809E+01 0.  1.
       -4    1    3    3    0  502 -0.78168520913E+02  0.60097664185E+03  0.21219765194E+03  0.64211579804E+03  0.12699999809E+01 0. -1.
</event>
<event>
 5   0  0.5652631E-05  0.1697439E+04  0.7818609E-02  0.8762826E-01
       -2   -1    0    0    0  501  0.00000000000E+00  0.00000000000E+00  0.80686043203E+03  0.80686043204E+03  0.25500000920E-02 0.  1.
        2   -1    0    0  501    0  0.00000000000E+00  0.00000000000E+00 -0.89275038541E+03  0.89275038541E+03  0.25500000920E-02 0. -1.
    10030    2    1    2    0    0  0.00000000000E+00  0.00000000000E+00 -0.85889953375E+02  0.16996108175E+04  0.16974392027E+04 0.  0.
        2    1    3    3  502    0  0.24731097284E+03 -0.72462495842E+03 -0.40958404398E+03  0.86833354003E+03  0.25500000920E-02 0. -1.
       -2    1    3    3    0  502 -0.24731097284E+03  0.72462495842E+03  0.32369409061E+03  0.83127727742E+03  0.25500000920E-02 0.  1.
</event>
<event>
 5   0  0.5755321E-05  0.1699998E+04  0.7818609E-02  0.8761366E-01
        2   -1    0    0  501    0  0.00000000000E+00  0.00000000000E+00  0.73687862704E+03  0.73687862704E+03  0.25500000920E-02 0.  1.
       -2   -1    0    0    0  501  0.00000000000E+00  0.00000000000E+00 -0.98048444155E+03  0.98048444156E+03  0.25500000920E-02 0. -1.
    10030    2    1    2    0    0  0.00000000000E+00  0.00000000000E+00 -0.24360581451E+03  0.17173630686E+04  0.16999976813E+04 0.  0.
        4    1    3    3  502    0  0.63790487711E+03 -0.41078190491E+03  0.26529797674E+03  0.80377175554E+03  0.12699999809E+01 0.  1.
       -4    1    3    3    0  502 -0.63790487711E+03  0.41078190491E+03 -0.50890379125E+03  0.91359131306E+03  0.12699999809E+01 0. -1.
</event>
<event>
 5   0  0.5859822E-05  0.1701858E+04  0.7818609E-02  0.8760305E-01
        2   -1    0    0  501    0  0.00000000000E+00  0.00000000000E+00  0.20102645948E+04  0.20102645948E+04  0.25500000920E-02 0. -1.
       -2   -1    0    0    0  501  0.00000000000E+00  0.00000000000E+00 -0.36019139301E+03  0.36019139302E+03  0.25500000920E-02 0.  1.
    10030    2    1    2    0    0  0.00000000000E+00  0.00000000000E+00  0.16500732017E+04  0.23704559878E+04  0.17018578139E+04 0.  0.
        5    1    3    3  502    0  0.30617231620E+03  0.36898534918E+03  0.18041774269E+04  0.18668074225E+04  0.46999998093E+01 0. -1.
       -5    1    3    3    0  502 -0.30617231620E+03 -0.36898534918E+03 -0.15410422512E+03  0.50364856528E+03  0.46999998093E+01 0.  1.
</event>
<event>
 5   0  0.2098250E-05  0.1697646E+04  0.7818609E-02  0.8762708E-01
       -4   -1    0    0    0  501  0.00000000000E+00  0.00000000000E+00  0.63280114991E+03  0.63280242432E+03  0.12699999809E+01 0. -1.
        4   -1    0    0  501    0  0.00000000000E+00  0.00000000000E+00 -0.11385867774E+04  0.11385874857E+04  0.12699999809E+01 0.  1.
    10030    2    1    2    0    0  0.00000000000E+00  0.00000000000E+00 -0.50578562751E+03  0.17713899100E+04  0.16976463449E+04 0.  0.
        5    1    3    3  502    0  0.45891834062E+03  0.54660608879E+03  0.22651524397E+03  0.74880939191E+03  0.46999998093E+01 0. -1.
       -5    1    3    3    0  502 -0.45891834062E+03 -0.54660608879E+03 -0.73230087148E+03  0.10225805181E+04  0.46999998093E+01 0.  1.
</event>
<event>
 5   0  0.5859822E-05  0.1700765E+04  0.7818609E-02  0.8760928E-01
        2   -1    0    0  501    0  0.00000000000E+00  0.00000000000E+00  0.16490690290E+04  0.16490690290E+04  0.25500000920E-02 0. -1.
       -2   -1    0    0    0  501  0.00000000000E+00  0.00000000000E+00 -0.43852038502E+03  0.43852038503E+03  0.25500000920E-02 0.  1.
    10030    2    1    2    0    0  0.00000000000E+00  0.00000000000E+00  0.12105486440E+04  0.20875894140E+04  0.17007649873E+04 0.  0.
        5    1    3    3  502    0 -0.46598584247E+03 -0.50677402393E+03  0.12179699795E+04  0.13990838709E+04  0.46999998093E+01 0. -1.
       -5    1    3    3    0  502  0.46598584247E+03  0.50677402393E+03 -0.74213355598E+01  0.68850554314E+03  0.46999998093E+01 0.  1.
</event>
<event>
 5   0  0.2987859E-05  0.1700843E+04  0.7818609E-02  0.8760883E-01
        1   -1    0    0  501    0  0.00000000000E+00  0.00000000000E+00  0.53273609494E+03  0.53273609496E+03  0.50400001928E-02 0.  1.
       -1   -1    0    0    0  501  0.00000000000E+00  0.00000000000E+00 -0.13575521965E+04  0.13575521965E+04  0.50400001928E-02 0. -1.
    10030    2    1    2    0    0  0.00000000000E+00  0.00000000000E+00 -0.82481610158E+03  0.18902882915E+04  0.17008433859E+04 0.  0.
        5    1    3    3  502    0 -0.26113335644E+03  0.69784827963E+03 -0.86795591812E+03  0.11439197599E+04  0.46999998093E+01 0. -1.
       -5    1    3    3    0  502  0.26113335644E+03 -0.69784827963E+03  0.43139816534E+02  0.74636853162E+03  0.46999998093E+01 0.  1.
</event>
<event>
 5   0  0.2967704E-05  0.1705103E+04  0.7818609E-02  0.8758459E-01
        1   -1    0    0  501    0  0.00000000000E+00  0.00000000000E+00  0.15716967264E+04  0.15716967264E+04  0.50400001928E-02 0. -1.
       -1   -1    0    0    0  501  0.00000000000E+00  0.00000000000E+00 -0.46245838765E+03  0.46245838767E+03  0.50400001928E-02 0.  1.
    10030    2    1    2    0    0  0.00000000000E+00  0.00000000000E+00  0.11092383388E+04  0.20341551141E+04  0.17051033212E+04 0.  0.
        2    1    3    3  502    0 -0.51339327294E+03  0.60242463296E+03  0.93254411879E+03  0.12231625504E+04  0.25500000920E-02 0. -1.
       -2    1    3    3    0  502  0.51339327294E+03 -0.60242463296E+03  0.17669422000E+03  0.81099256376E+03  0.25500000920E-02 0.  1.
</event>
<event>
 5   0  0.5821584E-05  0.1699915E+04  0.7818609E-02  0.8761413E-01
       -2   -1    0    0    0  501  0.00000000000E+00  0.00000000000E+00  0.54688374002E+03  0.54688374003E+03  0.25500000920E-02 0.  1.
        2   -1    0    0  501    0  0.00000000000E+00  0.00000000000E+00 -0.13209899389E+04  0.13209899389E+04  0.25500000920E-02 0. -1.
    10030    2    1    2    0    0  0.00000000000E+00  0.00000000000E+00 -0.77410619885E+03  0.18678736789E+04  0.16999151959E+04 0.  0.
        1    1    3    3  502    0  0.10698233882E+03  0.75850008271E+03 -0.79176564568E+03  0.11016625772E+04  0.50400001928E-02 0. -1.
       -1    1    3    3    0  502 -0.10698233882E+03 -0.75850008271E+03  0.17659446830E+02  0.76621110170E+03  0.50400001928E-02 0.  1.
</event>
<event>
 5   0  0.2966258E-05  0.1701669E+04  0.7818609E-02  0.8760413E-01
        1   -1    0    0  501    0  0.00000000000E+00  0.00000000000E+00  0.74033958724E+03  0.74033958726E+03  0.50400001928E-02 0. -1.
       -1   -1    0    0    0  501  0.00000000000E+00  0.00000000000E+00 -0.97782059166E+03  0.97782059168E+03  0.50400001928E-02 0.  1.
    10030    2    1    2    0    0  0.00000000000E+00  0.00000000000E+00 -0.23748100443E+03  0.17181601789E+04  0.17016689375E+04 0.  0.
        4    1    3    3  502    0  0.40762631364E+03 -0.90136173957E+02  0.62981731313E+03  0.75561577686E+03  0.12699999809E+01 0. -1.
       -4    1    3    3    0  502 -0.40762631364E+03  0.90136173957E+02 -0.86729831755E+03  0.96254440207E+03  0.12699999809E+01 0.  1.
</event>
<event>
 5   0  0.5671132E-05  0.1700182E+04  0.7818609E-02  0.8761261E-01
       -2   -1    0    0    0  501  0.00000000000E+00  0.00000000000E+00  0.17378205194E+04  0.17378205194E+04  0.25500000920E-02 0.  1.
        2   -1    0    0  501    0  0.00000000000E+00  0.00000000000E+00 -0.41583958273E+03  0.41583958273E+03  0.25500000920E-02 0. -1.
    10030    2    1    2    0    0  0.00000000000E+00  0.00000000000E+00  0.13219809366E+04  0.21536601021E+04  0.17001818251E+04 0.  0.
        3    1    3    3  502    0 -0.47790469266E+03  0.60649147046E+03  0.21058211789E+03  0.80035594430E+03  0.10100000352E+00 0. -1.
       -3    1    3    3    0  502  0.47790469266E+03 -0.60649147046E+03  0.11113988188E+04  0.13533041578E+04  0.10100000352E+00 0.  1.
</event>
<event>
 5   0  0.2987859E-05  0.1693499E+04  0.7818609E-02  0.8765081E-01
        1   -1    0    0  501    0  0.00000000000E+00  0.00000000000E+00  0.82213360019E+03  0.82213360020E+03  0.50400001928E-02 0.  1.
       -1   -1    0    0    0  501  0.00000000000E+00  0.00000000000E+00 -0.87210196950E+03  0.87210196951E+03  0.50400001928E-02 0. -1.
    10030    2    1    2    0    0  0.00000000000E+00  0.00000000000E+00 -0.49968369310E+02  0.16942355697E+04  0.16934985467E+04 0.  0.
        5    1    3    3  502    0  0.70508596716E+03  0.35380601957E+03  0.28278149407E+03  0.83804080089E+03  0.46999998093E+01 0.  1.
       -5    1    3    3    0  502 -0.70508596716E+03 -0.35380601957E+03 -0.33274986338E+03  0.85619476882E+03  0.46999998093E+01 0. -1.
</event>
<event>
 5   0  0.2993769E-05  0.1701456E+04  0.7818609E-02  0.8760534E-01
        1   -1    0    0  501    0  0.00000000000E+00  0.00000000000E+00  0.14056766077E+04  0.14056766077E+04  0.50400001928E-02 0.  1.
       -1   -1    0    0    0  501  0.00000000000E+00  0.00000000000E+00 -0.51486830667E+03  0.51486830669E+03  0.50400001928E-02 0. -1.
    10030    2    1    2    0    0  0.00000000000E+00  0.00000000000E+00  0.89080830105E+03  0.19205449144E+04  0.17014562407E+04 0.  0.
        3    1    3    3  502    0 -0.73711655160E+03 -0.39843771932E+03  0.61147042902E+03  0.10372991481E+04  0.10100000352E+00 0.  1.
       -3    1    3    3    0  502  0.73711655160E+03  0.39843771932E+03  0.27933787204E+03  0.88324576635E+03  0.10100000352E+00 0. -1.
</event>
<event>
 5   0  0.2098250E-05  0.1704101E+04  0.7818609E-02  0.8759029E-01
        3   -1    0    0  501    0  0.00000000000E+00  0.00000000000E+00  0.52496047117E+03  0.52496048089E+03  0.10100000352E+00 0.  1.
       -3   -1    0    0    0  501  0.00000000000E+00  0.00000000000E+00 -0.13829418586E+04  0.13829418623E+04  0.10100000352E+00 0. -1.
    10030    2    1    2    0    0  0.00000000000E+00  0.00000000000E+00 -0.85798138742E+03  0.19079023432E+04  0.17041007276E+04 0.  0.
        1    1    3    3  502    0  0.74932242957E+03 -0.40154741614E+03 -0.49296837755E+03  0.98272185900E+03  0.50400001928E-02 0.  1.
       -1    1    3    3    0  502 -0.74932242957E+03  0.40154741614E+03 -0.36501300987E+03  0.92518048416E+03  0.50400001928E-02 0. -1.
</event>
<event>
 5   0  0.5652631E-05  0.1704354E+04  0.7818609E-02  0.8758885E-01
       -2   -1    0    0    0  501  0.00000000000E+00  0.00000000000E+00  0.38606400419E+03  0.38606400420E+03  0.25500000920E-02 0. -1.
        2   -1    0    0  501    0  0.00000000000E+00  0.00000000000E+00 -0.18810505995E+04  0.18810505995E+04  0.25500000920E-02 0.  1.
    10030    2    1    2    0    0  0.00000000000E+00  0.00000000000E+00 -0.14949865953E+04  0.22671146037E+04  0.17043543370E+04 0.  0.
        2    1    3    3  502    0 -0.18212360203E+03  0.15769418184E+03 -0.18348120967E+04  0.18505598860E+04  0.25500000920E-02 0.  1.
       -2    1    3    3    0  502  0.18212360203E+03 -0.15769418184E+03  0.33982550142E+03  0.41655471768E+03  0.25500000920E-02 0. -1.
</event>
<event>
 5   0  0.5859822E-05  0.1699956E+04  0.7818609E-02  0.8761389E-01
        2   -1    0    0  501    0  0.00000000000E+00  0.00000000000E+00  0.18510980611E+04  0.18510980611E+04  0.25500000920E-02 0. -1.
       -2   -1    0    0    0  501  0.00000000000E+00  0.00000000000E+00 -0.39028868257E+03  0.39028868258E+03  0.25500000920E-02 0.  1.
    10030    2    1    2    0    0  0.00000000000E+00  0.00000000000E+00  0.14608093786E+04  0.22413867437E+04  0.16999560272E+04 0.  0.
        5    1    3    3  502    0  0.98887266574E+02 -0.63064614897E+03 -0.95379260996E+01  0.63844053657E+03  0.46999998093E+01 0.  1.
       -5    1    3    3    0  502 -0.98887266574E+02  0.63064614897E+03  0.14703473047E+04  0.16029462071E+04  0.46999998093E+01 0. -1.
</event>
<event>
 5   0  0.2966258E-05  0.1702094E+04  0.7818609E-02  0.8760171E-01
       -1   -1    0    0    0  501  0.00000000000E+00  0.00000000000E+00  0.53867102664E+03  0.53867102666E+03  0.50400001928E-02 0.  1.
        1   -1    0    0  501    0  0.00000000000E+00  0.00000000000E+00 -0.13445697440E+04  0.13445697440E+04  0.50400001928E-02 0. -1.
    10030    2    1    2    0    0  0.00000000000E+00  0.00000000000E+00 -0.80589871734E+03  0.18832407706E+04  0.17020937276E+04 0.  0.
        4    1    3    3  502    0  0.51254598371E+03 -0.29809017976E+03  0.27253075259E+03  0.65256092796E+03  0.12699999809E+01 0.  1.
       -4    1    3    3    0  502 -0.51254598371E+03  0.29809017976E+03 -0.10784294699E+04  0.12306798427E+04  0.12699999809E+01 0. -1.
</event>
<event>
 5   0  0.5755321E-05  0.1699822E+04  0.7818609E-02  0.8761466E-01
       -2   -1    0    0    0  501  0.00000000000E+00  0.00000000000E+00  0.10589432280E+04  0.10589432280E+04  0.25500000920E-02 0.  1.
        2   -1    0    0  501    0  0.00000000000E+00  0.00000000000E+00 -0.68214102246E+03  0.68214102247E+03  0.25500000920E-02 0. -1.
    10030    2    1    2    0    0  0.00000000000E+00  0.00000000000E+00  0.37680220553E+03  0.17410842505E+04  0.16998218922E+04 0.  0.
        4    1    3    3  502    0 -0.21909372345E+03  0.17109431463E+03 -0.63425885021E+03  0.69250359286E+03  0.12699999809E+01 0. -1.
       -4    1    3    3    0  502  0.21909372345E+03 -0.17109431463E+03  0.10110610557E+04  0.10485806576E+04  0.12699999809E+01 0.  1.
</event>
<event>
 5   0  0.2987859E-05  0.1700640E+04  0.7818609E-02  0.8761000E-01
       -1   -1    0    0    0  501  0.00000000000E+00  0.00000000000E+00  0.83974193250E+03  0.83974193252E+03  0.50400001928E-02 0.  1.
        1   -1    0    0  501    0  0.00000000000E+00  0.00000000000E+00 -0.86103109415E+03  0.86103109416E+03  0.50400001928E-02 0. -1.
    10030    2    1    2    0    0  0.00000000000E+00  0.00000000000E+00 -0.21289161648E+02  0.17007730267E+04  0.17006397796E+04 0.  0.
        5    1    3    3  502    0 -0.70272868030E+03  0.23030520100E+03  0.40909503612E+03  0.84513248801E+03  0.46999998093E+01 0.  1.
       -5    1    3    3    0  502  0.70272868030E+03 -0.23030520100E+03 -0.43038419776E+03  0.85564053866E+03  0.46999998093E+01 0. -1.
</event>
<event>
 5   0  0.5652631E-05  0.1698177E+04  0.7818609E-02  0.8762405E-01
        2   -1    0    0  501    0  0.00000000000E+00  0.00000000000E+00  0.10642673445E+04  0.10642673445E+04  0.25500000920E-02 0. -1.
       -2   -1    0    0    0  501  0.00000000000E+00  0.00000000000E+00 -0.67741519419E+03  0.67741519420E+03  0.25500000920E-02 0.  1.
    10030    2    1    2    0    0  0.00000000000E+00  0.00000000000E+00  0.38685215026E+03  0.17416825387E+04  0.16981765159E+04 0.  0.
        2    1    3    3  502    0 -0.52912281824E+03  0.42034477486E+03  0.72068833066E+03  0.98795362062E+03  0.25500000920E-02 0. -1.
       -2    1    3    3    0  502  0.52912281824E+03 -0.42034477486E+03 -0.33383618040E+03  0.75372891803E+03  0.25500000920E-02 0.  1.
</event>
<event>
 5   0  0.5671132E-05  0.1698678E+04  0.7818609E-02  0.8762119E-01
       -2   -1    0    0    0  501  0.00000000000E+00  0.00000000000E+00  0.44776511924E+03  0.44776511925E+03  0.25500000920E-02 0.  1.
        2   -1    0    0  501    0  0.00000000000E+00  0.00000000000E+00 -0.16110600568E+04  0.16110600568E+04  0.25500000920E-02 0. -1.
    10030    2    1    2    0    0  0.00000000000E+00  0.00000000000E+00 -0.11632949375E+04  0.20588251760E+04  0.16986777192E+04 0.  0.
        3    1    3    3  502    0 -0.80916771884E+03  0.25563379522E+03 -0.62493280941E+03  0.10538700399E+04  0.10100000352E+00 0. -1.
       -3    1    3    3    0  502  0.80916771884E+03 -0.25563379522E+03 -0.53836212814E+03  0.10049551362E+04  0.10100000352E+00 0.  1.
</event>
<event>
 5   0  0.2967704E-05  0.1697641E+04  0.7818609E-02  0.8762711E-01
        1   -1    0    0  501    0  0.00000000000E+00  0.00000000000E+00  0.50500462703E+03  0.50500462705E+03  0.50400001928E-02 0. -1.
       -1   -1    0    0    0  501  0.00000000000E+00  0.00000000000E+00 -0.14267122797E+04  0.14267122797E+04  0.50400001928E-02 0.  1.
    10030    2    1    2    0    0  0.00000000000E+00  0.00000000000E+00 -0.92170765263E+03  0.19317169067E+04  0.16976410724E+04 0.  0.
        2    1    3    3  502    0  0.13101344131E+03 -0.80916824313E+03 -0.21005828310E+03  0.84619279706E+03  0.25500000920E-02 0. -1.
       -2    1    3    3    0  502 -0.13101344131E+03  0.80916824313E+03 -0.71164936953E+03  0.10855241097E+04  0.25500000920E-02 0.  1.
</event>
<event>
 5   0  0.2987859E-05  0.1700115E+04  0.7818609E-02  0.8761299E-01
        1   -1    0    0  501    0  0.00000000000E+00  0.00000000000E+00  0.10941763280E+04  0.10941763280E+04  0.50400001928E-02 0.  1.
       -1   -1    0    0    0  501  0.00000000000E+00  0.00000000000E+00 -0.66040317991E+03  0.66040317993E+03  0.50400001928E-02 0. -1.
    10030    2    1    2    0    0  0.00000000000E+00  0.00000000000E+00  0.43377314811E+03  0.17545795080E+04  0.17001147331E+04 0.  0.
        5    1    3    3  502    0 -0.93747336367E+02  0.10645595155E+03  0.10818619974E+04  0.10911319371E+04  0.46999998093E+01 0.  1.
       -5    1    3    3    0  502  0.93747336367E+02 -0.10645595155E+03 -0.64808884931E+03  0.66344757087E+03  0.46999998093E+01 0. -1.
</event>
<event>
 5   0  0.5671132E-05  0.1700737E+04  0.7818609E-02  0.8760944E-01
        2   -1    0    0  501    0  0.00000000000E+00  0.00000000000E+00  0.34979329471E+04  0.34979329471E+04  0.25500000920E-02 0.  1.
       -2   -1    0    0    0  501  0.00000000000E+00  0.00000000000E+00 -0.20672958354E+03  0.20672958356E+03  0.25500000920E-02 0. -1.
    10030    2    1    2    0    0  0.00000000000E+00  0.00000000000E+00  0.32912033636E+04  0.37046625307E+04  0.17007365716E+04 0.  0.
        3    1    3    3  502    0 -0.58682442951E+03  0.60766467414E+03  0.14332126574E+04  0.16636459355E+04  0.10100000352E+00 0. -1.
       -3    1    3    3    0  502  0.58682442951E+03 -0.60766467414E+03  0.18579907062E+04  0.20410165952E+04  0.10100000352E+00 0.  1.
</event>
<event>
 5   0  0.5671132E-05  0.1709134E+04  0.7818609E-02  0.8756172E-01
       -2   -1    0    0    0  501  0.00000000000E+00  0.00000000000E+00  0.43224463553E+03  0.43224463554E+03  0.25500000920E-02 0. -1.
        2   -1    0    0  501    0  0.00000000000E+00  0.00000000000E+00 -0.16895165123E+04  0.16895165123E+04  0.25500000920E-02 0.  1.
    10030    2    1    2    0    0  0.00000000000E+00  0.00000000000E+00 -0.12572718768E+04  0.21217611478E+04  0.17091336391E+04 0.  0.
        3    1    3    3  502    0  0.24451487014E+03  0.69084128808E+03 -0.82923783752E+02  0.73751309897E+03  0.10100000352E+00 0. -1.
       -3    1    3    3    0  502 -0.24451487014E+03 -0.69084128808E+03 -0.11743480930E+04  0.13842480489E+04  0.10100000352E+00 0.  1.
</event>
<event>
 5   0  0.5652631E-05  0.1704385E+04  0.7818609E-02  0.8758868E-01
        2   -1    0    0  501    0  0.00000000000E+00  0.00000000000E+00  0.17233826045E+04  0.17233826045E+04  0.25500000920E-02 0. -1.
       -2   -1    0    0    0  501  0.00000000000E+00  0.00000000000E+00 -0.42139898518E+03  0.42139898519E+03  0.25500000920E-02 0.  1.
    10030    2    1    2    0    0  0.00000000000E+00  0.00000000000E+00  0.13019836193E+04  0.21447815897E+04  0.17043845583E+04 0.  0.
        2    1    3    3  502    0  0.87380155352E+01  0.64341585658E+03  0.13540835770E+04  0.14992006706E+04  0.25500000920E-02 0. -1.
       -2    1    3    3    0  502 -0.87380155352E+01 -0.64341585658E+03 -0.52099957671E+02  0.64558091903E+03  0.25500000920E-02 0.  1.
</event>
<event>
 5   0  0.2911632E-05  0.1707090E+04  0.7818609E-02  0.8757331E-01
       -1   -1    0    0    0  501  0.00000000000E+00  0.00000000000E+00  0.10801436076E+04  0.10801436076E+04  0.50400001928E-02 0. -1.
        1   -1    0    0  501    0  0.00000000000E+00  0.00000000000E+00 -0.67448326913E+03  0.67448326915E+03  0.50400001928E-02 0.  1.
    10030    2    1    2    0    0  0.00000000000E+00  0.00000000000E+00  0.40566033843E+03  0.17546268767E+04  0.17070896773E+04 0.  0.
        1    1    3    3  502    0  0.80976770171E+03 -0.17960298565E+03 -0.41676584787E+01  0.82945664901E+03  0.50400001928E-02 0. -1.
       -1    1    3    3    0  502 -0.80976770171E+03  0.17960298565E+03  0.40982799691E+03  0.92517022772E+03  0.50400001928E-02 0.  1.
</event>
<event>
 5   0  0.5755321E-05  0.1652785E+04  0.7818609E-02  0.8788760E-01
        2   -1    0    0  501    0  0.00000000000E+00  0.00000000000E+00  0.97013789419E+03  0.97013789420E+03  0.25500000920E-02 0. -1.
       -2   -1    0    0    0  501  0.00000000000E+00  0.00000000000E+00 -0.70394624945E+03  0.70394624945E+03  0.25500000920E-02 0.  1.
    10030    2    1    2    0    0  0.00000000000E+00  0.00000000000E+00  0.26619164475E+03  0.16740841436E+04  0.16527854453E+04 0.  0.
        4    1    3    3  502    0  0.23723304699E+03 -0.74613684993E+03  0.40093413393E+03  0.87963032579E+03  0.12699999809E+01 0.  1.
       -4    1    3    3    0  502 -0.23723304699E+03  0.74613684993E+03 -0.13474248918E+03  0.79445381785E+03  0.12699999809E+01 0. -1.
</event>
<event>
 5   0  0.5671132E-05  0.1700113E+04  0.7818609E-02  0.8761300E-01
       -2   -1    0    0    0  501  0.00000000000E+00  0.00000000000E+00  0.38542479939E+03  0.38542479940E+03  0.25500000920E-02 0.  1.
        2   -1    0    0  501    0  0.00000000000E+00  0.00000000000E+00 -0.18748041779E+04  0.18748041779E+04  0.25500000920E-02 0. -1.
    10030    2    1    2    0    0  0.00000000000E+00  0.00000000000E+00 -0.14893793785E+04  0.22602289773E+04  0.17001129659E+04 0.  0.
        3    1    3    3  502    0  0.65174948745E+03 -0.21420118657E+03 -0.77391140949E+02  0.69039766919E+03  0.10100000352E+00 0.  1.
       -3    1    3    3    0  502 -0.65174948745E+03  0.21420118657E+03 -0.14119882375E+04  0.15698313081E+04  0.10100000352E+00 0. -1.
</event>
<event>
 5   0  0.2967704E-05  0.1698648E+04  0.7818609E-02  0.8762136E-01
        1   -1    0    0  501    0  0.00000000000E+00  0.00000000000E+00  0.77944384627E+03  0.77944384629E+03  0.50400001928E-02 0. -1.
       -1   -1    0    0    0  501  0.00000000000E+00  0.00000000000E+00 -0.92546883725E+03  0.92546883727E+03  0.50400001928E-02 0.  1.
    10030    2    1    2    0    0  0.00000000000E+00  0.00000000000E+00 -0.14602499098E+03  0.17049126836E+04  0.16986476858E+04 0.  0.
        2    1    3    3  502    0 -0.26220036791E+03  0.78502392381E+03 -0.26434452740E+03  0.86884384274E+03  0.25500000920E-02 0.  1.
       -2    1    3    3    0  502  0.26220036791E+03 -0.78502392381E+03  0.11831953642E+03  0.83606884082E+03  0.25500000920E-02 0. -1.
</event>
<event>
 5   0  0.2911632E-05  0.1701227E+04  0.7818609E-02  0.8760665E-01
       -1   -1    0    0    0  501  0.00000000000E+00  0.00000000000E+00  0.90113831549E+03  0.90113831550E+03  0.50400001928E-02 0.  1.
        1   -1    0    0  501    0  0.00000000000E+00  0.00000000000E+00 -0.80292179418E+03  0.80292179420E+03  0.50400001928E-02 0. -1.
    10030    2    1    2    0    0  0.00000000000E+00  0.00000000000E+00  0.98216521304E+02  0.17040601097E+04  0.17012273136E+04 0.  0.
        1    1    3    3  502    0 -0.14338758533E+03  0.48901226260E+03 -0.63309159780E+03  0.81271025823E+03  0.50400001928E-02 0. -1.
       -1    1    3    3    0  502  0.14338758533E+03 -0.48901226260E+03  0.73130811911E+03  0.89134985146E+03  0.50400001928E-02 0.  1.
</event>
<event>
 5   0  0.5821584E-05  0.1688837E+04  0.7818609E-02  0.8767756E-01
       -2   -1    0    0    0  501  0.00000000000E+00  0.00000000000E+00  0.44115924721E+03  0.44115924722E+03  0.25500000920E-02 0.  1.
        2   -1    0    0  501    0  0.00000000000E+00  0.00000000000E+00 -0.16162938428E+04  0.16162938429E+04  0.25500000920E-02 0. -1.
    10030    2    1    2    0    0  0.00000000000E+00  0.00000000000E+00 -0.11751345956E+04  0.20574530901E+04  0.16888374404E+04 0.  0.
        1    1    3    3  502    0 -0.38288610554E+03 -0.31195641183E+03  0.24685539332E+03  0.55213780701E+03  0.50400001928E-02 0.  1.
       -1    1    3    3    0  502  0.38288610554E+03  0.31195641183E+03 -0.14219899890E+04  0.15053152831E+04  0.50400001928E-02 0. -1.
</event>
<event>
 5   0  0.2987859E-05  0.1700616E+04  0.7818609E-02  0.8761013E-01
       -1   -1    0    0    0  501  0.00000000000E+00  0.00000000000E+00  0.19071136007E+04  0.19071136007E+04  0.50400001928E-02 0.  1.
        1   -1    0    0  501    0  0.00000000000E+00  0.00000000000E+00 -0.37911933629E+03  0.37911933632E+03  0.50400001928E-02 0. -1.
    10030    2    1    2    0    0  0.00000000000E+00  0.00000000000E+00  0.15279942644E+04  0.22862329371E+04  0.17006159385E+04 0.  0.
        5    1    3    3  502    0 -0.10612918584E+03  0.65606589648E+03  0.14770327232E+04  0.16196708370E+04  0.46999998093E+01 0.  1.
       -5    1    3    3    0  502  0.10612918584E+03 -0.65606589648E+03  0.50961541215E+02  0.66656210010E+03  0.46999998093E+01 0. -1.
</event>
<event>
 5   0  0.2911632E-05  0.1692620E+04  0.7818609E-02  0.8765585E-01
        1   -1    0    0  501    0  0.00000000000E+00  0.00000000000E+00  0.11993463529E+04  0.11993463529E+04  0.50400001928E-02 0. -1.
       -1   -1    0    0    0  501  0.00000000000E+00  0.00000000000E+00 -0.59719263307E+03  0.59719263309E+03  0.50400001928E-02 0.  1.
    10030    2    1    2    0    0  0.00000000000E+00  0.00000000000E+00  0.60215371984E+03  0.17965389860E+04  0.16926202250E+04 0.  0.
        1    1    3    3  502    0 -0.24326310909E+03  0.16634325648E+03 -0.54097404327E+03  0.61603566028E+03  0.50400001928E-02 0.  1.
       -1    1    3    3    0  502  0.24326310909E+03 -0.16634325648E+03  0.11431277631E+04  0.11805033257E+04  0.50400001928E-02 0. -1.
</event>
<event>
 5   0  0.5671132E-05  0.1692277E+04  0.7818609E-02  0.8765781E-01
       -2   -1    0    0    0  501  0.00000000000E+00  0.00000000000E+00  0.28737146894E+03  0.28737146895E+03  0.25500000920E-02 0.  1.
        2   -1    0    0  501    0  0.00000000000E+00  0.00000000000E+00 -0.24913758911E+04  0.24913758911E+04  0.25500000920E-02 0. -1.
    10030    2    1    2    0    0  0.00000000000E+00  0.00000000000E+00 -0.22040044221E+04  0.27787473600E+04  0.16922769862E+04 0.  0.
        3    1    3    3  502    0  0.79962523821E+03  0.71876671407E+02 -0.15407113908E+04  0.17373423316E+04  0.10100000352E+00 0.  1.
       -3    1    3    3    0  502 -0.79962523821E+03 -0.71876671407E+02 -0.66329303136E+03  0.10414050284E+04  0.10100000352E+00 0. -1.
</event>
<event>
 5   0  0.2911632E-05  0.1701345E+04  0.7818609E-02  0.8760597E-01
       -1   -1    0    0    0  501  0.00000000000E+00  0.00000000000E+00  0.81954623821E+03  0.81954623822E+03  0.50400001928E-02 0.  1.
        1   -1    0    0  501    0  0.00000000000E+00  0.00000000000E+00 -0.88298116875E+03  0.88298116876E+03  0.50400001928E-02 0. -1.
    10030    2    1    2    0    0  0.00000000000E+00  0.00000000000E+00 -0.63434930542E+02  0.17025274070E+04  0.17013452269E+04 0.  0.
        1    1    3    3  502    0  0.63578583193E+03  0.39477785769E+03  0.37300232361E+03  0.83618413908E+03  0.50400001928E-02 0.  1.
       -1    1    3    3    0  502 -0.63578583193E+03 -0.39477785769E+03 -0.43643725415E+03  0.86634326790E+03  0.50400001928E-02 0. -1.
</event>
<event>
 5   0  0.2911632E-05  0.1697738E+04  0.7818609E-02  0.8762655E-01
       -1   -1    0    0    0  501  0.00000000000E+00  0.00000000000E+00  0.39352540951E+03  0.39352540954E+03  0.50400001928E-02 0.  1.
        1   -1    0    0  501    0  0.00000000000E+00  0.00000000000E+00 -0.18310853230E+04  0.18310853230E+04  0.50400001928E-02 0. -1.
    10030    2    1    2    0    0  0.00000000000E+00  0.00000000000E+00 -0.14375599135E+04  0.22246107326E+04  0.16977380265E+04 0.  0.
        1    1    3    3  502    0  0.27668886010E+03  0.58804439306E+03 -0.32037988579E+01  0.64989475907E+03  0.50400001928E-02 0. -1.
       -1    1    3    3    0  502 -0.27668886010E+03 -0.58804439306E+03 -0.14343561147E+04  0.15747159735E+04  0.50400001928E-02 0.  1.
</event>
<event>
 5   0  0.2967704E-05  0.1700223E+04  0.7818609E-02  0.8761237E-01
        1   -1    0    0  501    0  0.00000000000E+00  0.00000000000E+00  0.89532320799E+03  0.89532320800E+03  0.50400001928E-02 0. -1.
       -1   -1    0    0    0  501  0.00000000000E+00  0.00000000000E+00 -0.80718241833E+03  0.80718241835E+03  0.50400001928E-02 0.  1.
    10030    2    1    2    0    0  0.00000000000E+00  0.00000000000E+00  0.88140789656E+02  0.17025056264E+04  0.17002225175E+04 0.  0.
        2    1    3    3  502    0  0.21355778884E+03  0.68865574134E+03  0.49504778415E+03  0.87460046184E+03  0.25500000920E-02 0. -1.
       -2    1    3    3    0  502 -0.21355778884E+03 -0.68865574134E+03 -0.40690699450E+03  0.82790516451E+03  0.25500000920E-02 0.  1.
</event>
<event>
 5   0  0.5821584E-05  0.1700339E+04  0.7818609E-02  0.8761171E-01
       -2   -1    0    0    0  501  0.00000000000E+00  0.00000000000E+00  0.55244954208E+03  0.55244954209E+03  0.25500000920E-02 0. -1.
        2   -1    0    0  501    0  0.00000000000E+00  0.00000000000E+00 -0.13083340315E+04  0.13083340315E+04  0.25500000920E-02 0.  1.
    10030    2    1    2    0    0  0.00000000000E+00  0.00000000000E+00 -0.75588448947E+03  0.18607835736E+04  0.17003394210E+04 0.  0.
        1    1    3    3  502    0 -0.61691355722E+03 -0.18752942309E+03 -0.98433911513E+03  0.11767213414E+04  0.50400001928E-02 0.  1.
       -1    1    3    3    0  502  0.61691355722E+03  0.18752942309E+03  0.22845462567E+03  0.68406223227E+03  0.50400001928E-02 0. -1.
</event>
<event>
 5   0  0.2098250E-05  0.1706923E+04  0.7818609E-02  0.8757426E-01
       -3   -1    0    0    0  501  0.00000000000E+00  0.00000000000E+00  0.55866109764E+03  0.55866110677E+03  0.10100000352E+00 0.  1.
        3   -1    0    0  501    0  0.00000000000E+00  0.00000000000E+00 -0.13038257454E+04  0.13038257493E+04  0.10100000352E+00 0. -1.
    10030    2    1    2    0    0  0.00000000000E+00  0.00000000000E+00 -0.74516464778E+03  0.18624868561E+04  0.17069232369E+04 0.  0.
        1    1    3    3  502    0 -0.24175519912E+03 -0.14350814103E+03 -0.12518494696E+04  0.12830304975E+04  0.50400001928E-02 0. -1.
       -1    1    3    3    0  502  0.24175519912E+03  0.14350814103E+03  0.50668482184E+03  0.57945635862E+03  0.50400001928E-02 0.  1.
</event>
<event>
 5   0  0.5671132E-05  0.1691579E+04  0.7818609E-02  0.8766182E-01
       -2   -1    0    0    0  501  0.00000000000E+00  0.00000000000E+00  0.59153794641E+03  0.59153794642E+03  0.25500000920E-02 0.  1.
        2   -1    0    0  501    0  0.00000000000E+00  0.00000000000E+00 -0.12093225574E+04  0.12093225574E+04  0.25500000920E-02 0. -1.
    10030    2    1    2    0    0  0.00000000000E+00  0.00000000000E+00 -0.61778461094E+03  0.18008605038E+04  0.16915793592E+04 0.  0.
        3    1    3    3  502    0  0.50371736878E+03 -0.53239320813E+03 -0.75828399974E+03  0.10545939267E+04  0.10100000352E+00 0. -1.
       -3    1    3    3    0  502 -0.50371736878E+03  0.53239320813E+03  0.14049938880E+03  0.74626657712E+03  0.10100000352E+00 0.  1.
</event>
<event>
 5   0  0.5652631E-05  0.1697418E+04  0.7818609E-02  0.8762838E-01
       -2   -1    0    0    0  501  0.00000000000E+00  0.00000000000E+00  0.62677618593E+03  0.62677618593E+03  0.25500000920E-02 0.  1.
        2   -1    0    0  501    0  0.00000000000E+00  0.00000000000E+00 -0.11492248369E+04  0.11492248369E+04  0.25500000920E-02 0. -1.
    10030    2    1    2    0    0  0.00000000000E+00  0.00000000000E+00 -0.52244865098E+03  0.17760010228E+04  0.16974177565E+04 0.  0.
        2    1    3    3  502    0 -0.83330809074E+03 -0.14995258145E+03 -0.20004858946E+03  0.87000436144E+03  0.25500000920E-02 0.  1.
       -2    1    3    3    0  502  0.83330809074E+03  0.14995258145E+03 -0.32240006152E+03  0.90599666139E+03  0.25500000920E-02 0. -1.
</event>
<event>
 5   0  0.5755321E-05  0.1700094E+04  0.7818609E-02  0.8761311E-01
        2   -1    0    0  501    0  0.00000000000E+00  0.00000000000E+00  0.22688328902E+04  0.22688328902E+04  0.25500000920E-02 0. -1.
       -2   -1    0    0    0  501  0.00000000000E+00  0.00000000000E+00 -0.31848101340E+03  0.31848101341E+03  0.25500000920E-02 0.  1.
    10030    2    1    2    0    0  0.00000000000E+00  0.00000000000E+00  0.19503518768E+04  0.25873139036E+04  0.17000943481E+04 0.  0.
        4    1    3    3  502    0  0.48034315382E+02 -0.75433780214E+03  0.15670342044E+04  0.17398076405E+04  0.12699999809E+01 0. -1.
       -4    1    3    3    0  502 -0.48034315382E+02  0.75433780214E+03  0.38331767239E+03  0.84750626313E+03  0.12699999809E+01 0.  1.
</event>
<event>
 5   0  0.5671132E-05  0.1699395E+04  0.7818609E-02  0.8761710E-01
        2   -1    0    0  501    0  0.00000000000E+00  0.00000000000E+00  0.17802263168E+04  0.17802263168E+04  0.25500000920E-02 0.  1.
       -2   -1    0    0    0  501  0.00000000000E+00  0.00000000000E+00 -0.40555831665E+03  0.40555831666E+03  0.25500000920E-02 0. -1.
    10030    2    1    2    0    0  0.00000000000E+00  0.00000000000E+00  0.13746680002E+04  0.21857846335E+04  0.16993947020E+04 0.  0.
        3    1    3    3  502    0 -0.32753021655E+03  0.41695023499E+03  0.15413469573E+04  0.16299920228E+04  0.10100000352E+00 0.  1.
       -3    1    3    3    0  502  0.32753021655E+03 -0.41695023499E+03 -0.16667895714E+03  0.55579261075E+03  0.10100000352E+00 0. -1.
</event>
<event>
 5   0  0.2911632E-05  0.1700689E+04  0.7818609E-02  0.8760971E-01
        1   -1    0    0  501    0  0.00000000000E+00  0.00000000000E+00  0.97286338702E+03  0.97286338703E+03  0.50400001928E-02 0. -1.
       -1   -1    0    0    0  501  0.00000000000E+00  0.00000000000E+00 -0.74325560219E+03  0.74325560221E+03  0.50400001928E-02 0.  1.
    10030    2    1    2    0    0  0.00000000000E+00  0.00000000000E+00  0.22960778483E+03  0.17161189892E+04  0.17006894632E+04 0.  0.
        1    1    3    3  502    0  0.48480118972E+03 -0.27539177978E+03  0.76266721691E+03  0.94474023397E+03  0.50400001928E-02 0. -1.
       -1    1    3    3    0  502 -0.48480118972E+03  0.27539177978E+03 -0.53305943208E+03  0.77137875526E+03  0.50400001928E-02 0.  1.
</event>
<event>
 5   0  0.2098250E-05  0.1682574E+04  0.7818609E-02  0.8771366E-01
       -3   -1    0    0    0  501  0.00000000000E+00  0.00000000000E+00  0.54742567649E+03  0.54742568581E+03  0.10100000352E+00 0.  1.
        3   -1    0    0  501    0  0.00000000000E+00  0.00000000000E+00 -0.12928951935E+04  0.12928951975E+04  0.10100000352E+00 0. -1.
    10030    2    1    2    0    0  0.00000000000E+00  0.00000000000E+00 -0.74546951701E+03  0.18403208833E+04  0.16825742636E+04 0.  0.
        4    1    3    3  502    0  0.83446420143E+03 -0.67395941978E+02 -0.28194857798E+03  0.88338515382E+03  0.12699999809E+01 0.  1.
       -4    1    3    3    0  502 -0.83446420143E+03  0.67395941978E+02 -0.46352093903E+03  0.95693572944E+03  0.12699999809E+01 0. -1.
</event>
<event>
 5   0  0.2098250E-05  0.1703089E+04  0.7818609E-02  0.8759605E-01
        3   -1    0    0  501    0  0.00000000000E+00  0.00000000000E+00  0.89560404280E+03  0.89560404849E+03  0.10100000352E+00 0. -1.
       -3   -1    0    0    0  501  0.00000000000E+00  0.00000000000E+00 -0.80965231670E+03  0.80965232300E+03  0.10100000352E+00 0.  1.
    10030    2    1    2    0    0  0.00000000000E+00  0.00000000000E+00  0.85951726098E+02  0.17052563715E+04  0.17030888389E+04 0.  0.
        5    1    3    3  502    0  0.14864758076E+03 -0.58600884971E+03  0.64340841941E+03  0.88289238267E+03  0.46999998093E+01 0. -1.
       -5    1    3    3    0  502 -0.14864758076E+03  0.58600884971E+03 -0.55745669331E+03  0.82236398883E+03  0.46999998093E+01 0.  1.
</event>
<event>
 5   0  0.5755321E-05  0.1700377E+04  0.7818609E-02  0.8761150E-01
       -2   -1    0    0    0  501  0.00000000000E+00  0.00000000000E+00  0.95305885769E+03  0.95305885770E+03  0.25500000920E-02 0.  1.
        2   -1    0    0  501    0  0.00000000000E+00  0.00000000000E+00 -0.75842134068E+03  0.75842134068E+03  0.25500000920E-02 0. -1.
    10030    2    1    2    0    0  0.00000000000E+00  0.00000000000E+00  0.19463751702E+03  0.17114801984E+04  0.17003766366E+04 0.  0.
        4    1    3    3  502    0 -0.23668394377E+03 -0.58596248582E+03  0.66975678300E+03  0.92084042336E+03  0.12699999809E+01 0.  1.
       -4    1    3    3    0  502  0.23668394377E+03  0.58596248582E+03 -0.47511926598E+03  0.79063977501E+03  0.12699999809E+01 0. -1.
</event>
<event>
 5   0  0.5652631E-05  0.1699801E+04  0.7818609E-02  0.8761478E-01
        2   -1    0    0  501    0  0.00000000000E+00  0.00000000000E+00  0.22326501695E+04  0.22326501695E+04  0.25500000920E-02 0.  1.
       -2   -1    0    0    0  501  0.00000000000E+00  0.00000000000E+00 -0.32353072377E+03  0.32353072378E+03  0.25500000920E-02 0. -1.
    10030    2    1    2    0    0  0.00000000000E+00  0.00000000000E+00  0.19091194457E+04  0.25561808932E+04  0.16998010769E+04 0.  0.
        2    1    3    3  502    0  0.11113129914E+03  0.71880631125E+03  0.29339839771E+03  0.78429286528E+03  0.25500000920E-02 0. -1.
       -2    1    3    3    0  502 -0.11113129914E+03 -0.71880631125E+03  0.16157210480E+04  0.17718880280E+04  0.25500000920E-02 0.  1.
</event>
<event>
 5   0  0.2967704E-05  0.1699149E+04  0.7818609E-02  0.8761850E-01
        1   -1    0    0  501    0  0.00000000000E+00  0.00000000000E+00  0.10516458842E+04  0.10516458842E+04  0.50400001928E-02 0. -1.
       -1   -1    0    0    0  501  0.00000000000E+00  0.00000000000E+00 -0.68633066922E+03  0.68633066924E+03  0.50400001928E-02 0.  1.
    10030    2    1    2    0    0  0.00000000000E+00  0.00000000000E+00  0.36531521494E+03  0.17379765534E+04  0.16991489911E+04 0.  0.
        2    1    3    3  502    0 -0.29024169537E+03  0.26354363780E+03  0.95359251455E+03  0.10310354866E+04  0.25500000920E-02 0. -1.
       -2    1    3    3    0  502  0.29024169537E+03 -0.26354363780E+03 -0.58827729961E+03  0.70694106685E+03  0.25500000920E-02 0.  1.
</event>
<event>
 5   0  0.2967704E-05  0.1687217E+04  0.7818609E-02  0.8768689E-01
       -1   -1    0    0    0  501  0.00000000000E+00  0.00000000000E+00  0.53392613693E+03  0.53392613696E+03  0.50400001928E-02 0. -1.
        1   -1    0    0  501    0  0.00000000000E+00  0.00000000000E+00 -0.13329099236E+04  0.13329099236E+04  0.50400001928E-02 0.  1.
    10030    2    1    2    0    0  0.00000000000E+00  0.00000000000E+00 -0.79898378670E+03  0.18668360606E+04  0.16872171721E+04 0.  0.
        2    1    3    3  502    0  0.81872126795E+03  0.55480593728E+01 -0.17452364695E+03  0.83713427770E+03  0.25500000920E-02 0. -1.
       -2    1    3    3    0  502 -0.81872126795E+03 -0.55480593728E+01 -0.62446013975E+03  0.10297017829E+04  0.25500000920E-02 0.  1.
</event>
<event>
 5   0  0.5821584E-05  0.1698783E+04  0.7818609E-02  0.8762059E-01
        2   -1    0    0  501    0  0.00000000000E+00  0.00000000000E+00  0.21824904077E+04  0.21824904077E+04  0.25500000920E-02 0.  1.
       -2   -1    0    0    0  501  0.00000000000E+00  0.00000000000E+00 -0.33057006365E+03  0.33057006366E+03  0.25500000920E-02 0. -1.
    10030    2    1    2    0    0  0.00000000000E+00  0.00000000000E+00  0.18519203441E+04  0.25130604714E+04  0.16987830856E+04 0.  0.
        1    1    3    3  502    0  0.35983851057E+02 -0.53313172482E+03 -0.50780398666E+02  0.53675219838E+03  0.50400001928E-02 0. -1.
       -1    1    3    3    0  502 -0.35983851057E+02  0.53313172482E+03  0.19027007427E+04  0.19763082730E+04  0.50400001928E-02 0.  1.
</event>
<event>
 5   0  0.2911632E-05  0.1703596E+04  0.7818609E-02  0.8759316E-01
       -1   -1    0    0    0  501  0.00000000000E+00  0.00000000000E+00  0.12933053664E+04  0.12933053664E+04  0.50400001928E-02 0.  1.
        1   -1    0    0  501    0  0.00000000000E+00  0.00000000000E+00 -0.56101179596E+03  0.56101179598E+03  0.50400001928E-02 0. -1.
    10030    2    1    2    0    0  0.00000000000E+00  0.00000000000E+00  0.73229357041E+03  0.18543171624E+04  0.17035956872E+04 0.  0.
        1    1    3    3  502    0 -0.52350224371E+03  0.62150995675E+03  0.64414519377E+03  0.10369437093E+04  0.50400001928E-02 0.  1.
       -1    1    3    3    0  502  0.52350224371E+03 -0.62150995675E+03  0.88148376640E+02  0.81737345310E+03  0.50400001928E-02 0. -1.
</event>
<event>
 5   0  0.2987859E-05  0.1703473E+04  0.7818609E-02  0.8759386E-01
       -1   -1    0    0    0  501  0.00000000000E+00  0.00000000000E+00  0.62607701553E+03  0.62607701555E+03  0.50400001928E-02 0. -1.
        1   -1    0    0  501    0  0.00000000000E+00  0.00000000000E+00 -0.11587316510E+04  0.11587316510E+04  0.50400001928E-02 0.  1.
    10030    2    1    2    0    0  0.00000000000E+00  0.00000000000E+00 -0.53265463549E+03  0.17848086666E+04  0.17034732213E+04 0.  0.
        5    1    3    3  502    0 -0.69362156758E+02  0.55067855595E+02 -0.11538805687E+04  0.11572839040E+04  0.46999998093E+01 0.  1.
       -5    1    3    3    0  502  0.69362156758E+02 -0.55067855595E+02  0.62122593326E+03  0.62752476259E+03  0.46999998093E+01 0. -1.
</event>
<event>
 5   0  0.2911632E-05  0.1694966E+04  0.7818609E-02  0.8764241E-01
        1   -1    0    0  501    0  0.00000000000E+00  0.00000000000E+00  0.15239088276E+04  0.15239088276E+04  0.50400001928E-02 0. -1.
       -1   -1    0    0    0  501  0.00000000000E+00  0.00000000000E+00 -0.47130602354E+03  0.47130602357E+03  0.50400001928E-02 0.  1.
    10030    2    1    2    0    0  0.00000000000E+00  0.00000000000E+00  0.10526028040E+04  0.19952148511E+04  0.16949659699E+04 0.  0.
        1    1    3    3  502    0 -0.51514515043E+03 -0.48984227347E+03  0.10694567940E+04  0.12841564598E+04  0.50400001928E-02 0. -1.
       -1    1    3    3    0  502  0.51514515043E+03  0.48984227347E+03 -0.16853990014E+02  0.71105839134E+03  0.50400001928E-02 0.  1.
</event>
<event>
 5   0  0.2993769E-05  0.1711894E+04  0.7818609E-02  0.8754610E-01
       -1   -1    0    0    0  501  0.00000000000E+00  0.00000000000E+00  0.47012005680E+03  0.47012005683E+03  0.50400001928E-02 0.  1.
        1   -1    0    0  501    0  0.00000000000E+00  0.00000000000E+00 -0.15584214772E+04  0.15584214772E+04  0.50400001928E-02 0. -1.
    10030    2    1    2    0    0  0.00000000000E+00  0.00000000000E+00 -0.10883014204E+04  0.20285415340E+04  0.17118939142E+04 0.  0.
        3    1    3    3  502    0  0.37056620879E+03  0.61656063435E+03 -0.10938268043E+04  0.13091689803E+04  0.10100000352E+00 0. -1.
       -3    1    3    3    0  502 -0.37056620879E+03 -0.61656063435E+03  0.55253839675E+01  0.71937255369E+03  0.10100000352E+00 0.  1.
</event>
<event>
 5   0  0.5671132E-05  0.1699988E+04  0.7818609E-02  0.8761371E-01
        2   -1    0    0  501    0  0.00000000000E+00  0.00000000000E+00  0.57789780901E+03  0.57789780901E+03  0.25500000920E-02 0.  1.
       -2   -1    0    0    0  501  0.00000000000E+00  0.00000000000E+00 -0.12502032026E+04  0.12502032026E+04  0.25500000920E-02 0. -1.
    10030    2    1    2    0    0  0.00000000000E+00  0.00000000000E+00 -0.67230539364E+03  0.18281010117E+04  0.16999878725E+04 0.  0.
        3    1    3    3  502    0  0.12438441809E+03  0.66936072792E+03 -0.88339894806E+03  0.11153066749E+04  0.10100000352E+00 0. -1.
       -3    1    3    3    0  502 -0.12438441809E+03 -0.66936072792E+03  0.21109355442E+03  0.71279433672E+03  0.10100000352E+00 0.  1.
</event>
<event>
 5   0  0.5821584E-05  0.1700098E+04  0.7818609E-02  0.8761309E-01
       -2   -1    0    0    0  501  0.00000000000E+00  0.00000000000E+00  0.76124560183E+03  0.76124560183E+03  0.25500000920E-02 0.  1.
        2   -1    0    0  501    0  0.00000000000E+00  0.00000000000E+00 -0.94921123548E+03  0.94921123548E+03  0.25500000920E-02 0. -1.
    10030    2    1    2    0    0  0.00000000000E+00  0.00000000000E+00 -0.18796563365E+03  0.17104568373E+04  0.17000975010E+04 0.  0.
        1    1    3    3  502    0  0.51238684731E+02 -0.28741800310E+03 -0.89718841933E+03  0.94349434080E+03  0.50400001928E-02 0. -1.
       -1    1    3    3    0  502 -0.51238684731E+02  0.28741800310E+03  0.70922278568E+03  0.76696249652E+03  0.50400001928E-02 0.  1.
</event>
<event>
 5   0  0.2098250E-05  0.1698485E+04  0.7818609E-02  0.8762229E-01
        3   -1    0    0  501    0  0.00000000000E+00  0.00000000000E+00  0.60049266875E+03  0.60049267725E+03  0.10100000352E+00 0. -1.
       -3   -1    0    0    0  501  0.00000000000E+00  0.00000000000E+00 -0.12010347042E+04  0.12010347084E+04  0.10100000352E+00 0.  1.
    10030    2    1    2    0    0  0.00000000000E+00  0.00000000000E+00 -0.60054203543E+03  0.18015273857E+04  0.16984846732E+04 0.  0.
        3    1    3    3  502    0 -0.26841443497E+03  0.38691615107E+02 -0.11538738625E+04  0.11853135664E+04  0.10100000352E+00 0.  1.
       -3    1    3    3    0  502  0.26841443497E+03 -0.38691615107E+02  0.55333182707E+03  0.61621381925E+03  0.10100000352E+00 0. -1.
</event>
<event>
 5   0  0.5755321E-05  0.1703162E+04  0.7818609E-02  0.8759563E-01
        2   -1    0    0  501    0  0.00000000000E+00  0.00000000000E+00  0.14714011316E+04  0.14714011316E+04  0.25500000920E-02 0. -1.
       -2   -1    0    0    0  501  0.00000000000E+00  0.00000000000E+00 -0.49285714002E+03  0.49285714003E+03  0.25500000920E-02 0.  1.
    10030    2    1    2    0    0  0.00000000000E+00  0.00000000000E+00  0.97854399155E+03  0.19642582716E+04  0.17031624157E+04 0.  0.
        4    1    3    3  502    0  0.55810903707E+03  0.37212742289E+02  0.12298297145E+04  0.13510563367E+04  0.12699999809E+01 0. -1.
       -4    1    3    3    0  502 -0.55810903707E+03 -0.37212742289E+02 -0.25128572296E+03  0.61320193486E+03  0.12699999809E+01 0.  1.
</event>
<event>
 5   0  0.2967704E-05  0.1702684E+04  0.7818609E-02  0.8759835E-01
       -1   -1    0    0    0  501  0.00000000000E+00  0.00000000000E+00  0.42422259094E+03  0.42422259097E+03  0.50400001928E-02 0. -1.
        1   -1    0    0  501    0  0.00000000000E+00  0.00000000000E+00 -0.17084974713E+04  0.17084974713E+04  0.50400001928E-02 0.  1.
    10030    2    1    2    0    0  0.00000000000E+00  0.00000000000E+00 -0.12842748804E+04  0.21327200623E+04  0.17026840270E+04 0.  0.
        2    1    3    3  502    0 -0.21443517458E+03  0.35076700889E+03  0.29164288484E+03  0.50405903514E+03  0.25500000920E-02 0. -1.
       -2    1    3    3    0  502  0.21443517458E+03 -0.35076700889E+03 -0.15759177652E+04  0.16286610272E+04  0.25500000920E-02 0.  1.
</event>
<event>
 5   0  0.5859822E-05  0.1700029E+04  0.7818609E-02  0.8761348E-01
       -2   -1    0    0    0  501  0.00000000000E+00  0.00000000000E+00  0.89242725205E+03  0.89242725205E+03  0.25500000920E-02 0.  1.
        2   -1    0    0  501    0  0.00000000000E+00  0.00000000000E+00 -0.80961711949E+03  0.80961711950E+03  0.25500000920E-02 0. -1.
    10030    2    1    2    0    0  0.00000000000E+00  0.00000000000E+00  0.82810132553E+02  0.17020443715E+04  0.17000286835E+04 0.  0.
        5    1    3    3  502    0  0.27175186467E+03  0.80529223864E+03  0.28835276741E+02  0.85041062361E+03  0.46999998093E+01 0. -1.
       -5    1    3    3    0  502 -0.27175186467E+03 -0.80529223864E+03  0.53974855812E+02  0.85163374794E+03  0.46999998093E+01 0.  1.
</event>
<event>
 5   0  0.5859822E-05  0.1712632E+04  0.7818609E-02  0.8754193E-01
        2   -1    0    0  501    0  0.00000000000E+00  0.00000000000E+00  0.14586990625E+04  0.14586990625E+04  0.25500000920E-02 0. -1.
       -2   -1    0    0    0  501  0.00000000000E+00  0.00000000000E+00 -0.50269245574E+03  0.50269245574E+03  0.25500000920E-02 0.  1.
    10030    2    1    2    0    0  0.00000000000E+00  0.00000000000E+00  0.95600660679E+03  0.19613915183E+04  0.17126319090E+04 0.  0.
        5    1    3    3  502    0  0.85610543158E+03  0.15486708247E+02  0.48937395779E+03  0.98623795743E+03  0.46999998093E+01 0.  1.
       -5    1    3    3    0  502 -0.85610543158E+03 -0.15486708247E+02  0.46663264900E+03  0.97515356084E+03  0.46999998093E+01 0. -1.
</event>
<event>
 5   0  0.5671132E-05  0.1698170E+04  0.7818609E-02  0.8762409E-01
       -2   -1    0    0    0  501  0.00000000000E+00  0.00000000000E+00  0.44718795512E+03  0.44718795513E+03  0.25500000920E-02 0.  1.
        2   -1    0    0  501    0  0.00000000000E+00  0.00000000000E+00 -0.16121754969E+04  0.16121754969E+04  0.25500000920E-02 0. -1.
    10030    2    1    2    0    0  0.00000000000E+00  0.00000000000E+00 -0.11649875418E+04  0.20593634520E+04  0.16981701490E+04 0.  0.
        3    1    3    3  502    0  0.84877302481E+03  0.14712846812E+02 -0.56102741251E+03  0.10175381483E+04  0.10100000352E+00 0.  1.
       -3    1    3    3    0  502 -0.84877302481E+03 -0.14712846812E+02 -0.60396012927E+03  0.10418253037E+04  0.10100000352E+00 0. -1.
</event>
<event>
 5   0  0.5859822E-05  0.1699342E+04  0.7818609E-02  0.8761740E-01
        2   -1    0    0  501    0  0.00000000000E+00  0.00000000000E+00  0.12618232404E+04  0.12618232404E+04  0.25500000920E-02 0. -1.
       -2   -1    0    0    0  501  0.00000000000E+00  0.00000000000E+00 -0.57214087206E+03  0.57214087207E+03  0.25500000920E-02 0.  1.
    10030    2    1    2    0    0  0.00000000000E+00  0.00000000000E+00  0.68968236832E+03  0.18339641125E+04  0.16993418128E+04 0.  0.
        5    1    3    3  502    0  0.12837569814E+02 -0.38546729721E+03  0.11618962550E+04  0.12242445989E+04  0.46999998093E+01 0. -1.
       -5    1    3    3    0  502 -0.12837569814E+02  0.38546729721E+03 -0.47221388672E+03  0.60971951357E+03  0.46999998093E+01 0.  1.
</event>
<event>
 5   0  0.5652631E-05  0.1699993E+04  0.7818609E-02  0.8761368E-01
       -2   -1    0    0    0  501  0.00000000000E+00  0.00000000000E+00  0.41774332315E+03  0.41774332316E+03  0.25500000920E-02 0. -1.
        2   -1    0    0  501    0  0.00000000000E+00  0.00000000000E+00 -0.17295170307E+04  0.17295170307E+04  0.25500000920E-02 0.  1.
    10030    2    1    2    0    0  0.00000000000E+00  0.00000000000E+00 -0.13117737076E+04  0.21472603539E+04  0.16999931669E+04 0.  0.
        2    1    3    3  502    0  0.82473200631E+03  0.97534875895E+02 -0.42713589866E+03  0.93388490200E+03  0.25500000920E-02 0. -1.
       -2    1    3    3    0  502 -0.82473200631E+03 -0.97534875895E+02 -0.88463780889E+03  0.12133754519E+04  0.25500000920E-02 0.  1.
</event>
<event>
 5   0  0.5859822E-05  0.1699267E+04  0.7818609E-02  0.8761782E-01
        2   -1    0    0  501    0  0.00000000000E+00  0.00000000000E+00  0.17300277027E+04  0.17300277027E+04  0.25500000920E-02 0. -1.
       -2   -1    0    0    0  501  0.00000000000E+00  0.00000000000E+00 -0.41726344203E+03  0.41726344204E+03  0.25500000920E-02 0.  1.
    10030    2    1    2    0    0  0.00000000000E+00  0.00000000000E+00  0.13127642607E+04  0.21472911447E+04  0.16992672704E+04 0.  0.
        5    1    3    3  502    0 -0.39764471862E+03  0.14649326940E+03 -0.27416522894E+03  0.50474772212E+03  0.46999998093E+01 0.  1.
       -5    1    3    3    0  502  0.39764471862E+03 -0.14649326940E+03  0.15869294896E+04  0.16425434226E+04  0.46999998093E+01 0. -1.
</event>
<event>
 5   0  0.5652631E-05  0.1697436E+04  0.7818609E-02  0.8762828E-01
        2   -1    0    0  501    0  0.00000000000E+00  0.00000000000E+00  0.11121937635E+04  0.11121937635E+04  0.25500000920E-02 0.  1.
       -2   -1    0    0    0  501  0.00000000000E+00  0.00000000000E+00 -0.64765926575E+03  0.64765926575E+03  0.25500000920E-02 0. -1.
    10030    2    1    2    0    0  0.00000000000E+00  0.00000000000E+00  0.46453449772E+03  0.17598530292E+04  0.16974364156E+04 0.  0.
        2    1    3    3  502    0  0.52329290009E+03 -0.64151492615E+03  0.42607894566E+03  0.93108545671E+03  0.25500000920E-02 0. -1.
       -2    1    3    3    0  502 -0.52329290009E+03  0.64151492615E+03  0.38455552054E+02  0.82876757251E+03  0.25500000920E-02 0.  1.
</event>
<event>
 5   0  0.5755321E-05  0.1703151E+04  0.7818609E-02  0.8759569E-01
        2   -1    0    0  501    0  0.00000000000E+00  0.00000000000E+00  0.13574365772E+04  0.13574365772E+04  0.25500000920E-02 0. -1.
       -2   -1    0    0    0  501  0.00000000000E+00  0.00000000000E+00 -0.53422837579E+03  0.53422837579E+03  0.25500000920E-02 0.  1.
    10030    2    1    2    0    0  0.00000000000E+00  0.00000000000E+00  0.82320820137E+03  0.18916649530E+04  0.17031513589E+04 0.  0.
        4    1    3    3  502    0 -0.53830594377E+03  0.61117291722E+03  0.13532710689E+03  0.82560321136E+03  0.12699999809E+01 0.  1.
       -4    1    3    3    0  502  0.53830594377E+03 -0.61117291722E+03  0.68788109448E+03  0.10660617416E+04  0.12699999809E+01 0. -1.
</event>
<event>
 5   0  0.5821584E-05  0.1693764E+04  0.7818609E-02  0.8764929E-01
       -2   -1    0    0    0  501  0.00000000000E+00  0.00000000000E+00  0.14824107552E+04  0.14824107552E+04  0.25500000920E-02 0.  1.
        2   -1    0    0  501    0  0.00000000000E+00  0.00000000000E+00 -0.48381257216E+03  0.48381257217E+03  0.25500000920E-02 0. -1.
    10030    2    1    2    0    0  0.00000000000E+00  0.00000000000E+00  0.99859818304E+03  0.19662233274E+04  0.16937638094E+04 0.  0.
        1    1    3    3  502    0 -0.59570423866E+03  0.10495711404E+03 -0.18877825127E+03  0.63365350462E+03  0.50400001928E-02 0. -1.
       -1    1    3    3    0  502  0.59570423866E+03 -0.10495711404E+03  0.11873764343E+04  0.13325698228E+04  0.50400001928E-02 0.  1.
</event>
<event>
 5   0  0.2911632E-05  0.1693612E+04  0.7818609E-02  0.8765016E-01
        1   -1    0    0  501    0  0.00000000000E+00  0.00000000000E+00  0.15386178370E+04  0.15386178370E+04  0.50400001928E-02 0.  1.
       -1   -1    0    0    0  501  0.00000000000E+00  0.00000000000E+00 -0.46605508015E+03  0.46605508018E+03  0.50400001928E-02 0. -1.
    10030    2    1    2    0    0  0.00000000000E+00  0.00000000000E+00  0.10725627568E+04  0.20046729172E+04  0.16936123044E+04 0.  0.
        1    1    3    3  502    0 -0.77511731338E+03  0.33932361319E+03  0.49643387836E+03  0.98101679883E+03  0.50400001928E-02 0. -1.
       -1    1    3    3    0  502  0.77511731338E+03 -0.33932361319E+03  0.57612887845E+03  0.10236561183E+04  0.50400001928E-02 0.  1.
</event>
<event>
 5   0  0.2987859E-05  0.1703441E+04  0.7818609E-02  0.8759404E-01
        1   -1    0    0  501    0  0.00000000000E+00  0.00000000000E+00  0.68565742083E+03  0.68565742085E+03  0.50400001928E-02 0. -1.
       -1   -1    0    0    0  501  0.00000000000E+00  0.00000000000E+00 -0.10580038569E+04  0.10580038570E+04  0.50400001928E-02 0.  1.
    10030    2    1    2    0    0  0.00000000000E+00  0.00000000000E+00 -0.37234643612E+03  0.17436612778E+04  0.17034414528E+04 0.  0.
        5    1    3    3  502    0 -0.39050649707E+03 -0.46358644530E+03 -0.79862999979E+03  0.10026164187E+04  0.46999998093E+01 0.  1.
       -5    1    3    3    0  502  0.39050649707E+03  0.46358644530E+03  0.42628356368E+03  0.74104485909E+03  0.46999998093E+01 0. -1.
</event>
<event>
 5   0  0.2967704E-05  0.1698900E+04  0.7818609E-02  0.8761992E-01
        1   -1    0    0  501    0  0.00000000000E+00  0.00000000000E+00  0.95913901601E+03  0.95913901603E+03  0.50400001928E-02 0.  1.
       -1   -1    0    0    0  501  0.00000000000E+00  0.00000000000E+00 -0.75230523925E+03  0.75230523926E+03  0.50400001928E-02 0. -1.
    10030    2    1    2    0    0  0.00000000000E+00  0.00000000000E+00  0.20683377677E+03  0.17114442553E+04  0.16989000052E+04 0.  0.
        2    1    3    3  502    0 -0.30368504421E+03  0.26343452244E+03  0.85723545864E+03  0.94682362943E+03  0.25500000920E-02 0.  1.
       -2    1    3    3    0  502  0.30368504421E+03 -0.26343452244E+03 -0.65040168188E+03  0.76462062586E+03  0.25500000920E-02 0. -1.
</event>
<event>
 5   0  0.2987859E-05  0.1699454E+04  0.7818609E-02  0.8761676E-01
        1   -1    0    0  501    0  0.00000000000E+00  0.00000000000E+00  0.18376743786E+04  0.18376743786E+04  0.50400001928E-02 0.  1.
       -1   -1    0    0    0  501  0.00000000000E+00  0.00000000000E+00 -0.39290762070E+03  0.39290762074E+03  0.50400001928E-02 0. -1.
    10030    2    1    2    0    0  0.00000000000E+00  0.00000000000E+00  0.14447667579E+04  0.22305819994E+04  0.16994543451E+04 0.  0.
        5    1    3    3  502    0  0.33966931074E+01 -0.15051236726E+03 -0.37524560642E+03  0.40434745623E+03  0.46999998093E+01 0. -1.
       -5    1    3    3    0  502 -0.33966931074E+01  0.15051236726E+03  0.18200123643E+04  0.18262345431E+04  0.46999998093E+01 0.  1.
</event>
<event>
 5   0  0.5821584E-05  0.1699693E+04  0.7818609E-02  0.8761539E-01
        2   -1    0    0  501    0  0.00000000000E+00  0.00000000000E+00  0.54743722453E+03  0.54743722454E+03  0.25500000920E-02 0. -1.
       -2   -1    0    0    0  501  0.00000000000E+00  0.00000000000E+00 -0.13193097526E+04  0.13193097526E+04  0.25500000920E-02 0.  1.
    10030    2    1    2    0    0  0.00000000000E+00  0.00000000000E+00 -0.77187252811E+03  0.18667469772E+04  0.16996932303E+04 0.  0.
        1    1    3    3  502    0 -0.38514926968E+03  0.46391897623E+02  0.44452025331E+03  0.58999188446E+03  0.50400001928E-02 0. -1.
       -1    1    3    3    0  502  0.38514926968E+03 -0.46391897623E+02 -0.12163927814E+04  0.12767550927E+04  0.50400001928E-02 0.  1.
</event>
<event>
 5   0  0.5755321E-05  0.1699762E+04  0.7818609E-02  0.8761500E-01
        2   -1    0    0  501    0  0.00000000000E+00  0.00000000000E+00  0.13454789785E+04  0.13454789785E+04  0.25500000920E-02 0.  1.
       -2   -1    0    0    0  501  0.00000000000E+00  0.00000000000E+00 -0.53683310750E+03  0.53683310750E+03  0.25500000920E-02 0. -1.
    10030    2    1    2    0    0  0.00000000000E+00  0.00000000000E+00  0.80864587102E+03  0.18823120860E+04  0.16997619376E+04 0.  0.
        4    1    3    3  502    0  0.19717759863E+03  0.75817389692E+03  0.39403312713E+02  0.78438568148E+03  0.12699999809E+01 0. -1.
       -4    1    3    3    0  502 -0.19717759863E+03 -0.75817389692E+03  0.76924255830E+03  0.10979264045E+04  0.12699999809E+01 0.  1.
</event>
<event>
 5   0  0.2966258E-05  0.1701411E+04  0.7818609E-02  0.8760560E-01
        1   -1    0    0  501    0  0.00000000000E+00  0.00000000000E+00  0.10120699913E+04  0.10120699913E+04  0.50400001928E-02 0. -1.
       -1   -1    0    0    0  501  0.00000000000E+00  0.00000000000E+00 -0.71506874419E+03  0.71506874421E+03  0.50400001928E-02 0.  1.
    10030    2    1    2    0    0  0.00000000000E+00  0.00000000000E+00  0.29700124708E+03  0.17271387355E+04  0.17014107296E+04 0.  0.
        4    1    3    3  502    0  0.22608071894E+03  0.18548367600E+03 -0.66244194987E+03  0.72411852303E+03  0.12699999809E+01 0.  1.
       -4    1    3    3    0  502 -0.22608071894E+03 -0.18548367600E+03  0.95944319695E+03  0.10030202125E+04  0.12699999809E+01 0. -1.
</event>
<event>
 5   0  0.2967704E-05  0.1699960E+04  0.7818609E-02  0.8761387E-01
        1   -1    0    0  501    0  0.00000000000E+00  0.00000000000E+00  0.14073304047E+04  0.14073304047E+04  0.50400001928E-02 0. -1.
       -1   -1    0    0    0  501  0.00000000000E+00  0.00000000000E+00 -0.51335899576E+03  0.51335899579E+03  0.50400001928E-02 0.  1.
    10030    2    1    2    0    0  0.00000000000E+00  0.00000000000E+00  0.89397140891E+03  0.19206894005E+04  0.16999596740E+04 0.  0.
        2    1    3    3  502    0 -0.17244385093E+03  0.50846409369E+03  0.11914776141E+04  0.13068632374E+04  0.25500000920E-02 0. -1.
       -2    1    3    3    0  502  0.17244385093E+03 -0.50846409369E+03 -0.29750620523E+03  0.61382616306E+03  0.25500000920E-02 0.  1.
</event>
<event>
 5   0  0.2967704E-05  0.1692900E+04  0.7818609E-02  0.8765424E-01
        1   -1    0    0  501    0  0.00000000000E+00  0.00000000000E+00  0.17448373059E+04  0.17448373059E+04  0.50400001928E-02 0.  1.
       -1   -1    0    0    0  501  0.00000000000E+00  0.00000000000E+00 -0.41062702184E+03  0.41062702187E+03  0.50400001928E-02 0. -1.
    10030    2    1    2    0    0  0.00000000000E+00  0.00000000000E+00  0.13342102841E+04  0.21554643278E+04  0.16928996976E+04 0.  0.
        2    1    3    3  502    0 -0.30050241607E+03 -0.22523114661E+03 -0.29875026897E+03  0.47987758301E+03  0.25500000920E-02 0. -1.
       -2    1    3    3    0  502  0.30050241607E+03  0.22523114661E+03  0.16329605531E+04  0.16755867448E+04  0.25500000920E-02 0.  1.
</event>
<event>
 5   0  0.5652631E-05  0.1700263E+04  0.7818609E-02  0.8761214E-01
       -2   -1    0    0    0  501  0.00000000000E+00  0.00000000000E+00  0.91667777707E+03  0.91667777707E+03  0.25500000920E-02 0. -1.
        2   -1    0    0  501    0  0.00000000000E+00  0.00000000000E+00 -0.78841659927E+03  0.78841659927E+03  0.25500000920E-02 0.  1.
    10030    2    1    2    0    0  0.00000000000E+00  0.00000000000E+00  0.12826117780E+03  0.17050943763E+04  0.17002634803E+04 0.  0.
        2    1    3    3  502    0  0.65044706614E+03  0.53201931936E+03 -0.65068816488E+02  0.84282850741E+03  0.25500000920E-02 0.  1.
       -2    1    3    3    0  502 -0.65044706614E+03 -0.53201931936E+03  0.19332999429E+03  0.86226586893E+03  0.25500000920E-02 0. -1.
</event>
<event>
 5   0  0.2911632E-05  0.1702459E+04  0.7818609E-02  0.8759963E-01
        1   -1    0    0  501    0  0.00000000000E+00  0.00000000000E+00  0.15563377275E+04  0.15563377275E+04  0.50400001928E-02 0.  1.
       -1   -1    0    0    0  501  0.00000000000E+00  0.00000000000E+00 -0.46557498679E+03  0.46557498681E+03  0.50400001928E-02 0. -1.
    10030    2    1    2    0    0  0.00000000000E+00  0.00000000000E+00  0.10907627407E+04  0.20219127143E+04  0.17024592999E+04 0.  0.
        1    1    3    3  502    0  0.47527221455E+03  0.19418451892E+03 -0.26099244306E+03  0.57594128231E+03  0.50400001928E-02 0. -1.
       -1    1    3    3    0  502 -0.47527221455E+03 -0.19418451892E+03  0.13517551838E+04  0.14459714320E+04  0.50400001928E-02 0.  1.
</event>
<event>
 5   0  0.2967704E-05  0.1699895E+04  0.7818609E-02  0.8761424E-01
        1   -1    0    0  501    0  0.00000000000E+00  0.00000000000E+00  0.49163567835E+03  0.49163567838E+03  0.50400001928E-02 0.  1.
       -1   -1    0    0    0  501  0.00000000000E+00  0.00000000000E+00 -0.14694033883E+04  0.14694033884E+04  0.50400001928E-02 0. -1.
    10030    2    1    2    0    0  0.00000000000E+00  0.00000000000E+00 -0.97776770999E+03  0.19610390667E+04  0.16998954458E+04 0.  0.
        2    1    3    3  502    0 -0.78761274564E+03 -0.31269833164E+03 -0.41326168528E+03  0.94281456514E+03  0.25500000920E-02 0.  1.
       -2    1    3    3    0  502  0.78761274564E+03  0.31269833164E+03 -0.56450602471E+03  0.10182245016E+04  0.25500000920E-02 0. -1.
</event>
<event>
 5   0  0.2993769E-05  0.1700658E+04  0.7818609E-02  0.8760989E-01
        1   -1    0    0  501    0  0.00000000000E+00  0.00000000000E+00  0.11151671246E+04  0.11151671246E+04  0.50400001928E-02 0.  1.
       -1   -1    0    0    0  501  0.00000000000E+00  0.00000000000E+00 -0.64838686256E+03  0.64838686258E+03  0.50400001928E-02 0. -1.
    10030    2    1    2    0    0  0.00000000000E+00  0.00000000000E+00  0.46678026203E+03  0.17635539872E+04  0.17006583586E+04 0.  0.
        3    1    3    3  502    0 -0.35281497181E+03 -0.56736453029E+03 -0.31206573140E+03  0.73740487216E+03  0.10100000352E+00 0. -1.
       -3    1    3    3    0  502  0.35281497181E+03  0.56736453029E+03  0.77884599342E+03  0.10261491150E+04  0.10100000352E+00 0.  1.
</event>
<event>
 5   0  0.2966258E-05  0.1711301E+04  0.7818609E-02  0.8754945E-01
        1   -1    0    0  501    0  0.00000000000E+00  0.00000000000E+00  0.12182439728E+04  0.12182439728E+04  0.50400001928E-02 0.  1.
       -1   -1    0    0    0  501  0.00000000000E+00  0.00000000000E+00 -0.60097817678E+03  0.60097817680E+03  0.50400001928E-02 0. -1.
    10030    2    1    2    0    0  0.00000000000E+00  0.00000000000E+00  0.61726579597E+03  0.18192221496E+04  0.17113013080E+04 0.  0.
        4    1    3    3  502    0 -0.23029195141E+03 -0.39679190765E+03 -0.45917448460E+03  0.64909245957E+03  0.12699999809E+01 0. -1.
       -4    1    3    3    0  502  0.23029195141E+03  0.39679190765E+03  0.10764402806E+04  0.11701296900E+04  0.12699999809E+01 0.  1.
</event>
<event>
 5   0  0.5755321E-05  0.1700849E+04  0.7818609E-02  0.8760881E-01
       -2   -1    0    0    0  501  0.00000000000E+00  0.00000000000E+00  0.33709146020E+03  0.33709146021E+03  0.25500000920E-02 0. -1.
        2   -1    0    0  501    0  0.00000000000E+00  0.00000000000E+00 -0.21454753168E+04  0.21454753168E+04  0.25500000920E-02 0.  1.
    10030    2    1    2    0    0  0.00000000000E+00  0.00000000000E+00 -0.18083838566E+04  0.24825667770E+04  0.17008485028E+04 0.  0.
        4    1    3    3  502    0 -0.43224184357E+03 -0.12947882980E+03  0.14796151003E+03  0.47485997941E+03  0.12699999809E+01 0. -1.
       -4    1    3    3    0  502  0.43224184357E+03  0.12947882980E+03 -0.19563453666E+04  0.20077067976E+04  0.12699999809E+01 0.  1.
</event>
<event>
 5   0  0.5652631E-05  0.1722860E+04  0.7818609E-02  0.8748433E-01
       -2   -1    0    0    0  501  0.00000000000E+00  0.00000000000E+00  0.50340164351E+03  0.50340164352E+03  0.25500000920E-02 0. -1.
        2   -1    0    0  501    0  0.00000000000E+00  0.00000000000E+00 -0.14740944971E+04  0.14740944971E+04  0.25500000920E-02 0.  1.
    10030    2    1    2    0    0  0.00000000000E+00  0.00000000000E+00 -0.97069285359E+03  0.19774961406E+04  0.17228599392E+04 0.  0.
        2    1    3    3  502    0  0.80989490752E+03 -0.11859033972E+03 -0.79347884823E+03  0.11400009265E+04  0.25500000920E-02 0.  1.
       -2    1    3    3    0  502 -0.80989490752E+03  0.11859033972E+03 -0.17721400536E+03  0.83749521408E+03  0.25500000920E-02 0. -1.
</event>
<event>
 5   0  0.5859822E-05  0.1709123E+04  0.7818609E-02  0.8756178E-01
        2   -1    0    0  501    0  0.00000000000E+00  0.00000000000E+00  0.10816146165E+04  0.10816146165E+04  0.25500000920E-02 0.  1.
       -2   -1    0    0    0  501  0.00000000000E+00  0.00000000000E+00 -0.67517115257E+03  0.67517115257E+03  0.25500000920E-02 0. -1.
    10030    2    1    2    0    0  0.00000000000E+00  0.00000000000E+00  0.40644346395E+03  0.17567857691E+04  0.17091225670E+04 0.  0.
        5    1    3    3  502    0  0.26258406764E+03 -0.27897597162E+03 -0.58193559851E+03  0.69674178584E+03  0.46999998093E+01 0. -1.
       -5    1    3    3    0  502 -0.26258406764E+03  0.27897597162E+03  0.98837906246E+03  0.10600439833E+04  0.46999998093E+01 0.  1.
</event>
<event>
 5   0  0.5671132E-05  0.1699553E+04  0.7818609E-02  0.8761619E-01
        2   -1    0    0  501    0  0.00000000000E+00  0.00000000000E+00  0.10471757304E+04  0.10471757304E+04  0.25500000920E-02 0.  1.
       -2   -1    0    0    0  501  0.00000000000E+00  0.00000000000E+00 -0.68958823036E+03  0.68958823036E+03  0.25500000920E-02 0. -1.
    10030    2    1    2    0    0  0.00000000000E+00  0.00000000000E+00  0.35758750001E+03  0.17367639607E+04  0.16995529516E+04 0.  0.
        3    1    3    3  502    0 -0.14863009049E+03 -0.43662869885E+03 -0.55054446808E+03  0.71821636434E+03  0.10100000352E+00 0. -1.
       -3    1    3    3    0  502  0.14863009049E+03  0.43662869885E+03  0.90813196810E+03  0.10185475964E+04  0.10100000352E+00 0.  1.
</event>
<event>
 5   0  0.5821584E-05  0.1705210E+04  0.7818609E-02  0.8758399E-01
        2   -1    0    0  501    0  0.00000000000E+00  0.00000000000E+00  0.75157098251E+03  0.75157098251E+03  0.25500000920E-02 0. -1.
       -2   -1    0    0    0  501  0.00000000000E+00  0.00000000000E+00 -0.96722055003E+03  0.96722055004E+03  0.25500000920E-02 0.  1.
    10030    2    1    2    0    0  0.00000000000E+00  0.00000000000E+00 -0.21564956753E+03  0.17187915325E+04  0.17052095462E+04 0.  0.
        1    1    3    3  502    0  0.27945367124E+03 -0.47102589801E+03  0.55081316395E+03  0.77675922432E+03  0.50400001928E-02 0.  1.
       -1    1    3    3    0  502 -0.27945367124E+03  0.47102589801E+03 -0.76646273148E+03  0.94203230822E+03  0.50400001928E-02 0. -1.
</event>
<event>
 5   0  0.2993769E-05  0.1703851E+04  0.7818609E-02  0.8759171E-01
       -1   -1    0    0    0  501  0.00000000000E+00  0.00000000000E+00  0.14327131161E+04  0.14327131161E+04  0.50400001928E-02 0.  1.
        1   -1    0    0  501    0  0.00000000000E+00  0.00000000000E+00 -0.50657518408E+03  0.50657518411E+03  0.50400001928E-02 0. -1.
    10030    2    1    2    0    0  0.00000000000E+00  0.00000000000E+00  0.92613793202E+03  0.19392883002E+04  0.17038508275E+04 0.  0.
        3    1    3    3  502    0  0.52134184741E+03  0.67169113281E+03  0.52340967035E+03  0.99846081194E+03  0.10100000352E+00 0.  1.
       -3    1    3    3    0  502 -0.52134184741E+03 -0.67169113281E+03  0.40272826167E+03  0.94082748828E+03  0.10100000352E+00 0. -1.
</event>
<event>
 5   0  0.2993769E-05  0.1703902E+04  0.7818609E-02  0.8759142E-01
       -1   -1    0    0    0  501  0.00000000000E+00  0.00000000000E+00  0.76300170603E+03  0.76300170605E+03  0.50400001928E-02 0. -1.
        1   -1    0    0  501    0  0.00000000000E+00  0.00000000000E+00 -0.95127002739E+03  0.95127002740E+03  0.50400001928E-02 0.  1.
    10030    2    1    2    0    0  0.00000000000E+00  0.00000000000E+00 -0.18826832135E+03  0.17142717335E+04  0.17039021730E+04 0.  0.
        3    1    3    3  502    0 -0.15742735442E+02 -0.81430505267E+03  0.15734721904E+03  0.82951715477E+03  0.10100000352E+00 0. -1.
       -3    1    3    3    0  502  0.15742735442E+02  0.81430505267E+03 -0.34561554040E+03  0.88475457868E+03  0.10100000352E+00 0.  1.
</event>
<event>
 5   0  0.5859822E-05  0.1703442E+04  0.7818609E-02  0.8759404E-01
        2   -1    0    0  501    0  0.00000000000E+00  0.00000000000E+00  0.19633887914E+04  0.19633887914E+04  0.25500000920E-02 0.  1.
       -2   -1    0    0    0  501  0.00000000000E+00  0.00000000000E+00 -0.36947791514E+03  0.36947791515E+03  0.25500000920E-02 0. -1.
    10030    2    1    2    0    0  0.00000000000E+00  0.00000000000E+00  0.15939108763E+04  0.23328667065E+04  0.17034421590E+04 0.  0.
        5    1    3    3  502    0 -0.15563458152E+03  0.76724879359E+03  0.33758232678E+03  0.85257067248E+03  0.46999998093E+01 0. -1.
       -5    1    3    3    0  502  0.15563458152E+03 -0.76724879359E+03  0.12563285495E+04  0.14802960341E+04  0.46999998093E+01 0.  1.
</event>
<event>
 5   0  0.2966258E-05  0.1700317E+04  0.7818609E-02  0.8761184E-01
       -1   -1    0    0    0  501  0.00000000000E+00  0.00000000000E+00  0.71313929858E+03  0.71313929860E+03  0.50400001928E-02 0.  1.
        1   -1    0    0  501    0  0.00000000000E+00  0.00000000000E+00 -0.10135038517E+04  0.10135038517E+04  0.50400001928E-02 0. -1.
    10030    2    1    2    0    0  0.00000000000E+00  0.00000000000E+00 -0.30036455310E+03  0.17266431503E+04  0.17003169421E+04 0.  0.
        4    1    3    3  502    0  0.97688743957E+02 -0.11042457526E+03 -0.10004219412E+04  0.10112281399E+04  0.12699999809E+01 0. -1.
       -4    1    3    3    0  502 -0.97688743957E+02  0.11042457526E+03  0.70005738814E+03  0.71541501040E+03  0.12699999809E+01 0.  1.
</event>
<event>
 5   0  0.5821584E-05  0.1697700E+04  0.7818609E-02  0.8762677E-01
        2   -1    0    0  501    0  0.00000000000E+00  0.00000000000E+00  0.76047484130E+03  0.76047484131E+03  0.25500000920E-02 0.  1.
       -2   -1    0    0    0  501  0.00000000000E+00  0.00000000000E+00 -0.94749513731E+03  0.94749513732E+03  0.25500000920E-02 0. -1.
    10030    2    1    2    0    0  0.00000000000E+00  0.00000000000E+00 -0.18702029601E+03  0.17079699786E+04  0.16976998724E+04 0.  0.
        1    1    3    3  502    0  0.29999431008E+03  0.77123581945E+03 -0.28371719193E+03  0.87481239149E+03  0.50400001928E-02 0.  1.
       -1    1    3    3    0  502 -0.29999431008E+03 -0.77123581945E+03  0.96696895920E+02  0.83315758713E+03  0.50400001928E-02 0. -1.
</event>
<event>
 5   0  0.5671132E-05  0.1702506E+04  0.7818609E-02  0.8759937E-01
        2   -1    0    0  501    0  0.00000000000E+00  0.00000000000E+00  0.19057438905E+04  0.19057438905E+04  0.25500000920E-02 0. -1.
       -2   -1    0    0    0  501  0.00000000000E+00  0.00000000000E+00 -0.38023546943E+03  0.38023546943E+03  0.25500000920E-02 0.  1.
    10030    2    1    2    0    0  0.00000000000E+00  0.00000000000E+00  0.15255084211E+04  0.22859793600E+04  0.17025057096E+04 0.  0.
        3    1    3    3  502    0 -0.28505482926E+03  0.61000176917E+03  0.14620920247E+04  0.16096805624E+04  0.10100000352E+00 0. -1.
       -3    1    3    3    0  502  0.28505482926E+03 -0.61000176917E+03  0.63416396421E+02  0.67629879758E+03  0.10100000352E+00 0.  1.
</event>
<event>
 5   0  0.2993769E-05  0.1696727E+04  0.7818609E-02  0.8763233E-01
        1   -1    0    0  501    0  0.00000000000E+00  0.00000000000E+00  0.63330401280E+03  0.63330401282E+03  0.50400001928E-02 0.  1.
       -1   -1    0    0    0  501  0.00000000000E+00  0.00000000000E+00 -0.11364541747E+04  0.11364541747E+04  0.50400001928E-02 0. -1.
    10030    2    1    2    0    0  0.00000000000E+00  0.00000000000E+00 -0.50315016185E+03  0.17697581875E+04  0.16967274256E+04 0.  0.
        3    1    3    3  502    0  0.92374667114E+02 -0.24233878105E+02 -0.11308296649E+04  0.11348551014E+04  0.10100000352E+00 0. -1.
       -3    1    3    3    0  502 -0.92374667114E+02  0.24233878105E+02  0.62767950305E+03  0.63490308608E+03  0.10100000352E+00 0.  1.
</event>
<event>
 5   0  0.5671132E-05  0.1700857E+04  0.7818609E-02  0.8760876E-01
        2   -1    0    0  501    0  0.00000000000E+00  0.00000000000E+00  0.14094124153E+04  0.14094124153E+04  0.25500000920E-02 0.  1.
       -2   -1    0    0    0  501  0.00000000000E+00  0.00000000000E+00 -0.51314184223E+03  0.51314184224E+03  0.25500000920E-02 0. -1.
    10030    2    1    2    0    0  0.00000000000E+00  0.00000000000E+00  0.89627057312E+03  0.19225542576E+04  0.17008568232E+04 0.  0.
        3    1    3    3  502    0  0.57440772836E+03  0.62710202830E+03  0.45403918952E+03  0.96402945397E+03  0.10100000352E+00 0.  1.
       -3    1    3    3    0  502 -0.57440772836E+03 -0.62710202830E+03  0.44223138360E+03  0.95852480361E+03  0.10100000352E+00 0. -1.
</event>
<event>
 5   0  0.5821584E-05  0.1696074E+04  0.7818609E-02  0.8763607E-01
        2   -1    0    0  501    0  0.00000000000E+00  0.00000000000E+00  0.67444198370E+03  0.67444198370E+03  0.25500000920E-02 0. -1.
       -2   -1    0    0    0  501  0.00000000000E+00  0.00000000000E+00 -0.10663134075E+04  0.10663134075E+04  0.25500000920E-02 0.  1.
    10030    2    1    2    0    0  0.00000000000E+00  0.00000000000E+00 -0.39187142380E+03  0.17407553912E+04  0.16960737364E+04 0.  0.
        1    1    3    3  502    0 -0.37731390058E+03  0.74950331015E+03 -0.32182735002E+03  0.89871788384E+03  0.50400001928E-02 0. -1.
       -1    1    3    3    0  502  0.37731390058E+03 -0.74950331015E+03 -0.70044073782E+02  0.84203750736E+03  0.50400001928E-02 0.  1.
</event>
<event>
 5   0  0.2967704E-05  0.1700015E+04  0.7818609E-02  0.8761356E-01
       -1   -1    0    0    0  501  0.00000000000E+00  0.00000000000E+00  0.78547195913E+03  0.78547195915E+03  0.50400001928E-02 0. -1.
        1   -1    0    0  501    0  0.00000000000E+00  0.00000000000E+00 -0.91984536178E+03  0.91984536179E+03  0.50400001928E-02 0.  1.
    10030    2    1    2    0    0  0.00000000000E+00  0.00000000000E+00 -0.13437340265E+03  0.17053173209E+04  0.17000149863E+04 0.  0.
        2    1    3    3  502    0 -0.54951690592E+02 -0.76087659251E+03 -0.44326919080E+03  0.88229272515E+03  0.25500000920E-02 0. -1.
       -2    1    3    3    0  502  0.54951690592E+02  0.76087659251E+03  0.30889578815E+03  0.82302459579E+03  0.25500000920E-02 0.  1.
</event>
<event>
 5   0  0.5755321E-05  0.1700386E+04  0.7818609E-02  0.8761144E-01
        2   -1    0    0  501    0  0.00000000000E+00  0.00000000000E+00  0.25320226628E+04  0.25320226628E+04  0.25500000920E-02 0.  1.
       -2   -1    0    0    0  501  0.00000000000E+00  0.00000000000E+00 -0.28547448309E+03  0.28547448310E+03  0.25500000920E-02 0. -1.
    10030    2    1    2    0    0  0.00000000000E+00  0.00000000000E+00  0.22465481797E+04  0.28174971459E+04  0.17003856749E+04 0.  0.
        4    1    3    3  502    0  0.69688052447E+03 -0.29841740299E+03  0.17610069341E+04  0.19172486658E+04  0.12699999809E+01 0.  1.
       -4    1    3    3    0  502 -0.69688052447E+03  0.29841740299E+03  0.48554124564E+03  0.90024848009E+03  0.12699999809E+01 0. -1.
</event>
<event>
 5   0  0.5652631E-05  0.1704371E+04  0.7818609E-02  0.8758875E-01
        2   -1    0    0  501    0  0.00000000000E+00  0.00000000000E+00  0.99981066841E+03  0.99981066841E+03  0.25500000920E-02 0.  1.
       -2   -1    0    0    0  501  0.00000000000E+00  0.00000000000E+00 -0.72635765340E+03  0.72635765341E+03  0.25500000920E-02 0. -1.
    10030    2    1    2    0    0  0.00000000000E+00  0.00000000000E+00  0.27345301500E+03  0.17261683218E+04  0.17043710053E+04 0.  0.
        2    1    3    3  502    0  0.36740384719E+03  0.76648023514E+03  0.19868563798E+03  0.87289949052E+03  0.25500000920E-02 0.  1.
       -2    1    3    3    0  502 -0.36740384719E+03 -0.76648023514E+03  0.74767377020E+02  0.85326883130E+03  0.25500000920E-02 0. -1.
</event>
<event>
 5   0  0.2993769E-05  0.1700734E+04  0.7818609E-02  0.8760946E-01
        1   -1    0    0  501    0  0.00000000000E+00  0.00000000000E+00  0.26710833031E+03  0.26710833036E+03  0.50400001928E-02 0.  1.
       -1   -1    0    0    0  501  0.00000000000E+00  0.00000000000E+00 -0.27072316858E+04  0.27072316859E+04  0.50400001928E-02 0. -1.
    10030    2    1    2    0    0  0.00000000000E+00  0.00000000000E+00 -0.24401233555E+04  0.29743400162E+04  0.17007341185E+04 0.  0.
        3    1    3    3  502    0 -0.71277506739E+01 -0.24285727115E+03 -0.26452388551E+04  0.26563732926E+04  0.10100000352E+00 0. -1.
       -3    1    3    3    0  502  0.71277506739E+01  0.24285727115E+03  0.20511549954E+03  0.31796672362E+03  0.10100000352E+00 0.  1.
</event>
<event>
 5   0  0.2966258E-05  0.1699708E+04  0.7818609E-02  0.8761531E-01
       -1   -1    0    0    0  501  0.00000000000E+00  0.00000000000E+00  0.36275587156E+03  0.36275587159E+03  0.50400001928E-02 0.  1.
        1   -1    0    0  501    0  0.00000000000E+00  0.00000000000E+00 -0.19910143093E+04  0.19910143093E+04  0.50400001928E-02 0. -1.
    10030    2    1    2    0    0  0.00000000000E+00  0.00000000000E+00 -0.16282584377E+04  0.23537701809E+04  0.16997083645E+04 0.  0.
        4    1    3    3  502    0 -0.70288258109E+02  0.68105360825E+03 -0.15113304099E+04  0.16591852450E+04  0.12699999809E+01 0. -1.
       -4    1    3    3    0  502  0.70288258109E+02 -0.68105360825E+03 -0.11692802784E+03  0.69458493587E+03  0.12699999809E+01 0.  1.
</event>
<event>
 5   0  0.2987859E-05  0.1699313E+04  0.7818609E-02  0.8761756E-01
        1   -1    0    0  501    0  0.00000000000E+00  0.00000000000E+00  0.86046716070E+03  0.86046716071E+03  0.50400001928E-02 0. -1.
       -1   -1    0    0    0  501  0.00000000000E+00  0.00000000000E+00 -0.83898193317E+03  0.83898193319E+03  0.50400001928E-02 0.  1.
    10030    2    1    2    0    0  0.00000000000E+00  0.00000000000E+00  0.21485227522E+02  0.16994490939E+04  0.16993132753E+04 0.  0.
        5    1    3    3  502    0  0.56006524753E+03 -0.38250198036E+03 -0.50107310923E+03  0.84325393403E+03  0.46999998093E+01 0.  1.
       -5    1    3    3    0  502 -0.56006524753E+03  0.38250198036E+03  0.52255833676E+03  0.85619515987E+03  0.46999998093E+01 0. -1.
</event>
<event>
 5   0  0.2966258E-05  0.1697920E+04  0.7818609E-02  0.8762551E-01
        1   -1    0    0  501    0  0.00000000000E+00  0.00000000000E+00  0.38150988573E+03  0.38150988577E+03  0.50400001928E-02 0.  1.
       -1   -1    0    0    0  501  0.00000000000E+00  0.00000000000E+00 -0.18891601554E+04  0.18891601554E+04  0.50400001928E-02 0. -1.
    10030    2    1    2    0    0  0.00000000000E+00  0.00000000000E+00 -0.15076502696E+04  0.22706700411E+04  0.16979202279E+04 0.  0.
        4    1    3    3  502    0  0.28465669023E+03  0.10883876749E+03 -0.18134859974E+04  0.18389150019E+04  0.12699999809E+01 0. -1.
       -4    1    3    3    0  502 -0.28465669023E+03 -0.10883876749E+03  0.30583572778E+03  0.43175503921E+03  0.12699999809E+01 0.  1.
</event>
<event>
 5   0  0.2911632E-05  0.1700997E+04  0.7818609E-02  0.8760796E-01
        1   -1    0    0  501    0  0.00000000000E+00  0.00000000000E+00  0.21809651017E+04  0.21809651017E+04  0.50400001928E-02 0. -1.
       -1   -1    0    0    0  501  0.00000000000E+00  0.00000000000E+00 -0.33166401876E+03  0.33166401880E+03  0.50400001928E-02 0.  1.
    10030    2    1    2    0    0  0.00000000000E+00  0.00000000000E+00  0.18493010830E+04  0.25126291205E+04  0.17009969435E+04 0.  0.
        1    1    3    3  502    0 -0.58739319905E+03 -0.34738664965E+03  0.17487547924E+03  0.70447830904E+03  0.50400001928E-02 0.  1.
       -1    1    3    3    0  502  0.58739319905E+03  0.34738664965E+03  0.16744256037E+04  0.18081508115E+04  0.50400001928E-02 0. -1.
</event>
<event>
 5   0  0.5859822E-05  0.1699409E+04  0.7818609E-02  0.8761701E-01
        2   -1    0    0  501    0  0.00000000000E+00  0.00000000000E+00  0.11847837761E+04  0.11847837761E+04  0.25500000920E-02 0.  1.
       -2   -1    0    0    0  501  0.00000000000E+00  0.00000000000E+00 -0.60939230477E+03  0.60939230478E+03  0.25500000920E-02 0. -1.
    10030    2    1    2    0    0  0.00000000000E+00  0.00000000000E+00  0.57539147130E+03  0.17941760809E+04  0.16994094456E+04 0.  0.
        5    1    3    3  502    0 -0.70556092396E+03  0.23927839235E+03 -0.14362721382E+03  0.75876296233E+03  0.46999998093E+01 0. -1.
       -5    1    3    3    0  502  0.70556092396E+03 -0.23927839235E+03  0.71901868512E+03  0.10354131185E+04  0.46999998093E+01 0.  1.
</event>
<event>
 5   0  0.2966258E-05  0.1700685E+04  0.7818609E-02  0.8760974E-01
       -1   -1    0    0    0  501  0.00000000000E+00  0.00000000000E+00  0.11896798872E+04  0.11896798872E+04  0.50400001928E-02 0. -1.
        1   -1    0    0  501    0  0.00000000000E+00  0.00000000000E+00 -0.60779587410E+03  0.60779587413E+03  0.50400001928E-02 0.  1.
    10030    2    1    2    0    0  0.00000000000E+00  0.00000000000E+00  0.58188401308E+03  0.17974757613E+04  0.17006851878E+04 0.  0.
        4    1    3    3  502    0  0.76344485563E+03 -0.68100472312E+02  0.68013163564E+03  0.10247274646E+04  0.12699999809E+01 0. -1.
       -4    1    3    3    0  502 -0.76344485563E+03  0.68100472312E+02 -0.98247622559E+02  0.77274829677E+03  0.12699999809E+01 0.  1.
</event>
<event>
 5   0  0.2098250E-05  0.1699833E+04  0.7818609E-02  0.8761460E-01
       -4   -1    0    0    0  501  0.00000000000E+00  0.00000000000E+00  0.10122769747E+04  0.10122777714E+04  0.12699999809E+01 0.  1.
        4   -1    0    0  501    0  0.00000000000E+00  0.00000000000E+00 -0.71359563066E+03  0.71359676078E+03  0.12699999809E+01 0. -1.
    10030    2    1    2    0    0  0.00000000000E+00  0.00000000000E+00  0.29868134407E+03  0.17258745322E+04  0.16998330375E+04 0.  0.
        1    1    3    3  502    0  0.90448503833E+02 -0.72173838377E+03  0.59570157408E+03  0.94018487110E+03  0.50400001928E-02 0.  1.
       -1    1    3    3    0  502 -0.90448503833E+02  0.72173838377E+03 -0.29702023001E+03  0.78568966107E+03  0.50400001928E-02 0. -1.
</event>
<event>
 5   0  0.5671132E-05  0.1698287E+04  0.7818609E-02  0.8762342E-01
        2   -1    0    0  501    0  0.00000000000E+00  0.00000000000E+00  0.25762124715E+04  0.25762124715E+04  0.25500000920E-02 0.  1.
       -2   -1    0    0    0  501  0.00000000000E+00  0.00000000000E+00 -0.27988549758E+03  0.27988549759E+03  0.25500000920E-02 0. -1.
    10030    2    1    2    0    0  0.00000000000E+00  0.00000000000E+00  0.22963269739E+04  0.28560979691E+04  0.16982867949E+04 0.  0.
        3    1    3    3  502    0 -0.76961181165E+03  0.82181840444E+02  0.56078076986E+03  0.95578830165E+03  0.10100000352E+00 0. -1.
       -3    1    3    3    0  502  0.76961181165E+03 -0.82181840444E+02  0.17355462040E+04  0.19003096674E+04  0.10100000352E+00 0.  1.
</event>
<event>
 5   0  0.5671132E-05  0.1703258E+04  0.7818609E-02  0.8759509E-01
       -2   -1    0    0    0  501  0.00000000000E+00  0.00000000000E+00  0.58432210261E+03  0.58432210262E+03  0.25500000920E-02 0.  1.
        2   -1    0    0  501    0  0.00000000000E+00  0.00000000000E+00 -0.12412189310E+04  0.12412189310E+04  0.25500000920E-02 0. -1.
    10030    2    1    2    0    0  0.00000000000E+00  0.00000000000E+00 -0.65689682835E+03  0.18255410336E+04  0.17032576500E+04 0.  0.
        3    1    3    3  502    0 -0.19626337604E+03 -0.54727241719E+03 -0.99541532998E+03  0.11527697518E+04  0.10100000352E+00 0. -1.
       -3    1    3    3    0  502  0.19626337604E+03  0.54727241719E+03  0.33851850163E+03  0.67277128174E+03  0.10100000352E+00 0.  1.
</event>
<event>
 5   0  0.2987859E-05  0.1700213E+04  0.7818609E-02  0.8761243E-01
       -1   -1    0    0    0  501  0.00000000000E+00  0.00000000000E+00  0.96403608177E+03  0.96403608178E+03  0.50400001928E-02 0.  1.
        1   -1    0    0  501    0  0.00000000000E+00  0.00000000000E+00 -0.74964074536E+03  0.74964074538E+03  0.50400001928E-02 0. -1.
    10030    2    1    2    0    0  0.00000000000E+00  0.00000000000E+00  0.21439533641E+03  0.17136768272E+04  0.17002126066E+04 0.  0.
        5    1    3    3  502    0  0.80659545962E+03 -0.12889658965E+03  0.34453656073E+03  0.88653149859E+03  0.46999998093E+01 0.  1.
       -5    1    3    3    0  502 -0.80659545962E+03  0.12889658965E+03 -0.13014122432E+03  0.82714532857E+03  0.46999998093E+01 0. -1.
</event>
<event>
 5   0  0.5859822E-05  0.1700409E+04  0.7818609E-02  0.8761131E-01
        2   -1    0    0  501    0  0.00000000000E+00  0.00000000000E+00  0.93382664915E+03  0.93382664915E+03  0.25500000920E-02 0. -1.
       -2   -1    0    0    0  501  0.00000000000E+00  0.00000000000E+00 -0.77407089862E+03  0.77407089863E+03  0.25500000920E-02 0.  1.
    10030    2    1    2    0    0  0.00000000000E+00  0.00000000000E+00  0.15975575052E+03  0.17078975478E+04  0.17004094018E+04 0.  0.
        5    1    3    3  502    0  0.46460617526E+02  0.26475608091E+02 -0.77236706361E+03  0.77423027437E+03  0.46999998093E+01 0.  1.
       -5    1    3    3    0  502 -0.46460617526E+02 -0.26475608091E+02  0.93212281413E+03  0.93366727341E+03  0.46999998093E+01 0. -1.
</event>
<event>
 5   0  0.5671132E-05  0.1700967E+04  0.7818609E-02  0.8760813E-01
       -2   -1    0    0    0  501  0.00000000000E+00  0.00000000000E+00  0.37048492781E+03  0.37048492782E+03  0.25500000920E-02 0. -1.
        2   -1    0    0  501    0  0.00000000000E+00  0.00000000000E+00 -0.19523661610E+04  0.19523661610E+04  0.25500000920E-02 0.  1.
    10030    2    1    2    0    0  0.00000000000E+00  0.00000000000E+00 -0.15818812332E+04  0.23228510888E+04  0.17009670617E+04 0.  0.
        3    1    3    3  502    0  0.30114363053E+03  0.40942723793E+03  0.14028270880E+03  0.52725458552E+03  0.10100000352E+00 0. -1.
       -3    1    3    3    0  502 -0.30114363053E+03 -0.40942723793E+03 -0.17221639420E+04  0.17955965033E+04  0.10100000352E+00 0.  1.
</event>
<event>
 5   0  0.2993769E-05  0.1699990E+04  0.7818609E-02  0.8761370E-01
        1   -1    0    0  501    0  0.00000000000E+00  0.00000000000E+00  0.14173211497E+04  0.14173211497E+04  0.50400001928E-02 0.  1.
       -1   -1    0    0    0  501  0.00000000000E+00  0.00000000000E+00 -0.50975870795E+03  0.50975870797E+03  0.50400001928E-02 0. -1.
    10030    2    1    2    0    0  0.00000000000E+00  0.00000000000E+00  0.90756244175E+03  0.19270798577E+04  0.16999903506E+04 0.  0.
        3    1    3    3  502    0 -0.58652036710E+03 -0.48341464858E+03  0.88513283218E+03  0.11666859064E+04  0.10100000352E+00 0.  1.
       -3    1    3    3    0  502  0.58652036710E+03  0.48341464858E+03  0.22429609571E+02  0.76039395124E+03  0.10100000352E+00 0. -1.
</event>
<event>
 5   0  0.2993769E-05  0.1699933E+04  0.7818609E-02  0.8761403E-01
       -1   -1    0    0    0  501  0.00000000000E+00  0.00000000000E+00  0.65196766912E+03  0.65196766914E+03  0.50400001928E-02 0.  1.
        1   -1    0    0  501    0  0.00000000000E+00  0.00000000000E+00 -0.11080959287E+04  0.11080959287E+04  0.50400001928E-02 0. -1.
    10030    2    1    2    0    0  0.00000000000E+00  0.00000000000E+00 -0.45612825956E+03  0.17600635978E+04  0.16999326102E+04 0.  0.
        3    1    3    3  502    0 -0.21793397833E+02  0.76376923499E+03  0.15742874859E+03  0.78012961589E+03  0.10100000352E+00 0. -1.
       -3    1    3    3    0  502  0.21793397833E+02 -0.76376923499E+03 -0.61355700815E+03  0.97993398194E+03  0.10100000352E+00 0.  1.
</event>
<event>
 5   0  0.2966258E-05  0.1701466E+04  0.7818609E-02  0.8760529E-01
        1   -1    0    0  501    0  0.00000000000E+00  0.00000000000E+00  0.20634299682E+04  0.20634299682E+04  0.50400001928E-02 0. -1.
       -1   -1    0    0    0  501  0.00000000000E+00  0.00000000000E+00 -0.35074938680E+03  0.35074938684E+03  0.50400001928E-02 0.  1.
    10030    2    1    2    0    0  0.00000000000E+00  0.00000000000E+00  0.17126805814E+04  0.24141793550E+04  0.17014661867E+04 0.  0.
        4    1    3    3  502    0 -0.20593703094E+03 -0.52822611557E+03 -0.43629352703E+02  0.56862819417E+03  0.12699999809E+01 0.  1.
       -4    1    3    3    0  502  0.20593703094E+03  0.52822611557E+03  0.17563099341E+04  0.18455511608E+04  0.12699999809E+01 0. -1.
</event>
<event>
 5   0  0.5821584E-05  0.1697192E+04  0.7818609E-02  0.8762968E-01
       -2   -1    0    0    0  501  0.00000000000E+00  0.00000000000E+00  0.11330779261E+04  0.11330779261E+04  0.25500000920E-02 0.  1.
        2   -1    0    0  501    0  0.00000000000E+00  0.00000000000E+00 -0.63553892494E+03  0.63553892494E+03  0.25500000920E-02 0. -1.
    10030    2    1    2    0    0  0.00000000000E+00  0.00000000000E+00  0.49753900112E+03  0.17686168510E+04  0.16971919479E+04 0.  0.
        1    1    3    3  502    0  0.22081693136E+03 -0.53955718118E+03 -0.39381128052E+03  0.70354061263E+03  0.50400001928E-02 0. -1.
       -1    1    3    3    0  502 -0.22081693136E+03  0.53955718118E+03  0.89135028164E+03  0.10650762384E+04  0.50400001928E-02 0.  1.
</event>
<event>
 5   0  0.2098250E-05  0.1698127E+04  0.7818609E-02  0.8762434E-01
        4   -1    0    0  501    0  0.00000000000E+00  0.00000000000E+00  0.17014947590E+04  0.17014952329E+04  0.12699999809E+01 0.  1.
       -4   -1    0    0    0  501  0.00000000000E+00  0.00000000000E+00 -0.42368978047E+03  0.42369168386E+03  0.12699999809E+01 0. -1.
    10030    2    1    2    0    0  0.00000000000E+00  0.00000000000E+00  0.12778049785E+04  0.21251869168E+04  0.16981265760E+04 0.  0.
        4    1    3    3  502    0 -0.51097306940E+03 -0.48811774381E+03  0.49831943151E+02  0.70840471832E+03  0.12699999809E+01 0. -1.
       -4    1    3    3    0  502  0.51097306940E+03  0.48811774381E+03  0.12279730354E+04  0.14167821985E+04  0.12699999809E+01 0.  1.
</event>
<event>
 5   0  0.5652631E-05  0.1693853E+04  0.7818609E-02  0.8764878E-01
        2   -1    0    0  501    0  0.00000000000E+00  0.00000000000E+00  0.15277522483E+04  0.15277522483E+04  0.25500000920E-02 0.  1.
       -2   -1    0    0    0  501  0.00000000000E+00  0.00000000000E+00 -0.46950297067E+03  0.46950297068E+03  0.25500000920E-02 0. -1.
    10030    2    1    2    0    0  0.00000000000E+00  0.00000000000E+00  0.10582492776E+04  0.19972552190E+04  0.16938526725E+04 0.  0.
        2    1    3    3  502    0  0.72163128438E+03 -0.55265433687E+02  0.10477741768E+04  0.12734350020E+04  0.25500000920E-02 0.  1.
       -2    1    3    3    0  502 -0.72163128438E+03  0.55265433687E+02  0.10475100823E+02  0.72382021697E+03  0.25500000920E-02 0. -1.
</event>
<event>
 5   0  0.5671132E-05  0.1700300E+04  0.7818609E-02  0.8761193E-01
        2   -1    0    0  501    0  0.00000000000E+00  0.00000000000E+00  0.83792964731E+03  0.83792964732E+03  0.25500000920E-02 0. -1.
       -2   -1    0    0    0  501  0.00000000000E+00  0.00000000000E+00 -0.86254900099E+03  0.86254900100E+03  0.25500000920E-02 0.  1.
    10030    2    1    2    0    0  0.00000000000E+00  0.00000000000E+00 -0.24619353678E+02  0.17004786483E+04  0.17003004207E+04 0.  0.
        3    1    3    3  502    0  0.79752538150E+02  0.22856768446E+03 -0.82735014084E+03  0.86203939555E+03  0.10100000352E+00 0.  1.
       -3    1    3    3    0  502 -0.79752538150E+02 -0.22856768446E+03  0.80273078717E+03  0.83843925277E+03  0.10100000352E+00 0. -1.
</event>
<event>
 5   0  0.2967704E-05  0.1703791E+04  0.7818609E-02  0.8759205E-01
        1   -1    0    0  501    0  0.00000000000E+00  0.00000000000E+00  0.99214501526E+03  0.99214501527E+03  0.50400001928E-02 0. -1.
       -1   -1    0    0    0  501  0.00000000000E+00  0.00000000000E+00 -0.73147198816E+03  0.73147198817E+03  0.50400001928E-02 0.  1.
    10030    2    1    2    0    0  0.00000000000E+00  0.00000000000E+00  0.26067302710E+03  0.17236170034E+04  0.17037914038E+04 0.  0.
        2    1    3    3  502    0 -0.20732481436E+03 -0.81620212704E+03  0.16603653386E+00  0.84212203297E+03  0.25500000920E-02 0.  1.
       -2    1    3    3    0  502  0.20732481436E+03  0.81620212704E+03  0.26050699057E+03  0.88149497048E+03  0.25500000920E-02 0. -1.
</event>
<event>
 5   0  0.2911632E-05  0.1701112E+04  0.7818609E-02  0.8760731E-01
        1   -1    0    0  501    0  0.00000000000E+00  0.00000000000E+00  0.13663814629E+04  0.13663814630E+04  0.50400001928E-02 0. -1.
       -1   -1    0    0    0  501  0.00000000000E+00  0.00000000000E+00 -0.52946072786E+03  0.52946072788E+03  0.50400001928E-02 0.  1.
    10030    2    1    2    0    0  0.00000000000E+00  0.00000000000E+00  0.83692073508E+03  0.18958421908E+04  0.17011117823E+04 0.  0.
        1    1    3    3  502    0 -0.57456182422E+03  0.34434652540E+03  0.10026284041E+04  0.12058024449E+04  0.50400001928E-02 0. -1.
       -1    1    3    3    0  502  0.57456182422E+03 -0.34434652540E+03 -0.16570766899E+03  0.69003974595E+03  0.50400001928E-02 0.  1.
</event>
<event>
 5   0  0.5671132E-05  0.1699101E+04  0.7818609E-02  0.8761877E-01
       -2   -1    0    0    0  501  0.00000000000E+00  0.00000000000E+00  0.11402207597E+04  0.11402207598E+04  0.25500000920E-02 0.  1.
        2   -1    0    0  501    0  0.00000000000E+00  0.00000000000E+00 -0.63297893628E+03  0.63297893629E+03  0.25500000920E-02 0. -1.
    10030    2    1    2    0    0  0.00000000000E+00  0.00000000000E+00  0.50724182346E+03  0.17731996960E+04  0.16991006134E+04 0.  0.
        3    1    3    3  502    0 -0.14453765741E+03 -0.68624131198E+03  0.75402921787E+03  0.10297467379E+04  0.10100000352E+00 0.  1.
       -3    1    3    3    0  502  0.14453765741E+03  0.68624131198E+03 -0.24678739441E+03  0.74345295811E+03  0.10100000352E+00 0. -1.
</event>
<event>
 5   0  0.5859822E-05  0.1702404E+04  0.7818609E-02  0.8759994E-01
        2   -1    0    0  501    0  0.00000000000E+00  0.00000000000E+00  0.20802370452E+04  0.20802370452E+04  0.25500000920E-02 0. -1.
       -2   -1    0    0    0  501  0.00000000000E+00  0.00000000000E+00 -0.34829928155E+03  0.34829928156E+03  0.25500000920E-02 0.  1.
    10030    2    1    2    0    0  0.00000000000E+00  0.00000000000E+00  0.17319377636E+04  0.24285363267E+04  0.17024042626E+04 0.  0.
        5    1    3    3  502    0 -0.23723848741E+03 -0.32810868706E+03  0.19340466183E+04  0.19759797120E+04  0.46999998093E+01 0. -1.
       -5    1    3    3    0  502  0.23723848741E+03  0.32810868706E+03 -0.20210885466E+03  0.45255661476E+03  0.46999998093E+01 0.  1.
</event>
<event>
 5   0  0.2993769E-05  0.1701356E+04  0.7818609E-02  0.8760591E-01
        1   -1    0    0  501    0  0.00000000000E+00  0.00000000000E+00  0.90385661629E+03  0.90385661631E+03  0.50400001928E-02 0. -1.
       -1   -1    0    0    0  501  0.00000000000E+00  0.00000000000E+00 -0.80062862865E+03  0.80062862866E+03  0.50400001928E-02 0.  1.
    10030    2    1    2    0    0  0.00000000000E+00  0.00000000000E+00  0.10322798765E+03  0.17044852450E+04  0.17013564979E+04 0.  0.
        3    1    3    3  502    0  0.84705616692E+03  0.19893602295E+02  0.12760575949E+03  0.85684487825E+03  0.10100000352E+00 0. -1.
       -3    1    3    3    0  502 -0.84705616692E+03 -0.19893602295E+02 -0.24377771846E+02  0.84764036672E+03  0.10100000352E+00 0.  1.
</event>
<event>
 5   0  0.2966258E-05  0.1701944E+04  0.7818609E-02  0.8760256E-01
        1   -1    0    0  501    0  0.00000000000E+00  0.00000000000E+00  0.58125963937E+03  0.58125963939E+03  0.50400001928E-02 0.  1.
       -1   -1    0    0    0  501  0.00000000000E+00  0.00000000000E+00 -0.12458348338E+04  0.12458348338E+04  0.50400001928E-02 0. -1.
    10030    2    1    2    0    0  0.00000000000E+00  0.00000000000E+00 -0.66457519440E+03  0.18270944732E+04  0.17019441897E+04 0.  0.
        4    1    3    3  502    0 -0.48490578994E+03  0.37597194552E+03  0.30069993166E+03  0.68330856188E+03  0.12699999809E+01 0.  1.
       -4    1    3    3    0  502  0.48490578994E+03 -0.37597194552E+03 -0.96527512607E+03  0.11437859113E+04  0.12699999809E+01 0. -1.
</event>
<event>
 5   0  0.2967704E-05  0.1697797E+04  0.7818609E-02  0.8762622E-01
       -1   -1    0    0    0  501  0.00000000000E+00  0.00000000000E+00  0.12176133697E+04  0.12176133697E+04  0.50400001928E-02 0.  1.
        1   -1    0    0  501    0  0.00000000000E+00  0.00000000000E+00 -0.59183703701E+03  0.59183703703E+03  0.50400001928E-02 0. -1.
    10030    2    1    2    0    0  0.00000000000E+00  0.00000000000E+00  0.62577633266E+03  0.18094504067E+04  0.16977970302E+04 0.  0.
        2    1    3    3  502    0  0.35483824177E+03  0.67843840990E+03 -0.77885149905E+02  0.76958102266E+03  0.25500000920E-02 0. -1.
       -2    1    3    3    0  502 -0.35483824177E+03 -0.67843840990E+03  0.70366148256E+03  0.10398693841E+04  0.25500000920E-02 0.  1.
</event>
<event>
 5   0  0.5755321E-05  0.1703197E+04  0.7818609E-02  0.8759543E-01
        2   -1    0    0  501    0  0.00000000000E+00  0.00000000000E+00  0.10039859541E+04  0.10039859541E+04  0.25500000920E-02 0. -1.
       -2   -1    0    0    0  501  0.00000000000E+00  0.00000000000E+00 -0.72234090261E+03  0.72234090262E+03  0.25500000920E-02 0.  1.
    10030    2    1    2    0    0  0.00000000000E+00  0.00000000000E+00  0.28164505153E+03  0.17263268568E+04  0.17031971352E+04 0.  0.
        4    1    3    3  502    0  0.27496768362E+02 -0.99384383618E+02 -0.71598862794E+03  0.72337725719E+03  0.12699999809E+01 0.  1.
       -4    1    3    3    0  502 -0.27496768362E+02  0.99384383618E+02  0.99763367947E+03  0.10029495996E+04  0.12699999809E+01 0. -1.
</event>
<event>
 5   0  0.2987859E-05  0.1699473E+04  0.7818609E-02  0.8761665E-01
        1   -1    0    0  501    0  0.00000000000E+00  0.00000000000E+00  0.79869289344E+03  0.79869289346E+03  0.50400001928E-02 0.  1.
       -1   -1    0    0    0  501  0.00000000000E+00  0.00000000000E+00 -0.90404195016E+03  0.90404195018E+03  0.50400001928E-02 0. -1.
    10030    2    1    2    0    0  0.00000000000E+00  0.00000000000E+00 -0.10534905672E+03  0.17027348436E+04  0.16994727194E+04 0.  0.
        5    1    3    3  502    0  0.65173797277E+03  0.38031361895E+03  0.33875293561E+03  0.82714960877E+03  0.46999998093E+01 0.  1.
       -5    1    3    3    0  502 -0.65173797277E+03 -0.38031361895E+03 -0.44410199233E+03  0.87558523486E+03  0.46999998093E+01 0. -1.
</event>
<event>
 5   0  0.5859822E-05  0.1704241E+04  0.7818609E-02  0.8758949E-01
        2   -1    0    0  501    0  0.00000000000E+00  0.00000000000E+00  0.15072492122E+04  0.15072492122E+04  0.25500000920E-02 0.  1.
       -2   -1    0    0    0  501  0.00000000000E+00  0.00000000000E+00 -0.48174451551E+03  0.48174451552E+03  0.25500000920E-02 0. -1.
    10030    2    1    2    0    0  0.00000000000E+00  0.00000000000E+00  0.10255046967E+04  0.19889937278E+04  0.17042406421E+04 0.  0.
        5    1    3    3  502    0 -0.71898184750E+03  0.18878966921E+03  0.26607827479E+02  0.74384575196E+03  0.46999998093E+01 0. -1.
       -5    1    3    3    0  502  0.71898184750E+03 -0.18878966921E+03  0.99889686926E+03  0.12451479758E+04  0.46999998093E+01 0.  1.
</event>
<event>
 5   0  0.2967704E-05  0.1701106E+04  0.7818609E-02  0.8760734E-01
        1   -1    0    0  501    0  0.00000000000E+00  0.00000000000E+00  0.11831105066E+04  0.11831105066E+04  0.50400001928E-02 0.  1.
       -1   -1    0    0    0  501  0.00000000000E+00  0.00000000000E+00 -0.61147301559E+03  0.61147301561E+03  0.50400001928E-02 0. -1.
    10030    2    1    2    0    0  0.00000000000E+00  0.00000000000E+00  0.57163749097E+03  0.17945835222E+04  0.17011056984E+04 0.  0.
        2    1    3    3  502    0 -0.81949261529E+02  0.11786844835E+03 -0.59860009214E+03  0.61557349106E+03  0.25500000920E-02 0. -1.
       -2    1    3    3    0  502  0.81949261529E+02 -0.11786844835E+03  0.11702375831E+04  0.11790100311E+04  0.25500000920E-02 0.  1.
</event>
<event>
 5   0  0.5821584E-05  0.1691467E+04  0.7818609E-02  0.8766246E-01
        2   -1    0    0  501    0  0.00000000000E+00  0.00000000000E+00  0.96815949686E+03  0.96815949687E+03  0.25500000920E-02 0.  1.
       -2   -1    0    0    0  501  0.00000000000E+00  0.00000000000E+00 -0.73878885752E+03  0.73878885753E+03  0.25500000920E-02 0. -1.
    10030    2    1    2    0    0  0.00000000000E+00  0.00000000000E+00  0.22937063934E+03  0.17069483544E+04  0.16914673495E+04 0.  0.
        1    1    3    3  502    0  0.22282222153E+03 -0.69895150695E+03 -0.30997783438E+03  0.79641020166E+03  0.50400001928E-02 0. -1.
       -1    1    3    3    0  502 -0.22282222153E+03  0.69895150695E+03  0.53934847372E+03  0.91053815274E+03  0.50400001928E-02 0.  1.
</event>
<event>
 5   0  0.2987859E-05  0.1704635E+04  0.7818609E-02  0.8758725E-01
       -1   -1    0    0    0  501  0.00000000000E+00  0.00000000000E+00  0.94262811919E+03  0.94262811920E+03  0.50400001928E-02 0.  1.
        1   -1    0    0  501    0  0.00000000000E+00  0.00000000000E+00 -0.77065948922E+03  0.77065948924E+03  0.50400001928E-02 0. -1.
    10030    2    1    2    0    0  0.00000000000E+00  0.00000000000E+00  0.17196862997E+03  0.17132876084E+04  0.17046352160E+04 0.  0.
        5    1    3    3  502    0 -0.39230834535E+03 -0.57677784498E+03 -0.40624092079E+03  0.80723744710E+03  0.46999998093E+01 0. -1.
       -5    1    3    3    0  502  0.39230834535E+03  0.57677784498E+03  0.57820955075E+03  0.90605016134E+03  0.46999998093E+01 0.  1.
</event>
<event>
 5   0  0.2967704E-05  0.1701577E+04  0.7818609E-02  0.8760465E-01
        1   -1    0    0  501    0  0.00000000000E+00  0.00000000000E+00  0.16805900197E+04  0.16805900197E+04  0.50400001928E-02 0. -1.
       -1   -1    0    0    0  501  0.00000000000E+00  0.00000000000E+00 -0.43070649508E+03  0.43070649511E+03  0.50400001928E-02 0.  1.
    10030    2    1    2    0    0  0.00000000000E+00  0.00000000000E+00  0.12498835246E+04  0.21112965148E+04  0.17015769593E+04 0.  0.
        2    1    3    3  502    0 -0.16994858152E+03  0.81030808955E+03  0.86795675386E+03  0.11995126706E+04  0.25500000920E-02 0. -1.
       -2    1    3    3    0  502  0.16994858152E+03 -0.81030808955E+03  0.38192677076E+03  0.91178384422E+03  0.25500000920E-02 0.  1.
</event>
<event>
 5   0  0.5652631E-05  0.1691288E+04  0.7818609E-02  0.8766349E-01
       -2   -1    0    0    0  501  0.00000000000E+00  0.00000000000E+00  0.46604539363E+03  0.46604539364E+03  0.25500000920E-02 0.  1.
        2   -1    0    0  501    0  0.00000000000E+00  0.00000000000E+00 -0.15344296559E+04  0.15344296559E+04  0.25500000920E-02 0. -1.
    10030    2    1    2    0    0  0.00000000000E+00  0.00000000000E+00 -0.10683842622E+04  0.20004750495E+04  0.16912881162E+04 0.  0.
        2    1    3    3  502    0 -0.77892513356E+03  0.32267639589E+03 -0.61147827715E+03  0.10415133718E+04  0.25500000920E-02 0. -1.
       -2    1    3    3    0  502  0.77892513356E+03 -0.32267639589E+03 -0.45690598510E+03  0.95896167774E+03  0.25500000920E-02 0.  1.
</event>
<event>
 5   0  0.5652631E-05  0.1697999E+04  0.7818609E-02  0.8762506E-01
       -2   -1    0    0    0  501  0.00000000000E+00  0.00000000000E+00  0.36226255067E+03  0.36226255068E+03  0.25500000920E-02 0. -1.
        2   -1    0    0  501    0  0.00000000000E+00  0.00000000000E+00 -0.19897181219E+04  0.19897181219E+04  0.25500000920E-02 0.  1.
    10030    2    1    2    0    0  0.00000000000E+00  0.00000000000E+00 -0.16274555713E+04  0.23519806726E+04  0.16979992485E+04 0.  0.
        2    1    3    3  502    0 -0.66693024421E+03 -0.21925666812E+03 -0.14750268088E+04  0.16335769109E+04  0.25500000920E-02 0.  1.
       -2    1    3    3    0  502  0.66693024421E+03  0.21925666812E+03 -0.15242876241E+03  0.71840376166E+03  0.25500000920E-02 0. -1.
</event>
<event>
 5   0  0.5755321E-05  0.1698283E+04  0.7818609E-02  0.8762344E-01
        2   -1    0    0  501    0  0.00000000000E+00  0.00000000000E+00  0.19696319278E+04  0.19696319278E+04  0.25500000920E-02 0.  1.
       -2   -1    0    0    0  501  0.00000000000E+00  0.00000000000E+00 -0.36607928028E+03  0.36607928029E+03  0.25500000920E-02 0. -1.
    10030    2    1    2    0    0  0.00000000000E+00  0.00000000000E+00  0.16035526475E+04  0.23357112081E+04  0.16982831785E+04 0.  0.
        4    1    3    3  502    0  0.65126824771E+03  0.28151300226E+03  0.14433969552E+04  0.16083520399E+04  0.12699999809E+01 0.  1.
       -4    1    3    3    0  502 -0.65126824771E+03 -0.28151300226E+03  0.16015569229E+03  0.72735916821E+03  0.12699999809E+01 0. -1.
</event>
<event>
 5   0  0.5652631E-05  0.1710174E+04  0.7818609E-02  0.8755583E-01
       -2   -1    0    0    0  501  0.00000000000E+00  0.00000000000E+00  0.10796673255E+04  0.10796673255E+04  0.25500000920E-02 0. -1.
        2   -1    0    0  501    0  0.00000000000E+00  0.00000000000E+00 -0.67722148428E+03  0.67722148428E+03  0.25500000920E-02 0.  1.
    10030    2    1    2    0    0  0.00000000000E+00  0.00000000000E+00  0.40244584123E+03  0.17568888098E+04  0.17101741534E+04 0.  0.
        2    1    3    3  502    0 -0.56267480473E+03 -0.26341390242E+03  0.80479525165E+03  0.10167031115E+04  0.25500000920E-02 0. -1.
       -2    1    3    3    0  502  0.56267480473E+03  0.26341390242E+03 -0.40234941042E+03  0.74018569828E+03  0.25500000920E-02 0.  1.
</event>
<event>
 5   0  0.5652631E-05  0.1700665E+04  0.7818609E-02  0.8760985E-01
        2   -1    0    0  501    0  0.00000000000E+00  0.00000000000E+00  0.19704517596E+04  0.19704517596E+04  0.25500000920E-02 0.  1.
       -2   -1    0    0    0  501  0.00000000000E+00  0.00000000000E+00 -0.36695394372E+03  0.36695394373E+03  0.25500000920E-02 0. -1.
    10030    2    1    2    0    0  0.00000000000E+00  0.00000000000E+00  0.16034978159E+04  0.23374057033E+04  0.17006646279E+04 0.  0.
        2    1    3    3  502    0  0.61093830717E+03 -0.93464609157E+02 -0.93760193729E+00  0.61804702688E+03  0.25500000920E-02 0. -1.
       -2    1    3    3    0  502 -0.61093830717E+03  0.93464609157E+02  0.16044354178E+04  0.17193586764E+04  0.25500000920E-02 0.  1.
</event>
<event>
 5   0  0.5671132E-05  0.1702082E+04  0.7818609E-02  0.8760178E-01
        2   -1    0    0  501    0  0.00000000000E+00  0.00000000000E+00  0.99516429773E+03  0.99516429774E+03  0.25500000920E-02 0. -1.
       -2   -1    0    0    0  501  0.00000000000E+00  0.00000000000E+00 -0.72778999545E+03  0.72778999545E+03  0.25500000920E-02 0.  1.
    10030    2    1    2    0    0  0.00000000000E+00  0.00000000000E+00  0.26737430229E+03  0.17229542932E+04  0.17020818073E+04 0.  0.
        3    1    3    3  502    0 -0.36174782049E+02  0.70870094161E+02  0.99139074149E+03  0.99457870358E+03  0.10100000352E+00 0. -1.
       -3    1    3    3    0  502  0.36174782049E+02 -0.70870094161E+02 -0.72401643920E+03  0.72837558961E+03  0.10100000352E+00 0.  1.
</event>
<event>
 5   0  0.2966258E-05  0.1700123E+04  0.7818609E-02  0.8761294E-01
        1   -1    0    0  501    0  0.00000000000E+00  0.00000000000E+00  0.25389721239E+04  0.25389721239E+04  0.50400001928E-02 0.  1.
       -1   -1    0    0    0  501  0.00000000000E+00  0.00000000000E+00 -0.28460527087E+03  0.28460527091E+03  0.50400001928E-02 0. -1.
    10030    2    1    2    0    0  0.00000000000E+00  0.00000000000E+00  0.22543668530E+04  0.28235773948E+04  0.17001233474E+04 0.  0.
        4    1    3    3  502    0  0.14607993527E+03  0.75142278551E+03  0.51329616510E+03  0.92165618106E+03  0.12699999809E+01 0. -1.
       -4    1    3    3    0  502 -0.14607993527E+03 -0.75142278551E+03  0.17410706879E+04  0.19019212137E+04  0.12699999809E+01 0.  1.
</event>
<event>
 5   0  0.2911632E-05  0.1700093E+04  0.7818609E-02  0.8761312E-01
       -1   -1    0    0    0  501  0.00000000000E+00  0.00000000000E+00  0.25292852026E+03  0.25292852031E+03  0.50400001928E-02 0. -1.
        1   -1    0    0  501    0  0.00000000000E+00  0.00000000000E+00 -0.28568494338E+04  0.28568494338E+04  0.50400001928E-02 0.  1.
    10030    2    1    2    0    0  0.00000000000E+00  0.00000000000E+00 -0.26039209136E+04  0.31097779542E+04  0.17000925857E+04 0.  0.
        1    1    3    3  502    0  0.24694560464E+02  0.68176295648E+03 -0.37435050933E+03  0.77817019604E+03  0.50400001928E-02 0. -1.
       -1    1    3    3    0  502 -0.24694560464E+02 -0.68176295648E+03 -0.22295704043E+04  0.23316077581E+04  0.50400001928E-02 0.  1.
</event>
<event>
 5   0  0.2993769E-05  0.1696261E+04  0.7818609E-02  0.8763500E-01
        1   -1    0    0  501    0  0.00000000000E+00  0.00000000000E+00  0.14553789544E+04  0.14553789544E+04  0.50400001928E-02 0. -1.
       -1   -1    0    0    0  501  0.00000000000E+00  0.00000000000E+00 -0.49425280560E+03  0.49425280563E+03  0.50400001928E-02 0.  1.
    10030    2    1    2    0    0  0.00000000000E+00  0.00000000000E+00  0.96112614876E+03  0.19496317600E+04  0.16962607482E+04 0.  0.
        3    1    3    3  502    0  0.59090619991E+03  0.30765904067E+03  0.10838466315E+04  0.12722215818E+04  0.10100000352E+00 0. -1.
       -3    1    3    3    0  502 -0.59090619991E+03 -0.30765904067E+03 -0.12272048277E+03  0.67741017817E+03  0.10100000352E+00 0.  1.
</event>
<event>
 5   0  0.2967704E-05  0.1701419E+04  0.7818609E-02  0.8760555E-01
        1   -1    0    0  501    0  0.00000000000E+00  0.00000000000E+00  0.11572452138E+04  0.11572452138E+04  0.50400001928E-02 0.  1.
       -1   -1    0    0    0  501  0.00000000000E+00  0.00000000000E+00 -0.62537035277E+03  0.62537035279E+03  0.50400001928E-02 0. -1.
    10030    2    1    2    0    0  0.00000000000E+00  0.00000000000E+00  0.53187486104E+03  0.17826155666E+04  0.17014192283E+04 0.  0.
        2    1    3    3  502    0  0.51635544871E+02  0.41730911605E+03 -0.50887722395E+03  0.66012813673E+03  0.25500000920E-02 0. -1.
       -2    1    3    3    0  502 -0.51635544871E+02 -0.41730911605E+03  0.10407520850E+04  0.11224874299E+04  0.25500000920E-02 0.  1.
</event>
<event>
 5   0  0.2993769E-05  0.1701266E+04  0.7818609E-02  0.8760642E-01
       -1   -1    0    0    0  501  0.00000000000E+00  0.00000000000E+00  0.46164062409E+03  0.46164062412E+03  0.50400001928E-02 0.  1.
        1   -1    0    0  501    0  0.00000000000E+00  0.00000000000E+00 -0.15674028240E+04  0.15674028240E+04  0.50400001928E-02 0. -1.
    10030    2    1    2    0    0  0.00000000000E+00  0.00000000000E+00 -0.11057621999E+04  0.20290434482E+04  0.17012663729E+04 0.  0.
        3    1    3    3  502    0  0.63687941144E+03  0.56286193712E+03 -0.59328878872E+03  0.10365425905E+04  0.10100000352E+00 0. -1.
       -3    1    3    3    0  502 -0.63687941144E+03 -0.56286193712E+03 -0.51247341122E+03  0.99250085762E+03  0.10100000352E+00 0.  1.
</event>
<event>
 5   0  0.5755321E-05  0.1700194E+04  0.7818609E-02  0.8761254E-01
       -2   -1    0    0    0  501  0.00000000000E+00  0.00000000000E+00  0.42948218157E+03  0.42948218158E+03  0.25500000920E-02 0. -1.
        2   -1    0    0  501    0  0.00000000000E+00  0.00000000000E+00 -0.16826414292E+04  0.16826414292E+04  0.25500000920E-02 0.  1.
    10030    2    1    2    0    0  0.00000000000E+00  0.00000000000E+00 -0.12531592476E+04  0.21121236108E+04  0.17001935323E+04 0.  0.
        4    1    3    3  502    0  0.46912563312E+03 -0.59534460551E+03 -0.11047361628E+04  0.13397602999E+04  0.12699999809E+01 0.  1.
       -4    1    3    3    0  502 -0.46912563312E+03  0.59534460551E+03 -0.14842308483E+03  0.77236331086E+03  0.12699999809E+01 0. -1.
</event>
<event>
 5   0  0.5755321E-05  0.1716646E+04  0.7818609E-02  0.8751927E-01
        2   -1    0    0  501    0  0.00000000000E+00  0.00000000000E+00  0.99988465052E+03  0.99988465052E+03  0.25500000920E-02 0.  1.
       -2   -1    0    0    0  501  0.00000000000E+00  0.00000000000E+00 -0.73680307963E+03  0.73680307963E+03  0.25500000920E-02 0. -1.
    10030    2    1    2    0    0  0.00000000000E+00  0.00000000000E+00  0.26308157089E+03  0.17366877302E+04  0.17166456708E+04 0.  0.
        4    1    3    3  502    0  0.64602062175E+03 -0.33757822711E+03 -0.32697776535E+03  0.79888533287E+03  0.12699999809E+01 0. -1.
       -4    1    3    3    0  502 -0.64602062175E+03  0.33757822711E+03  0.59005933624E+03  0.93780239728E+03  0.12699999809E+01 0.  1.
</event>
<event>
 5   0  0.5652631E-05  0.1703308E+04  0.7818609E-02  0.8759480E-01
       -2   -1    0    0    0  501  0.00000000000E+00  0.00000000000E+00  0.64789537560E+03  0.64789537561E+03  0.25500000920E-02 0. -1.
        2   -1    0    0  501    0  0.00000000000E+00  0.00000000000E+00 -0.11194938021E+04  0.11194938021E+04  0.25500000920E-02 0.  1.
    10030    2    1    2    0    0  0.00000000000E+00  0.00000000000E+00 -0.47159842653E+03  0.17673891777E+04  0.17033083777E+04 0.  0.
        2    1    3    3  502    0 -0.70405695316E+03 -0.45755786122E+03 -0.88108589543E+02  0.84428580068E+03  0.25500000920E-02 0. -1.
       -2    1    3    3    0  502  0.70405695316E+03  0.45755786122E+03 -0.38348983698E+03  0.92310337706E+03  0.25500000920E-02 0.  1.
</event>
<event>
 5   0  0.2098250E-05  0.1700122E+04  0.7818609E-02  0.8761295E-01
       -3   -1    0    0    0  501  0.00000000000E+00  0.00000000000E+00  0.12207275014E+04  0.12207275056E+04  0.10100000352E+00 0.  1.
        3   -1    0    0  501    0  0.00000000000E+00  0.00000000000E+00 -0.59194545879E+03  0.59194546740E+03  0.10100000352E+00 0. -1.
    10030    2    1    2    0    0  0.00000000000E+00  0.00000000000E+00  0.62878204260E+03  0.18126729730E+04  0.17001224808E+04 0.  0.
        4    1    3    3  502    0  0.65867405708E+03  0.16710387071E+03 -0.23013138823E+03  0.71745193973E+03  0.12699999809E+01 0. -1.
       -4    1    3    3    0  502 -0.65867405708E+03 -0.16710387071E+03  0.85891343083E+03  0.10952210332E+04  0.12699999809E+01 0.  1.
</event>
<event>
 5   0  0.2966258E-05  0.1687076E+04  0.7818609E-02  0.8768770E-01
        1   -1    0    0  501    0  0.00000000000E+00  0.00000000000E+00  0.88892608453E+03  0.88892608454E+03  0.50400001928E-02 0. -1.
       -1   -1    0    0    0  501  0.00000000000E+00  0.00000000000E+00 -0.80046768100E+03  0.80046768102E+03  0.50400001928E-02 0.  1.
    10030    2    1    2    0    0  0.00000000000E+00  0.00000000000E+00  0.88458403524E+02  0.16893937656E+04  0.16870762893E+04 0.  0.
        4    1    3    3  502    0  0.44983836550E+03 -0.50165576412E+03 -0.46395380273E+03  0.81808789547E+03  0.12699999809E+01 0.  1.
       -4    1    3    3    0  502 -0.44983836550E+03  0.50165576412E+03  0.55241220625E+03  0.87130587009E+03  0.12699999809E+01 0. -1.
</event>
<event>
 5   0  0.2993769E-05  0.1698621E+04  0.7818609E-02  0.8762151E-01
       -1   -1    0    0    0  501  0.00000000000E+00  0.00000000000E+00  0.66468141755E+03  0.66468141757E+03  0.50400001928E-02 0.  1.
        1   -1    0    0  501    0  0.00000000000E+00  0.00000000000E+00 -0.10852237574E+04  0.10852237574E+04  0.50400001928E-02 0. -1.
    10030    2    1    2    0    0  0.00000000000E+00  0.00000000000E+00 -0.42054233984E+03  0.17499051750E+04  0.16986206939E+04 0.  0.
        3    1    3    3  502    0  0.20939333675E+03 -0.43107252723E+03 -0.93262517451E+03  0.10485508188E+04  0.10100000352E+00 0. -1.
       -3    1    3    3    0  502 -0.20939333675E+03  0.43107252723E+03  0.51208283467E+03  0.70135435621E+03  0.10100000352E+00 0.  1.
</event>
<event>
 5   0  0.2966258E-05  0.1700323E+04  0.7818609E-02  0.8761180E-01
       -1   -1    0    0    0  501  0.00000000000E+00  0.00000000000E+00  0.49062403255E+03  0.49062403258E+03  0.50400001928E-02 0.  1.
        1   -1    0    0  501    0  0.00000000000E+00  0.00000000000E+00 -0.14731733268E+04  0.14731733268E+04  0.50400001928E-02 0. -1.
    10030    2    1    2    0    0  0.00000000000E+00  0.00000000000E+00 -0.98254929429E+03  0.19637973594E+04  0.17003226027E+04 0.  0.
        4    1    3    3  502    0  0.38635734834E+03  0.68512179848E+03 -0.11861793200E+03  0.79544685936E+03  0.12699999809E+01 0.  1.
       -4    1    3    3    0  502 -0.38635734834E+03 -0.68512179848E+03 -0.86393136229E+03  0.11683505001E+04  0.12699999809E+01 0. -1.
</event>
<event>
 5   0  0.2966258E-05  0.1728100E+04  0.7818609E-02  0.8745498E-01
        1   -1    0    0  501    0  0.00000000000E+00  0.00000000000E+00  0.17109619045E+04  0.17109619045E+04  0.50400001928E-02 0.  1.
       -1   -1    0    0    0  501  0.00000000000E+00  0.00000000000E+00 -0.43635231740E+03  0.43635231743E+03  0.50400001928E-02 0. -1.
    10030    2    1    2    0    0  0.00000000000E+00  0.00000000000E+00  0.12746095871E+04  0.21473142220E+04  0.17280997565E+04 0.  0.
        4    1    3    3  502    0 -0.91799757119E+02 -0.53545653777E+03 -0.19758020227E+03  0.57808342692E+03  0.12699999809E+01 0. -1.
       -4    1    3    3    0  502  0.91799757119E+02  0.53545653777E+03  0.14721897894E+04  0.15692307951E+04  0.12699999809E+01 0.  1.
</event>
<event>
 5   0  0.5821584E-05  0.1700763E+04  0.7818609E-02  0.8760930E-01
       -2   -1    0    0    0  501  0.00000000000E+00  0.00000000000E+00  0.10815500865E+04  0.10815500865E+04  0.25500000920E-02 0.  1.
        2   -1    0    0  501    0  0.00000000000E+00  0.00000000000E+00 -0.66862213545E+03  0.66862213545E+03  0.25500000920E-02 0. -1.
    10030    2    1    2    0    0  0.00000000000E+00  0.00000000000E+00  0.41292795105E+03  0.17501722220E+04  0.17007625683E+04 0.  0.
        1    1    3    3  502    0 -0.60124415795E+03 -0.32570657508E+03 -0.31376100143E+03  0.75234651362E+03  0.50400001928E-02 0. -1.
       -1    1    3    3    0  502  0.60124415795E+03  0.32570657508E+03  0.72668895248E+03  0.99782570833E+03  0.50400001928E-02 0.  1.
</event>
<event>
 5   0  0.5652631E-05  0.1699340E+04  0.7818609E-02  0.8761741E-01
       -2   -1    0    0    0  501  0.00000000000E+00  0.00000000000E+00  0.49643592568E+03  0.49643592569E+03  0.25500000920E-02 0.  1.
        2   -1    0    0  501    0  0.00000000000E+00  0.00000000000E+00 -0.14542439010E+04  0.14542439010E+04  0.25500000920E-02 0. -1.
    10030    2    1    2    0    0  0.00000000000E+00  0.00000000000E+00 -0.95780797529E+03  0.19506798267E+04  0.16993397743E+04 0.  0.
        2    1    3    3  502    0  0.22744192668E+01  0.34770704716E+03  0.41102454046E+03  0.53837397458E+03  0.25500000920E-02 0.  1.
       -2    1    3    3    0  502 -0.22744192668E+01 -0.34770704716E+03 -0.13688325158E+04  0.14123058521E+04  0.25500000920E-02 0. -1.
</event>
<event>
 5   0  0.5671132E-05  0.1700398E+04  0.7818609E-02  0.8761138E-01
        2   -1    0    0  501    0  0.00000000000E+00  0.00000000000E+00  0.75680201741E+03  0.75680201741E+03  0.25500000920E-02 0.  1.
       -2   -1    0    0    0  501  0.00000000000E+00  0.00000000000E+00 -0.95512162896E+03  0.95512162897E+03  0.25500000920E-02 0. -1.
    10030    2    1    2    0    0  0.00000000000E+00  0.00000000000E+00 -0.19831961155E+03  0.17119236464E+04  0.17003975720E+04 0.  0.
        3    1    3    3  502    0 -0.82284268117E+03 -0.13466582260E+03  0.68198766614E+02  0.83657399177E+03  0.10100000352E+00 0. -1.
       -3    1    3    3    0  502  0.82284268117E+03  0.13466582260E+03 -0.26651837817E+03  0.87534965461E+03  0.10100000352E+00 0.  1.
</event>
<event>
 5   0  0.5859822E-05  0.1701723E+04  0.7818609E-02  0.8760382E-01
       -2   -1    0    0    0  501  0.00000000000E+00  0.00000000000E+00  0.10203650889E+04  0.10203650889E+04  0.25500000920E-02 0.  1.
        2   -1    0    0  501    0  0.00000000000E+00  0.00000000000E+00 -0.70951615079E+03  0.70951615079E+03  0.25500000920E-02 0. -1.
    10030    2    1    2    0    0  0.00000000000E+00  0.00000000000E+00  0.31084893806E+03  0.17298812397E+04  0.17017232563E+04 0.  0.
        5    1    3    3  502    0  0.69497079770E+03  0.56595409711E+02  0.65109496654E+03  0.95400953638E+03  0.46999998093E+01 0.  1.
       -5    1    3    3    0  502 -0.69497079770E+03 -0.56595409711E+02 -0.34024602847E+03  0.77587170327E+03  0.46999998093E+01 0. -1.
</event>
<event>
 5   0  0.2987859E-05  0.1699833E+04  0.7818609E-02  0.8761460E-01
       -1   -1    0    0    0  501  0.00000000000E+00  0.00000000000E+00  0.80524687341E+03  0.80524687343E+03  0.50400001928E-02 0. -1.
        1   -1    0    0  501    0  0.00000000000E+00  0.00000000000E+00 -0.89706362511E+03  0.89706362512E+03  0.50400001928E-02 0.  1.
    10030    2    1    2    0    0  0.00000000000E+00  0.00000000000E+00 -0.91816751692E+02  0.17023104985E+04  0.16998325557E+04 0.  0.
        5    1    3    3  502    0 -0.38731665661E+03  0.34977991565E+03 -0.71768830509E+03  0.88738873958E+03  0.46999998093E+01 0.  1.
       -5    1    3    3    0  502  0.38731665661E+03 -0.34977991565E+03  0.62587155340E+03  0.81492175896E+03  0.46999998093E+01 0. -1.
</event>
<event>
 5   0  0.2967704E-05  0.1700669E+04  0.7818609E-02  0.8760983E-01
       -1   -1    0    0    0  501  0.00000000000E+00  0.00000000000E+00  0.17412951517E+04  0.17412951517E+04  0.50400001928E-02 0. -1.
        1   -1    0    0  501    0  0.00000000000E+00  0.00000000000E+00 -0.41524790880E+03  0.41524790883E+03  0.50400001928E-02 0.  1.
    10030    2    1    2    0    0  0.00000000000E+00  0.00000000000E+00  0.13260472429E+04  0.21565430605E+04  0.17006694804E+04 0.  0.
        2    1    3    3  502    0  0.92593632548E+02 -0.41677302959E+02 -0.40753251902E+03  0.41999206235E+03  0.25500000920E-02 0.  1.
       -2    1    3    3    0  502 -0.92593632548E+02  0.41677302959E+02  0.17335797619E+04  0.17365509982E+04  0.25500000920E-02 0. -1.
</event>
<event>
 5   0  0.2987859E-05  0.1703181E+04  0.7818609E-02  0.8759552E-01
       -1   -1    0    0    0  501  0.00000000000E+00  0.00000000000E+00  0.19882218894E+04  0.19882218894E+04  0.50400001928E-02 0. -1.
        1   -1    0    0  501    0  0.00000000000E+00  0.00000000000E+00 -0.36475143266E+03  0.36475143269E+03  0.50400001928E-02 0.  1.
    10030    2    1    2    0    0  0.00000000000E+00  0.00000000000E+00  0.16234704567E+04  0.23529733221E+04  0.17031814732E+04 0.  0.
        5    1    3    3  502    0  0.51572089833E+03 -0.95920518694E+02  0.17385010501E+04  0.18159231212E+04  0.46999998093E+01 0. -1.
       -5    1    3    3    0  502 -0.51572089833E+03  0.95920518694E+02 -0.11503059337E+03  0.53705020090E+03  0.46999998093E+01 0.  1.
</event>
<event>
 5   0  0.5652631E-05  0.1696147E+04  0.7818609E-02  0.8763565E-01
        2   -1    0    0  501    0  0.00000000000E+00  0.00000000000E+00  0.12209408079E+04  0.12209408079E+04  0.25500000920E-02 0.  1.
       -2   -1    0    0    0  501  0.00000000000E+00  0.00000000000E+00 -0.58907746780E+03  0.58907746781E+03  0.25500000920E-02 0. -1.
    10030    2    1    2    0    0  0.00000000000E+00  0.00000000000E+00  0.63186334010E+03  0.18100182757E+04  0.16961470685E+04 0.  0.
        2    1    3    3  502    0 -0.35711606603E+03 -0.41306629334E+03  0.10083972457E+04  0.11467434990E+04  0.25500000920E-02 0.  1.
       -2    1    3    3    0  502  0.35711606603E+03  0.41306629334E+03 -0.37653390564E+03  0.66327477670E+03  0.25500000920E-02 0. -1.
</event>
<event>
 5   0  0.5821584E-05  0.1690663E+04  0.7818609E-02  0.8766707E-01
       -2   -1    0    0    0  501  0.00000000000E+00  0.00000000000E+00  0.80794638356E+03  0.80794638356E+03  0.25500000920E-02 0.  1.
        2   -1    0    0  501    0  0.00000000000E+00  0.00000000000E+00 -0.88444661702E+03  0.88444661703E+03  0.25500000920E-02 0. -1.
    10030    2    1    2    0    0  0.00000000000E+00  0.00000000000E+00 -0.76500233464E+02  0.16923930006E+04  0.16906631192E+04 0.  0.
        1    1    3    3  502    0 -0.40158223971E+03 -0.14088486757E+03 -0.76938680020E+03  0.87924563661E+03  0.50400001928E-02 0. -1.
       -1    1    3    3    0  502  0.40158223971E+03  0.14088486757E+03  0.69288656673E+03  0.81314736398E+03  0.50400001928E-02 0.  1.
</event>
<event>
 5   0  0.5821584E-05  0.1720389E+04  0.7818609E-02  0.8749820E-01
        2   -1    0    0  501    0  0.00000000000E+00  0.00000000000E+00  0.18499324855E+04  0.18499324855E+04  0.25500000920E-02 0. -1.
       -2   -1    0    0    0  501  0.00000000000E+00  0.00000000000E+00 -0.39997930949E+03  0.39997930950E+03  0.25500000920E-02 0.  1.
    10030    2    1    2    0    0  0.00000000000E+00  0.00000000000E+00  0.14499531761E+04  0.22499117950E+04  0.17203891632E+04 0.  0.
        1    1    3    3  502    0 -0.26520377916E+03  0.41492129588E+03  0.16473568823E+04  0.17193828613E+04  0.50400001928E-02 0. -1.
       -1    1    3    3    0  502  0.26520377916E+03 -0.41492129588E+03 -0.19740370621E+03  0.53052893371E+03  0.50400001928E-02 0.  1.
</event>
<event>
 5   0  0.5671132E-05  0.1698881E+04  0.7818609E-02  0.8762003E-01
       -2   -1    0    0    0  501  0.00000000000E+00  0.00000000000E+00  0.67660619207E+03  0.67660619207E+03  0.25500000920E-02 0.  1.
        2   -1    0    0  501    0  0.00000000000E+00  0.00000000000E+00 -0.10664237552E+04  0.10664237552E+04  0.25500000920E-02 0. -1.
    10030    2    1    2    0    0  0.00000000000E+00  0.00000000000E+00 -0.38981756310E+03  0.17430299472E+04  0.16988807093E+04 0.  0.
        3    1    3    3  502    0  0.39562758540E+03 -0.51574562451E+03 -0.75595982276E+03  0.99699047105E+03  0.10100000352E+00 0. -1.
       -3    1    3    3    0  502 -0.39562758540E+03  0.51574562451E+03  0.36614225966E+03  0.74603947619E+03  0.10100000352E+00 0.  1.
</event>
<event>
 5   0  0.2966258E-05  0.1679223E+04  0.7818609E-02  0.8773304E-01
       -1   -1    0    0    0  501  0.00000000000E+00  0.00000000000E+00  0.88463111127E+03  0.88463111129E+03  0.50400001928E-02 0.  1.
        1   -1    0    0  501    0  0.00000000000E+00  0.00000000000E+00 -0.79688302096E+03  0.79688302098E+03  0.50400001928E-02 0. -1.
    10030    2    1    2    0    0  0.00000000000E+00  0.00000000000E+00  0.87748090313E+02  0.16815141323E+04  0.16792230494E+04 0.  0.
        4    1    3    3  502    0 -0.53501863229E+03 -0.35765993916E+03  0.58385028185E+03  0.86893517221E+03  0.12699999809E+01 0.  1.
       -4    1    3    3    0  502  0.53501863229E+03  0.35765993916E+03 -0.49610219154E+03  0.81257896006E+03  0.12699999809E+01 0. -1.
</event>
<event>
 5   0  0.5671132E-05  0.1700783E+04  0.7818609E-02  0.8760918E-01
        2   -1    0    0  501    0  0.00000000000E+00  0.00000000000E+00  0.20861992147E+04  0.20861992147E+04  0.25500000920E-02 0. -1.
       -2   -1    0    0    0  501  0.00000000000E+00  0.00000000000E+00 -0.34664259533E+03  0.34664259534E+03  0.25500000920E-02 0.  1.
    10030    2    1    2    0    0  0.00000000000E+00  0.00000000000E+00  0.17395566193E+04  0.24328418100E+04  0.17007827729E+04 0.  0.
        3    1    3    3  502    0  0.10695126899E+03  0.83953029954E+03  0.75082232311E+03  0.11313637209E+04  0.10100000352E+00 0. -1.
       -3    1    3    3    0  502 -0.10695126899E+03 -0.83953029954E+03  0.98873429622E+03  0.13014780891E+04  0.10100000352E+00 0.  1.
</event>
<event>
 5   0  0.2967704E-05  0.1698771E+04  0.7818609E-02  0.8762065E-01
        1   -1    0    0  501    0  0.00000000000E+00  0.00000000000E+00  0.11659788077E+04  0.11659788077E+04  0.50400001928E-02 0. -1.
       -1   -1    0    0    0  501  0.00000000000E+00  0.00000000000E+00 -0.61875569984E+03  0.61875569986E+03  0.50400001928E-02 0.  1.
    10030    2    1    2    0    0  0.00000000000E+00  0.00000000000E+00  0.54722310790E+03  0.17847345076E+04  0.16987713598E+04 0.  0.
        2    1    3    3  502    0 -0.88153248799E+02  0.26117186821E+03 -0.57045786454E+03  0.63356445232E+03  0.25500000920E-02 0.  1.
       -2    1    3    3    0  502  0.88153248799E+02 -0.26117186821E+03  0.11176809724E+04  0.11511700553E+04  0.25500000920E-02 0. -1.
</event>
<event>
 5   0  0.2098250E-05  0.1698902E+04  0.7818609E-02  0.8761991E-01
       -4   -1    0    0    0  501  0.00000000000E+00  0.00000000000E+00  0.11032758657E+04  0.11032765967E+04  0.12699999809E+01 0. -1.
        4   -1    0    0  501    0  0.00000000000E+00  0.00000000000E+00 -0.65402039502E+03  0.65402162808E+03  0.12699999809E+01 0.  1.
    10030    2    1    2    0    0  0.00000000000E+00  0.00000000000E+00  0.44925547071E+03  0.17572982248E+04  0.16989015783E+04 0.  0.
        2    1    3    3  502    0  0.56740193271E+02 -0.48535838752E+02 -0.65062035818E+03  0.65489085172E+03  0.25500000920E-02 0.  1.
       -2    1    3    3    0  502 -0.56740193271E+02  0.48535838752E+02  0.10998758289E+04  0.11024073731E+04  0.25500000920E-02 0. -1.
</event>
<event>
 5   0  0.5671132E-05  0.1693902E+04  0.7818609E-02  0.8764850E-01
       -2   -1    0    0    0  501  0.00000000000E+00  0.00000000000E+00  0.52182713598E+03  0.52182713599E+03  0.25500000920E-02 0.  1.
        2   -1    0    0  501    0  0.00000000000E+00  0.00000000000E+00 -0.13746437538E+04  0.13746437538E+04  0.25500000920E-02 0. -1.
    10030    2    1    2    0    0  0.00000000000E+00  0.00000000000E+00 -0.85281661785E+03  0.18964708898E+04  0.16939024920E+04 0.  0.
        3    1    3    3  502    0 -0.61018327226E+03 -0.23210837741E+02  0.23068904090E+03  0.65274789355E+03  0.10100000352E+00 0.  1.
       -3    1    3    3    0  502  0.61018327226E+03  0.23210837741E+02 -0.10835056587E+04  0.12437229963E+04  0.10100000352E+00 0. -1.
</event>
<event>
 5   0  0.2967704E-05  0.1703763E+04  0.7818609E-02  0.8759221E-01
        1   -1    0    0  501    0  0.00000000000E+00  0.00000000000E+00  0.12189138122E+04  0.12189138123E+04  0.50400001928E-02 0.  1.
       -1   -1    0    0    0  501  0.00000000000E+00  0.00000000000E+00 -0.59536757468E+03  0.59536757470E+03  0.50400001928E-02 0. -1.
    10030    2    1    2    0    0  0.00000000000E+00  0.00000000000E+00  0.62354623757E+03  0.18142813870E+04  0.17037626128E+04 0.  0.
        2    1    3    3  502    0  0.36131159147E+03  0.13636879431E+03 -0.49679670968E+03  0.62924517078E+03  0.25500000920E-02 0.  1.
       -2    1    3    3    0  502 -0.36131159147E+03 -0.13636879431E+03  0.11203429473E+04  0.11850362162E+04  0.25500000920E-02 0. -1.
</event>
<event>
 5   0  0.2967704E-05  0.1703648E+04  0.7818609E-02  0.8759286E-01
       -1   -1    0    0    0  501  0.00000000000E+00  0.00000000000E+00  0.92351437407E+03  0.92351437408E+03  0.50400001928E-02 0. -1.
        1   -1    0    0  501    0  0.00000000000E+00  0.00000000000E+00 -0.78569913705E+03  0.78569913706E+03  0.50400001928E-02 0.  1.
    10030    2    1    2    0    0  0.00000000000E+00  0.00000000000E+00  0.13781523702E+03  0.17092135111E+04  0.17036483754E+04 0.  0.
        2    1    3    3  502    0 -0.20860997432E+03 -0.24668745167E+01  0.89748693465E+03  0.92141576106E+03  0.25500000920E-02 0. -1.
       -2    1    3    3    0  502  0.20860997432E+03  0.24668745167E+01 -0.75967169763E+03  0.78779775009E+03  0.25500000920E-02 0.  1.
</event>
<event>
 5   0  0.2987859E-05  0.1699707E+04  0.7818609E-02  0.8761531E-01
        1   -1    0    0  501    0  0.00000000000E+00  0.00000000000E+00  0.73280956979E+03  0.73280956981E+03  0.50400001928E-02 0.  1.
       -1   -1    0    0    0  501  0.00000000000E+00  0.00000000000E+00 -0.98559219678E+03  0.98559219679E+03  0.50400001928E-02 0. -1.
    10030    2    1    2    0    0  0.00000000000E+00  0.00000000000E+00 -0.25278262699E+03  0.17184017666E+04  0.16997074969E+04 0.  0.
        5    1    3    3  502    0 -0.71473041224E+02 -0.21362589553E+03 -0.95484577501E+03  0.98106929567E+03  0.46999998093E+01 0. -1.
       -5    1    3    3    0  502  0.71473041224E+02  0.21362589553E+03  0.70206314802E+03  0.73733247092E+03  0.46999998093E+01 0.  1.
</event>
<event>
 5   0  0.5652631E-05  0.1698244E+04  0.7818609E-02  0.8762366E-01
       -2   -1    0    0    0  501  0.00000000000E+00  0.00000000000E+00  0.58512483783E+03  0.58512483784E+03  0.25500000920E-02 0. -1.
        2   -1    0    0  501    0  0.00000000000E+00  0.00000000000E+00 -0.12322302919E+04  0.12322302919E+04  0.25500000920E-02 0.  1.
    10030    2    1    2    0    0  0.00000000000E+00  0.00000000000E+00 -0.64710545407E+03  0.18173551297E+04  0.16982444462E+04 0.  0.
        2    1    3    3  502    0 -0.29801814430E+03 -0.67505345427E+03  0.12602804856E+03  0.74859538436E+03  0.25500000920E-02 0. -1.
       -2    1    3    3    0  502  0.29801814430E+03  0.67505345427E+03 -0.77313350263E+03  0.10687597454E+04  0.25500000920E-02 0.  1.
</event>
<event>
 5   0  0.5652631E-05  0.1699649E+04  0.7818609E-02  0.8761565E-01
       -2   -1    0    0    0  501  0.00000000000E+00  0.00000000000E+00  0.82993545691E+03  0.82993545691E+03  0.25500000920E-02 0. -1.
        2   -1    0    0  501    0  0.00000000000E+00  0.00000000000E+00 -0.87019006579E+03  0.87019006579E+03  0.25500000920E-02 0.  1.
    10030    2    1    2    0    0  0.00000000000E+00  0.00000000000E+00 -0.40254608876E+02  0.17001255227E+04  0.16996488930E+04 0.  0.
        2    1    3    3  502    0  0.37634584342E+03 -0.74517566812E+03  0.13890979596E+03  0.84629717100E+03  0.25500000920E-02 0. -1.
       -2    1    3    3    0  502 -0.37634584342E+03  0.74517566812E+03 -0.17916440484E+03  0.85382835171E+03  0.25500000920E-02 0.  1.
</event>
<event>
 5   0  0.2993769E-05  0.1692034E+04  0.7818609E-02  0.8765921E-01
        1   -1    0    0  501    0  0.00000000000E+00  0.00000000000E+00  0.29938007924E+04  0.29938007924E+04  0.50400001928E-02 0. -1.
       -1   -1    0    0    0  501  0.00000000000E+00  0.00000000000E+00 -0.23907548994E+03  0.23907549000E+03  0.50400001928E-02 0.  1.
    10030    2    1    2    0    0  0.00000000000E+00  0.00000000000E+00  0.27547253024E+04  0.32328762824E+04  0.16920335592E+04 0.  0.
        3    1    3    3  502    0  0.44336958000E+03 -0.89921954755E+02  0.27432828804E+04  0.27803351443E+04  0.10100000352E+00 0. -1.
       -3    1    3    3    0  502 -0.44336958000E+03  0.89921954755E+02  0.11442421997E+02  0.45254113806E+03  0.10100000352E+00 0.  1.
</event>
<event>
 5   0  0.5755321E-05  0.1723299E+04  0.7818609E-02  0.8748187E-01
        2   -1    0    0  501    0  0.00000000000E+00  0.00000000000E+00  0.12563044237E+04  0.12563044237E+04  0.25500000920E-02 0. -1.
       -2   -1    0    0    0  501  0.00000000000E+00  0.00000000000E+00 -0.59097127577E+03  0.59097127577E+03  0.25500000920E-02 0.  1.
    10030    2    1    2    0    0  0.00000000000E+00  0.00000000000E+00  0.66533314797E+03  0.18472756995E+04  0.17232989619E+04 0.  0.
        4    1    3    3  502    0 -0.47488229476E+03 -0.52203394519E+03 -0.19727336392E+03  0.73276942269E+03  0.12699999809E+01 0.  1.
       -4    1    3    3    0  502  0.47488229476E+03  0.52203394519E+03  0.86260651189E+03  0.11145062768E+04  0.12699999809E+01 0. -1.
</event>
<event>
 5   0  0.2911632E-05  0.1700550E+04  0.7818609E-02  0.8761051E-01
        1   -1    0    0  501    0  0.00000000000E+00  0.00000000000E+00  0.20818202792E+03  0.20818202799E+03  0.50400001928E-02 0. -1.
       -1   -1    0    0    0  501  0.00000000000E+00  0.00000000000E+00 -0.34727655993E+04  0.34727655993E+04  0.50400001928E-02 0.  1.
    10030    2    1    2    0    0  0.00000000000E+00  0.00000000000E+00 -0.32645835714E+04  0.36809476273E+04  0.17005497759E+04 0.  0.
        1    1    3    3  502    0  0.91680113273E+02  0.60545772042E+03 -0.29091696565E+04  0.29729198416E+04  0.50400001928E-02 0.  1.
       -1    1    3    3    0  502 -0.91680113273E+02 -0.60545772042E+03 -0.35541391490E+03  0.70802778569E+03  0.50400001928E-02 0. -1.
</event>
<event>
 5   0  0.5652631E-05  0.1686287E+04  0.7818609E-02  0.8769224E-01
        2   -1    0    0  501    0  0.00000000000E+00  0.00000000000E+00  0.88590673755E+03  0.88590673755E+03  0.25500000920E-02 0. -1.
       -2   -1    0    0    0  501  0.00000000000E+00  0.00000000000E+00 -0.80244489446E+03  0.80244489447E+03  0.25500000920E-02 0.  1.
    10030    2    1    2    0    0  0.00000000000E+00  0.00000000000E+00  0.83461843086E+02  0.16883516320E+04  0.16862874471E+04 0.  0.
        2    1    3    3  502    0 -0.83131743262E+03 -0.60370991620E+02 -0.85538832756E+02  0.83788437289E+03  0.25500000920E-02 0. -1.
       -2    1    3    3    0  502  0.83131743262E+03  0.60370991620E+02  0.16900067584E+03  0.85046725913E+03  0.25500000920E-02 0.  1.
</event>
<event>
 5   0  0.2987859E-05  0.1702023E+04  0.7818609E-02  0.8760211E-01
       -1   -1    0    0    0  501  0.00000000000E+00  0.00000000000E+00  0.54134774986E+03  0.54134774989E+03  0.50400001928E-02 0. -1.
        1   -1    0    0  501    0  0.00000000000E+00  0.00000000000E+00 -0.13378103294E+04  0.13378103294E+04  0.50400001928E-02 0.  1.
    10030    2    1    2    0    0  0.00000000000E+00  0.00000000000E+00 -0.79646257949E+03  0.18791580793E+04  0.17020230452E+04 0.  0.
        5    1    3    3  502    0  0.31982970762E+03  0.45544366596E+03  0.31257114667E+03  0.63831245207E+03  0.46999998093E+01 0. -1.
       -5    1    3    3    0  502 -0.31982970762E+03 -0.45544366596E+03 -0.11090337262E+04  0.12408456272E+04  0.46999998093E+01 0.  1.
</event>
<event>
 5   0  0.5821584E-05  0.1697592E+04  0.7818609E-02  0.8762739E-01
        2   -1    0    0  501    0  0.00000000000E+00  0.00000000000E+00  0.76124380716E+03  0.76124380717E+03  0.25500000920E-02 0. -1.
       -2   -1    0    0    0  501  0.00000000000E+00  0.00000000000E+00 -0.94641782274E+03  0.94641782274E+03  0.25500000920E-02 0.  1.
    10030    2    1    2    0    0  0.00000000000E+00  0.00000000000E+00 -0.18517401558E+03  0.17076616299E+04  0.16975920671E+04 0.  0.
        1    1    3    3  502    0 -0.77244226512E+03 -0.35178927037E+03 -0.98274111441E+02  0.85444750845E+03  0.50400001928E-02 0. -1.
       -1    1    3    3    0  502  0.77244226512E+03  0.35178927037E+03 -0.86899904136E+02  0.85321412146E+03  0.50400001928E-02 0.  1.
</event>
<event>
 5   0  0.2098250E-05  0.1699520E+04  0.7818609E-02  0.8761638E-01
       -4   -1    0    0    0  501  0.00000000000E+00  0.00000000000E+00  0.63032475454E+03  0.63032603396E+03  0.12699999809E+01 0. -1.
        4   -1    0    0  501    0  0.00000000000E+00  0.00000000000E+00 -0.11455842851E+04  0.11455849891E+04  0.12699999809E+01 0.  1.
    10030    2    1    2    0    0  0.00000000000E+00  0.00000000000E+00 -0.51525953056E+03  0.17759110230E+04  0.16995198080E+04 0.  0.
        2    1    3    3  502    0 -0.71931173904E+03 -0.21710582668E+03  0.15713402614E+03  0.76761671430E+03  0.25500000920E-02 0. -1.
       -2    1    3    3    0  502  0.71931173904E+03  0.21710582668E+03 -0.67239355670E+03  0.10082943087E+04  0.25500000920E-02 0.  1.
</event>
<event>
 5   0  0.2911632E-05  0.1699932E+04  0.7818609E-02  0.8761403E-01
       -1   -1    0    0    0  501  0.00000000000E+00  0.00000000000E+00  0.88877893949E+03  0.88877893951E+03  0.50400001928E-02 0. -1.
        1   -1    0    0  501    0  0.00000000000E+00  0.00000000000E+00 -0.81284760620E+03  0.81284760621E+03  0.50400001928E-02 0.  1.
    10030    2    1    2    0    0  0.00000000000E+00  0.00000000000E+00  0.75931333295E+02  0.17016265457E+04  0.16999315674E+04 0.  0.
        1    1    3    3  502    0  0.18289933512E+03  0.50492330054E+03  0.69744130195E+03  0.88024091924E+03  0.50400001928E-02 0. -1.
       -1    1    3    3    0  502 -0.18289933512E+03 -0.50492330054E+03 -0.62150996865E+03  0.82138562648E+03  0.50400001928E-02 0.  1.
</event>
<event>
 5   0  0.2966258E-05  0.1700262E+04  0.7818609E-02  0.8761215E-01
        1   -1    0    0  501    0  0.00000000000E+00  0.00000000000E+00  0.88977462332E+03  0.88977462333E+03  0.50400001928E-02 0.  1.
       -1   -1    0    0    0  501  0.00000000000E+00  0.00000000000E+00 -0.81225402122E+03  0.81225402123E+03  0.50400001928E-02 0. -1.
    10030    2    1    2    0    0  0.00000000000E+00  0.00000000000E+00  0.77520602099E+02  0.17020286446E+04  0.17002623513E+04 0.  0.
        4    1    3    3  502    0  0.79201319296E+03  0.29915964925E+03  0.11591182160E+03  0.85452826569E+03  0.12699999809E+01 0.  1.
       -4    1    3    3    0  502 -0.79201319296E+03 -0.29915964925E+03 -0.38391219503E+02  0.84750037888E+03  0.12699999809E+01 0. -1.
</event>
<event>
 5   0  0.2966258E-05  0.1702960E+04  0.7818609E-02  0.8759678E-01
       -1   -1    0    0    0  501  0.00000000000E+00  0.00000000000E+00  0.43234686124E+03  0.43234686127E+03  0.50400001928E-02 0.  1.
        1   -1    0    0  501    0  0.00000000000E+00  0.00000000000E+00 -0.16769357473E+04  0.16769357473E+04  0.50400001928E-02 0. -1.
    10030    2    1    2    0    0  0.00000000000E+00  0.00000000000E+00 -0.12445888861E+04  0.21092826086E+04  0.17029596670E+04 0.  0.
        4    1    3    3  502    0 -0.21304770951E+03 -0.67848793669E+03 -0.42290431239E+02  0.71240809950E+03  0.12699999809E+01 0.  1.
       -4    1    3    3    0  502  0.21304770951E+03  0.67848793669E+03 -0.12022984548E+04  0.13968745091E+04  0.12699999809E+01 0. -1.
</event>
<event>
 5   0  0.5652631E-05  0.1699010E+04  0.7818609E-02  0.8761929E-01
        2   -1    0    0  501    0  0.00000000000E+00  0.00000000000E+00  0.14737851424E+04  0.14737851424E+04  0.25500000920E-02 0. -1.
       -2   -1    0    0    0  501  0.00000000000E+00  0.00000000000E+00 -0.48966341978E+03  0.48966341979E+03  0.25500000920E-02 0.  1.
    10030    2    1    2    0    0  0.00000000000E+00  0.00000000000E+00  0.98412172263E+03  0.19634485622E+04  0.16990099151E+04 0.  0.
        2    1    3    3  502    0 -0.63895332215E+03 -0.13016846865E+03 -0.13715824581E+03  0.66634642831E+03  0.25500000920E-02 0.  1.
       -2    1    3    3    0  502  0.63895332215E+03  0.13016846865E+03  0.11212799684E+04  0.12971021339E+04  0.25500000920E-02 0. -1.
</event>
<event>
 5   0  0.5652631E-05  0.1686472E+04  0.7818609E-02  0.8769118E-01
       -2   -1    0    0    0  501  0.00000000000E+00  0.00000000000E+00  0.97524342376E+03  0.97524342377E+03  0.25500000920E-02 0. -1.
        2   -1    0    0  501    0  0.00000000000E+00  0.00000000000E+00 -0.72909660213E+03  0.72909660214E+03  0.25500000920E-02 0.  1.
    10030    2    1    2    0    0  0.00000000000E+00  0.00000000000E+00  0.24614682163E+03  0.17043400259E+04  0.16864716618E+04 0.  0.
        2    1    3    3  502    0 -0.60896127729E+03 -0.37526227686E+03 -0.32818990339E+03  0.78699696718E+03  0.25500000920E-02 0.  1.
       -2    1    3    3    0  502  0.60896127729E+03  0.37526227686E+03  0.57433672502E+03  0.91734305872E+03  0.25500000920E-02 0. -1.
</event>
<event>
 5   0  0.5755321E-05  0.1695563E+04  0.7818609E-02  0.8763899E-01
       -2   -1    0    0    0  501  0.00000000000E+00  0.00000000000E+00  0.61739137609E+03  0.61739137610E+03  0.25500000920E-02 0. -1.
        2   -1    0    0  501    0  0.00000000000E+00  0.00000000000E+00 -0.11641452298E+04  0.11641452298E+04  0.25500000920E-02 0.  1.
    10030    2    1    2    0    0  0.00000000000E+00  0.00000000000E+00 -0.54675385375E+03  0.17815366059E+04  0.16955627095E+04 0.  0.
        4    1    3    3  502    0  0.21843236070E+03 -0.80747521334E+03 -0.41821692349E+03  0.93521971983E+03  0.12699999809E+01 0. -1.
       -4    1    3    3    0  502 -0.21843236070E+03  0.80747521334E+03 -0.12853693025E+03  0.84631688610E+03  0.12699999809E+01 0.  1.
</event>
<event>
 5   0  0.5859822E-05  0.1700238E+04  0.7818609E-02  0.8761228E-01
        2   -1    0    0  501    0  0.00000000000E+00  0.00000000000E+00  0.80629050392E+03  0.80629050392E+03  0.25500000920E-02 0. -1.
       -2   -1    0    0    0  501  0.00000000000E+00  0.00000000000E+00 -0.89633020860E+03  0.89633020860E+03  0.25500000920E-02 0.  1.
    10030    2    1    2    0    0  0.00000000000E+00  0.00000000000E+00 -0.90039704681E+02  0.17026207125E+04  0.17002382604E+04 0.  0.
        5    1    3    3  502    0  0.70279261513E+03 -0.46777776425E+03  0.54854292166E+02  0.84602871108E+03  0.46999998093E+01 0.  1.
       -5    1    3    3    0  502 -0.70279261513E+03  0.46777776425E+03 -0.14489399685E+03  0.85659200144E+03  0.46999998093E+01 0. -1.
</event>
<event>
 5   0  0.5652631E-05  0.1713144E+04  0.7818609E-02  0.8753903E-01
       -2   -1    0    0    0  501  0.00000000000E+00  0.00000000000E+00  0.74960534760E+03  0.74960534761E+03  0.25500000920E-02 0.  1.
        2   -1    0    0  501    0  0.00000000000E+00  0.00000000000E+00 -0.97880275267E+03  0.97880275267E+03  0.25500000920E-02 0. -1.
    10030    2    1    2    0    0  0.00000000000E+00  0.00000000000E+00 -0.22919740507E+03  0.17284081003E+04  0.17131442177E+04 0.  0.
        2    1    3    3  502    0 -0.78980705107E+03 -0.27678700242E+03 -0.29873388808E+03  0.88862149339E+03  0.25500000920E-02 0. -1.
       -2    1    3    3    0  502  0.78980705107E+03  0.27678700242E+03  0.69536483013E+02  0.83978660688E+03  0.25500000920E-02 0.  1.
</event>
<event>
 5   0  0.5821584E-05  0.1700233E+04  0.7818609E-02  0.8761231E-01
       -2   -1    0    0    0  501  0.00000000000E+00  0.00000000000E+00  0.78162267286E+03  0.78162267286E+03  0.25500000920E-02 0. -1.
        2   -1    0    0  501    0  0.00000000000E+00  0.00000000000E+00 -0.92461270840E+03  0.92461270840E+03  0.25500000920E-02 0.  1.
    10030    2    1    2    0    0  0.00000000000E+00  0.00000000000E+00 -0.14299003554E+03  0.17062353813E+04  0.17002332269E+04 0.  0.
        1    1    3    3  502    0  0.53957792194E+03  0.44621747265E+03  0.41233132596E+03  0.81257091330E+03  0.50400001928E-02 0. -1.
       -1    1    3    3    0  502 -0.53957792194E+03 -0.44621747265E+03 -0.55532136150E+03  0.89366446797E+03  0.50400001928E-02 0.  1.
</event>
<event>
 5   0  0.5755321E-05  0.1701514E+04  0.7818609E-02  0.8760501E-01
        2   -1    0    0  501    0  0.00000000000E+00  0.00000000000E+00  0.14750597353E+04  0.14750597353E+04  0.25500000920E-02 0. -1.
       -2   -1    0    0    0  501  0.00000000000E+00  0.00000000000E+00 -0.49068371109E+03  0.49068371110E+03  0.25500000920E-02 0.  1.
    10030    2    1    2    0    0  0.00000000000E+00  0.00000000000E+00  0.98437602419E+03  0.19657434464E+04  0.17015143667E+04 0.  0.
        4    1    3    3  502    0  0.26971610279E+03  0.20604108525E+03  0.13934527125E+04  0.14341937735E+04  0.12699999809E+01 0. -1.
       -4    1    3    3    0  502 -0.26971610279E+03 -0.20604108525E+03 -0.40907668834E+03  0.53154967290E+03  0.12699999809E+01 0.  1.
</event>
<event>
 5   0  0.5755321E-05  0.1705809E+04  0.7818609E-02  0.8758058E-01
        2   -1    0    0  501    0  0.00000000000E+00  0.00000000000E+00  0.12099219548E+04  0.12099219548E+04  0.25500000920E-02 0. -1.
       -2   -1    0    0    0  501  0.00000000000E+00  0.00000000000E+00 -0.60123370358E+03  0.60123370358E+03  0.25500000920E-02 0.  1.
    10030    2    1    2    0    0  0.00000000000E+00  0.00000000000E+00  0.60868825127E+03  0.18111556584E+04  0.17058087325E+04 0.  0.
        4    1    3    3  502    0 -0.54011275164E+03  0.61945210276E+03  0.54646576201E+03  0.98694940805E+03  0.12699999809E+01 0. -1.
       -4    1    3    3    0  502  0.54011275164E+03 -0.61945210276E+03  0.62222489257E+02  0.82420625038E+03  0.12699999809E+01 0.  1.
</event>
<event>
 5   0  0.5859822E-05  0.1705934E+04  0.7818609E-02  0.8757987E-01
        2   -1    0    0  501    0  0.00000000000E+00  0.00000000000E+00  0.80194426397E+03  0.80194426398E+03  0.25500000920E-02 0.  1.
       -2   -1    0    0    0  501  0.00000000000E+00  0.00000000000E+00 -0.90723614841E+03  0.90723614841E+03  0.25500000920E-02 0. -1.
    10030    2    1    2    0    0  0.00000000000E+00  0.00000000000E+00 -0.10529188443E+03  0.17091804124E+04  0.17059341433E+04 0.  0.
        5    1    3    3  502    0 -0.16133292562E+02 -0.25673214916E+03 -0.86743333006E+03  0.90478414643E+03  0.46999998093E+01 0. -1.
       -5    1    3    3    0  502  0.16133292562E+02  0.25673214916E+03  0.76214144562E+03  0.80439626595E+03  0.46999998093E+01 0.  1.
</event>
<event>
 5   0  0.2966258E-05  0.1698902E+04  0.7818609E-02  0.8761991E-01
        1   -1    0    0  501    0  0.00000000000E+00  0.00000000000E+00  0.11553858675E+04  0.11553858676E+04  0.50400001928E-02 0.  1.
       -1   -1    0    0    0  501  0.00000000000E+00  0.00000000000E+00 -0.62452463000E+03  0.62452463002E+03  0.50400001928E-02 0. -1.
    10030    2    1    2    0    0  0.00000000000E+00  0.00000000000E+00  0.53086123754E+03  0.17799104976E+04  0.16989019177E+04 0.  0.
        4    1    3    3  502    0  0.31589092967E+03 -0.50572408470E+03  0.89927565034E+03  0.10790005734E+04  0.12699999809E+01 0.  1.
       -4    1    3    3    0  502 -0.31589092967E+03  0.50572408470E+03 -0.36841441280E+03  0.70090992414E+03  0.12699999809E+01 0. -1.
</event>
<event>
 5   0  0.5859822E-05  0.1700245E+04  0.7818609E-02  0.8761225E-01
       -2   -1    0    0    0  501  0.00000000000E+00  0.00000000000E+00  0.48382699243E+03  0.48382699244E+03  0.25500000920E-02 0. -1.
        2   -1    0    0  501    0  0.00000000000E+00  0.00000000000E+00 -0.14937332303E+04  0.14937332303E+04  0.25500000920E-02 0.  1.
    10030    2    1    2    0    0  0.00000000000E+00  0.00000000000E+00 -0.10099062379E+04  0.19775602227E+04  0.17002452250E+04 0.  0.
        5    1    3    3  502    0  0.60751920860E+03 -0.59395248279E+03 -0.53840574070E+03  0.10058637941E+04  0.46999998093E+01 0. -1.
       -5    1    3    3    0  502 -0.60751920860E+03  0.59395248279E+03 -0.47150049717E+03  0.97169642865E+03  0.46999998093E+01 0.  1.
</event>
<event>
 5   0  0.5671132E-05  0.1696134E+04  0.7818609E-02  0.8763572E-01
        2   -1    0    0  501    0  0.00000000000E+00  0.00000000000E+00  0.21646082599E+04  0.21646082600E+04  0.25500000920E-02 0.  1.
       -2   -1    0    0    0  501  0.00000000000E+00  0.00000000000E+00 -0.33226224353E+03  0.33226224354E+03  0.25500000920E-02 0. -1.
    10030    2    1    2    0    0  0.00000000000E+00  0.00000000000E+00  0.18323460164E+04  0.24968705035E+04  0.16961339532E+04 0.  0.
        3    1    3    3  502    0 -0.83241001111E+03  0.57183520634E+02  0.69271883762E+03  0.10844518338E+04  0.10100000352E+00 0.  1.
       -3    1    3    3    0  502  0.83241001111E+03 -0.57183520634E+02  0.11396271788E+04  0.14124186697E+04  0.10100000352E+00 0. -1.
</event>
<event>
 5   0  0.2098250E-05  0.1699226E+04  0.7818609E-02  0.8761806E-01
        4   -1    0    0  501    0  0.00000000000E+00  0.00000000000E+00  0.17517086600E+04  0.17517091204E+04  0.12699999809E+01 0.  1.
       -4   -1    0    0    0  501  0.00000000000E+00  0.00000000000E+00 -0.41207758174E+03  0.41207953877E+03  0.12699999809E+01 0. -1.
    10030    2    1    2    0    0  0.00000000000E+00  0.00000000000E+00  0.13396310783E+04  0.21637886592E+04  0.16992262756E+04 0.  0.
        1    1    3    3  502    0 -0.37990313164E+03 -0.61984095720E+03  0.12296949186E+04  0.14285232915E+04  0.50400001928E-02 0.  1.
       -1    1    3    3    0  502  0.37990313164E+03  0.61984095720E+03  0.10993615974E+03  0.73526536767E+03  0.50400001928E-02 0. -1.
</event>
<event>
 5   0  0.2911632E-05  0.1696406E+04  0.7818609E-02  0.8763417E-01
        1   -1    0    0  501    0  0.00000000000E+00  0.00000000000E+00  0.64263838151E+03  0.64263838153E+03  0.50400001928E-02 0.  1.
       -1   -1    0    0    0  501  0.00000000000E+00  0.00000000000E+00 -0.11195230917E+04  0.11195230917E+04  0.50400001928E-02 0. -1.
    10030    2    1    2    0    0  0.00000000000E+00  0.00000000000E+00 -0.47688471017E+03  0.17621614732E+04  0.16964062105E+04 0.  0.
        1    1    3    3  502    0 -0.23885367561E+03 -0.47228917690E+03  0.45007739157E+03  0.69475017337E+03  0.50400001928E-02 0.  1.
       -1    1    3    3    0  502  0.23885367561E+03  0.47228917690E+03 -0.92696210174E+03  0.10674112999E+04  0.50400001928E-02 0. -1.
</event>
<event>
 5   0  0.2987859E-05  0.1699739E+04  0.7818609E-02  0.8761513E-01
        1   -1    0    0  501    0  0.00000000000E+00  0.00000000000E+00  0.14226388672E+04  0.14226388672E+04  0.50400001928E-02 0.  1.
       -1   -1    0    0    0  501  0.00000000000E+00  0.00000000000E+00 -0.50770334656E+03  0.50770334659E+03  0.50400001928E-02 0. -1.
    10030    2    1    2    0    0  0.00000000000E+00  0.00000000000E+00  0.91493552059E+03  0.19303422137E+04  0.16997394081E+04 0.  0.
        5    1    3    3  502    0  0.44190969802E+03 -0.50760684826E+03 -0.13188620943E+03  0.68583157979E+03  0.46999998093E+01 0. -1.
       -5    1    3    3    0  502 -0.44190969802E+03  0.50760684826E+03  0.10468217300E+04  0.12445106340E+04  0.46999998093E+01 0.  1.
</event>
<event>
 5   0  0.2987859E-05  0.1701058E+04  0.7818609E-02  0.8760761E-01
        1   -1    0    0  501    0  0.00000000000E+00  0.00000000000E+00  0.82576298590E+03  0.82576298592E+03  0.50400001928E-02 0.  1.
       -1   -1    0    0    0  501  0.00000000000E+00  0.00000000000E+00 -0.87603797267E+03  0.87603797269E+03  0.50400001928E-02 0. -1.
    10030    2    1    2    0    0  0.00000000000E+00  0.00000000000E+00 -0.50274986771E+02  0.17018009586E+04  0.17010581790E+04 0.  0.
        5    1    3    3  502    0 -0.17346937576E+03  0.83246039417E+03 -0.79337665911E+01  0.85039224294E+03  0.46999998093E+01 0.  1.
       -5    1    3    3    0  502  0.17346937576E+03 -0.83246039417E+03 -0.42341220180E+02  0.85140871567E+03  0.46999998093E+01 0. -1.
</event>
<event>
 5   0  0.5821584E-05  0.1699798E+04  0.7818609E-02  0.8761479E-01
        2   -1    0    0  501    0  0.00000000000E+00  0.00000000000E+00  0.12962085069E+04  0.12962085069E+04  0.25500000920E-02 0.  1.
       -2   -1    0    0    0  501  0.00000000000E+00  0.00000000000E+00 -0.55726270408E+03  0.55726270408E+03  0.25500000920E-02 0. -1.
    10030    2    1    2    0    0  0.00000000000E+00  0.00000000000E+00  0.73894580277E+03  0.18534712109E+04  0.16997984087E+04 0.  0.
        1    1    3    3  502    0 -0.23784078306E+03  0.78867978135E+03  0.14141204002E+03  0.83581182134E+03  0.50400001928E-02 0.  1.
       -1    1    3    3    0  502  0.23784078306E+03 -0.78867978135E+03  0.59753376275E+03  0.10176593896E+04  0.50400001928E-02 0. -1.
</event>
<event>
 5   0  0.5821584E-05  0.1699838E+04  0.7818609E-02  0.8761457E-01
        2   -1    0    0  501    0  0.00000000000E+00  0.00000000000E+00  0.11166130661E+04  0.11166130661E+04  0.25500000920E-02 0. -1.
       -2   -1    0    0    0  501  0.00000000000E+00  0.00000000000E+00 -0.64692258727E+03  0.64692258727E+03  0.25500000920E-02 0.  1.
    10030    2    1    2    0    0  0.00000000000E+00  0.00000000000E+00  0.46969047885E+03  0.17635356534E+04  0.16998378908E+04 0.  0.
        1    1    3    3  502    0 -0.39664396987E+03  0.39546068924E+03  0.89805466987E+03  0.10584034135E+04  0.50400001928E-02 0. -1.
       -1    1    3    3    0  502  0.39664396987E+03 -0.39546068924E+03 -0.42836419103E+03  0.70513223990E+03  0.50400001928E-02 0.  1.
</event>
<event>
 5   0  0.2966258E-05  0.1695398E+04  0.7818609E-02  0.8763993E-01
        1   -1    0    0  501    0  0.00000000000E+00  0.00000000000E+00  0.93235138364E+03  0.93235138366E+03  0.50400001928E-02 0. -1.
       -1   -1    0    0    0  501  0.00000000000E+00  0.00000000000E+00 -0.77073276865E+03  0.77073276866E+03  0.50400001928E-02 0.  1.
    10030    2    1    2    0    0  0.00000000000E+00  0.00000000000E+00  0.16161861499E+03  0.17030841523E+04  0.16953981990E+04 0.  0.
        4    1    3    3  502    0  0.10016293096E+03  0.37745264609E+03 -0.67499047510E+03  0.77981848346E+03  0.12699999809E+01 0.  1.
       -4    1    3    3    0  502 -0.10016293096E+03 -0.37745264609E+03  0.83660909009E+03  0.92326566886E+03  0.12699999809E+01 0. -1.
</event>
<event>
 5   0  0.5652631E-05  0.1698960E+04  0.7818609E-02  0.8761958E-01
       -2   -1    0    0    0  501  0.00000000000E+00  0.00000000000E+00  0.67505357118E+03  0.67505357119E+03  0.25500000920E-02 0.  1.
        2   -1    0    0  501    0  0.00000000000E+00  0.00000000000E+00 -0.10689758913E+04  0.10689758913E+04  0.25500000920E-02 0. -1.
    10030    2    1    2    0    0  0.00000000000E+00  0.00000000000E+00 -0.39392232008E+03  0.17440294625E+04  0.16989596733E+04 0.  0.
        2    1    3    3  502    0 -0.26091598220E+03  0.69148527062E+03  0.23294077661E+03  0.77491317879E+03  0.25500000920E-02 0.  1.
       -2    1    3    3    0  502  0.26091598220E+03 -0.69148527062E+03 -0.62686309669E+03  0.96911628366E+03  0.25500000920E-02 0. -1.
</event>
<event>
 5   0  0.2098250E-05  0.1700743E+04  0.7818609E-02  0.8760941E-01
        3   -1    0    0  501    0  0.00000000000E+00  0.00000000000E+00  0.15559523382E+04  0.15559523415E+04  0.10100000352E+00 0. -1.
       -3   -1    0    0    0  501  0.00000000000E+00  0.00000000000E+00 -0.46475162071E+03  0.46475163169E+03  0.10100000352E+00 0.  1.
    10030    2    1    2    0    0  0.00000000000E+00  0.00000000000E+00  0.10912007175E+04  0.20207039731E+04  0.17007426440E+04 0.  0.
        3    1    3    3  502    0  0.51531678875E+03 -0.35681501129E+02  0.13481881898E+04  0.14437575862E+04  0.10100000352E+00 0. -1.
       -3    1    3    3    0  502 -0.51531678875E+03  0.35681501129E+02 -0.25698747235E+03  0.57694638697E+03  0.10100000352E+00 0.  1.
</event>
<event>
 5   0  0.5859822E-05  0.1700627E+04  0.7818609E-02  0.8761007E-01
        2   -1    0    0  501    0  0.00000000000E+00  0.00000000000E+00  0.20601441408E+04  0.20601441408E+04  0.25500000920E-02 0. -1.
       -2   -1    0    0    0  501  0.00000000000E+00  0.00000000000E+00 -0.35096218159E+03  0.35096218160E+03  0.25500000920E-02 0.  1.
    10030    2    1    2    0    0  0.00000000000E+00  0.00000000000E+00  0.17091819592E+04  0.24111063224E+04  0.17006265693E+04 0.  0.
        5    1    3    3  502    0  0.55739650551E+03  0.89244469200E+02  0.17561390593E+04  0.18446414083E+04  0.46999998093E+01 0. -1.
       -5    1    3    3    0  502 -0.55739650551E+03 -0.89244469200E+02 -0.46957100112E+02  0.56646491408E+03  0.46999998093E+01 0.  1.
</event>
<event>
 5   0  0.5859822E-05  0.1696886E+04  0.7818609E-02  0.8763142E-01
       -2   -1    0    0    0  501  0.00000000000E+00  0.00000000000E+00  0.57896623842E+03  0.57896623843E+03  0.25500000920E-02 0. -1.
        2   -1    0    0  501    0  0.00000000000E+00  0.00000000000E+00 -0.12433466965E+04  0.12433466965E+04  0.25500000920E-02 0.  1.
    10030    2    1    2    0    0  0.00000000000E+00  0.00000000000E+00 -0.66438045805E+03  0.18223129349E+04  0.16968862778E+04 0.  0.
        5    1    3    3  502    0  0.33777313103E+03  0.55624236271E+02 -0.11658760471E+04  0.12151023787E+04  0.46999998093E+01 0.  1.
       -5    1    3    3    0  502 -0.33777313103E+03 -0.55624236271E+02  0.50149558902E+03  0.60721055616E+03  0.46999998093E+01 0. -1.
</event>
<event>
 5   0  0.2911632E-05  0.1699642E+04  0.7818609E-02  0.8761569E-01
       -1   -1    0    0    0  501  0.00000000000E+00  0.00000000000E+00  0.90078278775E+03  0.90078278777E+03  0.50400001928E-02 0. -1.
        1   -1    0    0  501    0  0.00000000000E+00  0.00000000000E+00 -0.80174216883E+03  0.80174216884E+03  0.50400001928E-02 0.  1.
    10030    2    1    2    0    0  0.00000000000E+00  0.00000000000E+00  0.99040618928E+02  0.17025249566E+04  0.16996417810E+04 0.  0.
        1    1    3    3  502    0 -0.22417278358E+03 -0.60713173914E+03  0.60121147980E+03  0.88335589036E+03  0.50400001928E-02 0. -1.
       -1    1    3    3    0  502  0.22417278358E+03  0.60713173914E+03 -0.50217086087E+03  0.81916906625E+03  0.50400001928E-02 0.  1.
</event>
<event>
 5   0  0.2966258E-05  0.1701418E+04  0.7818609E-02  0.8760556E-01
        1   -1    0    0  501    0  0.00000000000E+00  0.00000000000E+00  0.93255055384E+03  0.93255055386E+03  0.50400001928E-02 0. -1.
       -1   -1    0    0    0  501  0.00000000000E+00  0.00000000000E+00 -0.77605011280E+03  0.77605011281E+03  0.50400001928E-02 0.  1.
    10030    2    1    2    0    0  0.00000000000E+00  0.00000000000E+00  0.15650044104E+03  0.17086006667E+04  0.17014181879E+04 0.  0.
        4    1    3    3  502    0 -0.65271592641E+03 -0.36053328734E+02 -0.46844339523E+03  0.80422555949E+03  0.12699999809E+01 0.  1.
       -4    1    3    3    0  502  0.65271592641E+03  0.36053328734E+02  0.62494383627E+03  0.90437510718E+03  0.12699999809E+01 0. -1.
</event>
<event>
 5   0  0.5671132E-05  0.1674139E+04  0.7818609E-02  0.8776253E-01
       -2   -1    0    0    0  501  0.00000000000E+00  0.00000000000E+00  0.64786002761E+03  0.64786002762E+03  0.25500000920E-02 0. -1.
        2   -1    0    0  501    0  0.00000000000E+00  0.00000000000E+00 -0.10815377847E+04  0.10815377847E+04  0.25500000920E-02 0.  1.
    10030    2    1    2    0    0  0.00000000000E+00  0.00000000000E+00 -0.43367775713E+03  0.17293978124E+04  0.16741387028E+04 0.  0.
        3    1    3    3  502    0 -0.36537111650E+03 -0.59915874831E+03  0.25450901273E+03  0.74649990369E+03  0.10100000352E+00 0. -1.
       -3    1    3    3    0  502  0.36537111650E+03  0.59915874831E+03 -0.68818676986E+03  0.98289790867E+03  0.10100000352E+00 0.  1.
</event>
<event>
 5   0  0.5821584E-05  0.1710616E+04  0.7818609E-02  0.8755333E-01
        2   -1    0    0  501    0  0.00000000000E+00  0.00000000000E+00  0.12058882524E+04  0.12058882524E+04  0.25500000920E-02 0.  1.
       -2   -1    0    0    0  501  0.00000000000E+00  0.00000000000E+00 -0.60664998112E+03  0.60664998113E+03  0.25500000920E-02 0. -1.
    10030    2    1    2    0    0  0.00000000000E+00  0.00000000000E+00  0.59923827124E+03  0.18125382335E+04  0.17106163632E+04 0.  0.
        1    1    3    3  502    0 -0.57129077403E+02  0.50723271777E+03 -0.42756859102E+03  0.66585558608E+03  0.50400001928E-02 0. -1.
       -1    1    3    3    0  502  0.57129077403E+02 -0.50723271777E+03  0.10268068623E+04  0.11466826474E+04  0.50400001928E-02 0.  1.
</event>
<event>
 5   0  0.5859822E-05  0.1699461E+04  0.7818609E-02  0.8761672E-01
       -2   -1    0    0    0  501  0.00000000000E+00  0.00000000000E+00  0.39304342492E+03  0.39304342493E+03  0.25500000920E-02 0.  1.
        2   -1    0    0  501    0  0.00000000000E+00  0.00000000000E+00 -0.18370533705E+04  0.18370533705E+04  0.25500000920E-02 0. -1.
    10030    2    1    2    0    0  0.00000000000E+00  0.00000000000E+00 -0.14440099456E+04  0.22300967955E+04  0.16994607951E+04 0.  0.
        5    1    3    3  502    0  0.21188309121E+03 -0.49076839711E+03  0.14473940242E+03  0.55382275915E+03  0.46999998093E+01 0.  1.
       -5    1    3    3    0  502 -0.21188309121E+03  0.49076839711E+03 -0.15887493480E+04  0.16762740363E+04  0.46999998093E+01 0. -1.
</event>
<event>
 5   0  0.2098250E-05  0.1702314E+04  0.7818609E-02  0.8760046E-01
        4   -1    0    0  501    0  0.00000000000E+00  0.00000000000E+00  0.10124173156E+04  0.10124181121E+04  0.12699999809E+01 0.  1.
       -4   -1    0    0    0  501  0.00000000000E+00  0.00000000000E+00 -0.71558116316E+03  0.71558229014E+03  0.12699999809E+01 0. -1.
    10030    2    1    2    0    0  0.00000000000E+00  0.00000000000E+00  0.29683615240E+03  0.17280004023E+04  0.17023142157E+04 0.  0.
        3    1    3    3  502    0 -0.53799346220E+03  0.37994036330E+03  0.69569769378E+03  0.95801197089E+03  0.10100000352E+00 0.  1.
       -3    1    3    3    0  502  0.53799346220E+03 -0.37994036330E+03 -0.39886154139E+03  0.76998843136E+03  0.10100000352E+00 0. -1.
</event>
<event>
 5   0  0.5671132E-05  0.1695999E+04  0.7818609E-02  0.8763650E-01
       -2   -1    0    0    0  501  0.00000000000E+00  0.00000000000E+00  0.35102370271E+03  0.35102370272E+03  0.25500000920E-02 0. -1.
        2   -1    0    0  501    0  0.00000000000E+00  0.00000000000E+00 -0.20485888316E+04  0.20485888316E+04  0.25500000920E-02 0.  1.
    10030    2    1    2    0    0  0.00000000000E+00  0.00000000000E+00 -0.16975651289E+04  0.23996125343E+04  0.16959991002E+04 0.  0.
        3    1    3    3  502    0 -0.92362469914E+02  0.81494180648E+03 -0.54387222999E+03  0.98410263009E+03  0.10100000352E+00 0.  1.
       -3    1    3    3    0  502  0.92362469914E+02 -0.81494180648E+03 -0.11536928989E+04  0.14155099042E+04  0.10100000352E+00 0. -1.
</event>
<event>
 5   0  0.5755321E-05  0.1730582E+04  0.7818609E-02  0.8744112E-01
        2   -1    0    0  501    0  0.00000000000E+00  0.00000000000E+00  0.92700218156E+03  0.92700218157E+03  0.25500000920E-02 0. -1.
       -2   -1    0    0    0  501  0.00000000000E+00  0.00000000000E+00 -0.80768788658E+03  0.80768788658E+03  0.25500000920E-02 0.  1.
    10030    2    1    2    0    0  0.00000000000E+00  0.00000000000E+00  0.11931429499E+03  0.17346900681E+04  0.17305819055E+04 0.  0.
        4    1    3    3  502    0 -0.40179772854E+03  0.26021463260E+03  0.78218290552E+03  0.91704131874E+03  0.12699999809E+01 0. -1.
       -4    1    3    3    0  502  0.40179772854E+03 -0.26021463260E+03 -0.66286861054E+03  0.81764874941E+03  0.12699999809E+01 0.  1.
</event>
<event>
 5   0  0.2098250E-05  0.1705193E+04  0.7818609E-02  0.8758408E-01
        3   -1    0    0  501    0  0.00000000000E+00  0.00000000000E+00  0.51608847630E+03  0.51608848619E+03  0.10100000352E+00 0.  1.
       -3   -1    0    0    0  501  0.00000000000E+00  0.00000000000E+00 -0.14085200580E+04  0.14085200616E+04  0.10100000352E+00 0. -1.
    10030    2    1    2    0    0  0.00000000000E+00  0.00000000000E+00 -0.89243158167E+03  0.19246085478E+04  0.17051932249E+04 0.  0.
        4    1    3    3  502    0  0.35853729533E+03  0.62378353907E+03  0.70101377061E+02  0.72289052541E+03  0.12699999809E+01 0. -1.
       -4    1    3    3    0  502 -0.35853729533E+03 -0.62378353907E+03 -0.96253295873E+03  0.12017180224E+04  0.12699999809E+01 0.  1.
</event>
<event>
 5   0  0.5671132E-05  0.1699141E+04  0.7818609E-02  0.8761854E-01
        2   -1    0    0  501    0  0.00000000000E+00  0.00000000000E+00  0.19550264999E+04  0.19550264999E+04  0.25500000920E-02 0.  1.
       -2   -1    0    0    0  501  0.00000000000E+00  0.00000000000E+00 -0.36918696412E+03  0.36918696413E+03  0.25500000920E-02 0. -1.
    10030    2    1    2    0    0  0.00000000000E+00  0.00000000000E+00  0.15858395358E+04  0.23242134640E+04  0.16991413105E+04 0.  0.
        3    1    3    3  502    0  0.45772884145E+03  0.71525257157E+03  0.75755669462E+03  0.11379780706E+04  0.10100000352E+00 0.  1.
       -3    1    3    3    0  502 -0.45772884145E+03 -0.71525257157E+03  0.82828284114E+03  0.11862353934E+04  0.10100000352E+00 0. -1.
</event>
<event>
 5   0  0.5755321E-05  0.1699971E+04  0.7818609E-02  0.8761381E-01
       -2   -1    0    0    0  501  0.00000000000E+00  0.00000000000E+00  0.66167413783E+03  0.66167413783E+03  0.25500000920E-02 0. -1.
        2   -1    0    0  501    0  0.00000000000E+00  0.00000000000E+00 -0.10918895702E+04  0.10918895702E+04  0.25500000920E-02 0.  1.
    10030    2    1    2    0    0  0.00000000000E+00  0.00000000000E+00 -0.43021543236E+03  0.17535637080E+04  0.16999706938E+04 0.  0.
        4    1    3    3  502    0 -0.19512217193E+02  0.43488864895E+03 -0.96816723333E+03  0.10615358064E+04  0.12699999809E+01 0.  1.
       -4    1    3    3    0  502  0.19512217193E+02 -0.43488864895E+03  0.53795180097E+03  0.69202790166E+03  0.12699999809E+01 0. -1.
</event>
<event>
 5   0  0.5821584E-05  0.1700273E+04  0.7818609E-02  0.8761209E-01
       -2   -1    0    0    0  501  0.00000000000E+00  0.00000000000E+00  0.40807267847E+03  0.40807267848E+03  0.25500000920E-02 0.  1.
        2   -1    0    0  501    0  0.00000000000E+00  0.00000000000E+00 -0.17710863806E+04  0.17710863806E+04  0.25500000920E-02 0. -1.
    10030    2    1    2    0    0  0.00000000000E+00  0.00000000000E+00 -0.13630137021E+04  0.21791590590E+04  0.17002728759E+04 0.  0.
        1    1    3    3  502    0 -0.98320175972E+02 -0.83594189682E+03 -0.52842445953E+03  0.99383002637E+03  0.50400001928E-02 0.  1.
       -1    1    3    3    0  502  0.98320175972E+02  0.83594189682E+03 -0.83458924256E+03  0.11853290327E+04  0.50400001928E-02 0. -1.
</event>
<event>
 5   0  0.2966258E-05  0.1707102E+04  0.7818609E-02  0.8757324E-01
        1   -1    0    0  501    0  0.00000000000E+00  0.00000000000E+00  0.74324193349E+03  0.74324193350E+03  0.50400001928E-02 0. -1.
       -1   -1    0    0    0  501  0.00000000000E+00  0.00000000000E+00 -0.98023168352E+03  0.98023168353E+03  0.50400001928E-02 0.  1.
    10030    2    1    2    0    0  0.00000000000E+00  0.00000000000E+00 -0.23698975004E+03  0.17234736170E+04  0.17071019791E+04 0.  0.
        4    1    3    3  502    0  0.33527186518E+03 -0.55817120944E+02  0.67197301488E+03  0.75304191131E+03  0.12699999809E+01 0. -1.
       -4    1    3    3    0  502 -0.33527186518E+03  0.55817120944E+02 -0.90896276492E+03  0.97043170572E+03  0.12699999809E+01 0.  1.
</event>
<event>
 5   0  0.5671132E-05  0.1682796E+04  0.7818609E-02  0.8771237E-01
        2   -1    0    0  501    0  0.00000000000E+00  0.00000000000E+00  0.22033836121E+04  0.22033836121E+04  0.25500000920E-02 0. -1.
       -2   -1    0    0    0  501  0.00000000000E+00  0.00000000000E+00 -0.32130173661E+03  0.32130173662E+03  0.25500000920E-02 0.  1.
    10030    2    1    2    0    0  0.00000000000E+00  0.00000000000E+00  0.18820818755E+04  0.25246853487E+04  0.16827964595E+04 0.  0.
        3    1    3    3  502    0 -0.60719916321E+03  0.28343219916E+03  0.17762049965E+03  0.69323422262E+03  0.10100000352E+00 0.  1.
       -3    1    3    3    0  502  0.60719916321E+03 -0.28343219916E+03  0.17044613758E+04  0.18314511261E+04  0.10100000352E+00 0. -1.
</event>
<event>
 5   0  0.5859822E-05  0.1699486E+04  0.7818609E-02  0.8761658E-01
        2   -1    0    0  501    0  0.00000000000E+00  0.00000000000E+00  0.60297989901E+03  0.60297989902E+03  0.25500000920E-02 0.  1.
       -2   -1    0    0    0  501  0.00000000000E+00  0.00000000000E+00 -0.11974912369E+04  0.11974912369E+04  0.25500000920E-02 0. -1.
    10030    2    1    2    0    0  0.00000000000E+00  0.00000000000E+00 -0.59451133788E+03  0.18004711359E+04  0.16994859753E+04 0.  0.
        5    1    3    3  502    0  0.10234641145E+03  0.59264454491E+03 -0.93320723110E+03  0.11102252793E+04  0.46999998093E+01 0. -1.
       -5    1    3    3    0  502 -0.10234641145E+03 -0.59264454491E+03  0.33869589322E+03  0.69024585665E+03  0.46999998093E+01 0.  1.
</event>
<event>
 5   0  0.2993769E-05  0.1698641E+04  0.7818609E-02  0.8762140E-01
       -1   -1    0    0    0  501  0.00000000000E+00  0.00000000000E+00  0.49693791750E+03  0.49693791753E+03  0.50400001928E-02 0. -1.
        1   -1    0    0  501    0  0.00000000000E+00  0.00000000000E+00 -0.14515799818E+04  0.14515799818E+04  0.50400001928E-02 0.  1.
    10030    2    1    2    0    0  0.00000000000E+00  0.00000000000E+00 -0.95464206432E+03  0.19485178994E+04  0.16986407899E+04 0.  0.
        3    1    3    3  502    0  0.75391120495E+03  0.11170902099E+03 -0.90726955127E+03  0.11849046625E+04  0.10100000352E+00 0.  1.
       -3    1    3    3    0  502 -0.75391120495E+03 -0.11170902099E+03 -0.47372513045E+02  0.76361323687E+03  0.10100000352E+00 0. -1.
</event>
<event>
 5   0  0.2966258E-05  0.1697817E+04  0.7818609E-02  0.8762610E-01
        1   -1    0    0  501    0  0.00000000000E+00  0.00000000000E+00  0.80930797270E+03  0.80930797271E+03  0.50400001928E-02 0. -1.
       -1   -1    0    0    0  501  0.00000000000E+00  0.00000000000E+00 -0.89044722182E+03  0.89044722183E+03  0.50400001928E-02 0.  1.
    10030    2    1    2    0    0  0.00000000000E+00  0.00000000000E+00 -0.81139249122E+02  0.16997551945E+04  0.16978174648E+04 0.  0.
        4    1    3    3  502    0 -0.10031295741E+03  0.10879844434E+03  0.79629386824E+03  0.80992921197E+03  0.12699999809E+01 0. -1.
       -4    1    3    3    0  502  0.10031295741E+03 -0.10879844434E+03 -0.87743311736E+03  0.88982598257E+03  0.12699999809E+01 0.  1.
</event>
<event>
 5   0  0.5755321E-05  0.1700185E+04  0.7818609E-02  0.8761259E-01
       -2   -1    0    0    0  501  0.00000000000E+00  0.00000000000E+00  0.69961924921E+03  0.69961924922E+03  0.25500000920E-02 0. -1.
        2   -1    0    0  501    0  0.00000000000E+00  0.00000000000E+00 -0.10329295163E+04  0.10329295163E+04  0.25500000920E-02 0.  1.
    10030    2    1    2    0    0  0.00000000000E+00  0.00000000000E+00 -0.33331026710E+03  0.17325487655E+04  0.17001851343E+04 0.  0.
        4    1    3    3  502    0  0.32504713176E+03  0.77574404424E+03 -0.40932021641E+02  0.84208758650E+03  0.12699999809E+01 0. -1.
       -4    1    3    3    0  502 -0.32504713176E+03 -0.77574404424E+03 -0.29237824546E+03  0.89046117903E+03  0.12699999809E+01 0.  1.
</event>
<event>
 5   0  0.2993769E-05  0.1701160E+04  0.7818609E-02  0.8760703E-01
        1   -1    0    0  501    0  0.00000000000E+00  0.00000000000E+00  0.65529757705E+03  0.65529757707E+03  0.50400001928E-02 0.  1.
       -1   -1    0    0    0  501  0.00000000000E+00  0.00000000000E+00 -0.11040576413E+04  0.11040576414E+04  0.50400001928E-02 0. -1.
    10030    2    1    2    0    0  0.00000000000E+00  0.00000000000E+00 -0.44876006429E+03  0.17593552184E+04  0.17011599541E+04 0.  0.
        3    1    3    3  502    0 -0.20393398411E+03  0.30930157391E+03  0.56746885601E+03  0.67770011528E+03  0.10100000352E+00 0.  1.
       -3    1    3    3    0  502  0.20393398411E+03 -0.30930157391E+03 -0.10162289203E+04  0.10816551031E+04  0.10100000352E+00 0. -1.
</event>
<event>
 5   0  0.5859822E-05  0.1702617E+04  0.7818609E-02  0.8759873E-01
        2   -1    0    0  501    0  0.00000000000E+00  0.00000000000E+00  0.94692195951E+03  0.94692195952E+03  0.25500000920E-02 0.  1.
       -2   -1    0    0    0  501  0.00000000000E+00  0.00000000000E+00 -0.76534976621E+03  0.76534976621E+03  0.25500000920E-02 0. -1.
    10030    2    1    2    0    0  0.00000000000E+00  0.00000000000E+00  0.18157219330E+03  0.17122717257E+04  0.17026173972E+04 0.  0.
        5    1    3    3  502    0 -0.72639129717E+03 -0.11210958880E+03  0.52274640195E+03  0.90194166511E+03  0.46999998093E+01 0.  1.
       -5    1    3    3    0  502  0.72639129717E+03  0.11210958880E+03 -0.34117420864E+03  0.81033006062E+03  0.46999998093E+01 0. -1.
</event>
<event>
 5   0  0.5652631E-05  0.1699589E+04  0.7818609E-02  0.8761599E-01
       -2   -1    0    0    0  501  0.00000000000E+00  0.00000000000E+00  0.11716975245E+04  0.11716975245E+04  0.25500000920E-02 0.  1.
        2   -1    0    0  501    0  0.00000000000E+00  0.00000000000E+00 -0.61632871676E+03  0.61632871676E+03  0.25500000920E-02 0. -1.
    10030    2    1    2    0    0  0.00000000000E+00  0.00000000000E+00  0.55536880771E+03  0.17880262412E+04  0.16995891641E+04 0.  0.
        2    1    3    3  502    0  0.57202140248E+03  0.62757477061E+03  0.24291543806E+03  0.88321372705E+03  0.25500000920E-02 0.  1.
       -2    1    3    3    0  502 -0.57202140248E+03 -0.62757477061E+03  0.31245336965E+03  0.90481251418E+03  0.25500000920E-02 0. -1.
</event>
<event>
 5   0  0.5859822E-05  0.1699378E+04  0.7818609E-02  0.8761719E-01
       -2   -1    0    0    0  501  0.00000000000E+00  0.00000000000E+00  0.54468336936E+03  0.54468336937E+03  0.25500000920E-02 0.  1.
        2   -1    0    0  501    0  0.00000000000E+00  0.00000000000E+00 -0.13254876766E+04  0.13254876766E+04  0.25500000920E-02 0. -1.
    10030    2    1    2    0    0  0.00000000000E+00  0.00000000000E+00 -0.78080430722E+03  0.18701710460E+04  0.16993776434E+04 0.  0.
        5    1    3    3  502    0 -0.20995243532E+02 -0.84650301439E+03 -0.31304646293E+03  0.90278919554E+03  0.46999998093E+01 0.  1.
       -5    1    3    3    0  502  0.20995243532E+02  0.84650301439E+03 -0.46775784429E+03  0.96738185042E+03  0.46999998093E+01 0. -1.
</event>
<event>
 5   0  0.2987859E-05  0.1701505E+04  0.7818609E-02  0.8760506E-01
        1   -1    0    0  501    0  0.00000000000E+00  0.00000000000E+00  0.77905878777E+03  0.77905878779E+03  0.50400001928E-02 0.  1.
       -1   -1    0    0    0  501  0.00000000000E+00  0.00000000000E+00 -0.92904404060E+03  0.92904404061E+03  0.50400001928E-02 0. -1.
    10030    2    1    2    0    0  0.00000000000E+00  0.00000000000E+00 -0.14998525283E+03  0.17081028284E+04  0.17015051267E+04 0.  0.
        5    1    3    3  502    0  0.81108787328E+03  0.24278770862E+03  0.86878067528E+01  0.84670359490E+03  0.46999998093E+01 0. -1.
       -5    1    3    3    0  502 -0.81108787328E+03 -0.24278770862E+03 -0.15867305958E+03  0.86139923350E+03  0.46999998093E+01 0.  1.
</event>
<event>
 5   0  0.2966258E-05  0.1701456E+04  0.7818609E-02  0.8760534E-01
       -1   -1    0    0    0  501  0.00000000000E+00  0.00000000000E+00  0.27400811493E+03  0.27400811498E+03  0.50400001928E-02 0. -1.
        1   -1    0    0  501    0  0.00000000000E+00  0.00000000000E+00 -0.26413031193E+04  0.26413031193E+04  0.50400001928E-02 0.  1.
    10030    2    1    2    0    0  0.00000000000E+00  0.00000000000E+00 -0.23672950044E+04  0.29153112343E+04  0.17014564217E+04 0.  0.
        4    1    3    3  502    0  0.52335161947E+03  0.33858262455E+03 -0.19163477500E+03  0.65212008950E+03  0.12699999809E+01 0. -1.
       -4    1    3    3    0  502 -0.52335161947E+03 -0.33858262455E+03 -0.21756602294E+04  0.22631911448E+04  0.12699999809E+01 0.  1.
</event>
<event>
 5   0  0.5671132E-05  0.1692161E+04  0.7818609E-02  0.8765848E-01
       -2   -1    0    0    0  501  0.00000000000E+00  0.00000000000E+00  0.40090527786E+03  0.40090527786E+03  0.25500000920E-02 0.  1.
        2   -1    0    0  501    0  0.00000000000E+00  0.00000000000E+00 -0.17855895617E+04  0.17855895617E+04  0.25500000920E-02 0. -1.
    10030    2    1    2    0    0  0.00000000000E+00  0.00000000000E+00 -0.13846842839E+04  0.21864948396E+04  0.16921610791E+04 0.  0.
        3    1    3    3  502    0 -0.25918169960E+03  0.76756708570E+03 -0.37710999565E+03  0.89361420282E+03  0.10100000352E+00 0. -1.
       -3    1    3    3    0  502  0.25918169960E+03 -0.76756708570E+03 -0.10075742882E+04  0.12928806368E+04  0.10100000352E+00 0.  1.
</event>
<event>
 5   0  0.2967704E-05  0.1702368E+04  0.7818609E-02  0.8760015E-01
       -1   -1    0    0    0  501  0.00000000000E+00  0.00000000000E+00  0.60406381881E+03  0.60406381883E+03  0.50400001928E-02 0. -1.
        1   -1    0    0  501    0  0.00000000000E+00  0.00000000000E+00 -0.11994005346E+04  0.11994005346E+04  0.50400001928E-02 0.  1.
    10030    2    1    2    0    0  0.00000000000E+00  0.00000000000E+00 -0.59533671579E+03  0.18034643534E+04  0.17023683118E+04 0.  0.
        2    1    3    3  502    0 -0.17831356270E+03 -0.11548301415E+03  0.57552653393E+03  0.61348418437E+03  0.25500000920E-02 0. -1.
       -2    1    3    3    0  502  0.17831356270E+03  0.11548301415E+03 -0.11708632497E+04  0.11899801691E+04  0.25500000920E-02 0.  1.
</event>
<event>
 5   0  0.5755321E-05  0.1702194E+04  0.7818609E-02  0.8760114E-01
       -2   -1    0    0    0  501  0.00000000000E+00  0.00000000000E+00  0.35799996034E+03  0.35799996034E+03  0.25500000920E-02 0. -1.
        2   -1    0    0  501    0  0.00000000000E+00  0.00000000000E+00 -0.20233692879E+04  0.20233692879E+04  0.25500000920E-02 0.  1.
    10030    2    1    2    0    0  0.00000000000E+00  0.00000000000E+00 -0.16653693276E+04  0.23813692483E+04  0.17021940252E+04 0.  0.
        4    1    3    3  502    0  0.78894272302E+03  0.27547698875E+03 -0.10584674711E+04  0.13485819188E+04  0.12699999809E+01 0.  1.
       -4    1    3    3    0  502 -0.78894272302E+03 -0.27547698875E+03 -0.60690185652E+03  0.10327873295E+04  0.12699999809E+01 0. -1.
</event>
<event>
 5   0  0.2966258E-05  0.1700658E+04  0.7818609E-02  0.8760989E-01
        1   -1    0    0  501    0  0.00000000000E+00  0.00000000000E+00  0.19413449048E+04  0.19413449048E+04  0.50400001928E-02 0.  1.
       -1   -1    0    0    0  501  0.00000000000E+00  0.00000000000E+00 -0.37245295908E+03  0.37245295911E+03  0.50400001928E-02 0. -1.
    10030    2    1    2    0    0  0.00000000000E+00  0.00000000000E+00  0.15688919458E+04  0.23137978639E+04  0.17006582895E+04 0.  0.
        4    1    3    3  502    0  0.52345357599E+03 -0.55817788592E+03  0.12889293053E+04  0.14989685005E+04  0.12699999809E+01 0.  1.
       -4    1    3    3    0  502 -0.52345357599E+03  0.55817788592E+03  0.27996264041E+03  0.81482936341E+03  0.12699999809E+01 0. -1.
</event>
<event>
 5   0  0.2911632E-05  0.1700248E+04  0.7818609E-02  0.8761223E-01
       -1   -1    0    0    0  501  0.00000000000E+00  0.00000000000E+00  0.50838696289E+03  0.50838696292E+03  0.50400001928E-02 0.  1.
        1   -1    0    0  501    0  0.00000000000E+00  0.00000000000E+00 -0.14215765790E+04  0.14215765790E+04  0.50400001928E-02 0. -1.
    10030    2    1    2    0    0  0.00000000000E+00  0.00000000000E+00 -0.91318961614E+03  0.19299635420E+04  0.17002482167E+04 0.  0.
        1    1    3    3  502    0 -0.76786630167E+03 -0.36197656147E+03 -0.50818053230E+03  0.98939028787E+03  0.50400001928E-02 0. -1.
       -1    1    3    3    0  502  0.76786630167E+03  0.36197656147E+03 -0.40500908384E+03  0.94057325409E+03  0.50400001928E-02 0.  1.
</event>
<event>
 5   0  0.2987859E-05  0.1708772E+04  0.7818609E-02  0.8756377E-01
        1   -1    0    0  501    0  0.00000000000E+00  0.00000000000E+00  0.54493724919E+03  0.54493724921E+03  0.50400001928E-02 0. -1.
       -1   -1    0    0    0  501  0.00000000000E+00  0.00000000000E+00 -0.13395581333E+04  0.13395581333E+04  0.50400001928E-02 0.  1.
    10030    2    1    2    0    0  0.00000000000E+00  0.00000000000E+00 -0.79462088409E+03  0.18844953825E+04  0.17087716340E+04 0.  0.
        5    1    3    3  502    0  0.40966141860E+03 -0.73381622667E+02 -0.12201960846E+04  0.12892276430E+04  0.46999998093E+01 0.  1.
       -5    1    3    3    0  502 -0.40966141860E+03  0.73381622667E+02  0.42557520053E+03  0.59526773954E+03  0.46999998093E+01 0. -1.
</event>
<event>
 5   0  0.2993769E-05  0.1698479E+04  0.7818609E-02  0.8762232E-01
        1   -1    0    0  501    0  0.00000000000E+00  0.00000000000E+00  0.18954839883E+04  0.18954839883E+04  0.50400001928E-02 0.  1.
       -1   -1    0    0    0  501  0.00000000000E+00  0.00000000000E+00 -0.38048757550E+03  0.38048757554E+03  0.50400001928E-02 0. -1.
    10030    2    1    2    0    0  0.00000000000E+00  0.00000000000E+00  0.15149964127E+04  0.22759715638E+04  0.16984794460E+04 0.  0.
        3    1    3    3  502    0 -0.46109467716E+03 -0.52189340867E+03  0.14087836379E+04  0.15715127679E+04  0.10100000352E+00 0.  1.
       -3    1    3    3    0  502  0.46109467716E+03  0.52189340867E+03  0.10621277490E+03  0.70445879586E+03  0.10100000352E+00 0. -1.
</event>
<event>
 5   0  0.5652631E-05  0.1678987E+04  0.7818609E-02  0.8773441E-01
       -2   -1    0    0    0  501  0.00000000000E+00  0.00000000000E+00  0.60559149482E+03  0.60559149482E+03  0.25500000920E-02 0.  1.
        2   -1    0    0  501    0  0.00000000000E+00  0.00000000000E+00 -0.11637365469E+04  0.11637365469E+04  0.25500000920E-02 0. -1.
    10030    2    1    2    0    0  0.00000000000E+00  0.00000000000E+00 -0.55814505211E+03  0.17693280417E+04  0.16789865455E+04 0.  0.
        2    1    3    3  502    0 -0.14436937438E+03  0.63755693997E+03  0.27598240720E+03  0.70956864154E+03  0.25500000920E-02 0.  1.
       -2    1    3    3    0  502  0.14436937438E+03 -0.63755693997E+03 -0.83412745931E+03  0.10597594002E+04  0.25500000920E-02 0. -1.
</event>
<event>
 5   0  0.2966258E-05  0.1699915E+04  0.7818609E-02  0.8761413E-01
        1   -1    0    0  501    0  0.00000000000E+00  0.00000000000E+00  0.14012912710E+04  0.14012912710E+04  0.50400001928E-02 0. -1.
       -1   -1    0    0    0  501  0.00000000000E+00  0.00000000000E+00 -0.51554447048E+03  0.51554447050E+03  0.50400001928E-02 0.  1.
    10030    2    1    2    0    0  0.00000000000E+00  0.00000000000E+00  0.88574680049E+03  0.19168357415E+04  0.16999152524E+04 0.  0.
        4    1    3    3  502    0  0.89782101970E+01 -0.12226093397E+03 -0.50552223093E+03  0.52017562716E+03  0.12699999809E+01 0.  1.
       -4    1    3    3    0  502 -0.89782101970E+01  0.12226093397E+03  0.13912690314E+04  0.13966601143E+04  0.12699999809E+01 0. -1.
</event>
<event>
 5   0  0.5859822E-05  0.1702168E+04  0.7818609E-02  0.8760129E-01
        2   -1    0    0  501    0  0.00000000000E+00  0.00000000000E+00  0.18976278290E+04  0.18976278290E+04  0.25500000920E-02 0. -1.
       -2   -1    0    0    0  501  0.00000000000E+00  0.00000000000E+00 -0.38171026473E+03  0.38171026474E+03  0.25500000920E-02 0.  1.
    10030    2    1    2    0    0  0.00000000000E+00  0.00000000000E+00  0.15159175642E+04  0.22793380937E+04  0.17021680539E+04 0.  0.
        5    1    3    3  502    0  0.83590939163E+03  0.12475716232E+03  0.62396336398E+03  0.10505528212E+04  0.46999998093E+01 0.  1.
       -5    1    3    3    0  502 -0.83590939163E+03 -0.12475716232E+03  0.89195420026E+03  0.12287852725E+04  0.46999998093E+01 0. -1.
</event>
<event>
 5   0  0.5755321E-05  0.1692480E+04  0.7818609E-02  0.8765665E-01
        2   -1    0    0  501    0  0.00000000000E+00  0.00000000000E+00  0.15693722263E+04  0.15693722263E+04  0.25500000920E-02 0.  1.
       -2   -1    0    0    0  501  0.00000000000E+00  0.00000000000E+00 -0.45631122568E+03  0.45631122569E+03  0.25500000920E-02 0. -1.
    10030    2    1    2    0    0  0.00000000000E+00  0.00000000000E+00  0.11130610006E+04  0.20256834520E+04  0.16924800313E+04 0.  0.
        4    1    3    3  502    0 -0.11774900187E+03  0.38557062136E+03  0.14470481781E+04  0.15021583053E+04  0.12699999809E+01 0.  1.
       -4    1    3    3    0  502  0.11774900187E+03 -0.38557062136E+03 -0.33398717754E+03  0.52352514664E+03  0.12699999809E+01 0. -1.
</event>
<event>
 5   0  0.2911632E-05  0.1684120E+04  0.7818609E-02  0.8770473E-01
       -1   -1    0    0    0  501  0.00000000000E+00  0.00000000000E+00  0.51690542143E+03  0.51690542145E+03  0.50400001928E-02 0. -1.
        1   -1    0    0  501    0  0.00000000000E+00  0.00000000000E+00 -0.13717503490E+04  0.13717503491E+04  0.50400001928E-02 0.  1.
    10030    2    1    2    0    0  0.00000000000E+00  0.00000000000E+00 -0.85484492762E+03  0.18886557705E+04  0.16841201766E+04 0.  0.
        1    1    3    3  502    0 -0.64173588342E+03 -0.36340060228E+02  0.18262922256E+03  0.66820578941E+03  0.50400001928E-02 0. -1.
       -1    1    3    3    0  502  0.64173588342E+03  0.36340060228E+02 -0.10374741502E+04  0.12204499811E+04  0.50400001928E-02 0.  1.
</event>
<event>
 5   0  0.5859822E-05  0.1698445E+04  0.7818609E-02  0.8762252E-01
       -2   -1    0    0    0  501  0.00000000000E+00  0.00000000000E+00  0.60414638444E+03  0.60414638445E+03  0.25500000920E-02 0.  1.
        2   -1    0    0  501    0  0.00000000000E+00  0.00000000000E+00 -0.11937148556E+04  0.11937148556E+04  0.25500000920E-02 0. -1.
    10030    2    1    2    0    0  0.00000000000E+00  0.00000000000E+00 -0.58956847111E+03  0.17978612400E+04  0.16984445991E+04 0.  0.
        5    1    3    3  502    0  0.77759123342E+03  0.31236731112E+03 -0.44044312288E+03  0.94669620145E+03  0.46999998093E+01 0.  1.
       -5    1    3    3    0  502 -0.77759123342E+03 -0.31236731112E+03 -0.14912534823E+03  0.85116503854E+03  0.46999998093E+01 0. -1.
</event>
<event>
 5   0  0.5821584E-05  0.1697129E+04  0.7818609E-02  0.8763003E-01
        2   -1    0    0  501    0  0.00000000000E+00  0.00000000000E+00  0.11299257986E+04  0.11299257986E+04  0.25500000920E-02 0. -1.
       -2   -1    0    0    0  501  0.00000000000E+00  0.00000000000E+00 -0.63726474067E+03  0.63726474067E+03  0.25500000920E-02 0.  1.
    10030    2    1    2    0    0  0.00000000000E+00  0.00000000000E+00  0.49266105791E+03  0.17671905393E+04  0.16971291890E+04 0.  0.
        1    1    3    3  502    0  0.46250269388E+02  0.54198682828E+03  0.92450278176E+03  0.10726575422E+04  0.50400001928E-02 0. -1.
       -1    1    3    3    0  502 -0.46250269388E+02 -0.54198682828E+03 -0.43184172385E+03  0.69453299700E+03  0.50400001928E-02 0.  1.
</event>
<event>
 5   0  0.5671132E-05  0.1700571E+04  0.7818609E-02  0.8761039E-01
        2   -1    0    0  501    0  0.00000000000E+00  0.00000000000E+00  0.10182938527E+04  0.10182938527E+04  0.25500000920E-02 0. -1.
       -2   -1    0    0    0  501  0.00000000000E+00  0.00000000000E+00 -0.70999673006E+03  0.70999673007E+03  0.25500000920E-02 0.  1.
    10030    2    1    2    0    0  0.00000000000E+00  0.00000000000E+00  0.30829712267E+03  0.17282905828E+04  0.17005708520E+04 0.  0.
        3    1    3    3  502    0 -0.30661425221E+03 -0.78933825545E+03  0.23233180911E+03  0.87809182943E+03  0.10100000352E+00 0. -1.
       -3    1    3    3    0  502  0.30661425221E+03  0.78933825545E+03  0.75965313561E+02  0.85019875338E+03  0.10100000352E+00 0.  1.
</event>
<event>
 5   0  0.2911632E-05  0.1701827E+04  0.7818609E-02  0.8760323E-01
       -1   -1    0    0    0  501  0.00000000000E+00  0.00000000000E+00  0.64720770166E+03  0.64720770168E+03  0.50400001928E-02 0.  1.
        1   -1    0    0  501    0  0.00000000000E+00  0.00000000000E+00 -0.11187352973E+04  0.11187352973E+04  0.50400001928E-02 0. -1.
    10030    2    1    2    0    0  0.00000000000E+00  0.00000000000E+00 -0.47152759564E+03  0.17659429990E+04  0.17018273715E+04 0.  0.
        1    1    3    3  502    0  0.61023064976E+03 -0.43081768518E+03  0.18710454163E+03  0.77006066858E+03  0.50400001928E-02 0.  1.
       -1    1    3    3    0  502 -0.61023064976E+03  0.43081768518E+03 -0.65863213727E+03  0.99588233042E+03  0.50400001928E-02 0. -1.
</event>
<event>
 5   0  0.2967704E-05  0.1695842E+04  0.7818609E-02  0.8763739E-01
        1   -1    0    0  501    0  0.00000000000E+00  0.00000000000E+00  0.12614362060E+04  0.12614362060E+04  0.50400001928E-02 0.  1.
       -1   -1    0    0    0  501  0.00000000000E+00  0.00000000000E+00 -0.56996148042E+03  0.56996148044E+03  0.50400001928E-02 0. -1.
    10030    2    1    2    0    0  0.00000000000E+00  0.00000000000E+00  0.69147472557E+03  0.18313976864E+04  0.16958420297E+04 0.  0.
        2    1    3    3  502    0  0.45543993345E+03 -0.40817018523E+03  0.98000136319E+03  0.11551757896E+04  0.25500000920E-02 0.  1.
       -2    1    3    3    0  502 -0.45543993345E+03  0.40817018523E+03 -0.28852663762E+03  0.67622189681E+03  0.25500000920E-02 0. -1.
</event>
<event>
 5   0  0.5821584E-05  0.1699090E+04  0.7818609E-02  0.8761884E-01
       -2   -1    0    0    0  501  0.00000000000E+00  0.00000000000E+00  0.58767658880E+03  0.58767658880E+03  0.25500000920E-02 0. -1.
        2   -1    0    0  501    0  0.00000000000E+00  0.00000000000E+00 -0.12281016935E+04  0.12281016935E+04  0.25500000920E-02 0.  1.
    10030    2    1    2    0    0  0.00000000000E+00  0.00000000000E+00 -0.64042510472E+03  0.18157782823E+04  0.16990898904E+04 0.  0.
        1    1    3    3  502    0  0.28756462828E+03 -0.10782217141E+03  0.52627649162E+03  0.60933240661E+03  0.50400001928E-02 0. -1.
       -1    1    3    3    0  502 -0.28756462828E+03  0.10782217141E+03 -0.11667015963E+04  0.12064458757E+04  0.50400001928E-02 0.  1.
</event>
<event>
 5   0  0.5671132E-05  0.1698600E+04  0.7818609E-02  0.8762163E-01
       -2   -1    0    0    0  501  0.00000000000E+00  0.00000000000E+00  0.88600356296E+03  0.88600356296E+03  0.25500000920E-02 0. -1.
        2   -1    0    0  501    0  0.00000000000E+00  0.00000000000E+00 -0.81411665273E+03  0.81411665273E+03  0.25500000920E-02 0.  1.
    10030    2    1    2    0    0  0.00000000000E+00  0.00000000000E+00  0.71886910230E+02  0.17001202157E+04  0.16985997233E+04 0.  0.
        3    1    3    3  502    0  0.60027215018E+03  0.60025427198E+03  0.98740371441E+01  0.84895780350E+03  0.10100000352E+00 0. -1.
       -3    1    3    3    0  502 -0.60027215018E+03 -0.60025427198E+03  0.62012873086E+02  0.85116241220E+03  0.10100000352E+00 0.  1.
</event>
<event>
 5   0  0.2987859E-05  0.1701303E+04  0.7818609E-02  0.8760622E-01
       -1   -1    0    0    0  501  0.00000000000E+00  0.00000000000E+00  0.13714940101E+04  0.13714940101E+04  0.50400001928E-02 0. -1.
        1   -1    0    0  501    0  0.00000000000E+00  0.00000000000E+00 -0.52760555374E+03  0.52760555376E+03  0.50400001928E-02 0.  1.
    10030    2    1    2    0    0  0.00000000000E+00  0.00000000000E+00  0.84388845638E+03  0.18990995639E+04  0.17013028616E+04 0.  0.
        5    1    3    3  502    0 -0.17435811346E+03 -0.72172433450E+02 -0.50393170313E+03  0.53812532304E+03  0.46999998093E+01 0.  1.
       -5    1    3    3    0  502  0.17435811346E+03  0.72172433450E+02  0.13478201595E+04  0.13609742408E+04  0.46999998093E+01 0. -1.
</event>
<event>
 5   0  0.5671132E-05  0.1700354E+04  0.7818609E-02  0.8761163E-01
        2   -1    0    0  501    0  0.00000000000E+00  0.00000000000E+00  0.69589872745E+03  0.69589872745E+03  0.25500000920E-02 0.  1.
       -2   -1    0    0    0  501  0.00000000000E+00  0.00000000000E+00 -0.10386577407E+04  0.10386577407E+04  0.25500000920E-02 0. -1.
    10030    2    1    2    0    0  0.00000000000E+00  0.00000000000E+00 -0.34275901326E+03  0.17345564682E+04  0.17003536103E+04 0.  0.
        3    1    3    3  502    0 -0.49889453613E+02  0.78119791965E+03 -0.50977715197E+03  0.93414768753E+03  0.10100000352E+00 0. -1.
       -3    1    3    3    0  502  0.49889453613E+02 -0.78119791965E+03  0.16701813871E+03  0.80040878063E+03  0.10100000352E+00 0.  1.
</event>
<event>
 5   0  0.2966258E-05  0.1699047E+04  0.7818609E-02  0.8761908E-01
        1   -1    0    0  501    0  0.00000000000E+00  0.00000000000E+00  0.13198867261E+04  0.13198867261E+04  0.50400001928E-02 0.  1.
       -1   -1    0    0    0  501  0.00000000000E+00  0.00000000000E+00 -0.54678197709E+03  0.54678197711E+03  0.50400001928E-02 0. -1.
    10030    2    1    2    0    0  0.00000000000E+00  0.00000000000E+00  0.77310474902E+03  0.18666687032E+04  0.16990471137E+04 0.  0.
        4    1    3    3  502    0  0.45438409801E+03  0.31684099633E+03 -0.32106713804E+03  0.64026466833E+03  0.12699999809E+01 0. -1.
       -4    1    3    3    0  502 -0.45438409801E+03 -0.31684099633E+03  0.10941718871E+04  0.12264040349E+04  0.12699999809E+01 0.  1.
</event>
<event>
 5   0  0.2966258E-05  0.1698400E+04  0.7818609E-02  0.8762277E-01
       -1   -1    0    0    0  501  0.00000000000E+00  0.00000000000E+00  0.32927657867E+03  0.32927657871E+03  0.50400001928E-02 0.  1.
        1   -1    0    0  501    0  0.00000000000E+00  0.00000000000E+00 -0.21900760839E+04  0.21900760839E+04  0.50400001928E-02 0. -1.
    10030    2    1    2    0    0  0.00000000000E+00  0.00000000000E+00 -0.18607995052E+04  0.25193526626E+04  0.16984001413E+04 0.  0.
        4    1    3    3  502    0  0.75398556141E+03  0.34532074708E+02 -0.35311895985E+03  0.83329544803E+03  0.12699999809E+01 0.  1.
       -4    1    3    3    0  502 -0.75398556141E+03 -0.34532074708E+02 -0.15076805454E+04  0.16860572146E+04  0.12699999809E+01 0. -1.
</event>
<event>
 5   0  0.5671132E-05  0.1699717E+04  0.7818609E-02  0.8761526E-01
       -2   -1    0    0    0  501  0.00000000000E+00  0.00000000000E+00  0.21516424452E+04  0.21516424452E+04  0.25500000920E-02 0.  1.
        2   -1    0    0  501    0  0.00000000000E+00  0.00000000000E+00 -0.33567831651E+03  0.33567831652E+03  0.25500000920E-02 0. -1.
    10030    2    1    2    0    0  0.00000000000E+00  0.00000000000E+00  0.18159641287E+04  0.24873207617E+04  0.16997172868E+04 0.  0.
        3    1    3    3  502    0 -0.40333083117E+03 -0.27062415664E+03 -0.11255317462E+03  0.49857940275E+03  0.10100000352E+00 0. -1.
       -3    1    3    3    0  502  0.40333083117E+03  0.27062415664E+03  0.19285173033E+04  0.19887413590E+04  0.10100000352E+00 0.  1.
</event>
<event>
 5   0  0.2993769E-05  0.1701521E+04  0.7818609E-02  0.8760497E-01
       -1   -1    0    0    0  501  0.00000000000E+00  0.00000000000E+00  0.49322178895E+03  0.49322178898E+03  0.50400001928E-02 0. -1.
        1   -1    0    0  501    0  0.00000000000E+00  0.00000000000E+00 -0.14674803516E+04  0.14674803516E+04  0.50400001928E-02 0.  1.
    10030    2    1    2    0    0  0.00000000000E+00  0.00000000000E+00 -0.97425856265E+03  0.19607021406E+04  0.17015208307E+04 0.  0.
        3    1    3    3  502    0  0.82618834141E+03 -0.14684159976E+03 -0.64863405788E+03  0.10606016133E+04  0.10100000352E+00 0.  1.
       -3    1    3    3    0  502 -0.82618834141E+03  0.14684159976E+03 -0.32562450477E+03  0.90010052728E+03  0.10100000352E+00 0. -1.
</event>
<event>
 5   0  0.2911632E-05  0.1696488E+04  0.7818609E-02  0.8763370E-01
       -1   -1    0    0    0  501  0.00000000000E+00  0.00000000000E+00  0.98104095979E+03  0.98104095981E+03  0.50400001928E-02 0.  1.
        1   -1    0    0  501    0  0.00000000000E+00  0.00000000000E+00 -0.73342290043E+03  0.73342290045E+03  0.50400001928E-02 0. -1.
    10030    2    1    2    0    0  0.00000000000E+00  0.00000000000E+00  0.24761805936E+03  0.17144638603E+04  0.16964880267E+04 0.  0.
        1    1    3    3  502    0 -0.18461571408E+03  0.47259874922E+03  0.81078040884E+03  0.95645042268E+03  0.50400001928E-02 0.  1.
       -1    1    3    3    0  502  0.18461571408E+03 -0.47259874922E+03 -0.56316234948E+03  0.75801343758E+03  0.50400001928E-02 0. -1.
</event>
<event>
 5   0  0.2966258E-05  0.1698925E+04  0.7818609E-02  0.8761977E-01
        1   -1    0    0  501    0  0.00000000000E+00  0.00000000000E+00  0.88049033504E+03  0.88049033505E+03  0.50400001928E-02 0. -1.
       -1   -1    0    0    0  501  0.00000000000E+00  0.00000000000E+00 -0.81952849614E+03  0.81952849615E+03  0.50400001928E-02 0.  1.
    10030    2    1    2    0    0  0.00000000000E+00  0.00000000000E+00  0.60961838901E+02  0.17000188312E+04  0.16989254488E+04 0.  0.
        4    1    3    3  502    0  0.51553289022E+03  0.59060092748E+02 -0.64250158023E+03  0.82587659426E+03  0.12699999809E+01 0.  1.
       -4    1    3    3    0  502 -0.51553289022E+03 -0.59060092748E+02  0.70346341913E+03  0.87414223694E+03  0.12699999809E+01 0. -1.
</event>
<event>
 5   0  0.5652631E-05  0.1700299E+04  0.7818609E-02  0.8761194E-01
       -2   -1    0    0    0  501  0.00000000000E+00  0.00000000000E+00  0.70779197226E+03  0.70779197227E+03  0.25500000920E-02 0. -1.
        2   -1    0    0  501    0  0.00000000000E+00  0.00000000000E+00 -0.10211391295E+04  0.10211391295E+04  0.25500000920E-02 0.  1.
    10030    2    1    2    0    0  0.00000000000E+00  0.00000000000E+00 -0.31334715723E+03  0.17289311018E+04  0.17002988895E+04 0.  0.
        2    1    3    3  502    0 -0.62077682292E+03 -0.81530713216E+02  0.42811343328E+03  0.75848021256E+03  0.25500000920E-02 0. -1.
       -2    1    3    3    0  502  0.62077682292E+03  0.81530713216E+02 -0.74146059051E+03  0.97045088921E+03  0.25500000920E-02 0.  1.
</event>
<event>
 5   0  0.5652631E-05  0.1700512E+04  0.7818609E-02  0.8761072E-01
        2   -1    0    0  501    0  0.00000000000E+00  0.00000000000E+00  0.51148959102E+03  0.51148959102E+03  0.25500000920E-02 0. -1.
       -2   -1    0    0    0  501  0.00000000000E+00  0.00000000000E+00 -0.14133924299E+04  0.14133924299E+04  0.25500000920E-02 0.  1.
    10030    2    1    2    0    0  0.00000000000E+00  0.00000000000E+00 -0.90190283884E+03  0.19248820209E+04  0.17005122945E+04 0.  0.
        2    1    3    3  502    0 -0.16965654978E+03  0.47259763543E+03 -0.12276352227E+04  0.13263559514E+04  0.25500000920E-02 0.  1.
       -2    1    3    3    0  502  0.16965654978E+03 -0.47259763543E+03  0.32573238386E+03  0.59852606944E+03  0.25500000920E-02 0. -1.
</event>
<event>
 5   0  0.5652631E-05  0.1699251E+04  0.7818609E-02  0.8761792E-01
       -2   -1    0    0    0  501  0.00000000000E+00  0.00000000000E+00  0.56666515302E+03  0.56666515303E+03  0.25500000920E-02 0.  1.
        2   -1    0    0  501    0  0.00000000000E+00  0.00000000000E+00 -0.12738803211E+04  0.12738803211E+04  0.25500000920E-02 0. -1.
    10030    2    1    2    0    0  0.00000000000E+00  0.00000000000E+00 -0.70721516803E+03  0.18405454741E+04  0.16992511140E+04 0.  0.
        2    1    3    3  502    0  0.76031295098E+03  0.14927557734E+03 -0.73116704619E+03  0.10653470002E+04  0.25500000920E-02 0. -1.
       -2    1    3    3    0  502 -0.76031295098E+03 -0.14927557734E+03  0.23951878154E+02  0.77519847387E+03  0.25500000920E-02 0.  1.
</event>
<event>
 5   0  0.2967704E-05  0.1695388E+04  0.7818609E-02  0.8763999E-01
        1   -1    0    0  501    0  0.00000000000E+00  0.00000000000E+00  0.17676318331E+04  0.17676318331E+04  0.50400001928E-02 0.  1.
       -1   -1    0    0    0  501  0.00000000000E+00  0.00000000000E+00 -0.40652399475E+03  0.40652399478E+03  0.50400001928E-02 0. -1.
    10030    2    1    2    0    0  0.00000000000E+00  0.00000000000E+00  0.13611078383E+04  0.21741558279E+04  0.16953875711E+04 0.  0.
        2    1    3    3  502    0  0.76775679585E+03 -0.30387762500E+03  0.43457256896E+03  0.93308382595E+03  0.25500000920E-02 0.  1.
       -2    1    3    3    0  502 -0.76775679585E+03  0.30387762500E+03  0.92653526936E+03  0.12410720019E+04  0.25500000920E-02 0. -1.
</event>
<event>
 5   0  0.2966258E-05  0.1691883E+04  0.7818609E-02  0.8766007E-01
        1   -1    0    0  501    0  0.00000000000E+00  0.00000000000E+00  0.20989024194E+04  0.20989024194E+04  0.50400001928E-02 0.  1.
       -1   -1    0    0    0  501  0.00000000000E+00  0.00000000000E+00 -0.34094813292E+03  0.34094813296E+03  0.50400001928E-02 0. -1.
    10030    2    1    2    0    0  0.00000000000E+00  0.00000000000E+00  0.17579542865E+04  0.24398505524E+04  0.16918828105E+04 0.  0.
        4    1    3    3  502    0 -0.54543395565E+03  0.58110735625E+03  0.46999395027E+03  0.92524585146E+03  0.12699999809E+01 0. -1.
       -4    1    3    3    0  502  0.54543395565E+03 -0.58110735625E+03  0.12879603362E+04  0.15146047009E+04  0.12699999809E+01 0.  1.
</event>
<event>
 5   0  0.2993769E-05  0.1705026E+04  0.7818609E-02  0.8758503E-01
        1   -1    0    0  501    0  0.00000000000E+00  0.00000000000E+00  0.18965570128E+04  0.18965570128E+04  0.50400001928E-02 0. -1.
       -1   -1    0    0    0  501  0.00000000000E+00  0.00000000000E+00 -0.38320948880E+03  0.38320948883E+03  0.50400001928E-02 0.  1.
    10030    2    1    2    0    0  0.00000000000E+00  0.00000000000E+00  0.15133475240E+04  0.22797665016E+04  0.17050262677E+04 0.  0.
        3    1    3    3  502    0 -0.22841297500E+03 -0.82616582372E+01 -0.34147826878E+03  0.41091137779E+03  0.10100000352E+00 0.  1.
       -3    1    3    3    0  502  0.22841297500E+03  0.82616582372E+01  0.18548257928E+04  0.18688551239E+04  0.10100000352E+00 0. -1.
</event>
<event>
 5   0  0.5859822E-05  0.1701058E+04  0.7818609E-02  0.8760761E-01
       -2   -1    0    0    0  501  0.00000000000E+00  0.00000000000E+00  0.38573655983E+03  0.38573655983E+03  0.25500000920E-02 0.  1.
        2   -1    0    0  501    0  0.00000000000E+00  0.00000000000E+00 -0.18753719693E+04  0.18753719693E+04  0.25500000920E-02 0. -1.
    10030    2    1    2    0    0  0.00000000000E+00  0.00000000000E+00 -0.14896354095E+04  0.22611085292E+04  0.17010579436E+04 0.  0.
        5    1    3    3  502    0 -0.78477844737E+03  0.32355080697E+03 -0.81534376984E+03  0.11770173699E+04  0.46999998093E+01 0.  1.
       -5    1    3    3    0  502  0.78477844737E+03 -0.32355080697E+03 -0.67429163965E+03  0.10840911592E+04  0.46999998093E+01 0. -1.
</event>
<event>
 5   0  0.2966258E-05  0.1696743E+04  0.7818609E-02  0.8763224E-01
       -1   -1    0    0    0  501  0.00000000000E+00  0.00000000000E+00  0.43604480429E+03  0.43604480432E+03  0.50400001928E-02 0.  1.
        1   -1    0    0  501    0  0.00000000000E+00  0.00000000000E+00 -0.16505961293E+04  0.16505961293E+04  0.50400001928E-02 0. -1.
    10030    2    1    2    0    0  0.00000000000E+00  0.00000000000E+00 -0.12145513251E+04  0.20866409337E+04  0.16967426042E+04 0.  0.
        4    1    3    3  502    0 -0.81320915221E+03 -0.23529765579E+03 -0.67528374491E+03  0.10829052872E+04  0.12699999809E+01 0.  1.
       -4    1    3    3    0  502  0.81320915221E+03  0.23529765579E+03 -0.53926758014E+03  0.10037356464E+04  0.12699999809E+01 0. -1.
</event>
<event>
 5   0  0.5859822E-05  0.1724126E+04  0.7818609E-02  0.8747723E-01
       -2   -1    0    0    0  501  0.00000000000E+00  0.00000000000E+00  0.16335352029E+04  0.16335352029E+04  0.25500000920E-02 0. -1.
        2   -1    0    0  501    0  0.00000000000E+00  0.00000000000E+00 -0.45493534479E+03  0.45493534480E+03  0.25500000920E-02 0.  1.
    10030    2    1    2    0    0  0.00000000000E+00  0.00000000000E+00  0.11785998581E+04  0.20884705477E+04  0.17241263304E+04 0.  0.
        5    1    3    3  502    0  0.69768879589E+03  0.49847270623E+03  0.69686985057E+03  0.11049408914E+04  0.46999998093E+01 0.  1.
       -5    1    3    3    0  502 -0.69768879589E+03 -0.49847270623E+03  0.48173000757E+03  0.98352965637E+03  0.46999998093E+01 0. -1.
</event>
<event>
 5   0  0.2966258E-05  0.1699586E+04  0.7818609E-02  0.8761600E-01
        1   -1    0    0  501    0  0.00000000000E+00  0.00000000000E+00  0.21185213162E+04  0.21185213162E+04  0.50400001928E-02 0.  1.
       -1   -1    0    0    0  501  0.00000000000E+00  0.00000000000E+00 -0.34087379628E+03  0.34087379631E+03  0.50400001928E-02 0. -1.
    10030    2    1    2    0    0  0.00000000000E+00  0.00000000000E+00  0.17776475199E+04  0.24593951125E+04  0.16995863068E+04 0.  0.
        4    1    3    3  502    0 -0.62774537870E+03 -0.49423162945E+03  0.13077646605E+04  0.15325074826E+04  0.12699999809E+01 0.  1.
       -4    1    3    3    0  502  0.62774537870E+03  0.49423162945E+03  0.46988285943E+03  0.92688762993E+03  0.12699999809E+01 0. -1.
</event>
<event>
 5   0  0.2987859E-05  0.1702518E+04  0.7818609E-02  0.8759930E-01
        1   -1    0    0  501    0  0.00000000000E+00  0.00000000000E+00  0.12237875770E+04  0.12237875770E+04  0.50400001928E-02 0.  1.
       -1   -1    0    0    0  501  0.00000000000E+00  0.00000000000E+00 -0.59213046676E+03  0.59213046678E+03  0.50400001928E-02 0. -1.
    10030    2    1    2    0    0  0.00000000000E+00  0.00000000000E+00  0.63165711027E+03  0.18159180438E+04  0.17025180284E+04 0.  0.
        5    1    3    3  502    0  0.55569306254E+03 -0.28392702091E+03 -0.30170892679E+03  0.69315200314E+03  0.46999998093E+01 0. -1.
       -5    1    3    3    0  502 -0.55569306254E+03  0.28392702091E+03  0.93336603706E+03  0.11227660407E+04  0.46999998093E+01 0.  1.
</event>
<event>
 5   0  0.2993769E-05  0.1699209E+04  0.7818609E-02  0.8761816E-01
        1   -1    0    0  501    0  0.00000000000E+00  0.00000000000E+00  0.86657984188E+03  0.86657984189E+03  0.50400001928E-02 0. -1.
       -1   -1    0    0    0  501  0.00000000000E+00  0.00000000000E+00 -0.83296152592E+03  0.83296152594E+03  0.50400001928E-02 0.  1.
    10030    2    1    2    0    0  0.00000000000E+00  0.00000000000E+00  0.33618315956E+02  0.16995413678E+04  0.16992088364E+04 0.  0.
        3    1    3    3  502    0 -0.54159947153E+03  0.65376862310E+03  0.49743662088E+02  0.85042215530E+03  0.10100000352E+00 0.  1.
       -3    1    3    3    0  502  0.54159947153E+03 -0.65376862310E+03 -0.16125346133E+02  0.84911921253E+03  0.10100000352E+00 0. -1.
</event>
<event>
 5   0  0.2993769E-05  0.1695702E+04  0.7818609E-02  0.8763820E-01
       -1   -1    0    0    0  501  0.00000000000E+00  0.00000000000E+00  0.61365389369E+03  0.61365389371E+03  0.50400001928E-02 0. -1.
        1   -1    0    0  501    0  0.00000000000E+00  0.00000000000E+00 -0.11714273756E+04  0.11714273756E+04  0.50400001928E-02 0.  1.
    10030    2    1    2    0    0  0.00000000000E+00  0.00000000000E+00 -0.55777348192E+03  0.17850812693E+04  0.16957015896E+04 0.  0.
        3    1    3    3  502    0 -0.44279643337E+03 -0.70757745841E+03 -0.12233209146E+03  0.84362295598E+03  0.10100000352E+00 0. -1.
       -3    1    3    3    0  502  0.44279643337E+03  0.70757745841E+03 -0.43544139047E+03  0.94145831336E+03  0.10100000352E+00 0.  1.
</event>
<event>
 5   0  0.5755321E-05  0.1699505E+04  0.7818609E-02  0.8761647E-01
       -2   -1    0    0    0  501  0.00000000000E+00  0.00000000000E+00  0.41481068678E+03  0.41481068679E+03  0.25500000920E-02 0.  1.
        2   -1    0    0  501    0  0.00000000000E+00  0.00000000000E+00 -0.17407447805E+04  0.17407447805E+04  0.25500000920E-02 0. -1.
    10030    2    1    2    0    0  0.00000000000E+00  0.00000000000E+00 -0.13259340938E+04  0.21555554673E+04  0.16995052668E+04 0.  0.
        4    1    3    3  502    0  0.63933056179E+03  0.45861665214E+03 -0.10700342403E+04  0.13281745703E+04  0.12699999809E+01 0. -1.
       -4    1    3    3    0  502 -0.63933056179E+03 -0.45861665214E+03 -0.25589985342E+03  0.82738089701E+03  0.12699999809E+01 0.  1.
</event>
<event>
 5   0  0.5652631E-05  0.1701240E+04  0.7818609E-02  0.8760658E-01
        2   -1    0    0  501    0  0.00000000000E+00  0.00000000000E+00  0.28730926296E+04  0.28730926296E+04  0.25500000920E-02 0.  1.
       -2   -1    0    0    0  501  0.00000000000E+00  0.00000000000E+00 -0.25183813164E+03  0.25183813166E+03  0.25500000920E-02 0. -1.
    10030    2    1    2    0    0  0.00000000000E+00  0.00000000000E+00  0.26212544980E+04  0.31249307613E+04  0.17012398772E+04 0.  0.
        2    1    3    3  502    0 -0.46784532288E+03  0.47439792979E+03  0.33931194205E+03  0.74770665100E+03  0.25500000920E-02 0. -1.
       -2    1    3    3    0  502  0.46784532288E+03 -0.47439792979E+03  0.22819425559E+04  0.23772241103E+04  0.25500000920E-02 0.  1.
</event>
<event>
 5   0  0.2993769E-05  0.1683847E+04  0.7818609E-02  0.8770631E-01
        1   -1    0    0  501    0  0.00000000000E+00  0.00000000000E+00  0.15903121449E+04  0.15903121449E+04  0.50400001928E-02 0.  1.
       -1   -1    0    0    0  501  0.00000000000E+00  0.00000000000E+00 -0.44572104442E+03  0.44572104445E+03  0.50400001928E-02 0. -1.
    10030    2    1    2    0    0  0.00000000000E+00  0.00000000000E+00  0.11445911004E+04  0.20360331893E+04  0.16838474874E+04 0.  0.
        3    1    3    3  502    0 -0.35975651994E+03 -0.63233361615E+03  0.59914600678E+02  0.72997282506E+03  0.10100000352E+00 0. -1.
       -3    1    3    3    0  502  0.35975651994E+03  0.63233361615E+03  0.10846764998E+04  0.13060603643E+04  0.10100000352E+00 0.  1.
</event>
<event>
 5   0  0.5671132E-05  0.1699947E+04  0.7818609E-02  0.8761395E-01
       -2   -1    0    0    0  501  0.00000000000E+00  0.00000000000E+00  0.65020787786E+03  0.65020787787E+03  0.25500000920E-02 0. -1.
        2   -1    0    0  501    0  0.00000000000E+00  0.00000000000E+00 -0.11111132532E+04  0.11111132532E+04  0.25500000920E-02 0.  1.
    10030    2    1    2    0    0  0.00000000000E+00  0.00000000000E+00 -0.46090537534E+03  0.17613211311E+04  0.16999465762E+04 0.  0.
        3    1    3    3  502    0  0.46350984671E+03  0.71107687689E+03 -0.18431549101E+03  0.86858730896E+03  0.10100000352E+00 0. -1.
       -3    1    3    3    0  502 -0.46350984671E+03 -0.71107687689E+03 -0.27658988433E+03  0.89273382212E+03  0.10100000352E+00 0.  1.
</event>
<event>
 5   0  0.2911632E-05  0.1701226E+04  0.7818609E-02  0.8760665E-01
       -1   -1    0    0    0  501  0.00000000000E+00  0.00000000000E+00  0.13922881449E+04  0.13922881449E+04  0.50400001928E-02 0. -1.
        1   -1    0    0  501    0  0.00000000000E+00  0.00000000000E+00 -0.51967873860E+03  0.51967873862E+03  0.50400001928E-02 0.  1.
    10030    2    1    2    0    0  0.00000000000E+00  0.00000000000E+00  0.87260940627E+03  0.19119668835E+04  0.17012260836E+04 0.  0.
        1    1    3    3  502    0  0.61738606272E+03  0.58429448083E+03  0.47143290053E+03  0.97201572543E+03  0.50400001928E-02 0.  1.
       -1    1    3    3    0  502 -0.61738606272E+03 -0.58429448083E+03  0.40117650574E+03  0.93995115806E+03  0.50400001928E-02 0. -1.
</event>
<event>
 5   0  0.2966258E-05  0.1701519E+04  0.7818609E-02  0.8760499E-01
       -1   -1    0    0    0  501  0.00000000000E+00  0.00000000000E+00  0.68997455593E+03  0.68997455595E+03  0.50400001928E-02 0. -1.
        1   -1    0    0  501    0  0.00000000000E+00  0.00000000000E+00 -0.10490120066E+04  0.10490120066E+04  0.50400001928E-02 0.  1.
    10030    2    1    2    0    0  0.00000000000E+00  0.00000000000E+00 -0.35903745069E+03  0.17389865626E+04  0.17015188432E+04 0.  0.
        4    1    3    3  502    0 -0.73349963784E+03  0.18844732253E+03 -0.57568288652E+03  0.95128676581E+03  0.12699999809E+01 0.  1.
       -4    1    3    3    0  502  0.73349963784E+03 -0.18844732253E+03  0.21664543582E+03  0.78769979677E+03  0.12699999809E+01 0. -1.
</event>
<event>
 5   0  0.2987859E-05  0.1700036E+04  0.7818609E-02  0.8761344E-01
       -1   -1    0    0    0  501  0.00000000000E+00  0.00000000000E+00  0.50820075425E+03  0.50820075427E+03  0.50400001928E-02 0. -1.
        1   -1    0    0  501    0  0.00000000000E+00  0.00000000000E+00 -0.14217426822E+04  0.14217426822E+04  0.50400001928E-02 0.  1.
    10030    2    1    2    0    0  0.00000000000E+00  0.00000000000E+00 -0.91354192796E+03  0.19299434365E+04  0.17000361214E+04 0.  0.
        5    1    3    3  502    0 -0.81582312366E+03  0.23827119736E+03 -0.44205307221E+03  0.95800497975E+03  0.46999998093E+01 0.  1.
       -5    1    3    3    0  502  0.81582312366E+03 -0.23827119736E+03 -0.47148885576E+03  0.97193845674E+03  0.46999998093E+01 0. -1.
</event>
<event>
 5   0  0.5671132E-05  0.1646127E+04  0.7818609E-02  0.8792701E-01
       -2   -1    0    0    0  501  0.00000000000E+00  0.00000000000E+00  0.12188792746E+04  0.12188792746E+04  0.25500000920E-02 0.  1.
        2   -1    0    0  501    0  0.00000000000E+00  0.00000000000E+00 -0.55578422785E+03  0.55578422785E+03  0.25500000920E-02 0. -1.
    10030    2    1    2    0    0  0.00000000000E+00  0.00000000000E+00  0.66309504677E+03  0.17746635025E+04  0.16461274270E+04 0.  0.
        3    1    3    3  502    0 -0.66336352680E+03  0.42273191163E+03  0.70392006310E+02  0.78975216527E+03  0.10100000352E+00 0. -1.
       -3    1    3    3    0  502  0.66336352680E+03 -0.42273191163E+03  0.59270304046E+03  0.98491133721E+03  0.10100000352E+00 0.  1.
</event>
<event>
 5   0  0.2911632E-05  0.1699165E+04  0.7818609E-02  0.8761841E-01
       -1   -1    0    0    0  501  0.00000000000E+00  0.00000000000E+00  0.85404734633E+03  0.85404734635E+03  0.50400001928E-02 0. -1.
        1   -1    0    0  501    0  0.00000000000E+00  0.00000000000E+00 -0.84514114356E+03  0.84514114357E+03  0.50400001928E-02 0.  1.
    10030    2    1    2    0    0  0.00000000000E+00  0.00000000000E+00  0.89062027766E+01  0.16991884899E+04  0.16991651491E+04 0.  0.
        1    1    3    3  502    0  0.24466419706E+03  0.96438714982E+02 -0.80341290599E+03  0.84535985983E+03  0.50400001928E-02 0.  1.
       -1    1    3    3    0  502 -0.24466419706E+03 -0.96438714982E+02  0.81231910877E+03  0.85382863009E+03  0.50400001928E-02 0. -1.
</event>
<event>
 5   0  0.5821584E-05  0.1701749E+04  0.7818609E-02  0.8760367E-01
        2   -1    0    0  501    0  0.00000000000E+00  0.00000000000E+00  0.15593407880E+04  0.15593407880E+04  0.25500000920E-02 0. -1.
       -2   -1    0    0    0  501  0.00000000000E+00  0.00000000000E+00 -0.46429091787E+03  0.46429091787E+03  0.25500000920E-02 0.  1.
    10030    2    1    2    0    0  0.00000000000E+00  0.00000000000E+00  0.10950498702E+04  0.20236317059E+04  0.17017494125E+04 0.  0.
        1    1    3    3  502    0  0.83833976335E+03 -0.13990356435E+03  0.59510867819E+03  0.10375648919E+04  0.50400001928E-02 0. -1.
       -1    1    3    3    0  502 -0.83833976335E+03  0.13990356435E+03  0.49994119197E+03  0.98606681395E+03  0.50400001928E-02 0.  1.
</event>
<event>
 5   0  0.2966258E-05  0.1717536E+04  0.7818609E-02  0.8751425E-01
        1   -1    0    0  501    0  0.00000000000E+00  0.00000000000E+00  0.10935528455E+04  0.10935528455E+04  0.50400001928E-02 0. -1.
       -1   -1    0    0    0  501  0.00000000000E+00  0.00000000000E+00 -0.67439151163E+03  0.67439151165E+03  0.50400001928E-02 0.  1.
    10030    2    1    2    0    0  0.00000000000E+00  0.00000000000E+00  0.41916133383E+03  0.17679443571E+04  0.17175363245E+04 0.  0.
        4    1    3    3  502    0  0.83895215328E+01  0.10092174881E+03 -0.66822267285E+03  0.67585407956E+03  0.12699999809E+01 0.  1.
       -4    1    3    3    0  502 -0.83895215328E+01 -0.10092174881E+03  0.10873840067E+04  0.10920902776E+04  0.12699999809E+01 0. -1.
</event>
<event>
 5   0  0.2987859E-05  0.1700939E+04  0.7818609E-02  0.8760829E-01
       -1   -1    0    0    0  501  0.00000000000E+00  0.00000000000E+00  0.18759654602E+04  0.18759654602E+04  0.50400001928E-02 0. -1.
        1   -1    0    0  501    0  0.00000000000E+00  0.00000000000E+00 -0.38556048210E+03  0.38556048213E+03  0.50400001928E-02 0.  1.
    10030    2    1    2    0    0  0.00000000000E+00  0.00000000000E+00  0.14904049781E+04  0.22615259423E+04  0.17009387376E+04 0.  0.
        5    1    3    3  502    0 -0.31716265503E+03 -0.77789505549E+03  0.56899895937E+03  0.10146402184E+04  0.46999998093E+01 0.  1.
       -5    1    3    3    0  502  0.31716265503E+03  0.77789505549E+03  0.92140601870E+03  0.12468857239E+04  0.46999998093E+01 0. -1.
</event>
<event>
 5   0  0.2967704E-05  0.1699903E+04  0.7818609E-02  0.8761419E-01
        1   -1    0    0  501    0  0.00000000000E+00  0.00000000000E+00  0.82946555022E+03  0.82946555023E+03  0.50400001928E-02 0. -1.
       -1   -1    0    0    0  501  0.00000000000E+00  0.00000000000E+00 -0.87094380682E+03  0.87094380683E+03  0.50400001928E-02 0.  1.
    10030    2    1    2    0    0  0.00000000000E+00  0.00000000000E+00 -0.41478256596E+02  0.17004093571E+04  0.16999033901E+04 0.  0.
        2    1    3    3  502    0 -0.66033682591E+03  0.51286372947E+03  0.13209363570E+03  0.84647661354E+03  0.25500000920E-02 0.  1.
       -2    1    3    3    0  502  0.66033682591E+03 -0.51286372947E+03 -0.17357189230E+03  0.85393274353E+03  0.25500000920E-02 0. -1.
</event>
<event>
 5   0  0.2966258E-05  0.1694653E+04  0.7818609E-02  0.8764420E-01
        1   -1    0    0  501    0  0.00000000000E+00  0.00000000000E+00  0.55943191315E+03  0.55943191317E+03  0.50400001928E-02 0. -1.
       -1   -1    0    0    0  501  0.00000000000E+00  0.00000000000E+00 -0.12833775869E+04  0.12833775869E+04  0.50400001928E-02 0.  1.
    10030    2    1    2    0    0  0.00000000000E+00  0.00000000000E+00 -0.72394567375E+03  0.18428095001E+04  0.16946532138E+04 0.  0.
        4    1    3    3  502    0 -0.74031713253E+03  0.41094331765E+03 -0.39664959379E+03  0.93502747564E+03  0.12699999809E+01 0.  1.
       -4    1    3    3    0  502  0.74031713253E+03 -0.41094331765E+03 -0.32729607996E+03  0.90778202444E+03  0.12699999809E+01 0. -1.
</event>
<event>
 5   0  0.2987859E-05  0.1719074E+04  0.7818609E-02  0.8750560E-01
       -1   -1    0    0    0  501  0.00000000000E+00  0.00000000000E+00  0.10917566711E+04  0.10917566711E+04  0.50400001928E-02 0.  1.
        1   -1    0    0  501    0  0.00000000000E+00  0.00000000000E+00 -0.67671077931E+03  0.67671077933E+03  0.50400001928E-02 0. -1.
    10030    2    1    2    0    0  0.00000000000E+00  0.00000000000E+00  0.41504589181E+03  0.17684674505E+04  0.17190735967E+04 0.  0.
        5    1    3    3  502    0 -0.87475931350E+02  0.13309540522E+03  0.10764307876E+04  0.10881598026E+04  0.46999998093E+01 0.  1.
       -5    1    3    3    0  502  0.87475931350E+02 -0.13309540522E+03 -0.66138489577E+03  0.68030764791E+03  0.46999998093E+01 0. -1.
</event>
<event>
 5   0  0.5652631E-05  0.1699659E+04  0.7818609E-02  0.8761559E-01
        2   -1    0    0  501    0  0.00000000000E+00  0.00000000000E+00  0.10549166421E+04  0.10549166421E+04  0.25500000920E-02 0.  1.
       -2   -1    0    0    0  501  0.00000000000E+00  0.00000000000E+00 -0.68461332571E+03  0.68461332572E+03  0.25500000920E-02 0. -1.
    10030    2    1    2    0    0  0.00000000000E+00  0.00000000000E+00  0.37030331643E+03  0.17395299679E+04  0.16996587784E+04 0.  0.
        2    1    3    3  502    0 -0.43861406002E+03 -0.60479731397E+03  0.59968123122E+03  0.95800817518E+03  0.25500000920E-02 0.  1.
       -2    1    3    3    0  502  0.43861406002E+03  0.60479731397E+03 -0.22937791479E+03  0.78152179268E+03  0.25500000920E-02 0. -1.
</event>
<event>
 5   0  0.2911632E-05  0.1661586E+04  0.7818609E-02  0.8783581E-01
       -1   -1    0    0    0  501  0.00000000000E+00  0.00000000000E+00  0.10488605365E+04  0.10488605365E+04  0.50400001928E-02 0. -1.
        1   -1    0    0  501    0  0.00000000000E+00  0.00000000000E+00 -0.65806392848E+03  0.65806392850E+03  0.50400001928E-02 0.  1.
    10030    2    1    2    0    0  0.00000000000E+00  0.00000000000E+00  0.39079660803E+03  0.17069244650E+04  0.16615863325E+04 0.  0.
        1    1    3    3  502    0 -0.49052150514E+03 -0.22025197708E+02 -0.49305262483E+03  0.69584290412E+03  0.50400001928E-02 0.  1.
       -1    1    3    3    0  502  0.49052150514E+03  0.22025197708E+02  0.88384923286E+03  0.10110815609E+04  0.50400001928E-02 0. -1.
</event>
<event>
 5   0  0.2911632E-05  0.1700332E+04  0.7818609E-02  0.8761175E-01
       -1   -1    0    0    0  501  0.00000000000E+00  0.00000000000E+00  0.86370010213E+03  0.86370010214E+03  0.50400001928E-02 0.  1.
        1   -1    0    0  501    0  0.00000000000E+00  0.00000000000E+00 -0.83684411562E+03  0.83684411564E+03  0.50400001928E-02 0. -1.
    10030    2    1    2    0    0  0.00000000000E+00  0.00000000000E+00  0.26855986505E+02  0.17005442178E+04  0.17003321418E+04 0.  0.
        1    1    3    3  502    0 -0.38144837616E+03  0.26740338433E+03  0.72469523495E+03  0.86150485617E+03  0.50400001928E-02 0.  1.
       -1    1    3    3    0  502  0.38144837616E+03 -0.26740338433E+03 -0.69783924844E+03  0.83903936160E+03  0.50400001928E-02 0. -1.
</event>
<event>
 5   0  0.2911632E-05  0.1749741E+04  0.7818609E-02  0.8733493E-01
       -1   -1    0    0    0  501  0.00000000000E+00  0.00000000000E+00  0.75420847293E+03  0.75420847295E+03  0.50400001928E-02 0.  1.
        1   -1    0    0  501    0  0.00000000000E+00  0.00000000000E+00 -0.10148362549E+04  0.10148362549E+04  0.50400001928E-02 0. -1.
    10030    2    1    2    0    0  0.00000000000E+00  0.00000000000E+00 -0.26062778195E+03  0.17690447278E+04  0.17497406689E+04 0.  0.
        1    1    3    3  502    0 -0.33217445519E+03 -0.33872170548E+03  0.61286436740E+03  0.77503225436E+03  0.50400001928E-02 0.  1.
       -1    1    3    3    0  502  0.33217445519E+03  0.33872170548E+03 -0.87349214935E+03  0.99401247348E+03  0.50400001928E-02 0. -1.
</event>
<event>
 5   0  0.5755321E-05  0.1700051E+04  0.7818609E-02  0.8761335E-01
       -2   -1    0    0    0  501  0.00000000000E+00  0.00000000000E+00  0.64498376827E+03  0.64498376827E+03  0.25500000920E-02 0. -1.
        2   -1    0    0  501    0  0.00000000000E+00  0.00000000000E+00 -0.11202500981E+04  0.11202500981E+04  0.25500000920E-02 0.  1.
    10030    2    1    2    0    0  0.00000000000E+00  0.00000000000E+00 -0.47526632986E+03  0.17652338664E+04  0.17000507401E+04 0.  0.
        4    1    3    3  502    0 -0.36559194546E+03  0.40319310744E+03  0.44033280786E+03  0.70008338578E+03  0.12699999809E+01 0.  1.
       -4    1    3    3    0  502  0.36559194546E+03 -0.40319310744E+03 -0.91559913771E+03  0.10651504806E+04  0.12699999809E+01 0. -1.
</event>
<event>
 5   0  0.2993769E-05  0.1699097E+04  0.7818609E-02  0.8761879E-01
       -1   -1    0    0    0  501  0.00000000000E+00  0.00000000000E+00  0.38516337871E+03  0.38516337875E+03  0.50400001928E-02 0.  1.
        1   -1    0    0  501    0  0.00000000000E+00  0.00000000000E+00 -0.18738357654E+04  0.18738357654E+04  0.50400001928E-02 0. -1.
    10030    2    1    2    0    0  0.00000000000E+00  0.00000000000E+00 -0.14886723867E+04  0.22589991442E+04  0.16990973069E+04 0.  0.
        3    1    3    3  502    0 -0.11497899510E+03 -0.80523031076E+01  0.37471968299E+03  0.39204573702E+03  0.10100000352E+00 0.  1.
       -3    1    3    3    0  502  0.11497899510E+03  0.80523031076E+01 -0.18633920697E+04  0.18669534071E+04  0.10100000352E+00 0. -1.
</event>
<event>
 5   0  0.5755321E-05  0.1699278E+04  0.7818609E-02  0.8761776E-01
       -2   -1    0    0    0  501  0.00000000000E+00  0.00000000000E+00  0.63012296951E+03  0.63012296951E+03  0.25500000920E-02 0.  1.
        2   -1    0    0  501    0  0.00000000000E+00  0.00000000000E+00 -0.11456278023E+04  0.11456278023E+04  0.25500000920E-02 0. -1.
    10030    2    1    2    0    0  0.00000000000E+00  0.00000000000E+00 -0.51550483277E+03  0.17757507718E+04  0.16992779558E+04 0.  0.
        4    1    3    3  502    0  0.76614533568E+02 -0.82276160984E+03 -0.51173703627E+02  0.82790507561E+03  0.12699999809E+01 0. -1.
       -4    1    3    3    0  502 -0.76614533568E+02  0.82276160984E+03 -0.46433112914E+03  0.94784569618E+03  0.12699999809E+01 0.  1.
</event>
<event>
 5   0  0.5671132E-05  0.1700065E+04  0.7818609E-02  0.8761327E-01
        2   -1    0    0  501    0  0.00000000000E+00  0.00000000000E+00  0.98670283301E+03  0.98670283302E+03  0.25500000920E-02 0. -1.
       -2   -1    0    0    0  501  0.00000000000E+00  0.00000000000E+00 -0.73229309328E+03  0.73229309329E+03  0.25500000920E-02 0.  1.
    10030    2    1    2    0    0  0.00000000000E+00  0.00000000000E+00  0.25440973973E+03  0.17189959263E+04  0.17000654926E+04 0.  0.
        3    1    3    3  502    0 -0.50813786023E+03  0.48407840286E+03 -0.35773923852E+03  0.78772670267E+03  0.10100000352E+00 0.  1.
       -3    1    3    3    0  502  0.50813786023E+03 -0.48407840286E+03  0.61214897826E+03  0.93126922364E+03  0.10100000352E+00 0. -1.
</event>
<event>
 5   0  0.5821584E-05  0.1701210E+04  0.7818609E-02  0.8760675E-01
       -2   -1    0    0    0  501  0.00000000000E+00  0.00000000000E+00  0.13263191127E+04  0.13263191127E+04  0.25500000920E-02 0.  1.
        2   -1    0    0  501    0  0.00000000000E+00  0.00000000000E+00 -0.54551613417E+03  0.54551613417E+03  0.25500000920E-02 0. -1.
    10030    2    1    2    0    0  0.00000000000E+00  0.00000000000E+00  0.78080297850E+03  0.18718352468E+04  0.17012095403E+04 0.  0.
        1    1    3    3  502    0  0.83130175110E+03  0.14627642059E+03  0.50616338259E+03  0.98420565052E+03  0.50400001928E-02 0.  1.
       -1    1    3    3    0  502 -0.83130175110E+03 -0.14627642059E+03  0.27463959591E+03  0.88762959633E+03  0.50400001928E-02 0. -1.
</event>
<event>
 5   0  0.5755321E-05  0.1699948E+04  0.7818609E-02  0.8761394E-01
       -2   -1    0    0    0  501  0.00000000000E+00  0.00000000000E+00  0.84799257494E+03  0.84799257495E+03  0.25500000920E-02 0.  1.
        2   -1    0    0  501    0  0.00000000000E+00  0.00000000000E+00 -0.85195981105E+03  0.85195981106E+03  0.25500000920E-02 0. -1.
    10030    2    1    2    0    0  0.00000000000E+00  0.00000000000E+00 -0.39672361082E+01  0.16999523860E+04  0.16999477568E+04 0.  0.
        4    1    3    3  502    0 -0.84858062674E+03  0.42781284818E+02 -0.25106453787E+02  0.85003015554E+03  0.12699999809E+01 0.  1.
       -4    1    3    3    0  502  0.84858062674E+03 -0.42781284818E+02  0.21139217678E+02  0.84992223046E+03  0.12699999809E+01 0. -1.
</event>
<event>
 5   0  0.2993769E-05  0.1703017E+04  0.7818609E-02  0.8759646E-01
        1   -1    0    0  501    0  0.00000000000E+00  0.00000000000E+00  0.16447817260E+04  0.16447817260E+04  0.50400001928E-02 0.  1.
       -1   -1    0    0    0  501  0.00000000000E+00  0.00000000000E+00 -0.44082846516E+03  0.44082846519E+03  0.50400001928E-02 0. -1.
    10030    2    1    2    0    0  0.00000000000E+00  0.00000000000E+00  0.12039532609E+04  0.20856101912E+04  0.17030168570E+04 0.  0.
        3    1    3    3  502    0 -0.47468108649E+03 -0.67117737567E+02 -0.25985396143E+03  0.54529901525E+03  0.10100000352E+00 0. -1.
       -3    1    3    3    0  502  0.47468108649E+03  0.67117737567E+02  0.14638072223E+04  0.15403111760E+04  0.10100000352E+00 0.  1.
</event>
<event>
 5   0  0.5671132E-05  0.1704301E+04  0.7818609E-02  0.8758915E-01
       -2   -1    0    0    0  501  0.00000000000E+00  0.00000000000E+00  0.10730662466E+04  0.10730662466E+04  0.25500000920E-02 0. -1.
        2   -1    0    0  501    0  0.00000000000E+00  0.00000000000E+00 -0.67671519611E+03  0.67671519611E+03  0.25500000920E-02 0.  1.
    10030    2    1    2    0    0  0.00000000000E+00  0.00000000000E+00  0.39635105052E+03  0.17497814427E+04  0.17043007194E+04 0.  0.
        3    1    3    3  502    0  0.25608183992E+03  0.32391030275E+03 -0.56714591199E+03  0.70153423911E+03  0.10100000352E+00 0.  1.
       -3    1    3    3    0  502 -0.25608183992E+03 -0.32391030275E+03  0.96349696250E+03  0.10482472036E+04  0.10100000352E+00 0. -1.
</event>
<event>
 5   0  0.2993769E-05  0.1697974E+04  0.7818609E-02  0.8762521E-01
       -1   -1    0    0    0  501  0.00000000000E+00  0.00000000000E+00  0.92452587058E+03  0.92452587060E+03  0.50400001928E-02 0. -1.
        1   -1    0    0  501    0  0.00000000000E+00  0.00000000000E+00 -0.77962005729E+03  0.77962005731E+03  0.50400001928E-02 0.  1.
    10030    2    1    2    0    0  0.00000000000E+00  0.00000000000E+00  0.14490581329E+03  0.17041459279E+04  0.16979739836E+04 0.  0.
        3    1    3    3  502    0 -0.12586492535E+02  0.75630278244E+03 -0.31446960372E+03  0.81917242409E+03  0.10100000352E+00 0.  1.
       -3    1    3    3    0  502  0.12586492535E+02 -0.75630278244E+03  0.45937541701E+03  0.88497350382E+03  0.10100000352E+00 0. -1.
</event>
<event>
 5   0  0.5755321E-05  0.1699027E+04  0.7818609E-02  0.8761919E-01
        2   -1    0    0  501    0  0.00000000000E+00  0.00000000000E+00  0.12394850590E+04  0.12394850590E+04  0.25500000920E-02 0. -1.
       -2   -1    0    0    0  501  0.00000000000E+00  0.00000000000E+00 -0.58223629896E+03  0.58223629897E+03  0.25500000920E-02 0.  1.
    10030    2    1    2    0    0  0.00000000000E+00  0.00000000000E+00  0.65724876001E+03  0.18217213579E+04  0.16990270079E+04 0.  0.
        4    1    3    3  502    0 -0.79275458241E+03  0.23962036821E+03  0.12576935829E+03  0.83767373910E+03  0.12699999809E+01 0. -1.
       -4    1    3    3    0  502  0.79275458241E+03 -0.23962036821E+03  0.53147940171E+03  0.98404761884E+03  0.12699999809E+01 0.  1.
</event>
<event>
 5   0  0.5652631E-05  0.1696022E+04  0.7818609E-02  0.8763636E-01
       -2   -1    0    0    0  501  0.00000000000E+00  0.00000000000E+00  0.78715973669E+03  0.78715973669E+03  0.25500000920E-02 0. -1.
        2   -1    0    0  501    0  0.00000000000E+00  0.00000000000E+00 -0.91356660651E+03  0.91356660651E+03  0.25500000920E-02 0.  1.
    10030    2    1    2    0    0  0.00000000000E+00  0.00000000000E+00 -0.12640686982E+03  0.17007263432E+04  0.16960222280E+04 0.  0.
        2    1    3    3  502    0  0.49696688738E+03  0.95028256589E+02  0.61921064026E+03  0.79964259124E+03  0.25500000920E-02 0. -1.
       -2    1    3    3    0  502 -0.49696688738E+03 -0.95028256589E+02 -0.74561751008E+03  0.90108375196E+03  0.25500000920E-02 0.  1.
</event>
<event>
 5   0  0.5821584E-05  0.1698071E+04  0.7818609E-02  0.8762465E-01
       -2   -1    0    0    0  501  0.00000000000E+00  0.00000000000E+00  0.65383049438E+03  0.65383049439E+03  0.25500000920E-02 0.  1.
        2   -1    0    0  501    0  0.00000000000E+00  0.00000000000E+00 -0.11025197105E+04  0.11025197105E+04  0.25500000920E-02 0. -1.
    10030    2    1    2    0    0  0.00000000000E+00  0.00000000000E+00 -0.44868921615E+03  0.17563502049E+04  0.16980706786E+04 0.  0.
        1    1    3    3  502    0 -0.50734318759E+03 -0.86721282028E+02  0.47406592390E+03  0.69975437904E+03  0.50400001928E-02 0.  1.
       -1    1    3    3    0  502  0.50734318759E+03  0.86721282028E+02 -0.92275514005E+03  0.10565958259E+04  0.50400001928E-02 0. -1.
</event>
<event>
 5   0  0.5671132E-05  0.1700095E+04  0.7818609E-02  0.8761310E-01
       -2   -1    0    0    0  501  0.00000000000E+00  0.00000000000E+00  0.52686937124E+03  0.52686937125E+03  0.25500000920E-02 0.  1.
        2   -1    0    0  501    0  0.00000000000E+00  0.00000000000E+00 -0.13714609162E+04  0.13714609162E+04  0.25500000920E-02 0. -1.
    10030    2    1    2    0    0  0.00000000000E+00  0.00000000000E+00 -0.84459154492E+03  0.18983302874E+04  0.17000949980E+04 0.  0.
        3    1    3    3  502    0 -0.10499461195E+03  0.60903650784E+03  0.22939403640E+03  0.65921997130E+03  0.10100000352E+00 0.  1.
       -3    1    3    3    0  502  0.10499461195E+03 -0.60903650784E+03 -0.10739855813E+04  0.12391103161E+04  0.10100000352E+00 0. -1.
</event>
<event>
 5   0  0.5652631E-05  0.1742075E+04  0.7818609E-02  0.8737724E-01
       -2   -1    0    0    0  501  0.00000000000E+00  0.00000000000E+00  0.67412264080E+03  0.67412264080E+03  0.25500000920E-02 0. -1.
        2   -1    0    0  501    0  0.00000000000E+00  0.00000000000E+00 -0.11254728054E+04  0.11254728054E+04  0.25500000920E-02 0.  1.
    10030    2    1    2    0    0  0.00000000000E+00  0.00000000000E+00 -0.45135016462E+03  0.17995954462E+04  0.17420754286E+04 0.  0.
        2    1    3    3  502    0  0.86337927739E+03  0.92916572541E+02 -0.29611323506E+03  0.91746406691E+03  0.25500000920E-02 0. -1.
       -2    1    3    3    0  502 -0.86337927739E+03 -0.92916572541E+02 -0.15523692956E+03  0.88213137932E+03  0.25500000920E-02 0.  1.
</event>
<event>
 5   0  0.2967704E-05  0.1696012E+04  0.7818609E-02  0.8763642E-01
       -1   -1    0    0    0  501  0.00000000000E+00  0.00000000000E+00  0.10128113608E+04  0.10128113608E+04  0.50400001928E-02 0.  1.
        1   -1    0    0  501    0  0.00000000000E+00  0.00000000000E+00 -0.71001822872E+03  0.71001822874E+03  0.50400001928E-02 0. -1.
    10030    2    1    2    0    0  0.00000000000E+00  0.00000000000E+00  0.30279313210E+03  0.17228295896E+04  0.16960124156E+04 0.  0.
        2    1    3    3  502    0 -0.27823095741E+03 -0.65714431363E+03  0.61674864840E+03  0.94320199847E+03  0.25500000920E-02 0.  1.
       -2    1    3    3    0  502  0.27823095741E+03  0.65714431363E+03 -0.31395551630E+03  0.77962759111E+03  0.25500000920E-02 0. -1.
</event>
<event>
 5   0  0.2967704E-05  0.1707575E+04  0.7818609E-02  0.8757056E-01
       -1   -1    0    0    0  501  0.00000000000E+00  0.00000000000E+00  0.43507747092E+03  0.43507747095E+03  0.50400001928E-02 0. -1.
        1   -1    0    0  501    0  0.00000000000E+00  0.00000000000E+00 -0.16754550724E+04  0.16754550724E+04  0.50400001928E-02 0.  1.
    10030    2    1    2    0    0  0.00000000000E+00  0.00000000000E+00 -0.12403776015E+04  0.21105325434E+04  0.17075746023E+04 0.  0.
        2    1    3    3  502    0  0.63064238158E+03  0.85221908838E+02 -0.13237009144E+04  0.14687262161E+04  0.25500000920E-02 0.  1.
       -2    1    3    3    0  502 -0.63064238158E+03 -0.85221908838E+02  0.83323312910E+02  0.64180632723E+03  0.25500000920E-02 0. -1.
</event>
<event>
 5   0  0.2966258E-05  0.1698863E+04  0.7818609E-02  0.8762013E-01
        1   -1    0    0  501    0  0.00000000000E+00  0.00000000000E+00  0.52373240327E+03  0.52373240329E+03  0.50400001928E-02 0. -1.
       -1   -1    0    0    0  501  0.00000000000E+00  0.00000000000E+00 -0.13776759701E+04  0.13776759701E+04  0.50400001928E-02 0.  1.
    10030    2    1    2    0    0  0.00000000000E+00  0.00000000000E+00 -0.85394356685E+03  0.19014083734E+04  0.16988626157E+04 0.  0.
        4    1    3    3  502    0 -0.70361421431E+03 -0.45299147505E+03 -0.59015490131E+03  0.10239915329E+04  0.12699999809E+01 0.  1.
       -4    1    3    3    0  502  0.70361421431E+03  0.45299147505E+03 -0.26378866554E+03  0.87741684051E+03  0.12699999809E+01 0. -1.
</event>
<event>
 5   0  0.2987859E-05  0.1698784E+04  0.7818609E-02  0.8762058E-01
       -1   -1    0    0    0  501  0.00000000000E+00  0.00000000000E+00  0.87840004720E+03  0.87840004721E+03  0.50400001928E-02 0. -1.
        1   -1    0    0  501    0  0.00000000000E+00  0.00000000000E+00 -0.82134165395E+03  0.82134165396E+03  0.50400001928E-02 0.  1.
    10030    2    1    2    0    0  0.00000000000E+00  0.00000000000E+00  0.57058393251E+02  0.16997417012E+04  0.16987837386E+04 0.  0.
        5    1    3    3  502    0  0.39715432145E+03 -0.45053010866E+02 -0.72134865065E+03  0.82469830521E+03  0.46999998093E+01 0.  1.
       -5    1    3    3    0  502 -0.39715432145E+03  0.45053010866E+02  0.77840704390E+03  0.87504339596E+03  0.46999998093E+01 0. -1.
</event>
<event>
 5   0  0.2987859E-05  0.1701579E+04  0.7818609E-02  0.8760464E-01
       -1   -1    0    0    0  501  0.00000000000E+00  0.00000000000E+00  0.17139232719E+04  0.17139232719E+04  0.50400001928E-02 0. -1.
        1   -1    0    0  501    0  0.00000000000E+00  0.00000000000E+00 -0.42233088600E+03  0.42233088603E+03  0.50400001928E-02 0.  1.
    10030    2    1    2    0    0  0.00000000000E+00  0.00000000000E+00  0.12915923859E+04  0.21362541579E+04  0.17015789538E+04 0.  0.
        5    1    3    3  502    0 -0.12245830190E+03  0.16344001669E+03  0.16826765589E+04  0.16950313173E+04  0.46999998093E+01 0. -1.
       -5    1    3    3    0  502  0.12245830190E+03 -0.16344001669E+03 -0.39108417298E+03  0.44122284065E+03  0.46999998093E+01 0.  1.
</event>
<event>
 5   0  0.5671132E-05  0.1702349E+04  0.7818609E-02  0.8760026E-01
       -2   -1    0    0    0  501  0.00000000000E+00  0.00000000000E+00  0.52437111997E+03  0.52437111997E+03  0.25500000920E-02 0.  1.
        2   -1    0    0  501    0  0.00000000000E+00  0.00000000000E+00 -0.13816516470E+04  0.13816516470E+04  0.25500000920E-02 0. -1.
    10030    2    1    2    0    0  0.00000000000E+00  0.00000000000E+00 -0.85728052702E+03  0.19060227670E+04  0.17023492257E+04 0.  0.
        3    1    3    3  502    0  0.30834654334E+03 -0.79277365115E+03 -0.39448549962E+03  0.93764944002E+03  0.10100000352E+00 0. -1.
       -3    1    3    3    0  502 -0.30834654334E+03  0.79277365115E+03 -0.46279502740E+03  0.96837332694E+03  0.10100000352E+00 0.  1.
</event>
<event>
 5   0  0.5671132E-05  0.1701990E+04  0.7818609E-02  0.8760230E-01
       -2   -1    0    0    0  501  0.00000000000E+00  0.00000000000E+00  0.98663960008E+03  0.98663960008E+03  0.25500000920E-02 0. -1.
        2   -1    0    0  501    0  0.00000000000E+00  0.00000000000E+00 -0.73399923883E+03  0.73399923883E+03  0.25500000920E-02 0.  1.
    10030    2    1    2    0    0  0.00000000000E+00  0.00000000000E+00  0.25264036126E+03  0.17206388389E+04  0.17019902649E+04 0.  0.
        3    1    3    3  502    0  0.68607139490E+03  0.42222280228E+03 -0.15095980048E+03  0.81960656734E+03  0.10100000352E+00 0.  1.
       -3    1    3    3    0  502 -0.68607139490E+03 -0.42222280228E+03  0.40360016174E+03  0.90103227158E+03  0.10100000352E+00 0. -1.
</event>
<event>
 5   0  0.2987859E-05  0.1700725E+04  0.7818609E-02  0.8760951E-01
       -1   -1    0    0    0  501  0.00000000000E+00  0.00000000000E+00  0.84843931796E+03  0.84843931798E+03  0.50400001928E-02 0.  1.
        1   -1    0    0  501    0  0.00000000000E+00  0.00000000000E+00 -0.85229010710E+03  0.85229010712E+03  0.50400001928E-02 0. -1.
    10030    2    1    2    0    0  0.00000000000E+00  0.00000000000E+00 -0.38507891370E+01  0.17007294251E+04  0.17007250656E+04 0.  0.
        5    1    3    3  502    0  0.63634138122E+02  0.72573847314E+03 -0.44050229588E+03  0.85135773774E+03  0.46999998093E+01 0. -1.
       -5    1    3    3    0  502 -0.63634138122E+02 -0.72573847314E+03  0.43665150675E+03  0.84937168735E+03  0.46999998093E+01 0.  1.
</event>
<event>
 5   0  0.5821584E-05  0.1691142E+04  0.7818609E-02  0.8766433E-01
        2   -1    0    0  501    0  0.00000000000E+00  0.00000000000E+00  0.96604022327E+03  0.96604022327E+03  0.25500000920E-02 0.  1.
       -2   -1    0    0    0  501  0.00000000000E+00  0.00000000000E+00 -0.74012437258E+03  0.74012437259E+03  0.25500000920E-02 0. -1.
    10030    2    1    2    0    0  0.00000000000E+00  0.00000000000E+00  0.22591585068E+03  0.17061645959E+04  0.16911415247E+04 0.  0.
        1    1    3    3  502    0  0.45453206241E+02 -0.75318922430E+03  0.49796283409E+03  0.90406138382E+03  0.50400001928E-02 0.  1.
       -1    1    3    3    0  502 -0.45453206241E+02  0.75318922430E+03 -0.27204698340E+03  0.80210321204E+03  0.50400001928E-02 0. -1.
</event>
<event>
 5   0  0.2967704E-05  0.1696255E+04  0.7818609E-02  0.8763503E-01
        1   -1    0    0  501    0  0.00000000000E+00  0.00000000000E+00  0.84111135197E+03  0.84111135198E+03  0.50400001928E-02 0.  1.
       -1   -1    0    0    0  501  0.00000000000E+00  0.00000000000E+00 -0.85520175427E+03  0.85520175429E+03  0.50400001928E-02 0. -1.
    10030    2    1    2    0    0  0.00000000000E+00  0.00000000000E+00 -0.14090402307E+02  0.16963131063E+04  0.16962545844E+04 0.  0.
        2    1    3    3  502    0 -0.25874920492E+03  0.72285359620E+03  0.35331627187E+03  0.84516321534E+03  0.25500000920E-02 0.  1.
       -2    1    3    3    0  502  0.25874920492E+03 -0.72285359620E+03 -0.36740667418E+03  0.85114989093E+03  0.25500000920E-02 0. -1.
</event>
<event>
 5   0  0.5671132E-05  0.1700137E+04  0.7818609E-02  0.8761286E-01
       -2   -1    0    0    0  501  0.00000000000E+00  0.00000000000E+00  0.11389180965E+04  0.11389180965E+04  0.25500000920E-02 0. -1.
        2   -1    0    0  501    0  0.00000000000E+00  0.00000000000E+00 -0.63447653069E+03  0.63447653069E+03  0.25500000920E-02 0.  1.
    10030    2    1    2    0    0  0.00000000000E+00  0.00000000000E+00  0.50444156585E+03  0.17733946272E+04  0.17001374093E+04 0.  0.
        3    1    3    3  502    0 -0.78528814794E+03 -0.42989421852E+01  0.59169911929E+03  0.98326182381E+03  0.10100000352E+00 0. -1.
       -3    1    3    3    0  502  0.78528814794E+03  0.42989421852E+01 -0.87257553440E+02  0.79013280342E+03  0.10100000352E+00 0.  1.
</event>
<event>
 5   0  0.5755321E-05  0.1700829E+04  0.7818609E-02  0.8760892E-01
        2   -1    0    0  501    0  0.00000000000E+00  0.00000000000E+00  0.77906839237E+03  0.77906839237E+03  0.25500000920E-02 0. -1.
       -2   -1    0    0    0  501  0.00000000000E+00  0.00000000000E+00 -0.92829458292E+03  0.92829458292E+03  0.25500000920E-02 0.  1.
    10030    2    1    2    0    0  0.00000000000E+00  0.00000000000E+00 -0.14922619055E+03  0.17073629753E+04  0.17008291723E+04 0.  0.
        4    1    3    3  502    0  0.30027466512E+03  0.68540486916E+03 -0.48021805671E+03  0.88913199474E+03  0.12699999809E+01 0.  1.
       -4    1    3    3    0  502 -0.30027466512E+03 -0.68540486916E+03  0.33099186616E+03  0.81823098056E+03  0.12699999809E+01 0. -1.
</event>
<event>
 5   0  0.5859822E-05  0.1701266E+04  0.7818609E-02  0.8760643E-01
       -2   -1    0    0    0  501  0.00000000000E+00  0.00000000000E+00  0.69551872941E+03  0.69551872941E+03  0.25500000920E-02 0.  1.
        2   -1    0    0  501    0  0.00000000000E+00  0.00000000000E+00 -0.10403407354E+04  0.10403407354E+04  0.25500000920E-02 0. -1.
    10030    2    1    2    0    0  0.00000000000E+00  0.00000000000E+00 -0.34482200603E+03  0.17358594649E+04  0.17012659598E+04 0.  0.
        5    1    3    3  502    0 -0.79292598192E+03 -0.21126259629E+03  0.56177693187E+02  0.82252144081E+03  0.46999998093E+01 0. -1.
       -5    1    3    3    0  502  0.79292598192E+03  0.21126259629E+03 -0.40099969922E+03  0.91333802404E+03  0.46999998093E+01 0.  1.
</event>
<event>
 5   0  0.2911632E-05  0.1701079E+04  0.7818609E-02  0.8760749E-01
        1   -1    0    0  501    0  0.00000000000E+00  0.00000000000E+00  0.14748585866E+04  0.14748585866E+04  0.50400001928E-02 0. -1.
       -1   -1    0    0    0  501  0.00000000000E+00  0.00000000000E+00 -0.49049929518E+03  0.49049929520E+03  0.50400001928E-02 0.  1.
    10030    2    1    2    0    0  0.00000000000E+00  0.00000000000E+00  0.98435929142E+03  0.19653578818E+04  0.17010785958E+04 0.  0.
        1    1    3    3  502    0  0.25949935033E+03 -0.34034671113E+03 -0.35702264285E+03  0.55735174184E+03  0.50400001928E-02 0.  1.
       -1    1    3    3    0  502 -0.25949935033E+03  0.34034671113E+03  0.13413819343E+04  0.14080061400E+04  0.50400001928E-02 0. -1.
</event>
<event>
 5   0  0.2993769E-05  0.1701078E+04  0.7818609E-02  0.8760750E-01
       -1   -1    0    0    0  501  0.00000000000E+00  0.00000000000E+00  0.66305835179E+03  0.66305835181E+03  0.50400001928E-02 0. -1.
        1   -1    0    0  501    0  0.00000000000E+00  0.00000000000E+00 -0.10910298732E+04  0.10910298732E+04  0.50400001928E-02 0.  1.
    10030    2    1    2    0    0  0.00000000000E+00  0.00000000000E+00 -0.42797152136E+03  0.17540882250E+04  0.17010778577E+04 0.  0.
        3    1    3    3  502    0 -0.41446427822E+03  0.27389605877E+03  0.49790261483E+03  0.70335390309E+03  0.10100000352E+00 0. -1.
       -3    1    3    3    0  502  0.41446427822E+03 -0.27389605877E+03 -0.92587413619E+03  0.10507343219E+04  0.10100000352E+00 0.  1.
</event>
<event>
 5   0  0.2966258E-05  0.1699302E+04  0.7818609E-02  0.8761763E-01
        1   -1    0    0  501    0  0.00000000000E+00  0.00000000000E+00  0.12579473739E+04  0.12579473739E+04  0.50400001928E-02 0. -1.
       -1   -1    0    0    0  501  0.00000000000E+00  0.00000000000E+00 -0.57387654609E+03  0.57387654611E+03  0.50400001928E-02 0.  1.
    10030    2    1    2    0    0  0.00000000000E+00  0.00000000000E+00  0.68407082777E+03  0.18318239200E+04  0.16993016143E+04 0.  0.
        4    1    3    3  502    0 -0.57654051044E+03 -0.10382300706E+03  0.10054365639E+04  0.11636504947E+04  0.12699999809E+01 0. -1.
       -4    1    3    3    0  502  0.57654051044E+03  0.10382300706E+03 -0.32136573611E+03  0.66817342526E+03  0.12699999809E+01 0.  1.
</event>
<event>
 5   0  0.2987859E-05  0.1703185E+04  0.7818609E-02  0.8759550E-01
        1   -1    0    0  501    0  0.00000000000E+00  0.00000000000E+00  0.16964003776E+04  0.16964003776E+04  0.50400001928E-02 0.  1.
       -1   -1    0    0    0  501  0.00000000000E+00  0.00000000000E+00 -0.42749911702E+03  0.42749911704E+03  0.50400001928E-02 0. -1.
    10030    2    1    2    0    0  0.00000000000E+00  0.00000000000E+00  0.12689012606E+04  0.21238994947E+04  0.17031848562E+04 0.  0.
        5    1    3    3  502    0  0.33552328866E+03 -0.99383325996E+02  0.16025841443E+04  0.16403508626E+04  0.46999998093E+01 0.  1.
       -5    1    3    3    0  502 -0.33552328866E+03  0.99383325996E+02 -0.33368288372E+03  0.48354863210E+03  0.46999998093E+01 0. -1.
</event>
<event>
 5   0  0.5671132E-05  0.1699615E+04  0.7818609E-02  0.8761584E-01
        2   -1    0    0  501    0  0.00000000000E+00  0.00000000000E+00  0.22794036249E+04  0.22794036249E+04  0.25500000920E-02 0.  1.
       -2   -1    0    0    0  501  0.00000000000E+00  0.00000000000E+00 -0.31682537396E+03  0.31682537398E+03  0.25500000920E-02 0. -1.
    10030    2    1    2    0    0  0.00000000000E+00  0.00000000000E+00  0.19625782509E+04  0.25962289989E+04  0.16996151398E+04 0.  0.
        3    1    3    3  502    0 -0.49340770669E+03 -0.45678445905E+03  0.18745397120E+03  0.69802736950E+03  0.10100000352E+00 0. -1.
       -3    1    3    3    0  502  0.49340770669E+03  0.45678445905E+03  0.17751242797E+04  0.18982016294E+04  0.10100000352E+00 0.  1.
</event>
<event>
 5   0  0.2967704E-05  0.1697704E+04  0.7818609E-02  0.8762675E-01
        1   -1    0    0  501    0  0.00000000000E+00  0.00000000000E+00  0.15364391323E+04  0.15364391323E+04  0.50400001928E-02 0. -1.
       -1   -1    0    0    0  501  0.00000000000E+00  0.00000000000E+00 -0.46897405974E+03  0.46897405977E+03  0.50400001928E-02 0.  1.
    10030    2    1    2    0    0  0.00000000000E+00  0.00000000000E+00  0.10674650725E+04  0.20054131921E+04  0.16977044471E+04 0.  0.
        2    1    3    3  502    0 -0.42396067156E+02  0.26614457301E+03  0.14845614640E+04  0.15088250729E+04  0.25500000920E-02 0. -1.
       -2    1    3    3    0  502  0.42396067156E+02 -0.26614457301E+03 -0.41709639148E+03  0.49658811912E+03  0.25500000920E-02 0.  1.
</event>
<event>
 5   0  0.2966258E-05  0.1699711E+04  0.7818609E-02  0.8761529E-01
       -1   -1    0    0    0  501  0.00000000000E+00  0.00000000000E+00  0.81368795747E+03  0.81368795748E+03  0.50400001928E-02 0. -1.
        1   -1    0    0  501    0  0.00000000000E+00  0.00000000000E+00 -0.88763084395E+03  0.88763084396E+03  0.50400001928E-02 0.  1.
    10030    2    1    2    0    0  0.00000000000E+00  0.00000000000E+00 -0.73942886479E+02  0.17013188014E+04  0.16997111854E+04 0.  0.
        4    1    3    3  502    0 -0.15943808665E+03 -0.27719582888E+03 -0.82511371642E+03  0.88491371837E+03  0.12699999809E+01 0.  1.
       -4    1    3    3    0  502  0.15943808665E+03  0.27719582888E+03  0.75117082994E+03  0.81640508308E+03  0.12699999809E+01 0. -1.
</event>
<event>
 5   0  0.2993769E-05  0.1699893E+04  0.7818609E-02  0.8761426E-01
        1   -1    0    0  501    0  0.00000000000E+00  0.00000000000E+00  0.18474244834E+04  0.18474244834E+04  0.50400001928E-02 0. -1.
       -1   -1    0    0    0  501  0.00000000000E+00  0.00000000000E+00 -0.39103560255E+03  0.39103560258E+03  0.50400001928E-02 0.  1.
    10030    2    1    2    0    0  0.00000000000E+00  0.00000000000E+00  0.14563888809E+04  0.22384600860E+04  0.16998926390E+04 0.  0.
        3    1    3    3  502    0 -0.13100904800E+01 -0.60748998352E+03 -0.54583108536E+02  0.60993862179E+03  0.10100000352E+00 0.  1.
       -3    1    3    3    0  502  0.13100904800E+01  0.60748998352E+03  0.15109719894E+04  0.16285214642E+04  0.10100000352E+00 0. -1.
</event>
<event>
 5   0  0.2966258E-05  0.1698609E+04  0.7818609E-02  0.8762158E-01
       -1   -1    0    0    0  501  0.00000000000E+00  0.00000000000E+00  0.58406760534E+03  0.58406760536E+03  0.50400001928E-02 0.  1.
        1   -1    0    0  501    0  0.00000000000E+00  0.00000000000E+00 -0.12349901788E+04  0.12349901788E+04  0.50400001928E-02 0. -1.
    10030    2    1    2    0    0  0.00000000000E+00  0.00000000000E+00 -0.65092257347E+03  0.18190577842E+04  0.16986085557E+04 0.  0.
        4    1    3    3  502    0  0.11847782869E+03 -0.75605413218E+03  0.68978912898E+02  0.76838437647E+03  0.12699999809E+01 0.  1.
       -4    1    3    3    0  502 -0.11847782869E+03  0.75605413218E+03 -0.71990148637E+03  0.10506734077E+04  0.12699999809E+01 0. -1.
</event>
<event>
 5   0  0.5652631E-05  0.1700443E+04  0.7818609E-02  0.8761112E-01
       -2   -1    0    0    0  501  0.00000000000E+00  0.00000000000E+00  0.12282323772E+04  0.12282323772E+04  0.25500000920E-02 0.  1.
        2   -1    0    0  501    0  0.00000000000E+00  0.00000000000E+00 -0.58855045518E+03  0.58855045518E+03  0.25500000920E-02 0. -1.
    10030    2    1    2    0    0  0.00000000000E+00  0.00000000000E+00  0.63968192200E+03  0.18167828324E+04  0.17004431477E+04 0.  0.
        2    1    3    3  502    0 -0.44352643493E+03  0.12623933692E+03  0.10830115439E+04  0.11771007064E+04  0.25500000920E-02 0.  1.
       -2    1    3    3    0  502  0.44352643493E+03 -0.12623933692E+03 -0.44332962191E+03  0.63968212601E+03  0.25500000920E-02 0. -1.
</event>
<event>
 5   0  0.5859822E-05  0.1709699E+04  0.7818609E-02  0.8755852E-01
        2   -1    0    0  501    0  0.00000000000E+00  0.00000000000E+00  0.23429465051E+04  0.23429465051E+04  0.25500000920E-02 0.  1.
       -2   -1    0    0    0  501  0.00000000000E+00  0.00000000000E+00 -0.31190128575E+03  0.31190128576E+03  0.25500000920E-02 0. -1.
    10030    2    1    2    0    0  0.00000000000E+00  0.00000000000E+00  0.20310452193E+04  0.26548477908E+04  0.17096994208E+04 0.  0.
        5    1    3    3  502    0  0.37163468567E+02  0.76567650536E+03  0.42810601818E+03  0.87803102853E+03  0.46999998093E+01 0. -1.
       -5    1    3    3    0  502 -0.37163468567E+02 -0.76567650536E+03  0.16029392011E+04  0.17768167623E+04  0.46999998093E+01 0.  1.
</event>
<event>
 5   0  0.5671132E-05  0.1700772E+04  0.7818609E-02  0.8760924E-01
        2   -1    0    0  501    0  0.00000000000E+00  0.00000000000E+00  0.23036436730E+04  0.23036436730E+04  0.25500000920E-02 0. -1.
       -2   -1    0    0    0  501  0.00000000000E+00  0.00000000000E+00 -0.31391859114E+03  0.31391859115E+03  0.25500000920E-02 0.  1.
    10030    2    1    2    0    0  0.00000000000E+00  0.00000000000E+00  0.19897250819E+04  0.26175622642E+04  0.17007722673E+04 0.  0.
        3    1    3    3  502    0  0.78093248070E+03  0.15840382528E+03  0.53776600280E+03  0.96132179588E+03  0.10100000352E+00 0.  1.
       -3    1    3    3    0  502 -0.78093248070E+03 -0.15840382528E+03  0.14519590791E+04  0.16562404683E+04  0.10100000352E+00 0. -1.
</event>
<event>
 5   0  0.5859822E-05  0.1708733E+04  0.7818609E-02  0.8756399E-01
        2   -1    0    0  501    0  0.00000000000E+00  0.00000000000E+00  0.40890620973E+03  0.40890620973E+03  0.25500000920E-02 0. -1.
       -2   -1    0    0    0  501  0.00000000000E+00  0.00000000000E+00 -0.17851081986E+04  0.17851081986E+04  0.25500000920E-02 0.  1.
    10030    2    1    2    0    0  0.00000000000E+00  0.00000000000E+00 -0.13762019889E+04  0.21940144083E+04  0.17087326619E+04 0.  0.
        5    1    3    3  502    0  0.49370734643E+02  0.54583635662E+02 -0.17810135542E+04  0.17825398209E+04  0.46999998093E+01 0.  1.
       -5    1    3    3    0  502 -0.49370734643E+02 -0.54583635662E+02  0.40481156532E+03  0.41147458748E+03  0.46999998093E+01 0. -1.
</event>
<event>
 5   0  0.2966258E-05  0.1699229E+04  0.7818609E-02  0.8761804E-01
       -1   -1    0    0    0  501  0.00000000000E+00  0.00000000000E+00  0.11584293790E+04  0.11584293790E+04  0.50400001928E-02 0.  1.
        1   -1    0    0  501    0  0.00000000000E+00  0.00000000000E+00 -0.62312382562E+03  0.62312382564E+03  0.50400001928E-02 0. -1.
    10030    2    1    2    0    0  0.00000000000E+00  0.00000000000E+00  0.53530555336E+03  0.17815532046E+04  0.16992291739E+04 0.  0.
        4    1    3    3  502    0 -0.44870029625E+03 -0.69144658547E+03  0.51731061152E+02  0.82589833031E+03  0.12699999809E+01 0. -1.
       -4    1    3    3    0  502  0.44870029625E+03  0.69144658547E+03  0.48357449221E+03  0.95565487433E+03  0.12699999809E+01 0.  1.
</event>
<event>
 5   0  0.2987859E-05  0.1701866E+04  0.7818609E-02  0.8760301E-01
       -1   -1    0    0    0  501  0.00000000000E+00  0.00000000000E+00  0.13839069166E+04  0.13839069166E+04  0.50400001928E-02 0.  1.
        1   -1    0    0  501    0  0.00000000000E+00  0.00000000000E+00 -0.52321971295E+03  0.52321971298E+03  0.50400001928E-02 0. -1.
    10030    2    1    2    0    0  0.00000000000E+00  0.00000000000E+00  0.86068720367E+03  0.19071266296E+04  0.17018664809E+04 0.  0.
        5    1    3    3  502    0 -0.21337362766E+02 -0.75941225845E+03  0.85984978468E+03  0.11473996704E+04  0.46999998093E+01 0.  1.
       -5    1    3    3    0  502  0.21337362766E+02  0.75941225845E+03  0.83741898902E+00  0.75972695925E+03  0.46999998093E+01 0. -1.
</event>
<event>
 5   0  0.2993769E-05  0.1700834E+04  0.7818609E-02  0.8760889E-01
        1   -1    0    0  501    0  0.00000000000E+00  0.00000000000E+00  0.14220131706E+04  0.14220131706E+04  0.50400001928E-02 0.  1.
       -1   -1    0    0    0  501  0.00000000000E+00  0.00000000000E+00 -0.50858120556E+03  0.50858120558E+03  0.50400001928E-02 0. -1.
    10030    2    1    2    0    0  0.00000000000E+00  0.00000000000E+00  0.91343196506E+03  0.19305943762E+04  0.17008341161E+04 0.  0.
        3    1    3    3  502    0  0.39743903240E+03  0.20569352323E+03  0.12775505816E+04  0.13536628490E+04  0.10100000352E+00 0.  1.
       -3    1    3    3    0  502 -0.39743903240E+03 -0.20569352323E+03 -0.36411861655E+03  0.57693152721E+03  0.10100000352E+00 0. -1.
</event>
<event>
 5   0  0.2987859E-05  0.1697696E+04  0.7818609E-02  0.8762679E-01
       -1   -1    0    0    0  501  0.00000000000E+00  0.00000000000E+00  0.10420139661E+04  0.10420139662E+04  0.50400001928E-02 0.  1.
        1   -1    0    0  501    0  0.00000000000E+00  0.00000000000E+00 -0.69149094933E+03  0.69149094934E+03  0.50400001928E-02 0. -1.
    10030    2    1    2    0    0  0.00000000000E+00  0.00000000000E+00  0.35052301681E+03  0.17335049155E+04  0.16976963529E+04 0.  0.
        5    1    3    3  502    0 -0.68953334292E+03 -0.37171757060E+03  0.50909932948E+03  0.93425606799E+03  0.46999998093E+01 0. -1.
       -5    1    3    3    0  502  0.68953334292E+03  0.37171757060E+03 -0.15857631267E+03  0.79924884750E+03  0.46999998093E+01 0.  1.
</event>
<event>
 5   0  0.5652631E-05  0.1705978E+04  0.7818609E-02  0.8757962E-01
        2   -1    0    0  501    0  0.00000000000E+00  0.00000000000E+00  0.42563391893E+03  0.42563391894E+03  0.25500000920E-02 0. -1.
       -2   -1    0    0    0  501  0.00000000000E+00  0.00000000000E+00 -0.17094270583E+04  0.17094270583E+04  0.25500000920E-02 0.  1.
    10030    2    1    2    0    0  0.00000000000E+00  0.00000000000E+00 -0.12837931393E+04  0.21350609772E+04  0.17059778872E+04 0.  0.
        2    1    3    3  502    0 -0.39403423565E+03  0.73504030977E+03 -0.41786830922E+03  0.93282429198E+03  0.25500000920E-02 0.  1.
       -2    1    3    3    0  502  0.39403423565E+03 -0.73504030977E+03 -0.86592483012E+03  0.12022366852E+04  0.25500000920E-02 0. -1.
</event>
<event>
 5   0  0.5671132E-05  0.1699090E+04  0.7818609E-02  0.8761884E-01
        2   -1    0    0  501    0  0.00000000000E+00  0.00000000000E+00  0.10138641048E+04  0.10138641048E+04  0.25500000920E-02 0.  1.
       -2   -1    0    0    0  501  0.00000000000E+00  0.00000000000E+00 -0.71185705056E+03  0.71185705057E+03  0.25500000920E-02 0. -1.
    10030    2    1    2    0    0  0.00000000000E+00  0.00000000000E+00  0.30200705421E+03  0.17257211553E+04  0.16990895342E+04 0.  0.
        3    1    3    3  502    0  0.72017782509E+03  0.40655271184E+03  0.34843419327E+03  0.89741161375E+03  0.10100000352E+00 0. -1.
       -3    1    3    3    0  502 -0.72017782509E+03 -0.40655271184E+03 -0.46427139059E+02  0.82830954159E+03  0.10100000352E+00 0.  1.
</event>
<event>
 5   0  0.5671132E-05  0.1696831E+04  0.7818609E-02  0.8763174E-01
       -2   -1    0    0    0  501  0.00000000000E+00  0.00000000000E+00  0.63109417026E+03  0.63109417026E+03  0.25500000920E-02 0. -1.
        2   -1    0    0  501    0  0.00000000000E+00  0.00000000000E+00 -0.11405722975E+04  0.11405722975E+04  0.25500000920E-02 0.  1.
    10030    2    1    2    0    0  0.00000000000E+00  0.00000000000E+00 -0.50947812725E+03  0.17716664678E+04  0.16968306076E+04 0.  0.
        3    1    3    3  502    0  0.59978827432E+03 -0.37529470364E+03  0.23411589567E+03  0.74525321294E+03  0.10100000352E+00 0.  1.
       -3    1    3    3    0  502 -0.59978827432E+03  0.37529470364E+03 -0.74359402291E+03  0.10264132548E+04  0.10100000352E+00 0. -1.
</event>
<event>
 5   0  0.2967704E-05  0.1701054E+04  0.7818609E-02  0.8760763E-01
       -1   -1    0    0    0  501  0.00000000000E+00  0.00000000000E+00  0.45591918365E+03  0.45591918368E+03  0.50400001928E-02 0.  1.
        1   -1    0    0  501    0  0.00000000000E+00  0.00000000000E+00 -0.15866767655E+04  0.15866767655E+04  0.50400001928E-02 0. -1.
    10030    2    1    2    0    0  0.00000000000E+00  0.00000000000E+00 -0.11307575819E+04  0.20425959492E+04  0.17010542328E+04 0.  0.
        2    1    3    3  502    0 -0.74637655298E+03 -0.39137929703E+03 -0.42772982908E+03  0.94509709537E+03  0.25500000920E-02 0. -1.
       -2    1    3    3    0  502  0.74637655298E+03  0.39137929703E+03 -0.70302775282E+03  0.10974988539E+04  0.25500000920E-02 0.  1.
</event>
<event>
 5   0  0.5755321E-05  0.1701177E+04  0.7818609E-02  0.8760693E-01
       -2   -1    0    0    0  501  0.00000000000E+00  0.00000000000E+00  0.13601902306E+04  0.13601902306E+04  0.25500000920E-02 0.  1.
        2   -1    0    0  501    0  0.00000000000E+00  0.00000000000E+00 -0.53191157885E+03  0.53191157885E+03  0.25500000920E-02 0. -1.
    10030    2    1    2    0    0  0.00000000000E+00  0.00000000000E+00  0.82827865176E+03  0.18921018095E+04  0.17011771608E+04 0.  0.
        4    1    3    3  502    0  0.53003640663E+03 -0.46342308735E+03 -0.11671040092E+03  0.71366832690E+03  0.12699999809E+01 0. -1.
       -4    1    3    3    0  502 -0.53003640663E+03  0.46342308735E+03  0.94498905268E+03  0.11784334826E+04  0.12699999809E+01 0.  1.
</event>
<event>
 5   0  0.5671132E-05  0.1703729E+04  0.7818609E-02  0.8759241E-01
        2   -1    0    0  501    0  0.00000000000E+00  0.00000000000E+00  0.83713323522E+03  0.83713323522E+03  0.25500000920E-02 0.  1.
       -2   -1    0    0    0  501  0.00000000000E+00  0.00000000000E+00 -0.86685473921E+03  0.86685473921E+03  0.25500000920E-02 0. -1.
    10030    2    1    2    0    0  0.00000000000E+00  0.00000000000E+00 -0.29721503993E+02  0.17039879744E+04  0.17037287487E+04 0.  0.
        3    1    3    3  502    0  0.58453843611E+03 -0.23290740811E+02 -0.63418453888E+03  0.86279643106E+03  0.10100000352E+00 0. -1.
       -3    1    3    3    0  502 -0.58453843611E+03  0.23290740811E+02  0.60446303489E+03  0.84119154337E+03  0.10100000352E+00 0.  1.
</event>
<event>
 5   0  0.5671132E-05  0.1694178E+04  0.7818609E-02  0.8764692E-01
       -2   -1    0    0    0  501  0.00000000000E+00  0.00000000000E+00  0.51373262343E+03  0.51373262344E+03  0.25500000920E-02 0.  1.
        2   -1    0    0  501    0  0.00000000000E+00  0.00000000000E+00 -0.13967580376E+04  0.13967580376E+04  0.25500000920E-02 0. -1.
    10030    2    1    2    0    0  0.00000000000E+00  0.00000000000E+00 -0.88302541420E+03  0.19104906611E+04  0.16941784687E+04 0.  0.
        3    1    3    3  502    0  0.58218100043E+03 -0.55827011865E+03 -0.14970737854E+03  0.82037342231E+03  0.10100000352E+00 0.  1.
       -3    1    3    3    0  502 -0.58218100043E+03  0.55827011865E+03 -0.73331803567E+03  0.10901172388E+04  0.10100000352E+00 0. -1.
</event>
<event>
 5   0  0.5671132E-05  0.1696415E+04  0.7818609E-02  0.8763412E-01
        2   -1    0    0  501    0  0.00000000000E+00  0.00000000000E+00  0.56269509023E+03  0.56269509024E+03  0.25500000920E-02 0. -1.
       -2   -1    0    0    0  501  0.00000000000E+00  0.00000000000E+00 -0.12785887404E+04  0.12785887404E+04  0.25500000920E-02 0.  1.
    10030    2    1    2    0    0  0.00000000000E+00  0.00000000000E+00 -0.71589365015E+03  0.18412838306E+04  0.16964145798E+04 0.  0.
        3    1    3    3  502    0 -0.11393098680E+03  0.81773448288E+03 -0.56893210041E+03  0.10026732765E+04  0.10100000352E+00 0.  1.
       -3    1    3    3    0  502  0.11393098680E+03 -0.81773448288E+03 -0.14696154974E+03  0.83861055416E+03  0.10100000352E+00 0. -1.
</event>
<event>
 5   0  0.5859822E-05  0.1699396E+04  0.7818609E-02  0.8761709E-01
       -2   -1    0    0    0  501  0.00000000000E+00  0.00000000000E+00  0.11223915112E+04  0.11223915112E+04  0.25500000920E-02 0. -1.
        2   -1    0    0  501    0  0.00000000000E+00  0.00000000000E+00 -0.64325733145E+03  0.64325733145E+03  0.25500000920E-02 0.  1.
    10030    2    1    2    0    0  0.00000000000E+00  0.00000000000E+00  0.47913417972E+03  0.17656488426E+04  0.16993958554E+04 0.  0.
        5    1    3    3  502    0  0.82670489880E+03  0.19318952824E+03  0.27557803989E+03  0.89259650995E+03  0.46999998093E+01 0.  1.
       -5    1    3    3    0  502 -0.82670489880E+03 -0.19318952824E+03  0.20355613983E+03  0.87305233267E+03  0.46999998093E+01 0. -1.
</event>
<event>
 5   0  0.2993769E-05  0.1701810E+04  0.7818609E-02  0.8760333E-01
        1   -1    0    0  501    0  0.00000000000E+00  0.00000000000E+00  0.92497565602E+03  0.92497565604E+03  0.50400001928E-02 0. -1.
       -1   -1    0    0    0  501  0.00000000000E+00  0.00000000000E+00 -0.78276604302E+03  0.78276604304E+03  0.50400001928E-02 0.  1.
    10030    2    1    2    0    0  0.00000000000E+00  0.00000000000E+00  0.14220961300E+03  0.17077416991E+04  0.17018102529E+04 0.  0.
        3    1    3    3  502    0 -0.71837683282E+02 -0.18980016898E+03 -0.75812560275E+03  0.78481793852E+03  0.10100000352E+00 0.  1.
       -3    1    3    3    0  502  0.71837683282E+02  0.18980016898E+03  0.90033521575E+03  0.92292376056E+03  0.10100000352E+00 0. -1.
</event>
<event>
 5   0  0.2967704E-05  0.1702049E+04  0.7818609E-02  0.8760196E-01
        1   -1    0    0  501    0  0.00000000000E+00  0.00000000000E+00  0.89297315773E+03  0.89297315775E+03  0.50400001928E-02 0. -1.
       -1   -1    0    0    0  501  0.00000000000E+00  0.00000000000E+00 -0.81104681410E+03  0.81104681411E+03  0.50400001928E-02 0.  1.
    10030    2    1    2    0    0  0.00000000000E+00  0.00000000000E+00  0.81926343639E+02  0.17040199719E+04  0.17020493937E+04 0.  0.
        2    1    3    3  502    0  0.69423905047E+03 -0.18669570935E+03 -0.41499785040E+03  0.83008816576E+03  0.25500000920E-02 0.  1.
       -2    1    3    3    0  502 -0.69423905047E+03  0.18669570935E+03  0.49692419404E+03  0.87393180610E+03  0.25500000920E-02 0. -1.
</event>
<event>
 5   0  0.2966258E-05  0.1708341E+04  0.7818609E-02  0.8756621E-01
        1   -1    0    0  501    0  0.00000000000E+00  0.00000000000E+00  0.95751940069E+03  0.95751940071E+03  0.50400001928E-02 0. -1.
       -1   -1    0    0    0  501  0.00000000000E+00  0.00000000000E+00 -0.76197664406E+03  0.76197664407E+03  0.50400001928E-02 0.  1.
    10030    2    1    2    0    0  0.00000000000E+00  0.00000000000E+00  0.19554275664E+03  0.17194960448E+04  0.17083412067E+04 0.  0.
        4    1    3    3  502    0  0.53100453442E+03 -0.58718951543E+03 -0.22502263375E+03  0.82303957451E+03  0.12699999809E+01 0.  1.
       -4    1    3    3    0  502 -0.53100453442E+03  0.58718951543E+03  0.42056539038E+03  0.89645647027E+03  0.12699999809E+01 0. -1.
</event>
<event>
 5   0  0.5671132E-05  0.1698363E+04  0.7818609E-02  0.8762298E-01
       -2   -1    0    0    0  501  0.00000000000E+00  0.00000000000E+00  0.46677426877E+03  0.46677426878E+03  0.25500000920E-02 0. -1.
        2   -1    0    0  501    0  0.00000000000E+00  0.00000000000E+00 -0.15448779994E+04  0.15448779994E+04  0.25500000920E-02 0.  1.
    10030    2    1    2    0    0  0.00000000000E+00  0.00000000000E+00 -0.10781037307E+04  0.20116522682E+04  0.16983630925E+04 0.  0.
        3    1    3    3  502    0  0.63922598562E+02 -0.35976707219E+03  0.36889383740E+03  0.51923127633E+03  0.10100000352E+00 0. -1.
       -3    1    3    3    0  502 -0.63922598562E+02  0.35976707219E+03 -0.14469975681E+04  0.14924209919E+04  0.10100000352E+00 0.  1.
</event>
<event>
 5   0  0.5671132E-05  0.1703300E+04  0.7818609E-02  0.8759484E-01
       -2   -1    0    0    0  501  0.00000000000E+00  0.00000000000E+00  0.16738430852E+04  0.16738430852E+04  0.25500000920E-02 0. -1.
        2   -1    0    0  501    0  0.00000000000E+00  0.00000000000E+00 -0.43331884782E+03  0.43331884783E+03  0.25500000920E-02 0.  1.
    10030    2    1    2    0    0  0.00000000000E+00  0.00000000000E+00  0.12405242373E+04  0.21071619330E+04  0.17033000406E+04 0.  0.
        3    1    3    3  502    0 -0.34983624432E+03  0.61655059027E+03  0.36343425919E+02  0.70981749979E+03  0.10100000352E+00 0.  1.
       -3    1    3    3    0  502  0.34983624432E+03 -0.61655059027E+03  0.12041808114E+04  0.13973444332E+04  0.10100000352E+00 0. -1.
</event>
<event>
 5   0  0.5821584E-05  0.1698711E+04  0.7818609E-02  0.8762100E-01
       -2   -1    0    0    0  501  0.00000000000E+00  0.00000000000E+00  0.29660266454E+03  0.29660266455E+03  0.25500000920E-02 0.  1.
        2   -1    0    0  501    0  0.00000000000E+00  0.00000000000E+00 -0.24322275648E+04  0.24322275648E+04  0.25500000920E-02 0. -1.
    10030    2    1    2    0    0  0.00000000000E+00  0.00000000000E+00 -0.21356249003E+04  0.27288302294E+04  0.16987114841E+04 0.  0.
        1    1    3    3  502    0 -0.67156134260E+03 -0.36966917988E+03 -0.16553184313E+04  0.18242064160E+04  0.50400001928E-02 0. -1.
       -1    1    3    3    0  502  0.67156134260E+03  0.36966917988E+03 -0.48030646900E+03  0.90462381332E+03  0.50400001928E-02 0.  1.
</event>
<event>
 5   0  0.2911632E-05  0.1697338E+04  0.7818609E-02  0.8762884E-01
       -1   -1    0    0    0  501  0.00000000000E+00  0.00000000000E+00  0.77100221536E+03  0.77100221537E+03  0.50400001928E-02 0.  1.
        1   -1    0    0  501    0  0.00000000000E+00  0.00000000000E+00 -0.93415974169E+03  0.93415974171E+03  0.50400001928E-02 0. -1.
    10030    2    1    2    0    0  0.00000000000E+00  0.00000000000E+00 -0.16315752633E+03  0.17051619571E+04  0.16973381871E+04 0.  0.
        1    1    3    3  502    0 -0.75754211793E+03  0.35026989702E+03  0.73014175446E+02  0.83778883440E+03  0.50400001928E-02 0. -1.
       -1    1    3    3    0  502  0.75754211793E+03 -0.35026989702E+03 -0.23617170178E+03  0.86737312268E+03  0.50400001928E-02 0.  1.
</event>
<event>
 5   0  0.5652631E-05  0.1698939E+04  0.7818609E-02  0.8761970E-01
       -2   -1    0    0    0  501  0.00000000000E+00  0.00000000000E+00  0.38934570817E+03  0.38934570818E+03  0.25500000920E-02 0. -1.
        2   -1    0    0  501    0  0.00000000000E+00  0.00000000000E+00 -0.18533613565E+04  0.18533613565E+04  0.25500000920E-02 0.  1.
    10030    2    1    2    0    0  0.00000000000E+00  0.00000000000E+00 -0.14640156484E+04  0.22427070647E+04  0.16989388334E+04 0.  0.
        2    1    3    3  502    0  0.10503408621E+03  0.78576994829E+03 -0.32915759294E+03  0.85837712685E+03  0.25500000920E-02 0. -1.
       -2    1    3    3    0  502 -0.10503408621E+03 -0.78576994829E+03 -0.11348580554E+04  0.13843299379E+04  0.25500000920E-02 0.  1.
</event>
<event>
 5   0  0.5671132E-05  0.1701211E+04  0.7818609E-02  0.8760674E-01
        2   -1    0    0  501    0  0.00000000000E+00  0.00000000000E+00  0.11671009554E+04  0.11671009554E+04  0.25500000920E-02 0. -1.
       -2   -1    0    0    0  501  0.00000000000E+00  0.00000000000E+00 -0.61993775962E+03  0.61993775963E+03  0.25500000920E-02 0.  1.
    10030    2    1    2    0    0  0.00000000000E+00  0.00000000000E+00  0.54716319579E+03  0.17870387150E+04  0.17012112762E+04 0.  0.
        3    1    3    3  502    0 -0.71501307225E+03  0.43968797253E+03  0.41822655238E+03  0.93780737148E+03  0.10100000352E+00 0.  1.
       -3    1    3    3    0  502  0.71501307225E+03 -0.43968797253E+03  0.12893664340E+03  0.84923134357E+03  0.10100000352E+00 0. -1.
</event>
<event>
 5   0  0.2911632E-05  0.1696667E+04  0.7818609E-02  0.8763267E-01
       -1   -1    0    0    0  501  0.00000000000E+00  0.00000000000E+00  0.11205449234E+04  0.11205449234E+04  0.50400001928E-02 0. -1.
        1   -1    0    0  501    0  0.00000000000E+00  0.00000000000E+00 -0.64225002240E+03  0.64225002242E+03  0.50400001928E-02 0.  1.
    10030    2    1    2    0    0  0.00000000000E+00  0.00000000000E+00  0.47829490098E+03  0.17627949458E+04  0.16966673241E+04 0.  0.
        1    1    3    3  502    0  0.27083407097E+01 -0.35977892357E+03  0.10373492846E+04  0.10979716514E+04  0.50400001928E-02 0. -1.
       -1    1    3    3    0  502 -0.27083407097E+01  0.35977892357E+03 -0.55905438362E+03  0.66482329443E+03  0.50400001928E-02 0.  1.
</event>
<event>
 5   0  0.5755321E-05  0.1700794E+04  0.7818609E-02  0.8760912E-01
       -2   -1    0    0    0  501  0.00000000000E+00  0.00000000000E+00  0.24406063041E+03  0.24406063042E+03  0.25500000920E-02 0. -1.
        2   -1    0    0  501    0  0.00000000000E+00  0.00000000000E+00 -0.29630947708E+04  0.29630947708E+04  0.25500000920E-02 0.  1.
    10030    2    1    2    0    0  0.00000000000E+00  0.00000000000E+00 -0.27190341404E+04  0.32071554012E+04  0.17007936709E+04 0.  0.
        4    1    3    3  502    0 -0.37862534520E+03  0.62660903422E+03 -0.21753378557E+04  0.22952325444E+04  0.12699999809E+01 0.  1.
       -4    1    3    3    0  502  0.37862534520E+03 -0.62660903422E+03 -0.54369628468E+03  0.91192285675E+03  0.12699999809E+01 0. -1.
</event>
<event>
 5   0  0.2098250E-05  0.1700378E+04  0.7818609E-02  0.8761149E-01
        3   -1    0    0  501    0  0.00000000000E+00  0.00000000000E+00  0.47467571155E+03  0.47467572230E+03  0.10100000352E+00 0. -1.
       -3   -1    0    0    0  501  0.00000000000E+00  0.00000000000E+00 -0.15227692444E+04  0.15227692478E+04  0.10100000352E+00 0.  1.
    10030    2    1    2    0    0  0.00000000000E+00  0.00000000000E+00 -0.10480935329E+04  0.19974449701E+04  0.17003782976E+04 0.  0.
        2    1    3    3  502    0 -0.40201854503E+03  0.45985619260E+03  0.17065562474E+03  0.63420026071E+03  0.25500000920E-02 0. -1.
       -2    1    3    3    0  502  0.40201854503E+03 -0.45985619260E+03 -0.12187491576E+04  0.13632447094E+04  0.25500000920E-02 0.  1.
</event>
<event>
 5   0  0.5859822E-05  0.1694685E+04  0.7818609E-02  0.8764401E-01
       -2   -1    0    0    0  501  0.00000000000E+00  0.00000000000E+00  0.60581393355E+03  0.60581393355E+03  0.25500000920E-02 0.  1.
        2   -1    0    0  501    0  0.00000000000E+00  0.00000000000E+00 -0.11851651982E+04  0.11851651982E+04  0.25500000920E-02 0. -1.
    10030    2    1    2    0    0  0.00000000000E+00  0.00000000000E+00 -0.57935126463E+03  0.17909791317E+04  0.16946853285E+04 0.  0.
        5    1    3    3  502    0  0.47727826242E+03  0.37774557743E+03  0.33329437323E+03  0.69396937272E+03  0.46999998093E+01 0.  1.
       -5    1    3    3    0  502 -0.47727826242E+03 -0.37774557743E+03 -0.91264563786E+03  0.10970097590E+04  0.46999998093E+01 0. -1.
</event>
<event>
 5   0  0.5755321E-05  0.1701836E+04  0.7818609E-02  0.8760318E-01
        2   -1    0    0  501    0  0.00000000000E+00  0.00000000000E+00  0.17595214432E+04  0.17595214432E+04  0.25500000920E-02 0.  1.
       -2   -1    0    0    0  501  0.00000000000E+00  0.00000000000E+00 -0.41151031026E+03  0.41151031027E+03  0.25500000920E-02 0. -1.
    10030    2    1    2    0    0  0.00000000000E+00  0.00000000000E+00  0.13480111330E+04  0.21710317535E+04  0.17018357324E+04 0.  0.
        4    1    3    3  502    0 -0.19773859308E+03 -0.15992102982E+03  0.17099055917E+04  0.17287145607E+04  0.12699999809E+01 0.  1.
       -4    1    3    3    0  502  0.19773859308E+03  0.15992102982E+03 -0.36189445868E+03  0.44231719285E+03  0.12699999809E+01 0. -1.
</event>
<event>
 5   0  0.5671132E-05  0.1701559E+04  0.7818609E-02  0.8760476E-01
        2   -1    0    0  501    0  0.00000000000E+00  0.00000000000E+00  0.12849640540E+04  0.12849640540E+04  0.25500000920E-02 0. -1.
       -2   -1    0    0    0  501  0.00000000000E+00  0.00000000000E+00 -0.56330448779E+03  0.56330448779E+03  0.25500000920E-02 0.  1.
    10030    2    1    2    0    0  0.00000000000E+00  0.00000000000E+00  0.72165956617E+03  0.18482685418E+04  0.17015593063E+04 0.  0.
        3    1    3    3  502    0 -0.17895397206E+03 -0.83146138820E+03  0.38446459914E+03  0.93336252463E+03  0.10100000352E+00 0. -1.
       -3    1    3    3    0  502  0.17895397206E+03  0.83146138820E+03  0.33719496703E+03  0.91490601713E+03  0.10100000352E+00 0.  1.
</event>
<event>
 5   0  0.5671132E-05  0.1700830E+04  0.7818609E-02  0.8760891E-01
        2   -1    0    0  501    0  0.00000000000E+00  0.00000000000E+00  0.13994277522E+04  0.13994277522E+04  0.25500000920E-02 0.  1.
       -2   -1    0    0    0  501  0.00000000000E+00  0.00000000000E+00 -0.51678701738E+03  0.51678701739E+03  0.25500000920E-02 0. -1.
    10030    2    1    2    0    0  0.00000000000E+00  0.00000000000E+00  0.88264073485E+03  0.19162147696E+04  0.17008304961E+04 0.  0.
        3    1    3    3  502    0  0.39674285664E+03 -0.58361800601E+03 -0.93316457412E+02  0.71184467594E+03  0.10100000352E+00 0. -1.
       -3    1    3    3    0  502 -0.39674285664E+03  0.58361800601E+03  0.97595719226E+03  0.12043700937E+04  0.10100000352E+00 0.  1.
</event>
<event>
 5   0  0.5755321E-05  0.1699782E+04  0.7818609E-02  0.8761488E-01
       -2   -1    0    0    0  501  0.00000000000E+00  0.00000000000E+00  0.66796216039E+03  0.66796216039E+03  0.25500000920E-02 0.  1.
        2   -1    0    0  501    0  0.00000000000E+00  0.00000000000E+00 -0.10813712506E+04  0.10813712506E+04  0.25500000920E-02 0. -1.
    10030    2    1    2    0    0  0.00000000000E+00  0.00000000000E+00 -0.41340909025E+03  0.17493334110E+04  0.16997824293E+04 0.  0.
        4    1    3    3  502    0  0.80571045746E+03  0.19252027594E+03 -0.40218931016E+03  0.92086440480E+03  0.12699999809E+01 0. -1.
       -4    1    3    3    0  502 -0.80571045746E+03 -0.19252027594E+03 -0.11219780086E+02  0.82846900623E+03  0.12699999809E+01 0.  1.
</event>
<event>
 5   0  0.5671132E-05  0.1700844E+04  0.7818609E-02  0.8760883E-01
        2   -1    0    0  501    0  0.00000000000E+00  0.00000000000E+00  0.10285949167E+04  0.10285949167E+04  0.25500000920E-02 0.  1.
       -2   -1    0    0    0  501  0.00000000000E+00  0.00000000000E+00 -0.70311209621E+03  0.70311209621E+03  0.25500000920E-02 0. -1.
    10030    2    1    2    0    0  0.00000000000E+00  0.00000000000E+00  0.32548282048E+03  0.17317070129E+04  0.17008439411E+04 0.  0.
        3    1    3    3  502    0  0.53345762787E+03 -0.45155440219E+03 -0.33054899131E+03  0.77313715777E+03  0.10100000352E+00 0. -1.
       -3    1    3    3    0  502 -0.53345762787E+03  0.45155440219E+03  0.65603181179E+03  0.95856985512E+03  0.10100000352E+00 0.  1.
</event>
<event>
 5   0  0.2987859E-05  0.1697264E+04  0.7818609E-02  0.8762926E-01
       -1   -1    0    0    0  501  0.00000000000E+00  0.00000000000E+00  0.36381795127E+03  0.36381795130E+03  0.50400001928E-02 0.  1.
        1   -1    0    0  501    0  0.00000000000E+00  0.00000000000E+00 -0.19794969761E+04  0.19794969761E+04  0.50400001928E-02 0. -1.
    10030    2    1    2    0    0  0.00000000000E+00  0.00000000000E+00 -0.16156790248E+04  0.23433149274E+04  0.16972643099E+04 0.  0.
        5    1    3    3  502    0  0.24873524757E+02  0.65221078133E+03 -0.59031190316E+02  0.65536582680E+03  0.46999998093E+01 0.  1.
       -5    1    3    3    0  502 -0.24873524757E+02 -0.65221078133E+03 -0.15566478345E+04  0.16879491006E+04  0.46999998093E+01 0. -1.
</event>
<event>
 5   0  0.5821584E-05  0.1699572E+04  0.7818609E-02  0.8761609E-01
        2   -1    0    0  501    0  0.00000000000E+00  0.00000000000E+00  0.12911577695E+04  0.12911577695E+04  0.25500000920E-02 0.  1.
       -2   -1    0    0    0  501  0.00000000000E+00  0.00000000000E+00 -0.55929328969E+03  0.55929328970E+03  0.25500000920E-02 0. -1.
    10030    2    1    2    0    0  0.00000000000E+00  0.00000000000E+00  0.73186447985E+03  0.18504510592E+04  0.16995715654E+04 0.  0.
        1    1    3    3  502    0 -0.18272195056E+03  0.79241670077E+03  0.63445236491E+03  0.10314268477E+04  0.50400001928E-02 0.  1.
       -1    1    3    3    0  502  0.18272195056E+03 -0.79241670077E+03  0.97412114940E+02  0.81902421150E+03  0.50400001928E-02 0. -1.
</event>
<event>
 5   0  0.2993769E-05  0.1702691E+04  0.7818609E-02  0.8759831E-01
       -1   -1    0    0    0  501  0.00000000000E+00  0.00000000000E+00  0.87892501771E+03  0.87892501773E+03  0.50400001928E-02 0. -1.
        1   -1    0    0  501    0  0.00000000000E+00  0.00000000000E+00 -0.82463095772E+03  0.82463095774E+03  0.50400001928E-02 0.  1.
    10030    2    1    2    0    0  0.00000000000E+00  0.00000000000E+00  0.54294059988E+02  0.17035559755E+04  0.17026905522E+04 0.  0.
        3    1    3    3  502    0 -0.27482635764E+03 -0.59344703600E+03  0.57247438739E+03  0.86915812474E+03  0.10100000352E+00 0. -1.
       -3    1    3    3    0  502  0.27482635764E+03  0.59344703600E+03 -0.51818032740E+03  0.83439785072E+03  0.10100000352E+00 0.  1.
</event>
<event>
 5   0  0.5755321E-05  0.1700066E+04  0.7818609E-02  0.8761327E-01
       -2   -1    0    0    0  501  0.00000000000E+00  0.00000000000E+00  0.12027416213E+04  0.12027416213E+04  0.25500000920E-02 0. -1.
        2   -1    0    0  501    0  0.00000000000E+00  0.00000000000E+00 -0.60075724244E+03  0.60075724244E+03  0.25500000920E-02 0.  1.
    10030    2    1    2    0    0  0.00000000000E+00  0.00000000000E+00  0.60198437889E+03  0.18034988638E+04  0.17000655750E+04 0.  0.
        4    1    3    3  502    0 -0.72196042308E+03  0.22487870981E+03 -0.11090489033E+03  0.76426356333E+03  0.12699999809E+01 0.  1.
       -4    1    3    3    0  502  0.72196042308E+03 -0.22487870981E+03  0.71288926922E+03  0.10392353005E+04  0.12699999809E+01 0. -1.
</event>
<event>
 5   0  0.5755321E-05  0.1699236E+04  0.7818609E-02  0.8761800E-01
        2   -1    0    0  501    0  0.00000000000E+00  0.00000000000E+00  0.16855133979E+04  0.16855133979E+04  0.25500000920E-02 0.  1.
       -2   -1    0    0    0  501  0.00000000000E+00  0.00000000000E+00 -0.42826738369E+03  0.42826738369E+03  0.25500000920E-02 0. -1.
    10030    2    1    2    0    0  0.00000000000E+00  0.00000000000E+00  0.12572460142E+04  0.21137807815E+04  0.16992356082E+04 0.  0.
        4    1    3    3  502    0 -0.83761997415E+03 -0.14108535997E+03  0.60580387809E+03  0.10433179053E+04  0.12699999809E+01 0. -1.
       -4    1    3    3    0  502  0.83761997415E+03  0.14108535997E+03  0.65144213608E+03  0.10704628763E+04  0.12699999809E+01 0.  1.
</event>
<event>
 5   0  0.2098250E-05  0.1700655E+04  0.7818609E-02  0.8760991E-01
       -3   -1    0    0    0  501  0.00000000000E+00  0.00000000000E+00  0.25312433176E+03  0.25312435191E+03  0.10100000352E+00 0.  1.
        3   -1    0    0  501    0  0.00000000000E+00  0.00000000000E+00 -0.28565287827E+04  0.28565287845E+04  0.10100000352E+00 0. -1.
    10030    2    1    2    0    0  0.00000000000E+00  0.00000000000E+00 -0.26034044510E+04  0.31096531364E+04  0.17006551366E+04 0.  0.
        3    1    3    3  502    0  0.17905458036E+03  0.81766933350E+03 -0.15754486254E+04  0.17840073047E+04  0.10100000352E+00 0. -1.
       -3    1    3    3    0  502 -0.17905458036E+03 -0.81766933350E+03 -0.10279558256E+04  0.13256458318E+04  0.10100000352E+00 0.  1.
</event>
<event>
 5   0  0.5755321E-05  0.1698040E+04  0.7818609E-02  0.8762483E-01
       -2   -1    0    0    0  501  0.00000000000E+00  0.00000000000E+00  0.72922918827E+03  0.72922918827E+03  0.25500000920E-02 0.  1.
        2   -1    0    0  501    0  0.00000000000E+00  0.00000000000E+00 -0.98848875741E+03  0.98848875741E+03  0.25500000920E-02 0. -1.
    10030    2    1    2    0    0  0.00000000000E+00  0.00000000000E+00 -0.25925956914E+03  0.17177179457E+04  0.16980398749E+04 0.  0.
        4    1    3    3  502    0 -0.45910202413E+03  0.47250480191E+03 -0.67137098375E+03  0.94062535960E+03  0.12699999809E+01 0. -1.
       -4    1    3    3    0  502  0.45910202413E+03 -0.47250480191E+03  0.41211141461E+03  0.77709258608E+03  0.12699999809E+01 0.  1.
</event>
<event>
 5   0  0.5821584E-05  0.1697443E+04  0.7818609E-02  0.8762824E-01
        2   -1    0    0  501    0  0.00000000000E+00  0.00000000000E+00  0.19180953611E+04  0.19180953611E+04  0.25500000920E-02 0. -1.
       -2   -1    0    0    0  501  0.00000000000E+00  0.00000000000E+00 -0.37554365294E+03  0.37554365295E+03  0.25500000920E-02 0.  1.
    10030    2    1    2    0    0  0.00000000000E+00  0.00000000000E+00  0.15425517081E+04  0.22936390140E+04  0.16974434171E+04 0.  0.
        1    1    3    3  502    0  0.60198685075E+03  0.59048451668E+03  0.90136236859E+03  0.12343071953E+04  0.50400001928E-02 0.  1.
       -1    1    3    3    0  502 -0.60198685075E+03 -0.59048451668E+03  0.64118933952E+03  0.10593318187E+04  0.50400001928E-02 0. -1.
</event>
<event>
 5   0  0.2966258E-05  0.1739080E+04  0.7818609E-02  0.8739384E-01
        1   -1    0    0  501    0  0.00000000000E+00  0.00000000000E+00  0.21237166537E+04  0.21237166538E+04  0.50400001928E-02 0. -1.
       -1   -1    0    0    0  501  0.00000000000E+00  0.00000000000E+00 -0.35602665451E+03  0.35602665455E+03  0.50400001928E-02 0.  1.
    10030    2    1    2    0    0  0.00000000000E+00  0.00000000000E+00  0.17676899992E+04  0.24797433083E+04  0.17390799124E+04 0.  0.
        4    1    3    3  502    0 -0.14817033107E+03  0.57481581892E+03  0.17898548951E+04  0.18857226284E+04  0.12699999809E+01 0. -1.
       -4    1    3    3    0  502  0.14817033107E+03 -0.57481581892E+03 -0.22164895867E+02  0.59402067994E+03  0.12699999809E+01 0.  1.
</event>
<event>
 5   0  0.2098250E-05  0.1703433E+04  0.7818609E-02  0.8759409E-01
       -3   -1    0    0    0  501  0.00000000000E+00  0.00000000000E+00  0.61890602190E+03  0.61890603014E+03  0.10100000352E+00 0.  1.
        3   -1    0    0  501    0  0.00000000000E+00  0.00000000000E+00 -0.11721025652E+04  0.11721025695E+04  0.10100000352E+00 0. -1.
    10030    2    1    2    0    0  0.00000000000E+00  0.00000000000E+00 -0.55319654325E+03  0.17910085996E+04  0.17034334118E+04 0.  0.
        5    1    3    3  502    0  0.83932049057E+03  0.37311473749E+02 -0.42360126432E+03  0.94090974758E+03  0.46999998093E+01 0. -1.
       -5    1    3    3    0  502 -0.83932049057E+03 -0.37311473749E+02 -0.12959527894E+03  0.85009885206E+03  0.46999998093E+01 0.  1.
</event>
<event>
 5   0  0.2987859E-05  0.1701292E+04  0.7818609E-02  0.8760628E-01
        1   -1    0    0  501    0  0.00000000000E+00  0.00000000000E+00  0.18363122256E+04  0.18363122256E+04  0.50400001928E-02 0.  1.
       -1   -1    0    0    0  501  0.00000000000E+00  0.00000000000E+00 -0.39405005884E+03  0.39405005887E+03  0.50400001928E-02 0. -1.
    10030    2    1    2    0    0  0.00000000000E+00  0.00000000000E+00  0.14422621668E+04  0.22303622845E+04  0.17012923801E+04 0.  0.
        5    1    3    3  502    0 -0.38481065598E+03 -0.64347962619E+03  0.19439786878E+03  0.77456948795E+03  0.46999998093E+01 0. -1.
       -5    1    3    3    0  502  0.38481065598E+03  0.64347962619E+03  0.12478642980E+04  0.14557927966E+04  0.46999998093E+01 0.  1.
</event>
<event>
 5   0  0.5755321E-05  0.1700294E+04  0.7818609E-02  0.8761196E-01
        2   -1    0    0  501    0  0.00000000000E+00  0.00000000000E+00  0.91510656410E+03  0.91510656410E+03  0.25500000920E-02 0.  1.
       -2   -1    0    0    0  501  0.00000000000E+00  0.00000000000E+00 -0.78979903582E+03  0.78979903583E+03  0.25500000920E-02 0. -1.
    10030    2    1    2    0    0  0.00000000000E+00  0.00000000000E+00  0.12530752828E+03  0.17049055999E+04  0.17002944239E+04 0.  0.
        4    1    3    3  502    0 -0.49444459041E+03 -0.53259442101E+03 -0.37969612499E+03  0.81994087013E+03  0.12699999809E+01 0. -1.
       -4    1    3    3    0  502  0.49444459041E+03  0.53259442101E+03  0.50500365327E+03  0.88496472980E+03  0.12699999809E+01 0.  1.
</event>
<event>
 5   0  0.5821584E-05  0.1705933E+04  0.7818609E-02  0.8757988E-01
       -2   -1    0    0    0  501  0.00000000000E+00  0.00000000000E+00  0.77570525705E+03  0.77570525705E+03  0.25500000920E-02 0.  1.
        2   -1    0    0  501    0  0.00000000000E+00  0.00000000000E+00 -0.93792322312E+03  0.93792322312E+03  0.25500000920E-02 0. -1.
    10030    2    1    2    0    0  0.00000000000E+00  0.00000000000E+00 -0.16221796607E+03  0.17136284802E+04  0.17059331463E+04 0.  0.
        1    1    3    3  502    0  0.49045079498E+03 -0.51577301681E+03 -0.55332334757E+03  0.90151567605E+03  0.50400001928E-02 0. -1.
       -1    1    3    3    0  502 -0.49045079498E+03  0.51577301681E+03  0.39110538150E+03  0.81211280413E+03  0.50400001928E-02 0.  1.
</event>
<event>
 5   0  0.5652631E-05  0.1700927E+04  0.7818609E-02  0.8760836E-01
       -2   -1    0    0    0  501  0.00000000000E+00  0.00000000000E+00  0.64615490292E+03  0.64615490292E+03  0.25500000920E-02 0.  1.
        2   -1    0    0  501    0  0.00000000000E+00  0.00000000000E+00 -0.11193724476E+04  0.11193724476E+04  0.25500000920E-02 0. -1.
    10030    2    1    2    0    0  0.00000000000E+00  0.00000000000E+00 -0.47321754470E+03  0.17655273505E+04  0.17009268006E+04 0.  0.
        2    1    3    3  502    0 -0.57961157827E+03 -0.26305611124E+02 -0.88203383715E+03  0.10557581431E+04  0.25500000920E-02 0. -1.
       -2    1    3    3    0  502  0.57961157827E+03  0.26305611124E+02  0.40881629245E+03  0.70976920744E+03  0.25500000920E-02 0.  1.
</event>
<event>
 5   0  0.5859822E-05  0.1696142E+04  0.7818609E-02  0.8763568E-01
       -2   -1    0    0    0  501  0.00000000000E+00  0.00000000000E+00  0.78954577127E+03  0.78954577128E+03  0.25500000920E-02 0.  1.
        2   -1    0    0  501    0  0.00000000000E+00  0.00000000000E+00 -0.91093453350E+03  0.91093453351E+03  0.25500000920E-02 0. -1.
    10030    2    1    2    0    0  0.00000000000E+00  0.00000000000E+00 -0.12138876223E+03  0.17004803048E+04  0.16961421035E+04 0.  0.
        5    1    3    3  502    0  0.27389338838E+03  0.79244566987E+03 -0.18835698816E+03  0.85935334577E+03  0.46999998093E+01 0. -1.
       -5    1    3    3    0  502 -0.27389338838E+03 -0.79244566987E+03  0.66968225931E+02  0.84112695901E+03  0.46999998093E+01 0.  1.
</event>
<event>
 5   0  0.5652631E-05  0.1699038E+04  0.7818609E-02  0.8761913E-01
        2   -1    0    0  501    0  0.00000000000E+00  0.00000000000E+00  0.10802795723E+04  0.10802795723E+04  0.25500000920E-02 0.  1.
       -2   -1    0    0    0  501  0.00000000000E+00  0.00000000000E+00 -0.66805143533E+03  0.66805143534E+03  0.25500000920E-02 0. -1.
    10030    2    1    2    0    0  0.00000000000E+00  0.00000000000E+00  0.41222813699E+03  0.17483310077E+04  0.16990377498E+04 0.  0.
        2    1    3    3  502    0 -0.17162077993E+03  0.73874112918E+03 -0.18773051269E+03  0.78130332999E+03  0.25500000920E-02 0. -1.
       -2    1    3    3    0  502  0.17162077993E+03 -0.73874112918E+03  0.59995864968E+03  0.96702767767E+03  0.25500000920E-02 0.  1.
</event>
<event>
 5   0  0.2993769E-05  0.1700895E+04  0.7818609E-02  0.8760854E-01
        1   -1    0    0  501    0  0.00000000000E+00  0.00000000000E+00  0.12197647245E+04  0.12197647246E+04  0.50400001928E-02 0. -1.
       -1   -1    0    0    0  501  0.00000000000E+00  0.00000000000E+00 -0.59295115243E+03  0.59295115245E+03  0.50400001928E-02 0.  1.
    10030    2    1    2    0    0  0.00000000000E+00  0.00000000000E+00  0.62681357212E+03  0.18127158770E+04  0.17008949399E+04 0.  0.
        3    1    3    3  502    0  0.56835922828E+03  0.63195294536E+03  0.34473583201E+03  0.91719111509E+03  0.10100000352E+00 0.  1.
       -3    1    3    3    0  502 -0.56835922828E+03 -0.63195294536E+03  0.28207774011E+03  0.89552476191E+03  0.10100000352E+00 0. -1.
</event>
<event>
 5   0  0.5821584E-05  0.1701225E+04  0.7818609E-02  0.8760666E-01
        2   -1    0    0  501    0  0.00000000000E+00  0.00000000000E+00  0.15252644660E+04  0.15252644660E+04  0.25500000920E-02 0. -1.
       -2   -1    0    0    0  501  0.00000000000E+00  0.00000000000E+00 -0.47437114432E+03  0.47437114433E+03  0.25500000920E-02 0.  1.
    10030    2    1    2    0    0  0.00000000000E+00  0.00000000000E+00  0.10508933217E+04  0.19996356104E+04  0.17012247943E+04 0.  0.
        1    1    3    3  502    0 -0.16090229726E+03 -0.29080399684E+03  0.14457891689E+04  0.14834968267E+04  0.50400001928E-02 0. -1.
       -1    1    3    3    0  502  0.16090229726E+03  0.29080399684E+03 -0.39489584721E+03  0.51613878367E+03  0.50400001928E-02 0.  1.
</event>
<event>
 5   0  0.2967704E-05  0.1702022E+04  0.7818609E-02  0.8760212E-01
       -1   -1    0    0    0  501  0.00000000000E+00  0.00000000000E+00  0.10346925151E+04  0.10346925151E+04  0.50400001928E-02 0. -1.
        1   -1    0    0  501    0  0.00000000000E+00  0.00000000000E+00 -0.69993716032E+03  0.69993716034E+03  0.50400001928E-02 0.  1.
    10030    2    1    2    0    0  0.00000000000E+00  0.00000000000E+00  0.33475535476E+03  0.17346296754E+04  0.17020220220E+04 0.  0.
        2    1    3    3  502    0  0.57335664178E+03 -0.93828849989E+02  0.80112531909E+03  0.98961783970E+03  0.25500000920E-02 0. -1.
       -2    1    3    3    0  502 -0.57335664178E+03  0.93828849989E+02 -0.46636996433E+03  0.74501183574E+03  0.25500000920E-02 0.  1.
</event>
<event>
 5   0  0.2966258E-05  0.1702043E+04  0.7818609E-02  0.8760200E-01
       -1   -1    0    0    0  501  0.00000000000E+00  0.00000000000E+00  0.86841166051E+03  0.86841166052E+03  0.50400001928E-02 0. -1.
        1   -1    0    0  501    0  0.00000000000E+00  0.00000000000E+00 -0.83397975463E+03  0.83397975464E+03  0.50400001928E-02 0.  1.
    10030    2    1    2    0    0  0.00000000000E+00  0.00000000000E+00  0.34431905881E+02  0.17023914152E+04  0.17020431764E+04 0.  0.
        4    1    3    3  502    0  0.70939550933E+03  0.53123978755E+02 -0.44996845412E+03  0.84174661768E+03  0.12699999809E+01 0.  1.
       -4    1    3    3    0  502 -0.70939550933E+03 -0.53123978755E+02  0.48440036000E+03  0.86064479749E+03  0.12699999809E+01 0. -1.
</event>
<event>
 5   0  0.5671132E-05  0.1699879E+04  0.7818609E-02  0.8761433E-01
       -2   -1    0    0    0  501  0.00000000000E+00  0.00000000000E+00  0.68357151883E+03  0.68357151883E+03  0.25500000920E-02 0. -1.
        2   -1    0    0  501    0  0.00000000000E+00  0.00000000000E+00 -0.10567982793E+04  0.10567982793E+04  0.25500000920E-02 0.  1.
    10030    2    1    2    0    0  0.00000000000E+00  0.00000000000E+00 -0.37322676049E+03  0.17403697982E+04  0.16998790603E+04 0.  0.
        3    1    3    3  502    0  0.76212865977E+03  0.25920691871E+03  0.92589000256E+02  0.81030923351E+03  0.10100000352E+00 0. -1.
       -3    1    3    3    0  502 -0.76212865977E+03 -0.25920691871E+03 -0.46581576074E+03  0.93006056464E+03  0.10100000352E+00 0.  1.
</event>
<event>
 5   0  0.5859822E-05  0.1698568E+04  0.7818609E-02  0.8762182E-01
        2   -1    0    0  501    0  0.00000000000E+00  0.00000000000E+00  0.12891675282E+04  0.12891675282E+04  0.25500000920E-02 0.  1.
       -2   -1    0    0    0  501  0.00000000000E+00  0.00000000000E+00 -0.55949525156E+03  0.55949525157E+03  0.25500000920E-02 0. -1.
    10030    2    1    2    0    0  0.00000000000E+00  0.00000000000E+00  0.72967227660E+03  0.18486627797E+04  0.16985677620E+04 0.  0.
        5    1    3    3  502    0 -0.73647191829E+03 -0.42263672287E+03  0.34768498299E+03  0.91756178176E+03  0.46999998093E+01 0.  1.
       -5    1    3    3    0  502  0.73647191829E+03  0.42263672287E+03  0.38198729361E+03  0.93110099798E+03  0.46999998093E+01 0. -1.
</event>
<event>
 5   0  0.2098250E-05  0.1718453E+04  0.7818609E-02  0.8750909E-01
        3   -1    0    0  501    0  0.00000000000E+00  0.00000000000E+00  0.80132533426E+03  0.80132534062E+03  0.10100000352E+00 0.  1.
       -3   -1    0    0    0  501  0.00000000000E+00  0.00000000000E+00 -0.92131164566E+03  0.92131165120E+03  0.10100000352E+00 0. -1.
    10030    2    1    2    0    0  0.00000000000E+00  0.00000000000E+00 -0.11998631140E+03  0.17226369918E+04  0.17184532262E+04 0.  0.
        5    1    3    3  502    0 -0.40363281284E+03  0.37507853489E+03  0.60088798861E+03  0.81528634221E+03  0.46999998093E+01 0.  1.
       -5    1    3    3    0  502  0.40363281284E+03 -0.37507853489E+03 -0.72087430001E+03  0.90735064961E+03  0.46999998093E+01 0. -1.
</event>
<event>
 5   0  0.5859822E-05  0.1728249E+04  0.7818609E-02  0.8745415E-01
        2   -1    0    0  501    0  0.00000000000E+00  0.00000000000E+00  0.18537220799E+04  0.18537220799E+04  0.25500000920E-02 0. -1.
       -2   -1    0    0    0  501  0.00000000000E+00  0.00000000000E+00 -0.40281742691E+03  0.40281742692E+03  0.25500000920E-02 0.  1.
    10030    2    1    2    0    0  0.00000000000E+00  0.00000000000E+00  0.14509046530E+04  0.22565395068E+04  0.17282494709E+04 0.  0.
        5    1    3    3  502    0  0.60458210354E+03 -0.45499364295E+03  0.18057446512E+03  0.77792542220E+03  0.46999998093E+01 0.  1.
       -5    1    3    3    0  502 -0.60458210354E+03  0.45499364295E+03  0.12703301878E+04  0.14786140846E+04  0.46999998093E+01 0. -1.
</event>
<event>
 5   0  0.5821584E-05  0.1700505E+04  0.7818609E-02  0.8761076E-01
        2   -1    0    0  501    0  0.00000000000E+00  0.00000000000E+00  0.11828871849E+04  0.11828871849E+04  0.25500000920E-02 0. -1.
       -2   -1    0    0    0  501  0.00000000000E+00  0.00000000000E+00 -0.61115672482E+03  0.61115672482E+03  0.25500000920E-02 0.  1.
    10030    2    1    2    0    0  0.00000000000E+00  0.00000000000E+00  0.57173046011E+03  0.17940439097E+04  0.17005051694E+04 0.  0.
        1    1    3    3  502    0 -0.51587101478E+03  0.62402296174E+03  0.55976468749E+03  0.98430892816E+03  0.50400001928E-02 0. -1.
       -1    1    3    3    0  502  0.51587101478E+03 -0.62402296174E+03  0.11965772613E+02  0.80973498159E+03  0.50400001928E-02 0.  1.
</event>
<event>
 5   0  0.2966258E-05  0.1699256E+04  0.7818609E-02  0.8761789E-01
        1   -1    0    0  501    0  0.00000000000E+00  0.00000000000E+00  0.10367770369E+04  0.10367770369E+04  0.50400001928E-02 0.  1.
       -1   -1    0    0    0  501  0.00000000000E+00  0.00000000000E+00 -0.69626118007E+03  0.69626118009E+03  0.50400001928E-02 0. -1.
    10030    2    1    2    0    0  0.00000000000E+00  0.00000000000E+00  0.34051585684E+03  0.17330382170E+04  0.16992558409E+04 0.  0.
        4    1    3    3  502    0  0.58638028218E+03 -0.53775265628E+03  0.47425463904E+03  0.92624987461E+03  0.12699999809E+01 0.  1.
       -4    1    3    3    0  502 -0.58638028218E+03  0.53775265628E+03 -0.13373878220E+03  0.80678834240E+03  0.12699999809E+01 0. -1.
</event>
<event>
 5   0  0.2098250E-05  0.1697818E+04  0.7818609E-02  0.8762610E-01
        3   -1    0    0  501    0  0.00000000000E+00  0.00000000000E+00  0.15326758658E+04  0.15326758692E+04  0.10100000352E+00 0.  1.
       -3   -1    0    0    0  501  0.00000000000E+00  0.00000000000E+00 -0.47018825531E+03  0.47018826616E+03  0.10100000352E+00 0. -1.
    10030    2    1    2    0    0  0.00000000000E+00  0.00000000000E+00  0.10624876105E+04  0.20028641353E+04  0.16978176645E+04 0.  0.
        2    1    3    3  502    0  0.83317392977E+03  0.13522344729E+03  0.63795031408E+03  0.10580381757E+04  0.25500000920E-02 0. -1.
       -2    1    3    3    0  502 -0.83317392977E+03 -0.13522344729E+03  0.42453729644E+03  0.94482595964E+03  0.25500000920E-02 0.  1.
</event>
<event>
 5   0  0.5859822E-05  0.1675988E+04  0.7818609E-02  0.8775179E-01
        2   -1    0    0  501    0  0.00000000000E+00  0.00000000000E+00  0.14205127376E+04  0.14205127376E+04  0.25500000920E-02 0. -1.
       -2   -1    0    0    0  501  0.00000000000E+00  0.00000000000E+00 -0.49435262166E+03  0.49435262167E+03  0.25500000920E-02 0.  1.
    10030    2    1    2    0    0  0.00000000000E+00  0.00000000000E+00  0.92616011589E+03  0.19148653592E+04  0.16759883006E+04 0.  0.
        5    1    3    3  502    0 -0.42481598887E+03 -0.70927529283E+03  0.30695840151E+03  0.88192154734E+03  0.46999998093E+01 0.  1.
       -5    1    3    3    0  502  0.42481598887E+03  0.70927529283E+03  0.61920171438E+03  0.10329438119E+04  0.46999998093E+01 0. -1.
</event>
<event>
 5   0  0.5652631E-05  0.1700909E+04  0.7818609E-02  0.8760846E-01
       -2   -1    0    0    0  501  0.00000000000E+00  0.00000000000E+00  0.50345426235E+03  0.50345426236E+03  0.25500000920E-02 0. -1.
        2   -1    0    0  501    0  0.00000000000E+00  0.00000000000E+00 -0.14366215042E+04  0.14366215042E+04  0.25500000920E-02 0.  1.
    10030    2    1    2    0    0  0.00000000000E+00  0.00000000000E+00 -0.93316724181E+03  0.19400757665E+04  0.17009094269E+04 0.  0.
        2    1    3    3  502    0 -0.58944832669E+03 -0.49996977484E+03 -0.87122585630E+03  0.11646688792E+04  0.25500000920E-02 0.  1.
       -2    1    3    3    0  502  0.58944832669E+03  0.49996977484E+03 -0.61941385509E+02  0.77540688728E+03  0.25500000920E-02 0. -1.
</event>
<event>
 5   0  0.5671132E-05  0.1700939E+04  0.7818609E-02  0.8760829E-01
        2   -1    0    0  501    0  0.00000000000E+00  0.00000000000E+00  0.75022653049E+03  0.75022653050E+03  0.25500000920E-02 0.  1.
       -2   -1    0    0    0  501  0.00000000000E+00  0.00000000000E+00 -0.96410708633E+03  0.96410708634E+03  0.25500000920E-02 0. -1.
    10030    2    1    2    0    0  0.00000000000E+00  0.00000000000E+00 -0.21388055584E+03  0.17143336168E+04  0.17009394045E+04 0.  0.
        3    1    3    3  502    0 -0.39779201235E+03 -0.74760465607E+03 -0.18596367109E+03  0.86702578049E+03  0.10100000352E+00 0.  1.
       -3    1    3    3    0  502  0.39779201235E+03  0.74760465607E+03 -0.27916884754E+02  0.84730783634E+03  0.10100000352E+00 0. -1.
</event>
<event>
 5   0  0.2911632E-05  0.1703689E+04  0.7818609E-02  0.8759263E-01
        1   -1    0    0  501    0  0.00000000000E+00  0.00000000000E+00  0.10610203315E+04  0.10610203315E+04  0.50400001928E-02 0.  1.
       -1   -1    0    0    0  501  0.00000000000E+00  0.00000000000E+00 -0.68390698379E+03  0.68390698381E+03  0.50400001928E-02 0. -1.
    10030    2    1    2    0    0  0.00000000000E+00  0.00000000000E+00  0.37711334774E+03  0.17449273154E+04  0.17036891908E+04 0.  0.
        1    1    3    3  502    0  0.37001954603E+03  0.56007811337E+03 -0.34857744209E+03  0.75637833832E+03  0.50400001928E-02 0. -1.
       -1    1    3    3    0  502 -0.37001954603E+03 -0.56007811337E+03  0.72569078983E+03  0.98854897704E+03  0.50400001928E-02 0.  1.
</event>
<event>
 5   0  0.5671132E-05  0.1693083E+04  0.7818609E-02  0.8765320E-01
        2   -1    0    0  501    0  0.00000000000E+00  0.00000000000E+00  0.72204222607E+03  0.72204222607E+03  0.25500000920E-02 0.  1.
       -2   -1    0    0    0  501  0.00000000000E+00  0.00000000000E+00 -0.99250717421E+03  0.99250717422E+03  0.25500000920E-02 0. -1.
    10030    2    1    2    0    0  0.00000000000E+00  0.00000000000E+00 -0.27046494815E+03  0.17145494003E+04  0.16930825018E+04 0.  0.
        3    1    3    3  502    0  0.38772194192E+03  0.17035854463E+03 -0.87752129915E+03  0.97436850249E+03  0.10100000352E+00 0. -1.
       -3    1    3    3    0  502 -0.38772194192E+03 -0.17035854463E+03  0.60705635100E+03  0.74018089780E+03  0.10100000352E+00 0.  1.
</event>
<event>
 5   0  0.5859822E-05  0.1665033E+04  0.7818609E-02  0.8781563E-01
        2   -1    0    0  501    0  0.00000000000E+00  0.00000000000E+00  0.59152000945E+03  0.59152000946E+03  0.25500000920E-02 0.  1.
       -2   -1    0    0    0  501  0.00000000000E+00  0.00000000000E+00 -0.11716990996E+04  0.11716990996E+04  0.25500000920E-02 0. -1.
    10030    2    1    2    0    0  0.00000000000E+00  0.00000000000E+00 -0.58017909017E+03  0.17632191091E+04  0.16650326874E+04 0.  0.
        5    1    3    3  502    0  0.10670317151E+03 -0.59049420507E+03  0.32099412813E+03  0.68053529910E+03  0.46999998093E+01 0.  1.
       -5    1    3    3    0  502 -0.10670317151E+03  0.59049420507E+03 -0.90117321830E+03  0.10826838100E+04  0.46999998093E+01 0. -1.
</event>
<event>
 5   0  0.2911632E-05  0.1708028E+04  0.7818609E-02  0.8756799E-01
       -1   -1    0    0    0  501  0.00000000000E+00  0.00000000000E+00  0.82530513518E+03  0.82530513520E+03  0.50400001928E-02 0.  1.
        1   -1    0    0  501    0  0.00000000000E+00  0.00000000000E+00 -0.88372148293E+03  0.88372148294E+03  0.50400001928E-02 0. -1.
    10030    2    1    2    0    0  0.00000000000E+00  0.00000000000E+00 -0.58416347745E+02  0.17090266181E+04  0.17080279599E+04 0.  0.
        1    1    3    3  502    0  0.61099643981E+03  0.21194928930E+03 -0.58729833272E+03  0.87358942436E+03  0.50400001928E-02 0. -1.
       -1    1    3    3    0  502 -0.61099643981E+03 -0.21194928930E+03  0.52888198498E+03  0.83543719379E+03  0.50400001928E-02 0.  1.
</event>
<event>
 5   0  0.2967704E-05  0.1709552E+04  0.7818609E-02  0.8755935E-01
        1   -1    0    0  501    0  0.00000000000E+00  0.00000000000E+00  0.12076410778E+04  0.12076410778E+04  0.50400001928E-02 0. -1.
       -1   -1    0    0    0  501  0.00000000000E+00  0.00000000000E+00 -0.60501587411E+03  0.60501587413E+03  0.50400001928E-02 0.  1.
    10030    2    1    2    0    0  0.00000000000E+00  0.00000000000E+00  0.60262520367E+03  0.18126569519E+04  0.17095520142E+04 0.  0.
        2    1    3    3  502    0 -0.53647965363E+03 -0.48727936279E+03  0.78184580353E+03  0.10660837006E+04  0.25500000920E-02 0.  1.
       -2    1    3    3    0  502  0.53647965363E+03  0.48727936279E+03 -0.17922059986E+03  0.74657325132E+03  0.25500000920E-02 0. -1.
</event>
<event>
 5   0  0.5755321E-05  0.1709822E+04  0.7818609E-02  0.8755782E-01
        2   -1    0    0  501    0  0.00000000000E+00  0.00000000000E+00  0.61250978022E+03  0.61250978023E+03  0.25500000920E-02 0. -1.
       -2   -1    0    0    0  501  0.00000000000E+00  0.00000000000E+00 -0.11932423224E+04  0.11932423224E+04  0.25500000920E-02 0.  1.
    10030    2    1    2    0    0  0.00000000000E+00  0.00000000000E+00 -0.58073254213E+03  0.18057521026E+04  0.17098217365E+04 0.  0.
        4    1    3    3  502    0 -0.49157831373E+03  0.35631171242E+03  0.34528615297E+03  0.69844929327E+03  0.12699999809E+01 0. -1.
       -4    1    3    3    0  502  0.49157831373E+03 -0.35631171242E+03 -0.92601869511E+03  0.11073028093E+04  0.12699999809E+01 0.  1.
</event>
<event>
 5   0  0.5755321E-05  0.1697951E+04  0.7818609E-02  0.8762534E-01
        2   -1    0    0  501    0  0.00000000000E+00  0.00000000000E+00  0.12699972167E+04  0.12699972167E+04  0.25500000920E-02 0.  1.
       -2   -1    0    0    0  501  0.00000000000E+00  0.00000000000E+00 -0.56752819272E+03  0.56752819272E+03  0.25500000920E-02 0. -1.
    10030    2    1    2    0    0  0.00000000000E+00  0.00000000000E+00  0.70246902402E+03  0.18375254095E+04  0.16979507946E+04 0.  0.
        4    1    3    3  502    0 -0.22417029074E+03  0.74842766313E+03  0.71074925767E+03  0.10562018777E+04  0.12699999809E+01 0.  1.
       -4    1    3    3    0  502  0.22417029074E+03 -0.74842766313E+03 -0.82802336550E+01  0.78132353181E+03  0.12699999809E+01 0. -1.
</event>
<event>
 5   0  0.5652631E-05  0.1699785E+04  0.7818609E-02  0.8761487E-01
       -2   -1    0    0    0  501  0.00000000000E+00  0.00000000000E+00  0.10849905732E+04  0.10849905732E+04  0.25500000920E-02 0. -1.
        2   -1    0    0  501    0  0.00000000000E+00  0.00000000000E+00 -0.66573577635E+03  0.66573577635E+03  0.25500000920E-02 0.  1.
    10030    2    1    2    0    0  0.00000000000E+00  0.00000000000E+00  0.41925479689E+03  0.17507263496E+04  0.16997847412E+04 0.  0.
        2    1    3    3  502    0  0.52806707650E+03  0.52155071245E+03  0.63609825781E+03  0.97749218745E+03  0.25500000920E-02 0. -1.
       -2    1    3    3    0  502 -0.52806707650E+03 -0.52155071245E+03 -0.21684346093E+03  0.77323416213E+03  0.25500000920E-02 0.  1.
</event>
<event>
 5   0  0.5821584E-05  0.1698239E+04  0.7818609E-02  0.8762369E-01
       -2   -1    0    0    0  501  0.00000000000E+00  0.00000000000E+00  0.98010708482E+03  0.98010708482E+03  0.25500000920E-02 0. -1.
        2   -1    0    0  501    0  0.00000000000E+00  0.00000000000E+00 -0.73563801838E+03  0.73563801838E+03  0.25500000920E-02 0.  1.
    10030    2    1    2    0    0  0.00000000000E+00  0.00000000000E+00  0.24446906644E+03  0.17157451032E+04  0.16982391277E+04 0.  0.
        1    1    3    3  502    0 -0.10379228727E+03 -0.56560558886E+03  0.75343188670E+03  0.94780912053E+03  0.50400001928E-02 0. -1.
       -1    1    3    3    0  502  0.10379228727E+03  0.56560558886E+03 -0.50896282026E+03  0.76793598267E+03  0.50400001928E-02 0.  1.
</event>
<event>
 5   0  0.5755321E-05  0.1700037E+04  0.7818609E-02  0.8761343E-01
       -2   -1    0    0    0  501  0.00000000000E+00  0.00000000000E+00  0.53473656883E+03  0.53473656884E+03  0.25500000920E-02 0.  1.
        2   -1    0    0  501    0  0.00000000000E+00  0.00000000000E+00 -0.13511921387E+04  0.13511921387E+04  0.25500000920E-02 0. -1.
    10030    2    1    2    0    0  0.00000000000E+00  0.00000000000E+00 -0.81645556982E+03  0.18859287075E+04  0.17000374679E+04 0.  0.
        4    1    3    3  502    0 -0.11658258345E+03  0.63077046863E+03  0.21049198696E+03  0.67510841524E+03  0.12699999809E+01 0.  1.
       -4    1    3    3    0  502  0.11658258345E+03 -0.63077046863E+03 -0.10269475568E+04  0.12108202923E+04  0.12699999809E+01 0. -1.
</event>
<event>
 5   0  0.5671132E-05  0.1699981E+04  0.7818609E-02  0.8761375E-01
       -2   -1    0    0    0  501  0.00000000000E+00  0.00000000000E+00  0.10689170573E+04  0.10689170573E+04  0.25500000920E-02 0.  1.
        2   -1    0    0  501    0  0.00000000000E+00  0.00000000000E+00 -0.67590295298E+03  0.67590295299E+03  0.25500000920E-02 0. -1.
    10030    2    1    2    0    0  0.00000000000E+00  0.00000000000E+00  0.39301410434E+03  0.17448200103E+04  0.16999814064E+04 0.  0.
        3    1    3    3  502    0 -0.26328331529E+03 -0.39383558069E+03 -0.52784071701E+03  0.70925341132E+03  0.10100000352E+00 0. -1.
       -3    1    3    3    0  502  0.26328331529E+03  0.39383558069E+03  0.92085482135E+03  0.10355665990E+04  0.10100000352E+00 0.  1.
</event>
<event>
 5   0  0.2993769E-05  0.1699590E+04  0.7818609E-02  0.8761598E-01
        1   -1    0    0  501    0  0.00000000000E+00  0.00000000000E+00  0.55491816926E+03  0.55491816929E+03  0.50400001928E-02 0.  1.
       -1   -1    0    0    0  501  0.00000000000E+00  0.00000000000E+00 -0.13013663372E+04  0.13013663372E+04  0.50400001928E-02 0. -1.
    10030    2    1    2    0    0  0.00000000000E+00  0.00000000000E+00 -0.74644816790E+03  0.18562845065E+04  0.16995903334E+04 0.  0.
        3    1    3    3  502    0  0.60708813525E+03  0.59240135888E+03 -0.31693160260E+03  0.90550594967E+03  0.10100000352E+00 0. -1.
       -3    1    3    3    0  502 -0.60708813525E+03 -0.59240135888E+03 -0.42951656530E+03  0.95077855678E+03  0.10100000352E+00 0.  1.
</event>
<event>
 5   0  0.2993769E-05  0.1739200E+04  0.7818609E-02  0.8739317E-01
        1   -1    0    0  501    0  0.00000000000E+00  0.00000000000E+00  0.11254288953E+04  0.11254288953E+04  0.50400001928E-02 0.  1.
       -1   -1    0    0    0  501  0.00000000000E+00  0.00000000000E+00 -0.67192551654E+03  0.67192551656E+03  0.50400001928E-02 0. -1.
    10030    2    1    2    0    0  0.00000000000E+00  0.00000000000E+00  0.45350337871E+03  0.17973544118E+04  0.17392002666E+04 0.  0.
        3    1    3    3  502    0 -0.54356763255E+03 -0.61316092247E+03 -0.74140625516E+02  0.82275690855E+03  0.10100000352E+00 0.  1.
       -3    1    3    3    0  502  0.54356763255E+03  0.61316092247E+03  0.52764400422E+03  0.97459750328E+03  0.10100000352E+00 0. -1.
</event>
<event>
 5   0  0.2966258E-05  0.1696035E+04  0.7818609E-02  0.8763629E-01
        1   -1    0    0  501    0  0.00000000000E+00  0.00000000000E+00  0.79929022084E+03  0.79929022086E+03  0.50400001928E-02 0.  1.
       -1   -1    0    0    0  501  0.00000000000E+00  0.00000000000E+00 -0.89971587767E+03  0.89971587769E+03  0.50400001928E-02 0. -1.
    10030    2    1    2    0    0  0.00000000000E+00  0.00000000000E+00 -0.10042565683E+03  0.16990060985E+04  0.16960354980E+04 0.  0.
        4    1    3    3  502    0  0.53689865488E+03  0.50439616138E+03  0.37059057570E+03  0.82463000244E+03  0.12699999809E+01 0.  1.
       -4    1    3    3    0  502 -0.53689865488E+03 -0.50439616138E+03 -0.47101623253E+03  0.87437609610E+03  0.12699999809E+01 0. -1.
</event>
<event>
 5   0  0.2911632E-05  0.1703075E+04  0.7818609E-02  0.8759612E-01
       -1   -1    0    0    0  501  0.00000000000E+00  0.00000000000E+00  0.62708428731E+03  0.62708428733E+03  0.50400001928E-02 0. -1.
        1   -1    0    0  501    0  0.00000000000E+00  0.00000000000E+00 -0.11563300217E+04  0.11563300217E+04  0.50400001928E-02 0.  1.
    10030    2    1    2    0    0  0.00000000000E+00  0.00000000000E+00 -0.52924573442E+03  0.17834143091E+04  0.17030753214E+04 0.  0.
        1    1    3    3  502    0 -0.13768084245E+03  0.22195373041E+02 -0.11442903179E+04  0.11527571212E+04  0.50400001928E-02 0.  1.
       -1    1    3    3    0  502  0.13768084245E+03 -0.22195373041E+02  0.61504458343E+03  0.63065718786E+03  0.50400001928E-02 0. -1.
</event>
<event>
 5   0  0.5821584E-05  0.1699740E+04  0.7818609E-02  0.8761512E-01
       -2   -1    0    0    0  501  0.00000000000E+00  0.00000000000E+00  0.37514356888E+03  0.37514356889E+03  0.25500000920E-02 0. -1.
        2   -1    0    0  501    0  0.00000000000E+00  0.00000000000E+00 -0.19253412078E+04  0.19253412078E+04  0.25500000920E-02 0.  1.
    10030    2    1    2    0    0  0.00000000000E+00  0.00000000000E+00 -0.15501976389E+04  0.23004847767E+04  0.16997404178E+04 0.  0.
        1    1    3    3  502    0  0.54929228947E+03 -0.40343392766E+03 -0.14622889076E+04  0.16133102004E+04  0.50400001928E-02 0.  1.
       -1    1    3    3    0  502 -0.54929228947E+03  0.40343392766E+03 -0.87908731291E+02  0.68717457631E+03  0.50400001928E-02 0. -1.
</event>
<event>
 5   0  0.5755321E-05  0.1701714E+04  0.7818609E-02  0.8760387E-01
        2   -1    0    0  501    0  0.00000000000E+00  0.00000000000E+00  0.18477456622E+04  0.18477456622E+04  0.25500000920E-02 0. -1.
       -2   -1    0    0    0  501  0.00000000000E+00  0.00000000000E+00 -0.39180588287E+03  0.39180588288E+03  0.25500000920E-02 0.  1.
    10030    2    1    2    0    0  0.00000000000E+00  0.00000000000E+00  0.14559397793E+04  0.22395515451E+04  0.17017139836E+04 0.  0.
        4    1    3    3  502    0  0.73146191034E+02 -0.81008452930E+03  0.39930157873E+03  0.90610742936E+03  0.12699999809E+01 0.  1.
       -4    1    3    3    0  502 -0.73146191034E+02  0.81008452930E+03  0.10566382006E+04  0.13334441157E+04  0.12699999809E+01 0. -1.
</event>
<event>
 5   0  0.5652631E-05  0.1696809E+04  0.7818609E-02  0.8763187E-01
        2   -1    0    0  501    0  0.00000000000E+00  0.00000000000E+00  0.29051443919E+04  0.29051443919E+04  0.25500000920E-02 0. -1.
       -2   -1    0    0    0  501  0.00000000000E+00  0.00000000000E+00 -0.24776386308E+03  0.24776386310E+03  0.25500000920E-02 0.  1.
    10030    2    1    2    0    0  0.00000000000E+00  0.00000000000E+00  0.26573805289E+04  0.31529082550E+04  0.16968085306E+04 0.  0.
        2    1    3    3  502    0 -0.96897636461E+02  0.10904825823E+03 -0.22428499131E+03  0.26755267128E+03  0.25500000920E-02 0.  1.
       -2    1    3    3    0  502  0.96897636461E+02 -0.10904825823E+03  0.28816655202E+04  0.28853555838E+04  0.25500000920E-02 0. -1.
</event>
<event>
 5   0  0.2987859E-05  0.1701895E+04  0.7818609E-02  0.8760284E-01
        1   -1    0    0  501    0  0.00000000000E+00  0.00000000000E+00  0.84964050575E+03  0.84964050576E+03  0.50400001928E-02 0.  1.
       -1   -1    0    0    0  501  0.00000000000E+00  0.00000000000E+00 -0.85225680117E+03  0.85225680119E+03  0.50400001928E-02 0. -1.
    10030    2    1    2    0    0  0.00000000000E+00  0.00000000000E+00 -0.26162954236E+01  0.17018973069E+04  0.17018952960E+04 0.  0.
        5    1    3    3  502    0  0.12795646787E+03 -0.19994061161E+03  0.81584684480E+03  0.84969245613E+03  0.46999998093E+01 0.  1.
       -5    1    3    3    0  502 -0.12795646787E+03  0.19994061161E+03 -0.81846314023E+03  0.85220485081E+03  0.46999998093E+01 0. -1.
</event>
<event>
 5   0  0.2993769E-05  0.1694372E+04  0.7818609E-02  0.8764581E-01
       -1   -1    0    0    0  501  0.00000000000E+00  0.00000000000E+00  0.44547753387E+03  0.44547753390E+03  0.50400001928E-02 0.  1.
        1   -1    0    0  501    0  0.00000000000E+00  0.00000000000E+00 -0.16111349777E+04  0.16111349777E+04  0.50400001928E-02 0. -1.
    10030    2    1    2    0    0  0.00000000000E+00  0.00000000000E+00 -0.11656574438E+04  0.20566125116E+04  0.16943723754E+04 0.  0.
        3    1    3    3  502    0 -0.24656648974E+03 -0.22439304704E+03  0.36250823294E+03  0.49250330210E+03  0.10100000352E+00 0.  1.
       -3    1    3    3    0  502  0.24656648974E+03  0.22439304704E+03 -0.15281656767E+04  0.15641092095E+04  0.10100000352E+00 0. -1.
</event>
<event>
 5   0  0.5821584E-05  0.1693183E+04  0.7818609E-02  0.8765262E-01
        2   -1    0    0  501    0  0.00000000000E+00  0.00000000000E+00  0.13057590958E+04  0.13057590958E+04  0.25500000920E-02 0.  1.
       -2   -1    0    0    0  501  0.00000000000E+00  0.00000000000E+00 -0.54888938932E+03  0.54888938932E+03  0.25500000920E-02 0. -1.
    10030    2    1    2    0    0  0.00000000000E+00  0.00000000000E+00  0.75686970651E+03  0.18546484852E+04  0.16931831711E+04 0.  0.
        1    1    3    3  502    0 -0.51583412952E+03 -0.50619623825E+03  0.86138619208E+03  0.11244134705E+04  0.50400001928E-02 0.  1.
       -1    1    3    3    0  502  0.51583412952E+03  0.50619623825E+03 -0.10451648557E+03  0.73023501462E+03  0.50400001928E-02 0. -1.
</event>
<event>
 5   0  0.2966258E-05  0.1689291E+04  0.7818609E-02  0.8767496E-01
       -1   -1    0    0    0  501  0.00000000000E+00  0.00000000000E+00  0.66828658613E+03  0.66828658615E+03  0.50400001928E-02 0. -1.
        1   -1    0    0  501    0  0.00000000000E+00  0.00000000000E+00 -0.10675444489E+04  0.10675444489E+04  0.50400001928E-02 0.  1.
    10030    2    1    2    0    0  0.00000000000E+00  0.00000000000E+00 -0.39925786277E+03  0.17358310351E+04  0.16892905438E+04 0.  0.
        4    1    3    3  502    0  0.13810750608E+03 -0.52553324230E+03 -0.86410143772E+03  0.10207505962E+04  0.12699999809E+01 0.  1.
       -4    1    3    3    0  502 -0.13810750608E+03  0.52553324230E+03  0.46484357495E+03  0.71508043889E+03  0.12699999809E+01 0. -1.
</event>
<event>
 5   0  0.2993769E-05  0.1703562E+04  0.7818609E-02  0.8759335E-01
        1   -1    0    0  501    0  0.00000000000E+00  0.00000000000E+00  0.79615890008E+03  0.79615890010E+03  0.50400001928E-02 0. -1.
       -1   -1    0    0    0  501  0.00000000000E+00  0.00000000000E+00 -0.91128953095E+03  0.91128953097E+03  0.50400001928E-02 0.  1.
    10030    2    1    2    0    0  0.00000000000E+00  0.00000000000E+00 -0.11513063087E+03  0.17074484311E+04  0.17035624681E+04 0.  0.
        3    1    3    3  502    0 -0.69344968353E+02 -0.74417992538E+03  0.35192357733E+03  0.82611300707E+03  0.10100000352E+00 0. -1.
       -3    1    3    3    0  502  0.69344968353E+02  0.74417992538E+03 -0.46705420821E+03  0.88133542399E+03  0.10100000352E+00 0.  1.
</event>
<event>
 5   0  0.2911632E-05  0.1701204E+04  0.7818609E-02  0.8760678E-01
       -1   -1    0    0    0  501  0.00000000000E+00  0.00000000000E+00  0.95841115843E+03  0.95841115844E+03  0.50400001928E-02 0. -1.
        1   -1    0    0  501    0  0.00000000000E+00  0.00000000000E+00 -0.75491999898E+03  0.75491999899E+03  0.50400001928E-02 0.  1.
    10030    2    1    2    0    0  0.00000000000E+00  0.00000000000E+00  0.20349115945E+03  0.17133311574E+04  0.17012039863E+04 0.  0.
        1    1    3    3  502    0  0.31318873604E+02  0.82439521273E+03 -0.10689153337E+03  0.83188589275E+03  0.50400001928E-02 0.  1.
       -1    1    3    3    0  502 -0.31318873604E+02 -0.82439521273E+03  0.31038269282E+03  0.88144526469E+03  0.50400001928E-02 0. -1.
</event>
<event>
 5   0  0.2987859E-05  0.1700106E+04  0.7818609E-02  0.8761304E-01
       -1   -1    0    0    0  501  0.00000000000E+00  0.00000000000E+00  0.29873356422E+03  0.29873356426E+03  0.50400001928E-02 0. -1.
        1   -1    0    0  501    0  0.00000000000E+00  0.00000000000E+00 -0.24188449773E+04  0.24188449773E+04  0.50400001928E-02 0.  1.
    10030    2    1    2    0    0  0.00000000000E+00  0.00000000000E+00 -0.21201114131E+04  0.27175785416E+04  0.17001060925E+04 0.  0.
        5    1    3    3  502    0 -0.47332154925E+03 -0.28515693110E+03 -0.27558677836E+02  0.55328955806E+03  0.46999998093E+01 0. -1.
       -5    1    3    3    0  502  0.47332154925E+03  0.28515693110E+03 -0.20925527353E+04  0.21642889835E+04  0.46999998093E+01 0.  1.
</event>
<event>
 5   0  0.2993769E-05  0.1700258E+04  0.7818609E-02  0.8761217E-01
        1   -1    0    0  501    0  0.00000000000E+00  0.00000000000E+00  0.10361476690E+04  0.10361476690E+04  0.50400001928E-02 0. -1.
       -1   -1    0    0    0  501  0.00000000000E+00  0.00000000000E+00 -0.69750602089E+03  0.69750602091E+03  0.50400001928E-02 0.  1.
    10030    2    1    2    0    0  0.00000000000E+00  0.00000000000E+00  0.33864164810E+03  0.17336536899E+04  0.17002579071E+04 0.  0.
        3    1    3    3  502    0 -0.32599645642E+03  0.38239799767E+03  0.86851346883E+03  0.10034029968E+04  0.10100000352E+00 0. -1.
       -3    1    3    3    0  502  0.32599645642E+03 -0.38239799767E+03 -0.52987182072E+03  0.73025069313E+03  0.10100000352E+00 0.  1.
</event>
<event>
 5   0  0.5755321E-05  0.1695928E+04  0.7818609E-02  0.8763690E-01
        2   -1    0    0  501    0  0.00000000000E+00  0.00000000000E+00  0.51089863606E+03  0.51089863607E+03  0.25500000920E-02 0.  1.
       -2   -1    0    0    0  501  0.00000000000E+00  0.00000000000E+00 -0.14074081683E+04  0.14074081683E+04  0.25500000920E-02 0. -1.
    10030    2    1    2    0    0  0.00000000000E+00  0.00000000000E+00 -0.89650953226E+03  0.19183068044E+04  0.16959279626E+04 0.  0.
        4    1    3    3  502    0 -0.13118216413E+02  0.27412290175E+03 -0.13557850796E+04  0.13832824179E+04  0.12699999809E+01 0. -1.
       -4    1    3    3    0  502  0.13118216413E+02 -0.27412290175E+03  0.45927554731E+03  0.53502438647E+03  0.12699999809E+01 0.  1.
</event>
<event>
 5   0  0.5821584E-05  0.1727633E+04  0.7818609E-02  0.8745759E-01
        2   -1    0    0  501    0  0.00000000000E+00  0.00000000000E+00  0.10280472719E+04  0.10280472719E+04  0.25500000920E-02 0.  1.
       -2   -1    0    0    0  501  0.00000000000E+00  0.00000000000E+00 -0.72582154018E+03  0.72582154019E+03  0.25500000920E-02 0. -1.
    10030    2    1    2    0    0  0.00000000000E+00  0.00000000000E+00  0.30222573171E+03  0.17538688121E+04  0.17276328942E+04 0.  0.
        1    1    3    3  502    0  0.34291119435E+03 -0.36640115143E+03 -0.56265820283E+03  0.75393775885E+03  0.50400001928E-02 0. -1.
       -1    1    3    3    0  502 -0.34291119435E+03  0.36640115143E+03  0.86488393454E+03  0.99993105324E+03  0.50400001928E-02 0.  1.
</event>
<event>
 5   0  0.2966258E-05  0.1697130E+04  0.7818609E-02  0.8763003E-01
       -1   -1    0    0    0  501  0.00000000000E+00  0.00000000000E+00  0.86855287324E+03  0.86855287326E+03  0.50400001928E-02 0.  1.
        1   -1    0    0  501    0  0.00000000000E+00  0.00000000000E+00 -0.82903757096E+03  0.82903757098E+03  0.50400001928E-02 0. -1.
    10030    2    1    2    0    0  0.00000000000E+00  0.00000000000E+00  0.39515302280E+02  0.16975904442E+04  0.16971304774E+04 0.  0.
        4    1    3    3  502    0 -0.70848987363E+02  0.81563151241E+03 -0.20343284863E+03  0.84359995250E+03  0.12699999809E+01 0. -1.
       -4    1    3    3    0  502  0.70848987363E+02 -0.81563151241E+03  0.24294815091E+03  0.85399049174E+03  0.12699999809E+01 0.  1.
</event>
<event>
 5   0  0.5859822E-05  0.1702151E+04  0.7818609E-02  0.8760139E-01
       -2   -1    0    0    0  501  0.00000000000E+00  0.00000000000E+00  0.12140168935E+04  0.12140168935E+04  0.25500000920E-02 0.  1.
        2   -1    0    0  501    0  0.00000000000E+00  0.00000000000E+00 -0.59663868352E+03  0.59663868353E+03  0.25500000920E-02 0. -1.
    10030    2    1    2    0    0  0.00000000000E+00  0.00000000000E+00  0.61737820996E+03  0.18106555770E+04  0.17021509229E+04 0.  0.
        5    1    3    3  502    0  0.90611931658E+02  0.81789678586E+03  0.77727231191E+02  0.82657684878E+03  0.46999998093E+01 0.  1.
       -5    1    3    3    0  502 -0.90611931658E+02 -0.81789678586E+03  0.53965097877E+03  0.98407872823E+03  0.46999998093E+01 0. -1.
</event>
<event>
 5   0  0.2966258E-05  0.1701841E+04  0.7818609E-02  0.8760315E-01
       -1   -1    0    0    0  501  0.00000000000E+00  0.00000000000E+00  0.13091726187E+04  0.13091726188E+04  0.50400001928E-02 0.  1.
        1   -1    0    0  501    0  0.00000000000E+00  0.00000000000E+00 -0.55307114047E+03  0.55307114049E+03  0.50400001928E-02 0. -1.
    10030    2    1    2    0    0  0.00000000000E+00  0.00000000000E+00  0.75610147828E+03  0.18622437592E+04  0.17018408778E+04 0.  0.
        4    1    3    3  502    0  0.24287861170E+02 -0.62020448337E+03  0.10149964281E+04  0.11897322654E+04  0.12699999809E+01 0.  1.
       -4    1    3    3    0  502 -0.24287861170E+02  0.62020448337E+03 -0.25889494982E+03  0.67251149383E+03  0.12699999809E+01 0. -1.
</event>
<event>
 5   0  0.2911632E-05  0.1698025E+04  0.7818609E-02  0.8762491E-01
       -1   -1    0    0    0  501  0.00000000000E+00  0.00000000000E+00  0.11026216025E+04  0.11026216025E+04  0.50400001928E-02 0.  1.
        1   -1    0    0  501    0  0.00000000000E+00  0.00000000000E+00 -0.65373509916E+03  0.65373509917E+03  0.50400001928E-02 0. -1.
    10030    2    1    2    0    0  0.00000000000E+00  0.00000000000E+00  0.44888650335E+03  0.17563567017E+04  0.16980252562E+04 0.  0.
        1    1    3    3  502    0 -0.11117717133E+03  0.60681808668E+03 -0.37889013869E+03  0.72397948242E+03  0.50400001928E-02 0. -1.
       -1    1    3    3    0  502  0.11117717133E+03 -0.60681808668E+03  0.82777664204E+03  0.10323772193E+04  0.50400001928E-02 0.  1.
</event>
<event>
 5   0  0.2911632E-05  0.1705478E+04  0.7818609E-02  0.8758246E-01
       -1   -1    0    0    0  501  0.00000000000E+00  0.00000000000E+00  0.45382060721E+03  0.45382060724E+03  0.50400001928E-02 0.  1.
        1   -1    0    0  501    0  0.00000000000E+00  0.00000000000E+00 -0.16023156551E+04  0.16023156551E+04  0.50400001928E-02 0. -1.
    10030    2    1    2    0    0  0.00000000000E+00  0.00000000000E+00 -0.11484950479E+04  0.20561362624E+04  0.17054780721E+04 0.  0.
        1    1    3    3  502    0 -0.24589558692E+03 -0.20671598754E+03  0.37808105042E+03  0.49612641522E+03  0.50400001928E-02 0.  1.
       -1    1    3    3    0  502  0.24589558692E+03  0.20671598754E+03 -0.15265760983E+04  0.15600098472E+04  0.50400001928E-02 0. -1.
</event>
<event>
 5   0  0.2993769E-05  0.1700872E+04  0.7818609E-02  0.8760867E-01
        1   -1    0    0  501    0  0.00000000000E+00  0.00000000000E+00  0.50816574474E+03  0.50816574476E+03  0.50400001928E-02 0.  1.
       -1   -1    0    0    0  501  0.00000000000E+00  0.00000000000E+00 -0.14232399075E+04  0.14232399075E+04  0.50400001928E-02 0. -1.
    10030    2    1    2    0    0  0.00000000000E+00  0.00000000000E+00 -0.91507416276E+03  0.19314056523E+04  0.17008724439E+04 0.  0.
        3    1    3    3  502    0  0.59021380172E+03 -0.54732208856E+03 -0.76919620663E+03  0.11133627508E+04  0.10100000352E+00 0. -1.
       -3    1    3    3    0  502 -0.59021380172E+03  0.54732208856E+03 -0.14587795613E+03  0.81804290147E+03  0.10100000352E+00 0.  1.
</event>
<event>
 5   0  0.5859822E-05  0.1699360E+04  0.7818609E-02  0.8761729E-01
        2   -1    0    0  501    0  0.00000000000E+00  0.00000000000E+00  0.74537664553E+03  0.74537664554E+03  0.25500000920E-02 0. -1.
       -2   -1    0    0    0  501  0.00000000000E+00  0.00000000000E+00 -0.96857938738E+03  0.96857938738E+03  0.25500000920E-02 0.  1.
    10030    2    1    2    0    0  0.00000000000E+00  0.00000000000E+00 -0.22320274184E+03  0.17139560329E+04  0.16993604146E+04 0.  0.
        5    1    3    3  502    0 -0.60806556763E+03  0.12298567591E+03 -0.69716097434E+03  0.93323347838E+03  0.46999998093E+01 0.  1.
       -5    1    3    3    0  502  0.60806556763E+03 -0.12298567591E+03  0.47395823250E+03  0.78072255454E+03  0.46999998093E+01 0. -1.
</event>
<event>
 5   0  0.5821584E-05  0.1701171E+04  0.7818609E-02  0.8760697E-01
        2   -1    0    0  501    0  0.00000000000E+00  0.00000000000E+00  0.10110397777E+04  0.10110397777E+04  0.25500000920E-02 0.  1.
       -2   -1    0    0    0  501  0.00000000000E+00  0.00000000000E+00 -0.71559549497E+03  0.71559549497E+03  0.25500000920E-02 0. -1.
    10030    2    1    2    0    0  0.00000000000E+00  0.00000000000E+00  0.29544428276E+03  0.17266352727E+04  0.17011707853E+04 0.  0.
        1    1    3    3  502    0  0.68987878348E+02 -0.26925297231E+03  0.96364534008E+03  0.10029301232E+04  0.50400001928E-02 0.  1.
       -1    1    3    3    0  502 -0.68987878348E+02  0.26925297231E+03 -0.66820105732E+03  0.72370514955E+03  0.50400001928E-02 0. -1.
</event>
<event>
 5   0  0.2966258E-05  0.1693541E+04  0.7818609E-02  0.8765057E-01
        1   -1    0    0  501    0  0.00000000000E+00  0.00000000000E+00  0.10530222021E+04  0.10530222021E+04  0.50400001928E-02 0.  1.
       -1   -1    0    0    0  501  0.00000000000E+00  0.00000000000E+00 -0.68091661325E+03  0.68091661327E+03  0.50400001928E-02 0. -1.
    10030    2    1    2    0    0  0.00000000000E+00  0.00000000000E+00  0.37210558886E+03  0.17339388154E+04  0.16935410377E+04 0.  0.
        4    1    3    3  502    0  0.38532434720E+03  0.43439194902E+03  0.81707213289E+03  0.10023870017E+04  0.12699999809E+01 0.  1.
       -4    1    3    3    0  502 -0.38532434720E+03 -0.43439194902E+03 -0.44496654403E+03  0.73155181370E+03  0.12699999809E+01 0. -1.
</event>
<event>
 5   0  0.2993769E-05  0.1699679E+04  0.7818609E-02  0.8761548E-01
       -1   -1    0    0    0  501  0.00000000000E+00  0.00000000000E+00  0.59129810841E+03  0.59129810843E+03  0.50400001928E-02 0.  1.
        1   -1    0    0  501    0  0.00000000000E+00  0.00000000000E+00 -0.12214262267E+04  0.12214262267E+04  0.50400001928E-02 0. -1.
    10030    2    1    2    0    0  0.00000000000E+00  0.00000000000E+00 -0.63012811829E+03  0.18127243351E+04  0.16996788137E+04 0.  0.
        3    1    3    3  502    0  0.21098720640E+03  0.62414271764E+03  0.25744148601E+03  0.70735130040E+03  0.10100000352E+00 0.  1.
       -3    1    3    3    0  502 -0.21098720640E+03 -0.62414271764E+03 -0.88756960431E+03  0.11053730347E+04  0.10100000352E+00 0. -1.
</event>
<event>
 5   0  0.5859822E-05  0.1699984E+04  0.7818609E-02  0.8761374E-01
        2   -1    0    0  501    0  0.00000000000E+00  0.00000000000E+00  0.13912788305E+04  0.13912788305E+04  0.25500000920E-02 0. -1.
       -2   -1    0    0    0  501  0.00000000000E+00  0.00000000000E+00 -0.51929632714E+03  0.51929632715E+03  0.25500000920E-02 0.  1.
    10030    2    1    2    0    0  0.00000000000E+00  0.00000000000E+00  0.87198250332E+03  0.19105751576E+04  0.16999835137E+04 0.  0.
        5    1    3    3  502    0  0.50274924608E+03  0.62911104046E+03  0.74156720083E+03  0.10947518025E+04  0.46999998093E+01 0.  1.
       -5    1    3    3    0  502 -0.50274924608E+03 -0.62911104046E+03  0.13041530249E+03  0.81582335514E+03  0.46999998093E+01 0. -1.
</event>
<event>
 5   0  0.2993769E-05  0.1697707E+04  0.7818609E-02  0.8762673E-01
        1   -1    0    0  501    0  0.00000000000E+00  0.00000000000E+00  0.26317191178E+04  0.26317191178E+04  0.50400001928E-02 0. -1.
       -1   -1    0    0    0  501  0.00000000000E+00  0.00000000000E+00 -0.27379526098E+03  0.27379526102E+03  0.50400001928E-02 0.  1.
    10030    2    1    2    0    0  0.00000000000E+00  0.00000000000E+00  0.23579238568E+04  0.29055143788E+04  0.16977069509E+04 0.  0.
        3    1    3    3  502    0 -0.70408477851E+03 -0.28481998174E+03  0.53020763216E+03  0.92627098667E+03  0.10100000352E+00 0.  1.
       -3    1    3    3    0  502  0.70408477851E+03  0.28481998174E+03  0.18277162247E+04  0.19792433922E+04  0.10100000352E+00 0. -1.
</event>
<event>
 5   0  0.2993769E-05  0.1699398E+04  0.7818609E-02  0.8761708E-01
        1   -1    0    0  501    0  0.00000000000E+00  0.00000000000E+00  0.95486001780E+03  0.95486001781E+03  0.50400001928E-02 0.  1.
       -1   -1    0    0    0  501  0.00000000000E+00  0.00000000000E+00 -0.75612000204E+03  0.75612000206E+03  0.50400001928E-02 0. -1.
    10030    2    1    2    0    0  0.00000000000E+00  0.00000000000E+00  0.19874001576E+03  0.17109800199E+04  0.16993984331E+04 0.  0.
        3    1    3    3  502    0 -0.83071077613E+03 -0.18177095741E+02  0.27828291705E+03  0.87627175722E+03  0.10100000352E+00 0.  1.
       -3    1    3    3    0  502  0.83071077613E+03  0.18177095741E+02 -0.79542901294E+02  0.83470826265E+03  0.10100000352E+00 0. -1.
</event>
<event>
 5   0  0.5755321E-05  0.1703826E+04  0.7818609E-02  0.8759185E-01
        2   -1    0    0  501    0  0.00000000000E+00  0.00000000000E+00  0.11039566306E+04  0.11039566306E+04  0.25500000920E-02 0. -1.
       -2   -1    0    0    0  501  0.00000000000E+00  0.00000000000E+00 -0.65741357811E+03  0.65741357811E+03  0.25500000920E-02 0.  1.
    10030    2    1    2    0    0  0.00000000000E+00  0.00000000000E+00  0.44654305253E+03  0.17613702088E+04  0.17038263745E+04 0.  0.
        4    1    3    3  502    0 -0.78577268300E+03  0.29841891550E+03  0.36674610346E+03  0.91705881806E+03  0.12699999809E+01 0. -1.
       -4    1    3    3    0  502  0.78577268300E+03 -0.29841891550E+03  0.79796949069E+02  0.84431139070E+03  0.12699999809E+01 0.  1.
</event>
<event>
 5   0  0.5652631E-05  0.1700099E+04  0.7818609E-02  0.8761308E-01
        2   -1    0    0  501    0  0.00000000000E+00  0.00000000000E+00  0.23849235949E+04  0.23849235949E+04  0.25500000920E-02 0.  1.
       -2   -1    0    0    0  501  0.00000000000E+00  0.00000000000E+00 -0.30297987000E+03  0.30297987001E+03  0.25500000920E-02 0. -1.
    10030    2    1    2    0    0  0.00000000000E+00  0.00000000000E+00  0.20819437249E+04  0.26879034649E+04  0.17000986333E+04 0.  0.
        2    1    3    3  502    0 -0.34489523047E+03  0.73021666286E+03  0.62143381031E+03  0.10189941488E+04  0.25500000920E-02 0. -1.
       -2    1    3    3    0  502  0.34489523047E+03 -0.73021666286E+03  0.14605099146E+04  0.16689093161E+04  0.25500000920E-02 0.  1.
</event>
<event>
 5   0  0.2967704E-05  0.1700594E+04  0.7818609E-02  0.8761025E-01
       -1   -1    0    0    0  501  0.00000000000E+00  0.00000000000E+00  0.95914267851E+03  0.95914267852E+03  0.50400001928E-02 0. -1.
        1   -1    0    0  501    0  0.00000000000E+00  0.00000000000E+00 -0.75380377503E+03  0.75380377504E+03  0.50400001928E-02 0.  1.
    10030    2    1    2    0    0  0.00000000000E+00  0.00000000000E+00  0.20533890348E+03  0.17129464536E+04  0.17005944512E+04 0.  0.
        2    1    3    3  502    0  0.37464204681E+03  0.25152222432E+03 -0.62324902019E+03  0.76945398416E+03  0.25500000920E-02 0.  1.
       -2    1    3    3    0  502 -0.37464204681E+03 -0.25152222432E+03  0.82858792367E+03  0.94349246941E+03  0.25500000920E-02 0. -1.
</event>
<event>
 5   0  0.5652631E-05  0.1688204E+04  0.7818609E-02  0.8768121E-01
       -2   -1    0    0    0  501  0.00000000000E+00  0.00000000000E+00  0.30802142254E+03  0.30802142255E+03  0.25500000920E-02 0. -1.
        2   -1    0    0  501    0  0.00000000000E+00  0.00000000000E+00 -0.23131776861E+04  0.23131776861E+04  0.25500000920E-02 0.  1.
    10030    2    1    2    0    0  0.00000000000E+00  0.00000000000E+00 -0.20051562635E+04  0.26211991086E+04  0.16882041126E+04 0.  0.
        2    1    3    3  502    0  0.12145210079E+03  0.52704299434E+03  0.36375808221E+01  0.54086797157E+03  0.25500000920E-02 0. -1.
       -2    1    3    3    0  502 -0.12145210079E+03 -0.52704299434E+03 -0.20087938444E+04  0.20803311371E+04  0.25500000920E-02 0.  1.
</event>
<event>
 5   0  0.2967704E-05  0.1700118E+04  0.7818609E-02  0.8761297E-01
        1   -1    0    0  501    0  0.00000000000E+00  0.00000000000E+00  0.12776761099E+04  0.12776761099E+04  0.50400001928E-02 0.  1.
       -1   -1    0    0    0  501  0.00000000000E+00  0.00000000000E+00 -0.56555830006E+03  0.56555830008E+03  0.50400001928E-02 0. -1.
    10030    2    1    2    0    0  0.00000000000E+00  0.00000000000E+00  0.71211780986E+03  0.18432344100E+04  0.17001180298E+04 0.  0.
        2    1    3    3  502    0 -0.11373963855E+03  0.57513950556E+03  0.10234052546E+04  0.11794407452E+04  0.25500000920E-02 0.  1.
       -2    1    3    3    0  502  0.11373963855E+03 -0.57513950556E+03 -0.31128744473E+03  0.66379366484E+03  0.25500000920E-02 0. -1.
</event>
<event>
 5   0  0.2098250E-05  0.1697188E+04  0.7818609E-02  0.8762970E-01
       -3   -1    0    0    0  501  0.00000000000E+00  0.00000000000E+00  0.68858312204E+03  0.68858312945E+03  0.10100000352E+00 0.  1.
        3   -1    0    0  501    0  0.00000000000E+00  0.00000000000E+00 -0.10457876969E+04  0.10457877018E+04  0.10100000352E+00 0. -1.
    10030    2    1    2    0    0  0.00000000000E+00  0.00000000000E+00 -0.35720457486E+03  0.17343708312E+04  0.16971879896E+04 0.  0.
        3    1    3    3  502    0 -0.51811922250E+03 -0.49343865179E+03  0.28766414209E+03  0.77115491353E+03  0.10100000352E+00 0.  1.
       -3    1    3    3    0  502  0.51811922250E+03  0.49343865179E+03 -0.64486871695E+03  0.96321591770E+03  0.10100000352E+00 0. -1.
</event>
<event>
 5   0  0.2911632E-05  0.1700134E+04  0.7818609E-02  0.8761288E-01
       -1   -1    0    0    0  501  0.00000000000E+00  0.00000000000E+00  0.80121043616E+03  0.80121043618E+03  0.50400001928E-02 0. -1.
        1   -1    0    0  501    0  0.00000000000E+00  0.00000000000E+00 -0.90190263805E+03  0.90190263807E+03  0.50400001928E-02 0.  1.
    10030    2    1    2    0    0  0.00000000000E+00  0.00000000000E+00 -0.10069220189E+03  0.17031130742E+04  0.17001338842E+04 0.  0.
        1    1    3    3  502    0 -0.18288976485E+03 -0.21068895184E+03  0.75404000000E+03  0.80399926750E+03  0.50400001928E-02 0. -1.
       -1    1    3    3    0  502  0.18288976485E+03  0.21068895184E+03 -0.85473220189E+03  0.89911380675E+03  0.50400001928E-02 0.  1.
</event>
<event>
 5   0  0.5652631E-05  0.1699132E+04  0.7818609E-02  0.8761859E-01
        2   -1    0    0  501    0  0.00000000000E+00  0.00000000000E+00  0.11359943156E+04  0.11359943156E+04  0.25500000920E-02 0.  1.
       -2   -1    0    0    0  501  0.00000000000E+00  0.00000000000E+00 -0.63535774062E+03  0.63535774062E+03  0.25500000920E-02 0. -1.
    10030    2    1    2    0    0  0.00000000000E+00  0.00000000000E+00  0.50063657496E+03  0.17713520562E+04  0.16991324630E+04 0.  0.
        2    1    3    3  502    0  0.21482201953E+03  0.77245295219E+03 -0.42569103815E+02  0.80289737328E+03  0.25500000920E-02 0. -1.
       -2    1    3    3    0  502 -0.21482201953E+03 -0.77245295219E+03  0.54320567877E+03  0.96845468292E+03  0.25500000920E-02 0.  1.
</event>
<event>
 5   0  0.5755321E-05  0.1663772E+04  0.7818609E-02  0.8782300E-01
        2   -1    0    0  501    0  0.00000000000E+00  0.00000000000E+00  0.14829722221E+04  0.14829722221E+04  0.25500000920E-02 0.  1.
       -2   -1    0    0    0  501  0.00000000000E+00  0.00000000000E+00 -0.46665377241E+03  0.46665377242E+03  0.25500000920E-02 0. -1.
    10030    2    1    2    0    0  0.00000000000E+00  0.00000000000E+00  0.10163184497E+04  0.19496259945E+04  0.16637723183E+04 0.  0.
        4    1    3    3  502    0 -0.56405836651E+03  0.43795547267E+03  0.81569326068E+01  0.71416733706E+03  0.12699999809E+01 0. -1.
       -4    1    3    3    0  502  0.56405836651E+03 -0.43795547267E+03  0.10081615170E+04  0.12354586574E+04  0.12699999809E+01 0.  1.
</event>
<event>
 5   0  0.5821584E-05  0.1699813E+04  0.7818609E-02  0.8761471E-01
        2   -1    0    0  501    0  0.00000000000E+00  0.00000000000E+00  0.14412380211E+04  0.14412380211E+04  0.25500000920E-02 0.  1.
       -2   -1    0    0    0  501  0.00000000000E+00  0.00000000000E+00 -0.50119468685E+03  0.50119468685E+03  0.25500000920E-02 0. -1.
    10030    2    1    2    0    0  0.00000000000E+00  0.00000000000E+00  0.94004333421E+03  0.19424327079E+04  0.16998127410E+04 0.  0.
        1    1    3    3  502    0 -0.86640524863E+02 -0.58707197891E+03 -0.22524565446E+03  0.63474065085E+03  0.50400001928E-02 0. -1.
       -1    1    3    3    0  502  0.86640524863E+02  0.58707197891E+03  0.11652889887E+04  0.13076920571E+04  0.50400001928E-02 0.  1.
</event>
<event>
 5   0  0.5821584E-05  0.1702573E+04  0.7818609E-02  0.8759898E-01
       -2   -1    0    0    0  501  0.00000000000E+00  0.00000000000E+00  0.19487247719E+04  0.19487247719E+04  0.25500000920E-02 0. -1.
        2   -1    0    0  501    0  0.00000000000E+00  0.00000000000E+00 -0.37187859916E+03  0.37187859917E+03  0.25500000920E-02 0.  1.
    10030    2    1    2    0    0  0.00000000000E+00  0.00000000000E+00  0.15768461727E+04  0.23206033710E+04  0.17025733914E+04 0.  0.
        1    1    3    3  502    0 -0.64352614754E+03  0.51882470209E+03  0.10656986819E+04  0.13487099965E+04  0.50400001928E-02 0.  1.
       -1    1    3    3    0  502  0.64352614754E+03 -0.51882470209E+03  0.51114749082E+03  0.97189337453E+03  0.50400001928E-02 0. -1.
</event>
<event>
 5   0  0.2967704E-05  0.1698336E+04  0.7818609E-02  0.8762314E-01
       -1   -1    0    0    0  501  0.00000000000E+00  0.00000000000E+00  0.34803504390E+03  0.34803504394E+03  0.50400001928E-02 0.  1.
        1   -1    0    0  501    0  0.00000000000E+00  0.00000000000E+00 -0.20718776598E+04  0.20718776598E+04  0.50400001928E-02 0. -1.
    10030    2    1    2    0    0  0.00000000000E+00  0.00000000000E+00 -0.17238426159E+04  0.24199127037E+04  0.16983356940E+04 0.  0.
        2    1    3    3  502    0 -0.58927643765E+03 -0.30040629311E+03 -0.16207185285E+04  0.17504911338E+04  0.25500000920E-02 0. -1.
       -2    1    3    3    0  502  0.58927643765E+03  0.30040629311E+03 -0.10312408742E+03  0.66942156995E+03  0.25500000920E-02 0.  1.
</event>
<event>
 5   0  0.2098250E-05  0.1699543E+04  0.7818609E-02  0.8761625E-01
        4   -1    0    0  501    0  0.00000000000E+00  0.00000000000E+00  0.13146899418E+04  0.13146905552E+04  0.12699999809E+01 0. -1.
       -4   -1    0    0    0  501  0.00000000000E+00  0.00000000000E+00 -0.54926220579E+03  0.54926367403E+03  0.12699999809E+01 0.  1.
    10030    2    1    2    0    0  0.00000000000E+00  0.00000000000E+00  0.76542773604E+03  0.18639542293E+04  0.16995428061E+04 0.  0.
        5    1    3    3  502    0 -0.18024374557E+03  0.72986461508E+03 -0.51709799424E+02  0.75358221682E+03  0.46999998093E+01 0.  1.
       -5    1    3    3    0  502  0.18024374557E+03 -0.72986461508E+03  0.81713753547E+03  0.11103720124E+04  0.46999998093E+01 0. -1.
</event>
<event>
 5   0  0.5821584E-05  0.1701422E+04  0.7818609E-02  0.8760554E-01
        2   -1    0    0  501    0  0.00000000000E+00  0.00000000000E+00  0.11560224765E+04  0.11560224766E+04  0.25500000920E-02 0.  1.
       -2   -1    0    0    0  501  0.00000000000E+00  0.00000000000E+00 -0.62603362543E+03  0.62603362543E+03  0.25500000920E-02 0. -1.
    10030    2    1    2    0    0  0.00000000000E+00  0.00000000000E+00  0.52998885112E+03  0.17820561020E+04  0.17014216903E+04 0.  0.
        1    1    3    3  502    0 -0.91031622047E+02 -0.54926630471E+03 -0.40870664569E+03  0.69066732365E+03  0.50400001928E-02 0. -1.
       -1    1    3    3    0  502  0.91031622047E+02  0.54926630471E+03  0.93869549681E+03  0.10913887783E+04  0.50400001928E-02 0.  1.
</event>
<event>
 5   0  0.5859822E-05  0.1698465E+04  0.7818609E-02  0.8762240E-01
        2   -1    0    0  501    0  0.00000000000E+00  0.00000000000E+00  0.13639786472E+04  0.13639786472E+04  0.25500000920E-02 0. -1.
       -2   -1    0    0    0  501  0.00000000000E+00  0.00000000000E+00 -0.52874403427E+03  0.52874403428E+03  0.25500000920E-02 0.  1.
    10030    2    1    2    0    0  0.00000000000E+00  0.00000000000E+00  0.83523461297E+03  0.18927226815E+04  0.16984646863E+04 0.  0.
        5    1    3    3  502    0  0.27756796368E+02 -0.82327681323E+03  0.64767072302E+03  0.10478810077E+04  0.46999998093E+01 0. -1.
       -5    1    3    3    0  502 -0.27756796368E+02  0.82327681323E+03  0.18756388995E+03  0.84484167378E+03  0.46999998093E+01 0.  1.
</event>
<event>
 5   0  0.5755321E-05  0.1701821E+04  0.7818609E-02  0.8760327E-01
        2   -1    0    0  501    0  0.00000000000E+00  0.00000000000E+00  0.47964666988E+03  0.47964666988E+03  0.25500000920E-02 0. -1.
       -2   -1    0    0    0  501  0.00000000000E+00  0.00000000000E+00 -0.15095450946E+04  0.15095450946E+04  0.25500000920E-02 0.  1.
    10030    2    1    2    0    0  0.00000000000E+00  0.00000000000E+00 -0.10298984247E+04  0.19891917645E+04  0.17018205283E+04 0.  0.
        4    1    3    3  502    0  0.55152663090E+03  0.40344235602E+03  0.77721335869E+02  0.68774237777E+03  0.12699999809E+01 0. -1.
       -4    1    3    3    0  502 -0.55152663090E+03 -0.40344235602E+03 -0.11076197606E+04  0.13014493867E+04  0.12699999809E+01 0.  1.
</event>
<event>
 5   0  0.2911632E-05  0.1700533E+04  0.7818609E-02  0.8761060E-01
        1   -1    0    0  501    0  0.00000000000E+00  0.00000000000E+00  0.14419771721E+04  0.14419771721E+04  0.50400001928E-02 0. -1.
       -1   -1    0    0    0  501  0.00000000000E+00  0.00000000000E+00 -0.50136241222E+03  0.50136241225E+03  0.50400001928E-02 0.  1.
    10030    2    1    2    0    0  0.00000000000E+00  0.00000000000E+00  0.94061475984E+03  0.19433395843E+04  0.17005330381E+04 0.  0.
        1    1    3    3  502    0  0.34106042572E+03 -0.43683201256E+03  0.12072105518E+04  0.13283454888E+04  0.50400001928E-02 0. -1.
       -1    1    3    3    0  502 -0.34106042572E+03  0.43683201256E+03 -0.26659579198E+03  0.61499409551E+03  0.50400001928E-02 0.  1.
</event>
<event>
 5   0  0.5671132E-05  0.1710215E+04  0.7818609E-02  0.8755560E-01
        2   -1    0    0  501    0  0.00000000000E+00  0.00000000000E+00  0.11614468328E+04  0.11614468329E+04  0.25500000920E-02 0. -1.
       -2   -1    0    0    0  501  0.00000000000E+00  0.00000000000E+00 -0.62956693697E+03  0.62956693698E+03  0.25500000920E-02 0.  1.
    10030    2    1    2    0    0  0.00000000000E+00  0.00000000000E+00  0.53187989588E+03  0.17910137698E+04  0.17102146357E+04 0.  0.
        3    1    3    3  502    0  0.45461695266E+03  0.52785839581E+03 -0.25336842298E+03  0.74128714250E+03  0.10100000352E+00 0.  1.
       -3    1    3    3    0  502 -0.45461695266E+03 -0.52785839581E+03  0.78524831885E+03  0.10497266273E+04  0.10100000352E+00 0. -1.
</event>
<event>
 5   0  0.5821584E-05  0.1698925E+04  0.7818609E-02  0.8761978E-01
        2   -1    0    0  501    0  0.00000000000E+00  0.00000000000E+00  0.97151913195E+03  0.97151913195E+03  0.25500000920E-02 0. -1.
       -2   -1    0    0    0  501  0.00000000000E+00  0.00000000000E+00 -0.74274052311E+03  0.74274052311E+03  0.25500000920E-02 0.  1.
    10030    2    1    2    0    0  0.00000000000E+00  0.00000000000E+00  0.22877860884E+03  0.17142596551E+04  0.16989251052E+04 0.  0.
        1    1    3    3  502    0 -0.43646036010E+03  0.33031449460E+03 -0.54107490357E+03  0.76965405383E+03  0.50400001928E-02 0.  1.
       -1    1    3    3    0  502  0.43646036010E+03 -0.33031449460E+03  0.76985351241E+03  0.94460560123E+03  0.50400001928E-02 0. -1.
</event>
<event>
 5   0  0.2966258E-05  0.1702049E+04  0.7818609E-02  0.8760196E-01
       -1   -1    0    0    0  501  0.00000000000E+00  0.00000000000E+00  0.11821177636E+04  0.11821177637E+04  0.50400001928E-02 0.  1.
        1   -1    0    0  501    0  0.00000000000E+00  0.00000000000E+00 -0.61266569044E+03  0.61266569046E+03  0.50400001928E-02 0. -1.
    10030    2    1    2    0    0  0.00000000000E+00  0.00000000000E+00  0.56945207321E+03  0.17947834541E+04  0.17020493481E+04 0.  0.
        4    1    3    3  502    0 -0.72251669607E+02 -0.91882592978E+02 -0.60415981270E+03  0.61536445041E+03  0.12699999809E+01 0. -1.
       -4    1    3    3    0  502  0.72251669607E+02  0.91882592978E+02  0.11736118859E+04  0.11794190037E+04  0.12699999809E+01 0.  1.
</event>
<event>
 5   0  0.5671132E-05  0.1699736E+04  0.7818609E-02  0.8761515E-01
       -2   -1    0    0    0  501  0.00000000000E+00  0.00000000000E+00  0.31155239959E+03  0.31155239960E+03  0.25500000920E-02 0. -1.
        2   -1    0    0  501    0  0.00000000000E+00  0.00000000000E+00 -0.23183109827E+04  0.23183109827E+04  0.25500000920E-02 0.  1.
    10030    2    1    2    0    0  0.00000000000E+00  0.00000000000E+00 -0.20067585831E+04  0.26298633823E+04  0.16997356850E+04 0.  0.
        3    1    3    3  502    0 -0.58659968968E+03 -0.21315344010E+02 -0.19542858022E+04  0.20405358480E+04  0.10100000352E+00 0.  1.
       -3    1    3    3    0  502  0.58659968968E+03  0.21315344010E+02 -0.52472780908E+02  0.58932753436E+03  0.10100000352E+00 0. -1.
</event>
<event>
 5   0  0.5821584E-05  0.1723537E+04  0.7818609E-02  0.8748053E-01
        2   -1    0    0  501    0  0.00000000000E+00  0.00000000000E+00  0.10725138361E+04  0.10725138361E+04  0.25500000920E-02 0.  1.
       -2   -1    0    0    0  501  0.00000000000E+00  0.00000000000E+00 -0.69243413245E+03  0.69243413245E+03  0.25500000920E-02 0. -1.
    10030    2    1    2    0    0  0.00000000000E+00  0.00000000000E+00  0.38007970368E+03  0.17649479686E+04  0.17235372786E+04 0.  0.
        1    1    3    3  502    0  0.12314247032E+03 -0.84314804328E+03  0.58172833627E+02  0.85407655949E+03  0.50400001928E-02 0. -1.
       -1    1    3    3    0  502 -0.12314247032E+03  0.84314804328E+03  0.32190687006E+03  0.91087140909E+03  0.50400001928E-02 0.  1.
</event>
<event>
 5   0  0.2967704E-05  0.1699841E+04  0.7818609E-02  0.8761455E-01
       -1   -1    0    0    0  501  0.00000000000E+00  0.00000000000E+00  0.54221253996E+03  0.54221253998E+03  0.50400001928E-02 0. -1.
        1   -1    0    0  501    0  0.00000000000E+00  0.00000000000E+00 -0.13322535949E+04  0.13322535949E+04  0.50400001928E-02 0.  1.
    10030    2    1    2    0    0  0.00000000000E+00  0.00000000000E+00 -0.79004105497E+03  0.18744661349E+04  0.16998407050E+04 0.  0.
        2    1    3    3  502    0 -0.21711912605E+03  0.40038029526E+03  0.39627561291E+03  0.60372134063E+03  0.25500000920E-02 0. -1.
       -2    1    3    3    0  502  0.21711912605E+03 -0.40038029526E+03 -0.11863166679E+04  0.12707447943E+04  0.25500000920E-02 0.  1.
</event>
<event>
 5   0  0.5859822E-05  0.1697425E+04  0.7818609E-02  0.8762834E-01
        2   -1    0    0  501    0  0.00000000000E+00  0.00000000000E+00  0.10898337799E+04  0.10898337799E+04  0.25500000920E-02 0. -1.
       -2   -1    0    0    0  501  0.00000000000E+00  0.00000000000E+00 -0.66093826752E+03  0.66093826752E+03  0.25500000920E-02 0.  1.
    10030    2    1    2    0    0  0.00000000000E+00  0.00000000000E+00  0.42889551241E+03  0.17507720475E+04  0.16974249325E+04 0.  0.
        5    1    3    3  502    0 -0.17911424597E+03 -0.43588981139E+03  0.94247021389E+03  0.10537333794E+04  0.46999998093E+01 0. -1.
       -5    1    3    3    0  502  0.17911424597E+03  0.43588981139E+03 -0.51357470148E+03  0.69703866806E+03  0.46999998093E+01 0.  1.
</event>
<event>
 5   0  0.2911632E-05  0.1700129E+04  0.7818609E-02  0.8761291E-01
        1   -1    0    0  501    0  0.00000000000E+00  0.00000000000E+00  0.86391140500E+03  0.86391140502E+03  0.50400001928E-02 0. -1.
       -1   -1    0    0    0  501  0.00000000000E+00  0.00000000000E+00 -0.83643938975E+03  0.83643938977E+03  0.50400001928E-02 0.  1.
    10030    2    1    2    0    0  0.00000000000E+00  0.00000000000E+00  0.27472015253E+02  0.17003507948E+04  0.17001288521E+04 0.  0.
        1    1    3    3  502    0  0.37538486730E+02  0.32940396398E+03 -0.76911352903E+03  0.83752715182E+03  0.50400001928E-02 0.  1.
       -1    1    3    3    0  502 -0.37538486730E+02 -0.32940396398E+03  0.79658554428E+03  0.86282364296E+03  0.50400001928E-02 0. -1.
</event>
<event>
 5   0  0.5821584E-05  0.1697282E+04  0.7818609E-02  0.8762916E-01
       -2   -1    0    0    0  501  0.00000000000E+00  0.00000000000E+00  0.41647442962E+03  0.41647442963E+03  0.25500000920E-02 0. -1.
        2   -1    0    0  501    0  0.00000000000E+00  0.00000000000E+00 -0.17292565979E+04  0.17292565979E+04  0.25500000920E-02 0.  1.
    10030    2    1    2    0    0  0.00000000000E+00  0.00000000000E+00 -0.13127821683E+04  0.21457310275E+04  0.16972815386E+04 0.  0.
        1    1    3    3  502    0  0.49677541461E+03  0.61607241396E+03 -0.26907819095E+03  0.83590316704E+03  0.50400001928E-02 0.  1.
       -1    1    3    3    0  502 -0.49677541461E+03 -0.61607241396E+03 -0.10437039773E+04  0.13098278605E+04  0.50400001928E-02 0. -1.
</event>
<event>
 5   0  0.5652631E-05  0.1717871E+04  0.7818609E-02  0.8751237E-01
       -2   -1    0    0    0  501  0.00000000000E+00  0.00000000000E+00  0.13447249856E+04  0.13447249856E+04  0.25500000920E-02 0. -1.
        2   -1    0    0  501    0  0.00000000000E+00  0.00000000000E+00 -0.54864016803E+03  0.54864016804E+03  0.25500000920E-02 0.  1.
    10030    2    1    2    0    0  0.00000000000E+00  0.00000000000E+00  0.79608481761E+03  0.18933651537E+04  0.17178709405E+04 0.  0.
        2    1    3    3  502    0  0.80701581135E+03  0.17252284410E+03  0.66055850894E+03  0.10570601663E+04  0.25500000920E-02 0. -1.
       -2    1    3    3    0  502 -0.80701581135E+03 -0.17252284410E+03  0.13552630866E+03  0.83630498734E+03  0.25500000920E-02 0.  1.
</event>
<event>
 5   0  0.2987859E-05  0.1699289E+04  0.7818609E-02  0.8761770E-01
       -1   -1    0    0    0  501  0.00000000000E+00  0.00000000000E+00  0.20892526131E+04  0.20892526132E+04  0.50400001928E-02 0. -1.
        1   -1    0    0  501    0  0.00000000000E+00  0.00000000000E+00 -0.34552829686E+03  0.34552829690E+03  0.50400001928E-02 0.  1.
    10030    2    1    2    0    0  0.00000000000E+00  0.00000000000E+00  0.17437243163E+04  0.24347809100E+04  0.16992891422E+04 0.  0.
        5    1    3    3  502    0 -0.71625787716E+03  0.19716268175E+03  0.28113687156E+03  0.79432896222E+03  0.46999998093E+01 0. -1.
       -5    1    3    3    0  502  0.71625787716E+03 -0.19716268175E+03  0.14625874447E+04  0.16404519478E+04  0.46999998093E+01 0.  1.
</event>
<event>
 5   0  0.2993769E-05  0.1701008E+04  0.7818609E-02  0.8760790E-01
       -1   -1    0    0    0  501  0.00000000000E+00  0.00000000000E+00  0.33268049999E+03  0.33268050003E+03  0.50400001928E-02 0. -1.
        1   -1    0    0  501    0  0.00000000000E+00  0.00000000000E+00 -0.21743301226E+04  0.21743301226E+04  0.50400001928E-02 0.  1.
    10030    2    1    2    0    0  0.00000000000E+00  0.00000000000E+00 -0.18416496226E+04  0.25070106226E+04  0.17010082097E+04 0.  0.
        3    1    3    3  502    0 -0.71204132518E+03  0.22992029909E+02 -0.23612314662E+03  0.75052357243E+03  0.10100000352E+00 0. -1.
       -3    1    3    3    0  502  0.71204132518E+03 -0.22992029909E+02 -0.16055264760E+04  0.17564870502E+04  0.10100000352E+00 0.  1.
</event>
<event>
 5   0  0.5671132E-05  0.1699715E+04  0.7818609E-02  0.8761527E-01
       -2   -1    0    0    0  501  0.00000000000E+00  0.00000000000E+00  0.37618574303E+03  0.37618574304E+03  0.25500000920E-02 0. -1.
        2   -1    0    0  501    0  0.00000000000E+00  0.00000000000E+00 -0.19199491140E+04  0.19199491140E+04  0.25500000920E-02 0.  1.
    10030    2    1    2    0    0  0.00000000000E+00  0.00000000000E+00 -0.15437633710E+04  0.22961348571E+04  0.16997146632E+04 0.  0.
        3    1    3    3  502    0 -0.64056960731E+03  0.47516036714E+03 -0.37537481296E+03  0.88148344098E+03  0.10100000352E+00 0. -1.
       -3    1    3    3    0  502  0.64056960731E+03 -0.47516036714E+03 -0.11683885580E+04  0.14146514161E+04  0.10100000352E+00 0.  1.
</event>
<event>
 5   0  0.5859822E-05  0.1696671E+04  0.7818609E-02  0.8763265E-01
       -2   -1    0    0    0  501  0.00000000000E+00  0.00000000000E+00  0.71462134056E+03  0.71462134057E+03  0.25500000920E-02 0. -1.
        2   -1    0    0  501    0  0.00000000000E+00  0.00000000000E+00 -0.10070692965E+04  0.10070692965E+04  0.25500000920E-02 0.  1.
    10030    2    1    2    0    0  0.00000000000E+00  0.00000000000E+00 -0.29244795593E+03  0.17216906371E+04  0.16966711063E+04 0.  0.
        5    1    3    3  502    0 -0.39240214282E+03  0.53901354879E+03 -0.67849303673E+03  0.95125703065E+03  0.46999998093E+01 0.  1.
       -5    1    3    3    0  502  0.39240214282E+03 -0.53901354879E+03  0.38604508080E+03  0.77043360641E+03  0.46999998093E+01 0. -1.
</event>
<event>
 5   0  0.2987859E-05  0.1702785E+04  0.7818609E-02  0.8759777E-01
        1   -1    0    0  501    0  0.00000000000E+00  0.00000000000E+00  0.77721354566E+03  0.77721354567E+03  0.50400001928E-02 0.  1.
       -1   -1    0    0    0  501  0.00000000000E+00  0.00000000000E+00 -0.93265151041E+03  0.93265151043E+03  0.50400001928E-02 0. -1.
    10030    2    1    2    0    0  0.00000000000E+00  0.00000000000E+00 -0.15543796476E+03  0.17098650561E+04  0.17027852328E+04 0.  0.
        5    1    3    3  502    0  0.29681019641E+03 -0.49589654132E+03  0.55005042024E+03  0.79786416588E+03  0.46999998093E+01 0.  1.
       -5    1    3    3    0  502 -0.29681019641E+03  0.49589654132E+03 -0.70548838500E+03  0.91200089022E+03  0.46999998093E+01 0. -1.
</event>
<event>
 5   0  0.5821584E-05  0.1694442E+04  0.7818609E-02  0.8764541E-01
        2   -1    0    0  501    0  0.00000000000E+00  0.00000000000E+00  0.53729855801E+03  0.53729855802E+03  0.25500000920E-02 0.  1.
       -2   -1    0    0    0  501  0.00000000000E+00  0.00000000000E+00 -0.13359120702E+04  0.13359120702E+04  0.25500000920E-02 0. -1.
    10030    2    1    2    0    0  0.00000000000E+00  0.00000000000E+00 -0.79861351219E+03  0.18732106282E+04  0.16944422433E+04 0.  0.
        1    1    3    3  502    0 -0.14887772494E+03  0.53744564075E+03  0.30576766623E+03  0.63600806558E+03  0.50400001928E-02 0.  1.
       -1    1    3    3    0  502  0.14887772494E+03 -0.53744564075E+03 -0.11043811784E+04  0.12372025626E+04  0.50400001928E-02 0. -1.
</event>
<event>
 5   0  0.2911632E-05  0.1701324E+04  0.7818609E-02  0.8760610E-01
        1   -1    0    0  501    0  0.00000000000E+00  0.00000000000E+00  0.10148659218E+04  0.10148659218E+04  0.50400001928E-02 0.  1.
       -1   -1    0    0    0  501  0.00000000000E+00  0.00000000000E+00 -0.71302565921E+03  0.71302565923E+03  0.50400001928E-02 0. -1.
    10030    2    1    2    0    0  0.00000000000E+00  0.00000000000E+00  0.30184026257E+03  0.17278915810E+04  0.17013235353E+04 0.  0.
        1    1    3    3  502    0 -0.73078426630E+03 -0.43372850105E+03  0.11212165013E+03  0.85716819875E+03  0.50400001928E-02 0. -1.
       -1    1    3    3    0  502  0.73078426630E+03  0.43372850105E+03  0.18971861244E+03  0.87072338227E+03  0.50400001928E-02 0.  1.
</event>
<event>
 5   0  0.5671132E-05  0.1698358E+04  0.7818609E-02  0.8762301E-01
       -2   -1    0    0    0  501  0.00000000000E+00  0.00000000000E+00  0.68499564948E+03  0.68499564949E+03  0.25500000920E-02 0.  1.
        2   -1    0    0  501    0  0.00000000000E+00  0.00000000000E+00 -0.10527150753E+04  0.10527150753E+04  0.25500000920E-02 0. -1.
    10030    2    1    2    0    0  0.00000000000E+00  0.00000000000E+00 -0.36771942577E+03  0.17377107247E+04  0.16983583211E+04 0.  0.
        3    1    3    3  502    0  0.54707290109E+03 -0.44308322789E+03 -0.66972446537E+03  0.97166989027E+03  0.10100000352E+00 0. -1.
       -3    1    3    3    0  502 -0.54707290109E+03  0.44308322789E+03  0.30200503960E+03  0.76604083447E+03  0.10100000352E+00 0.  1.
</event>
<event>
 5   0  0.5755321E-05  0.1698011E+04  0.7818609E-02  0.8762499E-01
       -2   -1    0    0    0  501  0.00000000000E+00  0.00000000000E+00  0.82433785269E+03  0.82433785269E+03  0.25500000920E-02 0. -1.
        2   -1    0    0  501    0  0.00000000000E+00  0.00000000000E+00 -0.87441149367E+03  0.87441149367E+03  0.25500000920E-02 0.  1.
    10030    2    1    2    0    0  0.00000000000E+00  0.00000000000E+00 -0.50073640984E+02  0.16987493464E+04  0.16980111814E+04 0.  0.
        4    1    3    3  502    0 -0.10143037596E+03 -0.83845411616E+03 -0.11176622608E+03  0.85193117578E+03  0.12699999809E+01 0.  1.
       -4    1    3    3    0  502  0.10143037596E+03  0.83845411616E+03  0.61692585099E+02  0.84681817058E+03  0.12699999809E+01 0. -1.
</event>
<event>
 5   0  0.5652631E-05  0.1698045E+04  0.7818609E-02  0.8762480E-01
       -2   -1    0    0    0  501  0.00000000000E+00  0.00000000000E+00  0.60506144052E+03  0.60506144052E+03  0.25500000920E-02 0. -1.
        2   -1    0    0  501    0  0.00000000000E+00  0.00000000000E+00 -0.11913488124E+04  0.11913488124E+04  0.25500000920E-02 0.  1.
    10030    2    1    2    0    0  0.00000000000E+00  0.00000000000E+00 -0.58628737188E+03  0.17964102529E+04  0.16980450272E+04 0.  0.
        2    1    3    3  502    0  0.30706549628E+03  0.78523641585E+03 -0.39869177120E+03  0.93265244127E+03  0.25500000920E-02 0.  1.
       -2    1    3    3    0  502 -0.30706549628E+03 -0.78523641585E+03 -0.18759560068E+03  0.86375781165E+03  0.25500000920E-02 0. -1.
</event>
<event>
 5   0  0.5652631E-05  0.1700297E+04  0.7818609E-02  0.8761195E-01
       -2   -1    0    0    0  501  0.00000000000E+00  0.00000000000E+00  0.46226600145E+03  0.46226600145E+03  0.25500000920E-02 0. -1.
        2   -1    0    0  501    0  0.00000000000E+00  0.00000000000E+00 -0.15634984800E+04  0.15634984800E+04  0.25500000920E-02 0.  1.
    10030    2    1    2    0    0  0.00000000000E+00  0.00000000000E+00 -0.11012324785E+04  0.20257644814E+04  0.17002966689E+04 0.  0.
        2    1    3    3  502    0 -0.26948439929E+03 -0.17498189759E+03 -0.14883703989E+04  0.15226578572E+04  0.25500000920E-02 0.  1.
       -2    1    3    3    0  502  0.26948439929E+03  0.17498189759E+03  0.38713792034E+03  0.50310662420E+03  0.25500000920E-02 0. -1.
</event>
<event>
 5   0  0.5821584E-05  0.1657890E+04  0.7818609E-02  0.8785752E-01
       -2   -1    0    0    0  501  0.00000000000E+00  0.00000000000E+00  0.27163635241E+03  0.27163635242E+03  0.25500000920E-02 0. -1.
        2   -1    0    0  501    0  0.00000000000E+00  0.00000000000E+00 -0.25296686994E+04  0.25296686994E+04  0.25500000920E-02 0.  1.
    10030    2    1    2    0    0  0.00000000000E+00  0.00000000000E+00 -0.22580323470E+04  0.28013050518E+04  0.16578901994E+04 0.  0.
        1    1    3    3  502    0 -0.17043695208E+03 -0.57818634553E+02  0.23822498296E+03  0.29856806874E+03  0.50400001928E-02 0. -1.
       -1    1    3    3    0  502  0.17043695208E+03  0.57818634553E+02 -0.24962573300E+04  0.25027369831E+04  0.50400001928E-02 0.  1.
</event>
<event>
 5   0  0.2987859E-05  0.1699781E+04  0.7818609E-02  0.8761489E-01
       -1   -1    0    0    0  501  0.00000000000E+00  0.00000000000E+00  0.13347400444E+04  0.13347400444E+04  0.50400001928E-02 0. -1.
        1   -1    0    0  501    0  0.00000000000E+00  0.00000000000E+00 -0.54116444273E+03  0.54116444275E+03  0.50400001928E-02 0.  1.
    10030    2    1    2    0    0  0.00000000000E+00  0.00000000000E+00  0.79357560166E+03  0.18759044871E+04  0.16997809886E+04 0.  0.
        5    1    3    3  502    0 -0.22694927427E+02  0.32102560215E+03 -0.47130184112E+03  0.57071885583E+03  0.46999998093E+01 0.  1.
       -5    1    3    3    0  502  0.22694927427E+02 -0.32102560215E+03  0.12648774428E+04  0.13051856313E+04  0.46999998093E+01 0. -1.
</event>
<event>
 5   0  0.2911632E-05  0.1696185E+04  0.7818609E-02  0.8763543E-01
        1   -1    0    0  501    0  0.00000000000E+00  0.00000000000E+00  0.48089511922E+03  0.48089511924E+03  0.50400001928E-02 0. -1.
       -1   -1    0    0    0  501  0.00000000000E+00  0.00000000000E+00 -0.14956709799E+04  0.14956709799E+04  0.50400001928E-02 0.  1.
    10030    2    1    2    0    0  0.00000000000E+00  0.00000000000E+00 -0.10147758607E+04  0.19765660992E+04  0.16961849831E+04 0.  0.
        1    1    3    3  502    0 -0.21198340607E+03  0.21853432375E+03  0.41501732601E+03  0.51471700576E+03  0.50400001928E-02 0. -1.
       -1    1    3    3    0  502  0.21198340607E+03 -0.21853432375E+03 -0.14297931867E+04  0.14618490934E+04  0.50400001928E-02 0.  1.
</event>
<event>
 5   0  0.5821584E-05  0.1728596E+04  0.7818609E-02  0.8745221E-01
       -2   -1    0    0    0  501  0.00000000000E+00  0.00000000000E+00  0.18896451089E+04  0.18896451089E+04  0.25500000920E-02 0.  1.
        2   -1    0    0  501    0  0.00000000000E+00  0.00000000000E+00 -0.39531814039E+03  0.39531814040E+03  0.25500000920E-02 0. -1.
    10030    2    1    2    0    0  0.00000000000E+00  0.00000000000E+00  0.14943269685E+04  0.22849632493E+04  0.17285959510E+04 0.  0.
        1    1    3    3  502    0 -0.13513331421E+01 -0.22281401363E+03 -0.35669958393E+03  0.42057401723E+03  0.50400001928E-02 0. -1.
       -1    1    3    3    0  502  0.13513331421E+01  0.22281401363E+03  0.18510265524E+04  0.18643892320E+04  0.50400001928E-02 0.  1.
</event>
<event>
 5   0  0.2967704E-05  0.1679764E+04  0.7818609E-02  0.8772990E-01
        1   -1    0    0  501    0  0.00000000000E+00  0.00000000000E+00  0.12307978559E+04  0.12307978559E+04  0.50400001928E-02 0.  1.
       -1   -1    0    0    0  501  0.00000000000E+00  0.00000000000E+00 -0.57312576770E+03  0.57312576772E+03  0.50400001928E-02 0. -1.
    10030    2    1    2    0    0  0.00000000000E+00  0.00000000000E+00  0.65767208823E+03  0.18039236237E+04  0.16797642288E+04 0.  0.
        2    1    3    3  502    0 -0.13023525341E+03 -0.47120834172E+02 -0.56077798045E+03  0.57762750766E+03  0.25500000920E-02 0. -1.
       -2    1    3    3    0  502  0.13023525341E+03  0.47120834172E+02  0.12184500687E+04  0.12262961160E+04  0.25500000920E-02 0.  1.
</event>
<event>
 5   0  0.2993769E-05  0.1699285E+04  0.7818609E-02  0.8761772E-01
        1   -1    0    0  501    0  0.00000000000E+00  0.00000000000E+00  0.91358270858E+03  0.91358270859E+03  0.50400001928E-02 0. -1.
       -1   -1    0    0    0  501  0.00000000000E+00  0.00000000000E+00 -0.79017701117E+03  0.79017701119E+03  0.50400001928E-02 0.  1.
    10030    2    1    2    0    0  0.00000000000E+00  0.00000000000E+00  0.12340569741E+03  0.17037597198E+04  0.16992846191E+04 0.  0.
        3    1    3    3  502    0  0.70183312285E+03  0.25165512312E+03  0.47019697173E+03  0.88146766007E+03  0.10100000352E+00 0. -1.
       -3    1    3    3    0  502 -0.70183312285E+03 -0.25165512312E+03 -0.34679127432E+03  0.82229205971E+03  0.10100000352E+00 0.  1.
</event>
<event>
 5   0  0.2966258E-05  0.1693217E+04  0.7818609E-02  0.8765242E-01
        1   -1    0    0  501    0  0.00000000000E+00  0.00000000000E+00  0.15401670713E+04  0.15401670713E+04  0.50400001928E-02 0. -1.
       -1   -1    0    0    0  501  0.00000000000E+00  0.00000000000E+00 -0.46536892944E+03  0.46536892946E+03  0.50400001928E-02 0.  1.
    10030    2    1    2    0    0  0.00000000000E+00  0.00000000000E+00  0.10747981418E+04  0.20055360007E+04  0.16932169396E+04 0.  0.
        4    1    3    3  502    0 -0.39529962643E+03  0.74686444279E+03  0.59867088281E+03  0.10356045236E+04  0.12699999809E+01 0.  1.
       -4    1    3    3    0  502  0.39529962643E+03 -0.74686444279E+03  0.47612725901E+03  0.96993147709E+03  0.12699999809E+01 0. -1.
</event>
<event>
 5   0  0.5821584E-05  0.1699662E+04  0.7818609E-02  0.8761557E-01
       -2   -1    0    0    0  501  0.00000000000E+00  0.00000000000E+00  0.34713959432E+03  0.34713959433E+03  0.25500000920E-02 0. -1.
        2   -1    0    0  501    0  0.00000000000E+00  0.00000000000E+00 -0.20804688864E+04  0.20804688864E+04  0.25500000920E-02 0.  1.
    10030    2    1    2    0    0  0.00000000000E+00  0.00000000000E+00 -0.17333292921E+04  0.24276084807E+04  0.16996624668E+04 0.  0.
        1    1    3    3  502    0  0.18742158102E+03  0.38500733401E+03 -0.19151253886E+04  0.19624124822E+04  0.50400001928E-02 0.  1.
       -1    1    3    3    0  502 -0.18742158102E+03 -0.38500733401E+03  0.18179609653E+03  0.46519599850E+03  0.50400001928E-02 0. -1.
</event>
<event>
 5   0  0.2967704E-05  0.1741326E+04  0.7818609E-02  0.8738139E-01
        1   -1    0    0  501    0  0.00000000000E+00  0.00000000000E+00  0.50675073671E+03  0.50675073674E+03  0.50400001928E-02 0.  1.
       -1   -1    0    0    0  501  0.00000000000E+00  0.00000000000E+00 -0.14959110100E+04  0.14959110100E+04  0.50400001928E-02 0. -1.
    10030    2    1    2    0    0  0.00000000000E+00  0.00000000000E+00 -0.98916027332E+03  0.20026617468E+04  0.17413259390E+04 0.  0.
        2    1    3    3  502    0 -0.66313977282E+02  0.58134077705E+03  0.24693020586E+03  0.63508201771E+03  0.25500000920E-02 0.  1.
       -2    1    3    3    0  502  0.66313977282E+02 -0.58134077705E+03 -0.12360904792E+04  0.13675797291E+04  0.25500000920E-02 0. -1.
</event>
<event>
 5   0  0.2987859E-05  0.1698290E+04  0.7818609E-02  0.8762340E-01
        1   -1    0    0  501    0  0.00000000000E+00  0.00000000000E+00  0.10742265266E+04  0.10742265267E+04  0.50400001928E-02 0.  1.
       -1   -1    0    0    0  501  0.00000000000E+00  0.00000000000E+00 -0.67122438542E+03  0.67122438544E+03  0.50400001928E-02 0. -1.
    10030    2    1    2    0    0  0.00000000000E+00  0.00000000000E+00  0.40300214123E+03  0.17454509121E+04  0.16982897752E+04 0.  0.
        5    1    3    3  502    0  0.30066820064E+03 -0.77718179122E+03  0.33838939109E+02  0.83401442869E+03  0.46999998093E+01 0.  1.
       -5    1    3    3    0  502 -0.30066820064E+03  0.77718179122E+03  0.36916320212E+03  0.91143648340E+03  0.46999998093E+01 0. -1.
</event>
<event>
 5   0  0.2987859E-05  0.1697984E+04  0.7818609E-02  0.8762515E-01
       -1   -1    0    0    0  501  0.00000000000E+00  0.00000000000E+00  0.60520373467E+03  0.60520373469E+03  0.50400001928E-02 0.  1.
        1   -1    0    0  501    0  0.00000000000E+00  0.00000000000E+00 -0.11909835751E+04  0.11909835751E+04  0.50400001928E-02 0. -1.
    10030    2    1    2    0    0  0.00000000000E+00  0.00000000000E+00 -0.58577984043E+03  0.17961873098E+04  0.16979843434E+04 0.  0.
        5    1    3    3  502    0  0.56940580351E+03 -0.45232088291E+02 -0.95730523340E+03  0.11147754531E+04  0.46999998093E+01 0. -1.
       -5    1    3    3    0  502 -0.56940580351E+03  0.45232088291E+02  0.37152539297E+03  0.68141185674E+03  0.46999998093E+01 0.  1.
</event>
<event>
 5   0  0.5821584E-05  0.1699739E+04  0.7818609E-02  0.8761513E-01
        2   -1    0    0  501    0  0.00000000000E+00  0.00000000000E+00  0.79030586880E+03  0.79030586880E+03  0.25500000920E-02 0. -1.
       -2   -1    0    0    0  501  0.00000000000E+00  0.00000000000E+00 -0.91392261059E+03  0.91392261060E+03  0.25500000920E-02 0.  1.
    10030    2    1    2    0    0  0.00000000000E+00  0.00000000000E+00 -0.12361674180E+03  0.17042284794E+04  0.16997392774E+04 0.  0.
        1    1    3    3  502    0 -0.26370576550E+03  0.32872996535E+03 -0.80177808172E+03  0.90578817238E+03  0.50400001928E-02 0.  1.
       -1    1    3    3    0  502  0.26370576550E+03 -0.32872996535E+03  0.67816133992E+03  0.79844030702E+03  0.50400001928E-02 0. -1.
</event>
<event>
 5   0  0.2987859E-05  0.1698770E+04  0.7818609E-02  0.8762066E-01
        1   -1    0    0  501    0  0.00000000000E+00  0.00000000000E+00  0.11574818416E+04  0.11574818416E+04  0.50400001928E-02 0. -1.
       -1   -1    0    0    0  501  0.00000000000E+00  0.00000000000E+00 -0.62329698685E+03  0.62329698687E+03  0.50400001928E-02 0.  1.
    10030    2    1    2    0    0  0.00000000000E+00  0.00000000000E+00  0.53418485478E+03  0.17807788285E+04  0.16987700777E+04 0.  0.
        5    1    3    3  502    0  0.38173125455E+03  0.23174272668E+03  0.10244736748E+04  0.11175830361E+04  0.46999998093E+01 0. -1.
       -5    1    3    3    0  502 -0.38173125455E+03 -0.23174272668E+03 -0.49028882005E+03  0.66319579246E+03  0.46999998093E+01 0.  1.
</event>
<event>
 5   0  0.5652631E-05  0.1702358E+04  0.7818609E-02  0.8760021E-01
        2   -1    0    0  501    0  0.00000000000E+00  0.00000000000E+00  0.96963949405E+03  0.96963949405E+03  0.25500000920E-02 0. -1.
       -2   -1    0    0    0  501  0.00000000000E+00  0.00000000000E+00 -0.74719052268E+03  0.74719052269E+03  0.25500000920E-02 0.  1.
    10030    2    1    2    0    0  0.00000000000E+00  0.00000000000E+00  0.22244897137E+03  0.17168300167E+04  0.17023577067E+04 0.  0.
        2    1    3    3  502    0 -0.57711995337E+03  0.23747854955E+02  0.74173871198E+03  0.94011048183E+03  0.25500000920E-02 0. -1.
       -2    1    3    3    0  502  0.57711995337E+03 -0.23747854955E+02 -0.51928974061E+03  0.77671953491E+03  0.25500000920E-02 0.  1.
</event>
<event>
 5   0  0.2967704E-05  0.1702059E+04  0.7818609E-02  0.8760191E-01
        1   -1    0    0  501    0  0.00000000000E+00  0.00000000000E+00  0.99796963827E+03  0.99796963828E+03  0.50400001928E-02 0.  1.
       -1   -1    0    0    0  501  0.00000000000E+00  0.00000000000E+00 -0.72572471403E+03  0.72572471405E+03  0.50400001928E-02 0. -1.
    10030    2    1    2    0    0  0.00000000000E+00  0.00000000000E+00  0.27224492424E+03  0.17236943523E+04  0.17020590241E+04 0.  0.
        2    1    3    3  502    0  0.79676822750E+03  0.28720582751E+03  0.51851529025E+02  0.84853719823E+03  0.25500000920E-02 0. -1.
       -2    1    3    3    0  502 -0.79676822750E+03 -0.28720582751E+03  0.22039339521E+03  0.87515715410E+03  0.25500000920E-02 0.  1.
</event>
<event>
 5   0  0.5859822E-05  0.1693786E+04  0.7818609E-02  0.8764916E-01
        2   -1    0    0  501    0  0.00000000000E+00  0.00000000000E+00  0.86848873394E+03  0.86848873395E+03  0.25500000920E-02 0. -1.
       -2   -1    0    0    0  501  0.00000000000E+00  0.00000000000E+00 -0.82583446409E+03  0.82583446410E+03  0.25500000920E-02 0.  1.
    10030    2    1    2    0    0  0.00000000000E+00  0.00000000000E+00  0.42654269847E+02  0.16943231980E+04  0.16937862063E+04 0.  0.
        5    1    3    3  502    0 -0.76558751781E+02  0.82326791614E+03  0.20461877691E+03  0.85177593185E+03  0.46999998093E+01 0. -1.
       -5    1    3    3    0  502  0.76558751781E+02 -0.82326791614E+03 -0.16196450706E+03  0.84254726619E+03  0.46999998093E+01 0.  1.
</event>
<event>
 5   0  0.5755321E-05  0.1699929E+04  0.7818609E-02  0.8761405E-01
        2   -1    0    0  501    0  0.00000000000E+00  0.00000000000E+00  0.18545315540E+04  0.18545315540E+04  0.25500000920E-02 0. -1.
       -2   -1    0    0    0  501  0.00000000000E+00  0.00000000000E+00 -0.38955369211E+03  0.38955369211E+03  0.25500000920E-02 0.  1.
    10030    2    1    2    0    0  0.00000000000E+00  0.00000000000E+00  0.14649778619E+04  0.22440852461E+04  0.16999289562E+04 0.  0.
        4    1    3    3  502    0  0.25610883972E+03  0.30378736670E+03 -0.25940090135E+03  0.47451969661E+03  0.12699999809E+01 0.  1.
       -4    1    3    3    0  502 -0.25610883972E+03 -0.30378736670E+03  0.17243787632E+04  0.17695655495E+04  0.12699999809E+01 0. -1.
</event>
<event>
 5   0  0.5755321E-05  0.1703372E+04  0.7818609E-02  0.8759443E-01
       -2   -1    0    0    0  501  0.00000000000E+00  0.00000000000E+00  0.84716067905E+03  0.84716067906E+03  0.25500000920E-02 0. -1.
        2   -1    0    0  501    0  0.00000000000E+00  0.00000000000E+00 -0.85623572690E+03  0.85623572690E+03  0.25500000920E-02 0.  1.
    10030    2    1    2    0    0  0.00000000000E+00  0.00000000000E+00 -0.90750478429E+01  0.17033964060E+04  0.17033722316E+04 0.  0.
        4    1    3    3  502    0 -0.59524726520E+03  0.29629225018E+03 -0.53676610528E+03  0.85453371433E+03  0.12699999809E+01 0.  1.
       -4    1    3    3    0  502  0.59524726520E+03 -0.29629225018E+03  0.52769105744E+03  0.84886269163E+03  0.12699999809E+01 0. -1.
</event>
<event>
 5   0  0.2987859E-05  0.1705220E+04  0.7818609E-02  0.8758393E-01
       -1   -1    0    0    0  501  0.00000000000E+00  0.00000000000E+00  0.10960892651E+04  0.10960892652E+04  0.50400001928E-02 0. -1.
        1   -1    0    0  501    0  0.00000000000E+00  0.00000000000E+00 -0.66321578989E+03  0.66321578991E+03  0.50400001928E-02 0.  1.
    10030    2    1    2    0    0  0.00000000000E+00  0.00000000000E+00  0.43287347525E+03  0.17593050551E+04  0.17052198777E+04 0.  0.
        5    1    3    3  502    0  0.20267509090E+03 -0.49488999457E+03  0.90152221314E+03  0.10482164328E+04  0.46999998093E+01 0. -1.
       -5    1    3    3    0  502 -0.20267509090E+03  0.49488999457E+03 -0.46864873789E+03  0.71108862226E+03  0.46999998093E+01 0.  1.
</event>
<event>
 5   0  0.2098250E-05  0.1697664E+04  0.7818609E-02  0.8762698E-01
       -3   -1    0    0    0  501  0.00000000000E+00  0.00000000000E+00  0.78119828068E+03  0.78119828721E+03  0.10100000352E+00 0. -1.
        3   -1    0    0  501    0  0.00000000000E+00  0.00000000000E+00 -0.92232090275E+03  0.92232090828E+03  0.10100000352E+00 0.  1.
    10030    2    1    2    0    0  0.00000000000E+00  0.00000000000E+00 -0.14112262206E+03  0.17035191955E+04  0.16976637049E+04 0.  0.
        4    1    3    3  502    0  0.17136666918E+03  0.29566419581E+03  0.70911935295E+03  0.78716943641E+03  0.12699999809E+01 0. -1.
       -4    1    3    3    0  502 -0.17136666918E+03 -0.29566419581E+03 -0.85024197501E+03  0.91634975908E+03  0.12699999809E+01 0.  1.
</event>
<event>
 5   0  0.2987859E-05  0.1701266E+04  0.7818609E-02  0.8760643E-01
       -1   -1    0    0    0  501  0.00000000000E+00  0.00000000000E+00  0.13992611505E+04  0.13992611505E+04  0.50400001928E-02 0.  1.
        1   -1    0    0  501    0  0.00000000000E+00  0.00000000000E+00 -0.51711303674E+03  0.51711303676E+03  0.50400001928E-02 0. -1.
    10030    2    1    2    0    0  0.00000000000E+00  0.00000000000E+00  0.88214811373E+03  0.19163741872E+04  0.17012656262E+04 0.  0.
        5    1    3    3  502    0 -0.93081742788E+01  0.14972169802E+03 -0.50208067851E+03  0.52403275346E+03  0.46999998093E+01 0. -1.
       -5    1    3    3    0  502  0.93081742788E+01 -0.14972169802E+03  0.13842287922E+04  0.13923414338E+04  0.46999998093E+01 0.  1.
</event>
<event>
 5   0  0.5755321E-05  0.1704650E+04  0.7818609E-02  0.8758717E-01
        2   -1    0    0  501    0  0.00000000000E+00  0.00000000000E+00  0.22029214749E+04  0.22029214749E+04  0.25500000920E-02 0.  1.
       -2   -1    0    0    0  501  0.00000000000E+00  0.00000000000E+00 -0.32977013858E+03  0.32977013859E+03  0.25500000920E-02 0. -1.
    10030    2    1    2    0    0  0.00000000000E+00  0.00000000000E+00  0.18731513363E+04  0.25326916135E+04  0.17046497823E+04 0.  0.
        4    1    3    3  502    0 -0.94302543517E+02  0.35562951493E+03  0.20788600519E+04  0.21111669876E+04  0.12699999809E+01 0.  1.
       -4    1    3    3    0  502  0.94302543517E+02 -0.35562951493E+03 -0.20570871557E+03  0.42152462581E+03  0.12699999809E+01 0. -1.
</event>
<event>
 5   0  0.5859822E-05  0.1698576E+04  0.7818609E-02  0.8762177E-01
       -2   -1    0    0    0  501  0.00000000000E+00  0.00000000000E+00  0.59198400403E+03  0.59198400404E+03  0.25500000920E-02 0.  1.
        2   -1    0    0  501    0  0.00000000000E+00  0.00000000000E+00 -0.12184284159E+04  0.12184284159E+04  0.25500000920E-02 0. -1.
    10030    2    1    2    0    0  0.00000000000E+00  0.00000000000E+00 -0.62644441185E+03  0.18104124199E+04  0.16985760298E+04 0.  0.
        5    1    3    3  502    0  0.78684096761E+03 -0.29552787535E+03 -0.44294261413E+03  0.95009246015E+03  0.46999998093E+01 0.  1.
       -5    1    3    3    0  502 -0.78684096761E+03  0.29552787535E+03 -0.18350179772E+03  0.86031995977E+03  0.46999998093E+01 0. -1.
</event>
<event>
 5   0  0.2993769E-05  0.1700210E+04  0.7818609E-02  0.8761245E-01
       -1   -1    0    0    0  501  0.00000000000E+00  0.00000000000E+00  0.12611330804E+04  0.12611330804E+04  0.50400001928E-02 0. -1.
        1   -1    0    0  501    0  0.00000000000E+00  0.00000000000E+00 -0.57303879222E+03  0.57303879224E+03  0.50400001928E-02 0.  1.
    10030    2    1    2    0    0  0.00000000000E+00  0.00000000000E+00  0.68809428819E+03  0.18341718727E+04  0.17002096074E+04 0.  0.
        3    1    3    3  502    0  0.26811143043E+03 -0.15604884313E+03  0.11978909029E+04  0.12374076151E+04  0.10100000352E+00 0. -1.
       -3    1    3    3    0  502 -0.26811143043E+03  0.15604884313E+03 -0.50979661467E+03  0.59676425756E+03  0.10100000352E+00 0.  1.
</event>
<event>
 5   0  0.5755321E-05  0.1698004E+04  0.7818609E-02  0.8762503E-01
       -2   -1    0    0    0  501  0.00000000000E+00  0.00000000000E+00  0.71082599612E+03  0.71082599613E+03  0.25500000920E-02 0.  1.
        2   -1    0    0  501    0  0.00000000000E+00  0.00000000000E+00 -0.10140382900E+04  0.10140382900E+04  0.25500000920E-02 0. -1.
    10030    2    1    2    0    0  0.00000000000E+00  0.00000000000E+00 -0.30321229388E+03  0.17248642861E+04  0.16980044495E+04 0.  0.
        4    1    3    3  502    0  0.64022466495E+03  0.31148967597E+03 -0.62140404251E+03  0.94501747962E+03  0.12699999809E+01 0.  1.
       -4    1    3    3    0  502 -0.64022466495E+03 -0.31148967597E+03  0.31819174863E+03  0.77984680652E+03  0.12699999809E+01 0. -1.
</event>
<event>
 5   0  0.5821584E-05  0.1700720E+04  0.7818609E-02  0.8760954E-01
       -2   -1    0    0    0  501  0.00000000000E+00  0.00000000000E+00  0.74820656686E+03  0.74820656686E+03  0.25500000920E-02 0.  1.
        2   -1    0    0  501    0  0.00000000000E+00  0.00000000000E+00 -0.96646025064E+03  0.96646025064E+03  0.25500000920E-02 0. -1.
    10030    2    1    2    0    0  0.00000000000E+00  0.00000000000E+00 -0.21825368378E+03  0.17146668175E+04  0.17007197372E+04 0.  0.
        1    1    3    3  502    0  0.43991571970E+03  0.23561594378E+03  0.58504784735E+03  0.76897444504E+03  0.50400001928E-02 0.  1.
       -1    1    3    3    0  502 -0.43991571970E+03 -0.23561594378E+03 -0.80330153113E+03  0.94569237247E+03  0.50400001928E-02 0. -1.
</event>
<event>
 5   0  0.2993769E-05  0.1696579E+04  0.7818609E-02  0.8763318E-01
       -1   -1    0    0    0  501  0.00000000000E+00  0.00000000000E+00  0.68804527741E+03  0.68804527743E+03  0.50400001928E-02 0. -1.
        1   -1    0    0  501    0  0.00000000000E+00  0.00000000000E+00 -0.10458541451E+04  0.10458541451E+04  0.50400001928E-02 0.  1.
    10030    2    1    2    0    0  0.00000000000E+00  0.00000000000E+00 -0.35780886771E+03  0.17338994226E+04  0.16965789170E+04 0.  0.
        3    1    3    3  502    0 -0.13404322969E+03 -0.83755213430E+03 -0.19072740949E+03  0.86938950996E+03  0.10100000352E+00 0. -1.
       -3    1    3    3    0  502  0.13404322969E+03  0.83755213430E+03 -0.16708145822E+03  0.86450991260E+03  0.10100000352E+00 0.  1.
</event>
<event>
 5   0  0.5671132E-05  0.1699648E+04  0.7818609E-02  0.8761565E-01
        2   -1    0    0  501    0  0.00000000000E+00  0.00000000000E+00  0.94269207075E+03  0.94269207075E+03  0.25500000920E-02 0. -1.
       -2   -1    0    0    0  501  0.00000000000E+00  0.00000000000E+00 -0.76610469518E+03  0.76610469518E+03  0.25500000920E-02 0.  1.
    10030    2    1    2    0    0  0.00000000000E+00  0.00000000000E+00  0.17658737557E+03  0.17087967659E+04  0.16996479889E+04 0.  0.
        3    1    3    3  502    0  0.85306546719E+02 -0.83806369967E+03 -0.24438547352E+02  0.84274861282E+03  0.10100000352E+00 0. -1.
       -3    1    3    3    0  502 -0.85306546719E+02  0.83806369967E+03  0.20102592292E+03  0.86604815311E+03  0.10100000352E+00 0.  1.
</event>
<event>
 5   0  0.2993769E-05  0.1696061E+04  0.7818609E-02  0.8763614E-01
       -1   -1    0    0    0  501  0.00000000000E+00  0.00000000000E+00  0.71709054376E+03  0.71709054377E+03  0.50400001928E-02 0.  1.
        1   -1    0    0  501    0  0.00000000000E+00  0.00000000000E+00 -0.10028795230E+04  0.10028795230E+04  0.50400001928E-02 0. -1.
    10030    2    1    2    0    0  0.00000000000E+00  0.00000000000E+00 -0.28578897922E+03  0.17199700668E+04  0.16960606386E+04 0.  0.
        3    1    3    3  502    0 -0.15663760601E+02 -0.61338906777E+03 -0.73652155929E+03  0.95862167687E+03  0.10100000352E+00 0. -1.
       -3    1    3    3    0  502  0.15663760601E+02  0.61338906777E+03  0.45073258007E+03  0.76134838990E+03  0.10100000352E+00 0.  1.
</event>
<event>
 5   0  0.2987859E-05  0.1690984E+04  0.7818609E-02  0.8766523E-01
       -1   -1    0    0    0  501  0.00000000000E+00  0.00000000000E+00  0.13615380043E+04  0.13615380044E+04  0.50400001928E-02 0. -1.
        1   -1    0    0  501    0  0.00000000000E+00  0.00000000000E+00 -0.52503603504E+03  0.52503603506E+03  0.50400001928E-02 0.  1.
    10030    2    1    2    0    0  0.00000000000E+00  0.00000000000E+00  0.83650196931E+03  0.18865740394E+04  0.16909837556E+04 0.  0.
        5    1    3    3  502    0 -0.39425737050E+03  0.31689551274E+03 -0.33758555927E+03  0.60815108321E+03  0.46999998093E+01 0.  1.
       -5    1    3    3    0  502  0.39425737050E+03 -0.31689551274E+03  0.11740875286E+04  0.12784229562E+04  0.46999998093E+01 0. -1.
</event>
<event>
 5   0  0.2911632E-05  0.1694139E+04  0.7818609E-02  0.8764714E-01
       -1   -1    0    0    0  501  0.00000000000E+00  0.00000000000E+00  0.96963874907E+03  0.96963874909E+03  0.50400001928E-02 0.  1.
        1   -1    0    0  501    0  0.00000000000E+00  0.00000000000E+00 -0.73999372295E+03  0.73999372296E+03  0.50400001928E-02 0. -1.
    10030    2    1    2    0    0  0.00000000000E+00  0.00000000000E+00  0.22964502613E+03  0.17096324720E+04  0.16941388230E+04 0.  0.
        1    1    3    3  502    0 -0.48770047756E+03 -0.32702423280E+03  0.73092211476E+03  0.93757332648E+03  0.50400001928E-02 0.  1.
       -1    1    3    3    0  502  0.48770047756E+03  0.32702423280E+03 -0.50127708863E+03  0.77205914557E+03  0.50400001928E-02 0. -1.
</event>
<event>
 5   0  0.2911632E-05  0.1703171E+04  0.7818609E-02  0.8759558E-01
        1   -1    0    0  501    0  0.00000000000E+00  0.00000000000E+00  0.55100174214E+03  0.55100174216E+03  0.50400001928E-02 0. -1.
       -1   -1    0    0    0  501  0.00000000000E+00  0.00000000000E+00 -0.13161440350E+04  0.13161440350E+04  0.50400001928E-02 0.  1.
    10030    2    1    2    0    0  0.00000000000E+00  0.00000000000E+00 -0.76514229282E+03  0.18671457771E+04  0.17031707562E+04 0.  0.
        1    1    3    3  502    0 -0.66071380312E+03 -0.48518110181E+03 -0.12958480790E+03  0.82990099027E+03  0.50400001928E-02 0. -1.
       -1    1    3    3    0  502  0.66071380312E+03  0.48518110181E+03 -0.63555748492E+03  0.10372447869E+04  0.50400001928E-02 0.  1.
</event>
<event>
 5   0  0.5671132E-05  0.1697586E+04  0.7818609E-02  0.8762742E-01
        2   -1    0    0  501    0  0.00000000000E+00  0.00000000000E+00  0.12051050658E+04  0.12051050658E+04  0.25500000920E-02 0.  1.
       -2   -1    0    0    0  501  0.00000000000E+00  0.00000000000E+00 -0.59783142363E+03  0.59783142363E+03  0.25500000920E-02 0. -1.
    10030    2    1    2    0    0  0.00000000000E+00  0.00000000000E+00  0.60727364221E+03  0.18029364895E+04  0.16975861417E+04 0.  0.
        3    1    3    3  502    0  0.16540979199E+02 -0.36883743816E+03 -0.50808126815E+03  0.62806149781E+03  0.10100000352E+00 0. -1.
       -3    1    3    3    0  502 -0.16540979199E+02  0.36883743816E+03  0.11153549104E+04  0.11748749917E+04  0.10100000352E+00 0.  1.
</event>
<event>
 5   0  0.2911632E-05  0.1698560E+04  0.7818609E-02  0.8762186E-01
       -1   -1    0    0    0  501  0.00000000000E+00  0.00000000000E+00  0.13280620381E+04  0.13280620381E+04  0.50400001928E-02 0.  1.
        1   -1    0    0  501    0  0.00000000000E+00  0.00000000000E+00 -0.54310462445E+03  0.54310462447E+03  0.50400001928E-02 0. -1.
    10030    2    1    2    0    0  0.00000000000E+00  0.00000000000E+00  0.78495741363E+03  0.18711666626E+04  0.16985601367E+04 0.  0.
        1    1    3    3  502    0 -0.63935347125E+03 -0.55202651775E+03  0.48958691500E+03  0.97632038023E+03  0.50400001928E-02 0.  1.
       -1    1    3    3    0  502  0.63935347125E+03  0.55202651775E+03  0.29537049862E+03  0.89484628232E+03  0.50400001928E-02 0. -1.
</event>
<event>
 5   0  0.2967704E-05  0.1718862E+04  0.7818609E-02  0.8750679E-01
        1   -1    0    0  501    0  0.00000000000E+00  0.00000000000E+00  0.12849509903E+04  0.12849509903E+04  0.50400001928E-02 0.  1.
       -1   -1    0    0    0  501  0.00000000000E+00  0.00000000000E+00 -0.57482454300E+03  0.57482454302E+03  0.50400001928E-02 0. -1.
    10030    2    1    2    0    0  0.00000000000E+00  0.00000000000E+00  0.71012644728E+03  0.18597755333E+04  0.17188616766E+04 0.  0.
        2    1    3    3  502    0 -0.38939516092E+03  0.30691056341E+02 -0.47323598263E+03  0.61361455943E+03  0.25500000920E-02 0. -1.
       -2    1    3    3    0  502  0.38939516092E+03 -0.30691056341E+02  0.11833624299E+04  0.12461609739E+04  0.25500000920E-02 0.  1.
</event>
<event>
 5   0  0.2987859E-05  0.1689942E+04  0.7818609E-02  0.8767121E-01
       -1   -1    0    0    0  501  0.00000000000E+00  0.00000000000E+00  0.63122598773E+03  0.63122598775E+03  0.50400001928E-02 0.  1.
        1   -1    0    0  501    0  0.00000000000E+00  0.00000000000E+00 -0.11310945891E+04  0.11310945891E+04  0.50400001928E-02 0. -1.
    10030    2    1    2    0    0  0.00000000000E+00  0.00000000000E+00 -0.49986860135E+03  0.17623205769E+04  0.16899423650E+04 0.  0.
        5    1    3    3  502    0 -0.66536360991E+03 -0.17769746988E+03  0.26059306646E+03  0.73635314930E+03  0.46999998093E+01 0.  1.
       -5    1    3    3    0  502  0.66536360991E+03  0.17769746988E+03 -0.76046166782E+03  0.10259674276E+04  0.46999998093E+01 0. -1.
</event>
<event>
 5   0  0.5755321E-05  0.1705167E+04  0.7818609E-02  0.8758423E-01
        2   -1    0    0  501    0  0.00000000000E+00  0.00000000000E+00  0.12040318249E+04  0.12040318249E+04  0.25500000920E-02 0. -1.
       -2   -1    0    0    0  501  0.00000000000E+00  0.00000000000E+00 -0.60372052213E+03  0.60372052214E+03  0.25500000920E-02 0.  1.
    10030    2    1    2    0    0  0.00000000000E+00  0.00000000000E+00  0.60031130275E+03  0.18077523470E+04  0.17051671144E+04 0.  0.
        4    1    3    3  502    0 -0.54202839080E+03 -0.65456530003E+03  0.22788871236E+03  0.87987805210E+03  0.12699999809E+01 0. -1.
       -4    1    3    3    0  502  0.54202839080E+03  0.65456530003E+03  0.37242259039E+03  0.92787429492E+03  0.12699999809E+01 0.  1.
</event>
<event>
 5   0  0.5671132E-05  0.1700848E+04  0.7818609E-02  0.8760881E-01
        2   -1    0    0  501    0  0.00000000000E+00  0.00000000000E+00  0.64451588786E+03  0.64451588786E+03  0.25500000920E-02 0. -1.
       -2   -1    0    0    0  501  0.00000000000E+00  0.00000000000E+00 -0.11221152367E+04  0.11221152367E+04  0.25500000920E-02 0.  1.
    10030    2    1    2    0    0  0.00000000000E+00  0.00000000000E+00 -0.47759934881E+03  0.17666311245E+04  0.17008481391E+04 0.  0.
        3    1    3    3  502    0 -0.39447314853E+03 -0.67296603143E+03 -0.59061637952E+03  0.97842734136E+03  0.10100000352E+00 0. -1.
       -3    1    3    3    0  502  0.39447314853E+03  0.67296603143E+03  0.11301703071E+03  0.78820378317E+03  0.10100000352E+00 0.  1.
</event>
<event>
 5   0  0.2966258E-05  0.1700016E+04  0.7818609E-02  0.8761355E-01
        1   -1    0    0  501    0  0.00000000000E+00  0.00000000000E+00  0.98225419443E+03  0.98225419444E+03  0.50400001928E-02 0. -1.
       -1   -1    0    0    0  501  0.00000000000E+00  0.00000000000E+00 -0.73556692471E+03  0.73556692473E+03  0.50400001928E-02 0.  1.
    10030    2    1    2    0    0  0.00000000000E+00  0.00000000000E+00  0.24668726972E+03  0.17178211192E+04  0.17000161142E+04 0.  0.
        4    1    3    3  502    0 -0.27505773501E+03  0.79267296287E+03 -0.14188074977E+02  0.83916035299E+03  0.12699999809E+01 0.  1.
       -4    1    3    3    0  502  0.27505773501E+03 -0.79267296287E+03  0.26087534470E+03  0.87866076618E+03  0.12699999809E+01 0. -1.
</event>
<event>
 5   0  0.2967704E-05  0.1696129E+04  0.7818609E-02  0.8763575E-01
        1   -1    0    0  501    0  0.00000000000E+00  0.00000000000E+00  0.89110268443E+03  0.89110268444E+03  0.50400001928E-02 0.  1.
       -1   -1    0    0    0  501  0.00000000000E+00  0.00000000000E+00 -0.80710496422E+03  0.80710496424E+03  0.50400001928E-02 0. -1.
    10030    2    1    2    0    0  0.00000000000E+00  0.00000000000E+00  0.83997720203E+02  0.16982076487E+04  0.16961290048E+04 0.  0.
        2    1    3    3  502    0 -0.78746082559E+03  0.14238013766E+03  0.32313960799E+03  0.86300976917E+03  0.25500000920E-02 0. -1.
       -2    1    3    3    0  502  0.78746082559E+03 -0.14238013766E+03 -0.23914188778E+03  0.83519787951E+03  0.25500000920E-02 0.  1.
</event>
<event>
 5   0  0.2966258E-05  0.1696468E+04  0.7818609E-02  0.8763381E-01
       -1   -1    0    0    0  501  0.00000000000E+00  0.00000000000E+00  0.85210509729E+03  0.85210509731E+03  0.50400001928E-02 0.  1.
        1   -1    0    0  501    0  0.00000000000E+00  0.00000000000E+00 -0.84438080151E+03  0.84438080153E+03  0.50400001928E-02 0. -1.
    10030    2    1    2    0    0  0.00000000000E+00  0.00000000000E+00  0.77242957819E+01  0.16964858988E+04  0.16964683139E+04 0.  0.
        4    1    3    3  502    0 -0.82241402747E+03 -0.17892999738E+03  0.10930894072E+03  0.84872306082E+03  0.12699999809E+01 0.  1.
       -4    1    3    3    0  502  0.82241402747E+03  0.17892999738E+03 -0.10158464494E+03  0.84776283802E+03  0.12699999809E+01 0. -1.
</event>
<event>
 5   0  0.2911632E-05  0.1696452E+04  0.7818609E-02  0.8763390E-01
       -1   -1    0    0    0  501  0.00000000000E+00  0.00000000000E+00  0.99984023586E+03  0.99984023587E+03  0.50400001928E-02 0.  1.
        1   -1    0    0  501    0  0.00000000000E+00  0.00000000000E+00 -0.71960247746E+03  0.71960247747E+03  0.50400001928E-02 0. -1.
    10030    2    1    2    0    0  0.00000000000E+00  0.00000000000E+00  0.28023775840E+03  0.17194427133E+04  0.16964521930E+04 0.  0.
        1    1    3    3  502    0  0.33880279042E+03 -0.77742246271E+03  0.12214455428E+03  0.85679186999E+03  0.50400001928E-02 0.  1.
       -1    1    3    3    0  502 -0.33880279042E+03  0.77742246271E+03  0.15809320412E+03  0.86265084335E+03  0.50400001928E-02 0. -1.
</event>
<event>
 5   0  0.2098250E-05  0.1699887E+04  0.7818609E-02  0.8761429E-01
        3   -1    0    0  501    0  0.00000000000E+00  0.00000000000E+00  0.89890420763E+03  0.89890421330E+03  0.10100000352E+00 0.  1.
       -3   -1    0    0    0  501  0.00000000000E+00  0.00000000000E+00 -0.80364908113E+03  0.80364908748E+03  0.10100000352E+00 0. -1.
    10030    2    1    2    0    0  0.00000000000E+00  0.00000000000E+00  0.95255126496E+02  0.17025533008E+04  0.16998865265E+04 0.  0.
        5    1    3    3  502    0  0.13466839576E+03 -0.77335139611E+03  0.37398150052E+03  0.86953562975E+03  0.46999998093E+01 0.  1.
       -5    1    3    3    0  502 -0.13466839576E+03  0.77335139611E+03 -0.27872637402E+03  0.83301767103E+03  0.46999998093E+01 0. -1.
</event>
<event>
 5   0  0.2911632E-05  0.1703784E+04  0.7818609E-02  0.8759209E-01
       -1   -1    0    0    0  501  0.00000000000E+00  0.00000000000E+00  0.12281000217E+04  0.12281000217E+04  0.50400001928E-02 0.  1.
        1   -1    0    0  501    0  0.00000000000E+00  0.00000000000E+00 -0.59092888466E+03  0.59092888468E+03  0.50400001928E-02 0. -1.
    10030    2    1    2    0    0  0.00000000000E+00  0.00000000000E+00  0.63717113703E+03  0.18190289064E+04  0.17037837610E+04 0.  0.
        1    1    3    3  502    0  0.12423206791E+03 -0.64234047807E+03 -0.26392460394E+03  0.70547224825E+03  0.50400001928E-02 0. -1.
       -1    1    3    3    0  502 -0.12423206791E+03  0.64234047807E+03  0.90109574097E+03  0.11135566581E+04  0.50400001928E-02 0.  1.
</event>
<event>
 5   0  0.5755321E-05  0.1698934E+04  0.7818609E-02  0.8761972E-01
        2   -1    0    0  501    0  0.00000000000E+00  0.00000000000E+00  0.69587817653E+03  0.69587817653E+03  0.25500000920E-02 0.  1.
       -2   -1    0    0    0  501  0.00000000000E+00  0.00000000000E+00 -0.10369549889E+04  0.10369549889E+04  0.25500000920E-02 0. -1.
    10030    2    1    2    0    0  0.00000000000E+00  0.00000000000E+00 -0.34107681237E+03  0.17328331654E+04  0.16989341916E+04 0.  0.
        4    1    3    3  502    0  0.71967468723E+03  0.27990285709E+03  0.19052422011E+03  0.79534794663E+03  0.12699999809E+01 0.  1.
       -4    1    3    3    0  502 -0.71967468723E+03 -0.27990285709E+03 -0.53160103248E+03  0.93748521881E+03  0.12699999809E+01 0. -1.
</event>
<event>
 5   0  0.5755321E-05  0.1697636E+04  0.7818609E-02  0.8762714E-01
       -2   -1    0    0    0  501  0.00000000000E+00  0.00000000000E+00  0.11524260687E+04  0.11524260687E+04  0.25500000920E-02 0.  1.
        2   -1    0    0  501    0  0.00000000000E+00  0.00000000000E+00 -0.62519593114E+03  0.62519593114E+03  0.25500000920E-02 0. -1.
    10030    2    1    2    0    0  0.00000000000E+00  0.00000000000E+00  0.52723013754E+03  0.17776219998E+04  0.16976361083E+04 0.  0.
        4    1    3    3  502    0 -0.40618926770E+03  0.55890925111E+03  0.77991995049E+03  0.10419433834E+04  0.12699999809E+01 0.  1.
       -4    1    3    3    0  502  0.40618926770E+03 -0.55890925111E+03 -0.25268981295E+03  0.73567861641E+03  0.12699999809E+01 0. -1.
</event>
<event>
 5   0  0.2911632E-05  0.1745671E+04  0.7818609E-02  0.8735737E-01
       -1   -1    0    0    0  501  0.00000000000E+00  0.00000000000E+00  0.11227104859E+04  0.11227104859E+04  0.50400001928E-02 0.  1.
        1   -1    0    0  501    0  0.00000000000E+00  0.00000000000E+00 -0.67857340215E+03  0.67857340216E+03  0.50400001928E-02 0. -1.
    10030    2    1    2    0    0  0.00000000000E+00  0.00000000000E+00  0.44413708372E+03  0.18012838880E+04  0.17456706150E+04 0.  0.
        1    1    3    3  502    0  0.72360137428E+03  0.45237253902E+03  0.32921343271E+02  0.85400449518E+03  0.50400001928E-02 0. -1.
       -1    1    3    3    0  502 -0.72360137428E+03 -0.45237253902E+03  0.41121574045E+03  0.94727939286E+03  0.50400001928E-02 0.  1.
</event>
<event>
 5   0  0.2966258E-05  0.1699517E+04  0.7818609E-02  0.8761640E-01
        1   -1    0    0  501    0  0.00000000000E+00  0.00000000000E+00  0.78487873123E+03  0.78487873124E+03  0.50400001928E-02 0. -1.
       -1   -1    0    0    0  501  0.00000000000E+00  0.00000000000E+00 -0.92000098809E+03  0.92000098810E+03  0.50400001928E-02 0.  1.
    10030    2    1    2    0    0  0.00000000000E+00  0.00000000000E+00 -0.13512225686E+03  0.17048797193E+04  0.16995166469E+04 0.  0.
        4    1    3    3  502    0  0.48603787396E+03  0.34802809692E+03  0.53827447740E+03  0.80442364280E+03  0.12699999809E+01 0.  1.
       -4    1    3    3    0  502 -0.48603787396E+03 -0.34802809692E+03 -0.67339673426E+03  0.90045607654E+03  0.12699999809E+01 0. -1.
</event>
<event>
 5   0  0.5755321E-05  0.1669707E+04  0.7818609E-02  0.8778833E-01
        2   -1    0    0  501    0  0.00000000000E+00  0.00000000000E+00  0.11021776017E+04  0.11021776017E+04  0.25500000920E-02 0. -1.
       -2   -1    0    0    0  501  0.00000000000E+00  0.00000000000E+00 -0.63236664595E+03  0.63236664596E+03  0.25500000920E-02 0.  1.
    10030    2    1    2    0    0  0.00000000000E+00  0.00000000000E+00  0.46981095571E+03  0.17345442476E+04  0.16697069841E+04 0.  0.
        4    1    3    3  502    0  0.47529440883E+03  0.59525467808E+03  0.58985436124E+03  0.96341200284E+03  0.12699999809E+01 0.  1.
       -4    1    3    3    0  502 -0.47529440883E+03 -0.59525467808E+03 -0.12004340552E+03  0.77113224479E+03  0.12699999809E+01 0. -1.
</event>
<event>
 5   0  0.5755321E-05  0.1699478E+04  0.7818609E-02  0.8761662E-01
       -2   -1    0    0    0  501  0.00000000000E+00  0.00000000000E+00  0.59825136805E+03  0.59825136805E+03  0.25500000920E-02 0.  1.
        2   -1    0    0  501    0  0.00000000000E+00  0.00000000000E+00 -0.12069443087E+04  0.12069443087E+04  0.25500000920E-02 0. -1.
    10030    2    1    2    0    0  0.00000000000E+00  0.00000000000E+00 -0.60869294066E+03  0.18051956768E+04  0.16994776655E+04 0.  0.
        4    1    3    3  502    0  0.71549859284E+03  0.24610085656E+03  0.10642749228E+03  0.76408919111E+03  0.12699999809E+01 0.  1.
       -4    1    3    3    0  502 -0.71549859284E+03 -0.24610085656E+03 -0.71512043294E+03  0.10411064857E+04  0.12699999809E+01 0. -1.
</event>
<event>
 5   0  0.5859822E-05  0.1697459E+04  0.7818609E-02  0.8762815E-01
       -2   -1    0    0    0  501  0.00000000000E+00  0.00000000000E+00  0.65119302862E+03  0.65119302863E+03  0.25500000920E-02 0. -1.
        2   -1    0    0  501    0  0.00000000000E+00  0.00000000000E+00 -0.11061876514E+04  0.11061876514E+04  0.25500000920E-02 0.  1.
    10030    2    1    2    0    0  0.00000000000E+00  0.00000000000E+00 -0.45499462273E+03  0.17573806800E+04  0.16974589090E+04 0.  0.
        5    1    3    3  502    0  0.92090776712E+02  0.42228498649E+02  0.64489688600E+03  0.65282313135E+03  0.46999998093E+01 0. -1.
       -5    1    3    3    0  502 -0.92090776712E+02 -0.42228498649E+02 -0.10998915087E+04  0.11045575486E+04  0.46999998093E+01 0.  1.
</event>
<event>
 5   0  0.5821584E-05  0.1700161E+04  0.7818609E-02  0.8761273E-01
       -2   -1    0    0    0  501  0.00000000000E+00  0.00000000000E+00  0.56584108618E+03  0.56584108618E+03  0.25500000920E-02 0.  1.
        2   -1    0    0  501    0  0.00000000000E+00  0.00000000000E+00 -0.12771015382E+04  0.12771015382E+04  0.25500000920E-02 0. -1.
    10030    2    1    2    0    0  0.00000000000E+00  0.00000000000E+00 -0.71126045201E+03  0.18429426244E+04  0.17001606060E+04 0.  0.
        1    1    3    3  502    0 -0.21912840863E+03 -0.45825630564E+01 -0.12459468338E+04  0.12650777731E+04  0.50400001928E-02 0. -1.
       -1    1    3    3    0  502  0.21912840863E+03  0.45825630564E+01  0.53468638182E+03  0.57786485123E+03  0.50400001928E-02 0.  1.
</event>
<event>
 5   0  0.2987859E-05  0.1700762E+04  0.7818609E-02  0.8760930E-01
        1   -1    0    0  501    0  0.00000000000E+00  0.00000000000E+00  0.25565969539E+04  0.25565969539E+04  0.50400001928E-02 0.  1.
       -1   -1    0    0    0  501  0.00000000000E+00  0.00000000000E+00 -0.28285568177E+03  0.28285568182E+03  0.50400001928E-02 0. -1.
    10030    2    1    2    0    0  0.00000000000E+00  0.00000000000E+00  0.22737412721E+04  0.28394526357E+04  0.17007621521E+04 0.  0.
        5    1    3    3  502    0  0.25173092451E+03 -0.80402552629E+03  0.13294115628E+04  0.15739068265E+04  0.46999998093E+01 0.  1.
       -5    1    3    3    0  502 -0.25173092451E+03  0.80402552629E+03  0.94432970937E+03  0.12655458092E+04  0.46999998093E+01 0. -1.
</event>
<event>
 5   0  0.5859822E-05  0.1698429E+04  0.7818609E-02  0.8762261E-01
       -2   -1    0    0    0  501  0.00000000000E+00  0.00000000000E+00  0.59555025694E+03  0.59555025694E+03  0.25500000920E-02 0.  1.
        2   -1    0    0  501    0  0.00000000000E+00  0.00000000000E+00 -0.12109225096E+04  0.12109225096E+04  0.25500000920E-02 0. -1.
    10030    2    1    2    0    0  0.00000000000E+00  0.00000000000E+00 -0.61537225270E+03  0.18064727666E+04  0.16984289349E+04 0.  0.
        5    1    3    3  502    0 -0.80037070840E+03 -0.12029342060E+03 -0.34274549430E+02  0.81009913754E+03  0.46999998093E+01 0.  1.
       -5    1    3    3    0  502  0.80037070840E+03  0.12029342060E+03 -0.58109770327E+03  0.99637362905E+03  0.46999998093E+01 0. -1.
</event>
<event>
 5   0  0.2967704E-05  0.1699064E+04  0.7818609E-02  0.8761898E-01
       -1   -1    0    0    0  501  0.00000000000E+00  0.00000000000E+00  0.60006358082E+03  0.60006358084E+03  0.50400001928E-02 0. -1.
        1   -1    0    0  501    0  0.00000000000E+00  0.00000000000E+00 -0.12027137161E+04  0.12027137162E+04  0.50400001928E-02 0.  1.
    10030    2    1    2    0    0  0.00000000000E+00  0.00000000000E+00 -0.60265013533E+03  0.18027772970E+04  0.16990640944E+04 0.  0.
        2    1    3    3  502    0 -0.75586862036E+03  0.36506716336E+03 -0.16260311221E+03  0.85501530812E+03  0.25500000920E-02 0. -1.
       -2    1    3    3    0  502  0.75586862036E+03 -0.36506716336E+03 -0.44004702312E+03  0.94776198888E+03  0.25500000920E-02 0.  1.
</event>
<event>
 5   0  0.5859822E-05  0.1697357E+04  0.7818609E-02  0.8762873E-01
       -2   -1    0    0    0  501  0.00000000000E+00  0.00000000000E+00  0.56813220742E+03  0.56813220743E+03  0.25500000920E-02 0. -1.
        2   -1    0    0  501    0  0.00000000000E+00  0.00000000000E+00 -0.12677598884E+04  0.12677598884E+04  0.25500000920E-02 0.  1.
    10030    2    1    2    0    0  0.00000000000E+00  0.00000000000E+00 -0.69962768100E+03  0.18358920959E+04  0.16973570325E+04 0.  0.
        5    1    3    3  502    0 -0.10236021569E+03 -0.57596983167E+03  0.31519596219E+03  0.66452196753E+03  0.46999998093E+01 0. -1.
       -5    1    3    3    0  502  0.10236021569E+03  0.57596983167E+03 -0.10148236432E+04  0.11713701283E+04  0.46999998093E+01 0.  1.
</event>
<event>
 5   0  0.2993769E-05  0.1704714E+04  0.7818609E-02  0.8758680E-01
        1   -1    0    0  501    0  0.00000000000E+00  0.00000000000E+00  0.75211910577E+03  0.75211910579E+03  0.50400001928E-02 0.  1.
       -1   -1    0    0    0  501  0.00000000000E+00  0.00000000000E+00 -0.96595403571E+03  0.96595403573E+03  0.50400001928E-02 0. -1.
    10030    2    1    2    0    0  0.00000000000E+00  0.00000000000E+00 -0.21383492994E+03  0.17180731415E+04  0.17047140354E+04 0.  0.
        3    1    3    3  502    0 -0.12827581304E+03  0.59715071482E+03 -0.70610899227E+03  0.93361318520E+03  0.10100000352E+00 0. -1.
       -3    1    3    3    0  502  0.12827581304E+03 -0.59715071482E+03  0.49227406233E+03  0.78445995631E+03  0.10100000352E+00 0.  1.
</event>
<event>
 5   0  0.2966258E-05  0.1705708E+04  0.7818609E-02  0.8758115E-01
       -1   -1    0    0    0  501  0.00000000000E+00  0.00000000000E+00  0.74404424459E+03  0.74404424460E+03  0.50400001928E-02 0.  1.
        1   -1    0    0  501    0  0.00000000000E+00  0.00000000000E+00 -0.97757668038E+03  0.97757668039E+03  0.50400001928E-02 0. -1.
    10030    2    1    2    0    0  0.00000000000E+00  0.00000000000E+00 -0.23353243579E+03  0.17216209250E+04  0.17057084191E+04 0.  0.
        4    1    3    3  502    0  0.85245187537E+03  0.21133750145E+02 -0.10119980635E+03  0.85869892798E+03  0.12699999809E+01 0.  1.
       -4    1    3    3    0  502 -0.85245187537E+03 -0.21133750145E+02 -0.13233262945E+03  0.86292199702E+03  0.12699999809E+01 0. -1.
</event>
<event>
 5   0  0.2993769E-05  0.1700284E+04  0.7818609E-02  0.8761203E-01
       -1   -1    0    0    0  501  0.00000000000E+00  0.00000000000E+00  0.93792509017E+03  0.93792509019E+03  0.50400001928E-02 0.  1.
        1   -1    0    0  501    0  0.00000000000E+00  0.00000000000E+00 -0.77057449310E+03  0.77057449311E+03  0.50400001928E-02 0. -1.
    10030    2    1    2    0    0  0.00000000000E+00  0.00000000000E+00  0.16735059708E+03  0.17084995833E+04  0.17002836833E+04 0.  0.
        3    1    3    3  502    0 -0.39041839728E+03 -0.55029303646E+03 -0.43602030533E+03  0.80334467557E+03  0.10100000352E+00 0. -1.
       -3    1    3    3    0  502  0.39041839728E+03  0.55029303646E+03  0.60337090241E+03  0.90515490773E+03  0.10100000352E+00 0.  1.
</event>
<event>
 5   0  0.2993769E-05  0.1699653E+04  0.7818609E-02  0.8761562E-01
       -1   -1    0    0    0  501  0.00000000000E+00  0.00000000000E+00  0.35080595585E+03  0.35080595589E+03  0.50400001928E-02 0.  1.
        1   -1    0    0  501    0  0.00000000000E+00  0.00000000000E+00 -0.20587021261E+04  0.20587021261E+04  0.50400001928E-02 0. -1.
    10030    2    1    2    0    0  0.00000000000E+00  0.00000000000E+00 -0.17078961703E+04  0.24095080820E+04  0.16996528672E+04 0.  0.
        3    1    3    3  502    0  0.35070036194E+03  0.23948384560E+03 -0.18974959746E+04  0.19444367411E+04  0.10100000352E+00 0. -1.
       -3    1    3    3    0  502 -0.35070036194E+03 -0.23948384560E+03  0.18959980433E+03  0.46507134095E+03  0.10100000352E+00 0.  1.
</event>
<event>
 5   0  0.5652631E-05  0.1688783E+04  0.7818609E-02  0.8767788E-01
       -2   -1    0    0    0  501  0.00000000000E+00  0.00000000000E+00  0.54365578775E+03  0.54365578775E+03  0.25500000920E-02 0.  1.
        2   -1    0    0  501    0  0.00000000000E+00  0.00000000000E+00 -0.13114853683E+04  0.13114853683E+04  0.25500000920E-02 0. -1.
    10030    2    1    2    0    0  0.00000000000E+00  0.00000000000E+00 -0.76782958053E+03  0.18551411560E+04  0.16887825331E+04 0.  0.
        2    1    3    3  502    0 -0.22289335387E+03  0.76871255542E+02  0.50676183502E+03  0.55892592941E+03  0.25500000920E-02 0.  1.
       -2    1    3    3    0  502  0.22289335387E+03 -0.76871255542E+02 -0.12745914155E+04  0.12962152266E+04  0.25500000920E-02 0. -1.
</event>
<event>
 5   0  0.2987859E-05  0.1700304E+04  0.7818609E-02  0.8761191E-01
       -1   -1    0    0    0  501  0.00000000000E+00  0.00000000000E+00  0.29391053677E+03  0.29391053681E+03  0.50400001928E-02 0.  1.
        1   -1    0    0  501    0  0.00000000000E+00  0.00000000000E+00 -0.24591113693E+04  0.24591113693E+04  0.50400001928E-02 0. -1.
    10030    2    1    2    0    0  0.00000000000E+00  0.00000000000E+00 -0.21652008325E+04  0.27530219061E+04  0.17003043758E+04 0.  0.
        5    1    3    3  502    0  0.58470424549E+03 -0.14816139536E+03 -0.20526037621E+04  0.21394006516E+04  0.46999998093E+01 0. -1.
       -5    1    3    3    0  502 -0.58470424549E+03  0.14816139536E+03 -0.11259707043E+03  0.61362125455E+03  0.46999998093E+01 0.  1.
</event>
<event>
 5   0  0.2967704E-05  0.1697488E+04  0.7818609E-02  0.8762798E-01
        1   -1    0    0  501    0  0.00000000000E+00  0.00000000000E+00  0.86236684169E+03  0.86236684171E+03  0.50400001928E-02 0.  1.
       -1   -1    0    0    0  501  0.00000000000E+00  0.00000000000E+00 -0.83533630593E+03  0.83533630595E+03  0.50400001928E-02 0. -1.
    10030    2    1    2    0    0  0.00000000000E+00  0.00000000000E+00  0.27030535759E+02  0.16977031477E+04  0.16974879463E+04 0.  0.
        2    1    3    3  502    0 -0.54157888885E+03  0.52181181575E+03  0.40697468527E+03  0.85511616659E+03  0.25500000920E-02 0. -1.
       -2    1    3    3    0  502  0.54157888885E+03 -0.52181181575E+03 -0.37994414952E+03  0.84258698106E+03  0.25500000920E-02 0.  1.
</event>
<event>
 5   0  0.2993769E-05  0.1708617E+04  0.7818609E-02  0.8756465E-01
        1   -1    0    0  501    0  0.00000000000E+00  0.00000000000E+00  0.11724722284E+04  0.11724722284E+04  0.50400001928E-02 0.  1.
       -1   -1    0    0    0  501  0.00000000000E+00  0.00000000000E+00 -0.62248216409E+03  0.62248216411E+03  0.50400001928E-02 0. -1.
    10030    2    1    2    0    0  0.00000000000E+00  0.00000000000E+00  0.54999006432E+03  0.17949543925E+04  0.17086170432E+04 0.  0.
        3    1    3    3  502    0  0.13814788719E+03  0.47556073963E+03  0.10063032800E+04  0.11215565779E+04  0.10100000352E+00 0.  1.
       -3    1    3    3    0  502 -0.13814788719E+03 -0.47556073963E+03 -0.45631321567E+03  0.67339781468E+03  0.10100000352E+00 0. -1.
</event>
<event>
 5   0  0.5821584E-05  0.1699320E+04  0.7818609E-02  0.8761752E-01
       -2   -1    0    0    0  501  0.00000000000E+00  0.00000000000E+00  0.90464964250E+03  0.90464964250E+03  0.25500000920E-02 0. -1.
        2   -1    0    0  501    0  0.00000000000E+00  0.00000000000E+00 -0.79801283619E+03  0.79801283619E+03  0.25500000920E-02 0.  1.
    10030    2    1    2    0    0  0.00000000000E+00  0.00000000000E+00  0.10663680631E+03  0.17026624787E+04  0.16993198957E+04 0.  0.
        1    1    3    3  502    0  0.27389928420E+02 -0.45259347959E+03  0.77329355368E+03  0.89642288354E+03  0.50400001928E-02 0. -1.
       -1    1    3    3    0  502 -0.27389928420E+02  0.45259347959E+03 -0.66665674737E+03  0.80623959515E+03  0.50400001928E-02 0.  1.
</event>
<event>
 5   0  0.5652631E-05  0.1700403E+04  0.7818609E-02  0.8761135E-01
       -2   -1    0    0    0  501  0.00000000000E+00  0.00000000000E+00  0.54779311950E+03  0.54779311950E+03  0.25500000920E-02 0.  1.
        2   -1    0    0  501    0  0.00000000000E+00  0.00000000000E+00 -0.13195532805E+04  0.13195532805E+04  0.25500000920E-02 0. -1.
    10030    2    1    2    0    0  0.00000000000E+00  0.00000000000E+00 -0.77176016104E+03  0.18673464000E+04  0.17004025499E+04 0.  0.
        2    1    3    3  502    0 -0.51672108946E+02 -0.47334482107E+03 -0.11593886754E+04  0.12533584591E+04  0.25500000920E-02 0. -1.
       -2    1    3    3    0  502  0.51672108946E+02  0.47334482107E+03  0.38762851433E+03  0.61398794092E+03  0.25500000920E-02 0.  1.
</event>
<event>
 5   0  0.2993769E-05  0.1700040E+04  0.7818609E-02  0.8761342E-01
        1   -1    0    0  501    0  0.00000000000E+00  0.00000000000E+00  0.93924450402E+03  0.93924450403E+03  0.50400001928E-02 0. -1.
       -1   -1    0    0    0  501  0.00000000000E+00  0.00000000000E+00 -0.76927140565E+03  0.76927140567E+03  0.50400001928E-02 0.  1.
    10030    2    1    2    0    0  0.00000000000E+00  0.00000000000E+00  0.16997309836E+03  0.17085159097E+04  0.17000399288E+04 0.  0.
        3    1    3    3  502    0 -0.36261590455E+03 -0.44101457410E+03  0.71784817507E+03  0.91721870972E+03  0.10100000352E+00 0. -1.
       -3    1    3    3    0  502  0.36261590455E+03  0.44101457410E+03 -0.54787507671E+03  0.79129719998E+03  0.10100000352E+00 0.  1.
</event>
<event>
 5   0  0.5821584E-05  0.1700553E+04  0.7818609E-02  0.8761049E-01
       -2   -1    0    0    0  501  0.00000000000E+00  0.00000000000E+00  0.13988821614E+04  0.13988821614E+04  0.25500000920E-02 0.  1.
        2   -1    0    0  501    0  0.00000000000E+00  0.00000000000E+00 -0.51681995577E+03  0.51681995577E+03  0.25500000920E-02 0. -1.
    10030    2    1    2    0    0  0.00000000000E+00  0.00000000000E+00  0.88206220562E+03  0.19157021172E+04  0.17005531062E+04 0.  0.
        1    1    3    3  502    0 -0.20795655647E+03  0.48309068612E+03 -0.31158658252E+03  0.61131721620E+03  0.50400001928E-02 0. -1.
       -1    1    3    3    0  502  0.20795655647E+03 -0.48309068612E+03  0.11936487881E+04  0.13043849010E+04  0.50400001928E-02 0.  1.
</event>
<event>
 5   0  0.2911632E-05  0.1704115E+04  0.7818609E-02  0.8759021E-01
       -1   -1    0    0    0  501  0.00000000000E+00  0.00000000000E+00  0.16528104671E+04  0.16528104671E+04  0.50400001928E-02 0.  1.
        1   -1    0    0  501    0  0.00000000000E+00  0.00000000000E+00 -0.43925317123E+03  0.43925317125E+03  0.50400001928E-02 0. -1.
    10030    2    1    2    0    0  0.00000000000E+00  0.00000000000E+00  0.12135572959E+04  0.20920636384E+04  0.17041153003E+04 0.  0.
        1    1    3    3  502    0 -0.48105146442E+03 -0.19983599070E+03 -0.22100720868E+03  0.56585256111E+03  0.50400001928E-02 0. -1.
       -1    1    3    3    0  502  0.48105146442E+03  0.19983599070E+03  0.14345645046E+04  0.15262110773E+04  0.50400001928E-02 0.  1.
</event>
<event>
 5   0  0.2993769E-05  0.1696067E+04  0.7818609E-02  0.8763611E-01
       -1   -1    0    0    0  501  0.00000000000E+00  0.00000000000E+00  0.34717694889E+03  0.34717694893E+03  0.50400001928E-02 0. -1.
        1   -1    0    0  501    0  0.00000000000E+00  0.00000000000E+00 -0.20714533098E+04  0.20714533098E+04  0.50400001928E-02 0.  1.
    10030    2    1    2    0    0  0.00000000000E+00  0.00000000000E+00 -0.17242763609E+04  0.24186302587E+04  0.16960670269E+04 0.  0.
        3    1    3    3  502    0 -0.10995434953E+03 -0.81791702856E+03 -0.58385318189E+03  0.10109217441E+04  0.10100000352E+00 0. -1.
       -3    1    3    3    0  502  0.10995434953E+03  0.81791702856E+03 -0.11404231790E+04  0.14077085146E+04  0.10100000352E+00 0.  1.
</event>
<event>
 5   0  0.5755321E-05  0.1698771E+04  0.7818609E-02  0.8762066E-01
        2   -1    0    0  501    0  0.00000000000E+00  0.00000000000E+00  0.18026699643E+04  0.18026699643E+04  0.25500000920E-02 0. -1.
       -2   -1    0    0    0  501  0.00000000000E+00  0.00000000000E+00 -0.40021514983E+03  0.40021514984E+03  0.25500000920E-02 0.  1.
    10030    2    1    2    0    0  0.00000000000E+00  0.00000000000E+00  0.14024548144E+04  0.22028851141E+04  0.16987711204E+04 0.  0.
        4    1    3    3  502    0 -0.66525490410E+03 -0.51712396292E+03  0.56232995675E+03  0.10130142514E+04  0.12699999809E+01 0.  1.
       -4    1    3    3    0  502  0.66525490410E+03  0.51712396292E+03  0.84012485770E+03  0.11898708627E+04  0.12699999809E+01 0. -1.
</event>
<event>
 5   0  0.2098250E-05  0.1698566E+04  0.7818609E-02  0.8762183E-01
       -4   -1    0    0    0  501  0.00000000000E+00  0.00000000000E+00  0.18532422884E+04  0.18532427235E+04  0.12699999809E+01 0. -1.
        4   -1    0    0  501    0  0.00000000000E+00  0.00000000000E+00 -0.38919831693E+03  0.38920038901E+03  0.12699999809E+01 0.  1.
    10030    2    1    2    0    0  0.00000000000E+00  0.00000000000E+00  0.14640439714E+04  0.22424431125E+04  0.16985659724E+04 0.  0.
        4    1    3    3  502    0 -0.48191982653E+03  0.47745450435E+03  0.57466190414E+02  0.68081825685E+03  0.12699999809E+01 0. -1.
       -4    1    3    3    0  502  0.48191982653E+03 -0.47745450435E+03  0.14065777810E+04  0.15616248557E+04  0.12699999809E+01 0.  1.
</event>
<event>
 5   0  0.5821584E-05  0.1710606E+04  0.7818609E-02  0.8755339E-01
        2   -1    0    0  501    0  0.00000000000E+00  0.00000000000E+00  0.51115247010E+03  0.51115247011E+03  0.25500000920E-02 0. -1.
       -2   -1    0    0    0  501  0.00000000000E+00  0.00000000000E+00 -0.14311639360E+04  0.14311639360E+04  0.25500000920E-02 0.  1.
    10030    2    1    2    0    0  0.00000000000E+00  0.00000000000E+00 -0.92001146594E+03  0.19423164061E+04  0.17106057185E+04 0.  0.
        1    1    3    3  502    0 -0.15378732414E+03  0.14774469379E+03 -0.14004917811E+04  0.14166355440E+04  0.50400001928E-02 0.  1.
       -1    1    3    3    0  502  0.15378732414E+03 -0.14774469379E+03  0.48048031512E+03  0.52568086217E+03  0.50400001928E-02 0. -1.
</event>
<event>
 5   0  0.5859822E-05  0.1699133E+04  0.7818609E-02  0.8761859E-01
       -2   -1    0    0    0  501  0.00000000000E+00  0.00000000000E+00  0.35051924579E+03  0.35051924580E+03  0.25500000920E-02 0.  1.
        2   -1    0    0  501    0  0.00000000000E+00  0.00000000000E+00 -0.20591267726E+04  0.20591267726E+04  0.25500000920E-02 0. -1.
    10030    2    1    2    0    0  0.00000000000E+00  0.00000000000E+00 -0.17086075268E+04  0.24096460184E+04  0.16991333830E+04 0.  0.
        5    1    3    3  502    0  0.16476396782E+03 -0.82210231903E+03 -0.10484525725E+04  0.13424880911E+04  0.46999998093E+01 0.  1.
       -5    1    3    3    0  502 -0.16476396782E+03  0.82210231903E+03 -0.66015495433E+03  0.10671579273E+04  0.46999998093E+01 0. -1.
</event>
<event>
 5   0  0.5755321E-05  0.1699462E+04  0.7818609E-02  0.8761671E-01
       -2   -1    0    0    0  501  0.00000000000E+00  0.00000000000E+00  0.82123616827E+03  0.82123616828E+03  0.25500000920E-02 0. -1.
        2   -1    0    0  501    0  0.00000000000E+00  0.00000000000E+00 -0.87921449403E+03  0.87921449404E+03  0.25500000920E-02 0.  1.
    10030    2    1    2    0    0  0.00000000000E+00  0.00000000000E+00 -0.57978325759E+02  0.17004506623E+04  0.16994619645E+04 0.  0.
        4    1    3    3  502    0  0.16346682155E+03  0.29986431935E+02  0.80481462942E+03  0.82179607475E+03  0.12699999809E+01 0. -1.
       -4    1    3    3    0  502 -0.16346682155E+03 -0.29986431935E+02 -0.86279295518E+03  0.87865458757E+03  0.12699999809E+01 0.  1.
</event>
<event>
 5   0  0.2993769E-05  0.1695810E+04  0.7818609E-02  0.8763758E-01
       -1   -1    0    0    0  501  0.00000000000E+00  0.00000000000E+00  0.27127475672E+03  0.27127475677E+03  0.50400001928E-02 0.  1.
        1   -1    0    0  501    0  0.00000000000E+00  0.00000000000E+00 -0.26502394288E+04  0.26502394288E+04  0.50400001928E-02 0. -1.
    10030    2    1    2    0    0  0.00000000000E+00  0.00000000000E+00 -0.23789646721E+04  0.29215141856E+04  0.16958101974E+04 0.  0.
        3    1    3    3  502    0 -0.32208427667E+03  0.78418121563E+03 -0.11614593665E+04  0.14379382220E+04  0.10100000352E+00 0. -1.
       -3    1    3    3    0  502  0.32208427667E+03 -0.78418121563E+03 -0.12175053056E+04  0.14835759636E+04  0.10100000352E+00 0.  1.
</event>
<event>
 5   0  0.2993769E-05  0.1696031E+04  0.7818609E-02  0.8763631E-01
        1   -1    0    0  501    0  0.00000000000E+00  0.00000000000E+00  0.40749689862E+03  0.40749689865E+03  0.50400001928E-02 0.  1.
       -1   -1    0    0    0  501  0.00000000000E+00  0.00000000000E+00 -0.17647509687E+04  0.17647509687E+04  0.50400001928E-02 0. -1.
    10030    2    1    2    0    0  0.00000000000E+00  0.00000000000E+00 -0.13572540701E+04  0.21722478673E+04  0.16960313047E+04 0.  0.
        3    1    3    3  502    0  0.42967786729E+03  0.34333045071E+03  0.14808004003E+03  0.56958456482E+03  0.10100000352E+00 0.  1.
       -3    1    3    3    0  502 -0.42967786729E+03 -0.34333045071E+03 -0.15053341101E+04  0.16026633025E+04  0.10100000352E+00 0. -1.
</event>
<event>
 5   0  0.5671132E-05  0.1700551E+04  0.7818609E-02  0.8761050E-01
        2   -1    0    0  501    0  0.00000000000E+00  0.00000000000E+00  0.16240654459E+04  0.16240654459E+04  0.25500000920E-02 0.  1.
       -2   -1    0    0    0  501  0.00000000000E+00  0.00000000000E+00 -0.44515964534E+03  0.44515964534E+03  0.25500000920E-02 0. -1.
    10030    2    1    2    0    0  0.00000000000E+00  0.00000000000E+00  0.11789058005E+04  0.20692250912E+04  0.17005509671E+04 0.  0.
        3    1    3    3  502    0  0.39857135072E+03  0.50640509010E+03  0.12643783817E+04  0.14191398589E+04  0.10100000352E+00 0.  1.
       -3    1    3    3    0  502 -0.39857135072E+03 -0.50640509010E+03 -0.85472581176E+02  0.65008523228E+03  0.10100000352E+00 0. -1.
</event>
<event>
 5   0  0.5755321E-05  0.1700886E+04  0.7818609E-02  0.8760859E-01
       -2   -1    0    0    0  501  0.00000000000E+00  0.00000000000E+00  0.69666171303E+03  0.69666171303E+03  0.25500000920E-02 0. -1.
        2   -1    0    0  501    0  0.00000000000E+00  0.00000000000E+00 -0.10381702823E+04  0.10381702823E+04  0.25500000920E-02 0.  1.
    10030    2    1    2    0    0  0.00000000000E+00  0.00000000000E+00 -0.34150856928E+03  0.17348319953E+04  0.17008862246E+04 0.  0.
        4    1    3    3  502    0 -0.82245270124E+03 -0.65267216830E+02 -0.38118126982E+03  0.90883938555E+03  0.12699999809E+01 0.  1.
       -4    1    3    3    0  502  0.82245270124E+03  0.65267216830E+02  0.39672700536E+02  0.82599260979E+03  0.12699999809E+01 0. -1.
</event>
<event>
 5   0  0.2967704E-05  0.1701251E+04  0.7818609E-02  0.8760651E-01
       -1   -1    0    0    0  501  0.00000000000E+00  0.00000000000E+00  0.29317053476E+03  0.29317053480E+03  0.50400001928E-02 0. -1.
        1   -1    0    0  501    0  0.00000000000E+00  0.00000000000E+00 -0.24680642306E+04  0.24680642306E+04  0.50400001928E-02 0.  1.
    10030    2    1    2    0    0  0.00000000000E+00  0.00000000000E+00 -0.21748936959E+04  0.27612347654E+04  0.17012509637E+04 0.  0.
        2    1    3    3  502    0  0.13449565242E+03 -0.13973916718E+03  0.25680430430E+03  0.32181449016E+03  0.25500000920E-02 0. -1.
       -2    1    3    3    0  502 -0.13449565242E+03  0.13973916718E+03 -0.24316980002E+04  0.24394202753E+04  0.25500000920E-02 0.  1.
</event>
<event>
 5   0  0.2911632E-05  0.1715056E+04  0.7818609E-02  0.8752824E-01
       -1   -1    0    0    0  501  0.00000000000E+00  0.00000000000E+00  0.70771642660E+03  0.70771642662E+03  0.50400001928E-02 0.  1.
        1   -1    0    0  501    0  0.00000000000E+00  0.00000000000E+00 -0.10390524724E+04  0.10390524724E+04  0.50400001928E-02 0. -1.
    10030    2    1    2    0    0  0.00000000000E+00  0.00000000000E+00 -0.33133604582E+03  0.17467688991E+04  0.17150562706E+04 0.  0.
        1    1    3    3  502    0 -0.69845970869E+03 -0.10469174995E+02 -0.67225729607E+03  0.96947689010E+03  0.50400001928E-02 0. -1.
       -1    1    3    3    0  502  0.69845970869E+03  0.10469174995E+02  0.34092125025E+03  0.77729200896E+03  0.50400001928E-02 0.  1.
</event>
<event>
 5   0  0.2967704E-05  0.1701373E+04  0.7818609E-02  0.8760581E-01
       -1   -1    0    0    0  501  0.00000000000E+00  0.00000000000E+00  0.89920239397E+03  0.89920239399E+03  0.50400001928E-02 0.  1.
        1   -1    0    0  501    0  0.00000000000E+00  0.00000000000E+00 -0.80478872309E+03  0.80478872310E+03  0.50400001928E-02 0. -1.
    10030    2    1    2    0    0  0.00000000000E+00  0.00000000000E+00  0.94413670888E+02  0.17039911171E+04  0.17013734998E+04 0.  0.
        2    1    3    3  502    0 -0.37378005081E+03 -0.50312040714E+03  0.62326675645E+03  0.88391352528E+03  0.25500000920E-02 0.  1.
       -2    1    3    3    0  502  0.37378005081E+03  0.50312040714E+03 -0.52885308556E+03  0.82007759181E+03  0.25500000920E-02 0. -1.
</event>
<event>
 5   0  0.5755321E-05  0.1700424E+04  0.7818609E-02  0.8761122E-01
       -2   -1    0    0    0  501  0.00000000000E+00  0.00000000000E+00  0.14532099121E+04  0.14532099121E+04  0.25500000920E-02 0. -1.
        2   -1    0    0  501    0  0.00000000000E+00  0.00000000000E+00 -0.49742342905E+03  0.49742342906E+03  0.25500000920E-02 0.  1.
    10030    2    1    2    0    0  0.00000000000E+00  0.00000000000E+00  0.95578648309E+03  0.19506333412E+04  0.17004242502E+04 0.  0.
        4    1    3    3  502    0  0.23928275666E+03 -0.43387184819E+03  0.12704684213E+04  0.13636688164E+04  0.12699999809E+01 0. -1.
       -4    1    3    3    0  502 -0.23928275666E+03  0.43387184819E+03 -0.31468193821E+03  0.58696452484E+03  0.12699999809E+01 0.  1.
</event>
<event>
 5   0  0.5755321E-05  0.1680481E+04  0.7818609E-02  0.8772576E-01
       -2   -1    0    0    0  501  0.00000000000E+00  0.00000000000E+00  0.74429284053E+03  0.74429284053E+03  0.25500000920E-02 0. -1.
        2   -1    0    0  501    0  0.00000000000E+00  0.00000000000E+00 -0.94855642305E+03  0.94855642305E+03  0.25500000920E-02 0.  1.
    10030    2    1    2    0    0  0.00000000000E+00  0.00000000000E+00 -0.20426358252E+03  0.16928492636E+04  0.16804805914E+04 0.  0.
        4    1    3    3  502    0 -0.23762918131E+03  0.78383146143E+03 -0.29097557062E+03  0.86921101197E+03  0.12699999809E+01 0.  1.
       -4    1    3    3    0  502  0.23762918131E+03 -0.78383146143E+03  0.86711988105E+02  0.82363825161E+03  0.12699999809E+01 0. -1.
</event>
<event>
 5   0  0.5859822E-05  0.1700486E+04  0.7818609E-02  0.8761087E-01
        2   -1    0    0  501    0  0.00000000000E+00  0.00000000000E+00  0.84870402704E+03  0.84870402704E+03  0.25500000920E-02 0.  1.
       -2   -1    0    0    0  501  0.00000000000E+00  0.00000000000E+00 -0.85178490402E+03  0.85178490402E+03  0.25500000920E-02 0. -1.
    10030    2    1    2    0    0  0.00000000000E+00  0.00000000000E+00 -0.30808769769E+01  0.17004889311E+04  0.17004861402E+04 0.  0.
        5    1    3    3  502    0 -0.51221824807E+03  0.63594135292E+03  0.23531908606E+03  0.84981533304E+03  0.46999998093E+01 0. -1.
       -5    1    3    3    0  502  0.51221824807E+03 -0.63594135292E+03 -0.23839996303E+03  0.85067359803E+03  0.46999998093E+01 0.  1.
</event>
<event>
 5   0  0.2993769E-05  0.1699112E+04  0.7818609E-02  0.8761871E-01
       -1   -1    0    0    0  501  0.00000000000E+00  0.00000000000E+00  0.11209089663E+04  0.11209089663E+04  0.50400001928E-02 0.  1.
        1   -1    0    0  501    0  0.00000000000E+00  0.00000000000E+00 -0.64389321144E+03  0.64389321146E+03  0.50400001928E-02 0. -1.
    10030    2    1    2    0    0  0.00000000000E+00  0.00000000000E+00  0.47701575482E+03  0.17648021777E+04  0.16991123260E+04 0.  0.
        3    1    3    3  502    0 -0.47747705762E+03  0.67069340093E+03  0.45621010469E+03  0.94124473354E+03  0.10100000352E+00 0. -1.
       -3    1    3    3    0  502  0.47747705762E+03 -0.67069340093E+03  0.20805650139E+02  0.82355744419E+03  0.10100000352E+00 0.  1.
</event>
<event>
 5   0  0.2967704E-05  0.1701971E+04  0.7818609E-02  0.8760241E-01
        1   -1    0    0  501    0  0.00000000000E+00  0.00000000000E+00  0.98917933328E+03  0.98917933329E+03  0.50400001928E-02 0. -1.
       -1   -1    0    0    0  501  0.00000000000E+00  0.00000000000E+00 -0.73209845779E+03  0.73209845781E+03  0.50400001928E-02 0.  1.
    10030    2    1    2    0    0  0.00000000000E+00  0.00000000000E+00  0.25708087549E+03  0.17212777911E+04  0.17019714033E+04 0.  0.
        2    1    3    3  502    0  0.96947002852E+02 -0.83262586171E+03  0.27687429377E+03  0.88279324958E+03  0.25500000920E-02 0. -1.
       -2    1    3    3    0  502 -0.96947002852E+02  0.83262586171E+03 -0.19793418286E+02  0.83848454152E+03  0.25500000920E-02 0.  1.
</event>
<event>
 5   0  0.5821584E-05  0.1701027E+04  0.7818609E-02  0.8760779E-01
        2   -1    0    0  501    0  0.00000000000E+00  0.00000000000E+00  0.10737449589E+04  0.10737449589E+04  0.25500000920E-02 0.  1.
       -2   -1    0    0    0  501  0.00000000000E+00  0.00000000000E+00 -0.67369160035E+03  0.67369160035E+03  0.25500000920E-02 0. -1.
    10030    2    1    2    0    0  0.00000000000E+00  0.00000000000E+00  0.40005335851E+03  0.17474365592E+04  0.17010267014E+04 0.  0.
        1    1    3    3  502    0  0.14616922232E+03 -0.50163149531E+03 -0.48938182135E+03  0.71588697832E+03  0.50400001928E-02 0. -1.
       -1    1    3    3    0  502 -0.14616922232E+03  0.50163149531E+03  0.88943517986E+03  0.10315495809E+04  0.50400001928E-02 0.  1.
</event>
<event>
 5   0  0.2966258E-05  0.1699418E+04  0.7818609E-02  0.8761696E-01
        1   -1    0    0  501    0  0.00000000000E+00  0.00000000000E+00  0.86098986458E+03  0.86098986460E+03  0.50400001928E-02 0. -1.
       -1   -1    0    0    0  501  0.00000000000E+00  0.00000000000E+00 -0.83857606054E+03  0.83857606055E+03  0.50400001928E-02 0.  1.
    10030    2    1    2    0    0  0.00000000000E+00  0.00000000000E+00  0.22413804047E+02  0.16995659251E+04  0.16994181226E+04 0.  0.
        4    1    3    3  502    0  0.19789997995E+03  0.19040911687E+03 -0.79296740554E+03  0.83917754558E+03  0.12699999809E+01 0.  1.
       -4    1    3    3    0  502 -0.19789997995E+03 -0.19040911687E+03  0.81538120959E+03  0.86038837957E+03  0.12699999809E+01 0. -1.
</event>
<event>
 5   0  0.5755321E-05  0.1708595E+04  0.7818609E-02  0.8756477E-01
        2   -1    0    0  501    0  0.00000000000E+00  0.00000000000E+00  0.14151489133E+04  0.14151489133E+04  0.25500000920E-02 0. -1.
       -2   -1    0    0    0  501  0.00000000000E+00  0.00000000000E+00 -0.51572257742E+03  0.51572257743E+03  0.25500000920E-02 0.  1.
    10030    2    1    2    0    0  0.00000000000E+00  0.00000000000E+00  0.89942633590E+03  0.19308714907E+04  0.17085950310E+04 0.  0.
        4    1    3    3  502    0 -0.49172160551E+03 -0.35262108193E+02 -0.33875587061E+03  0.59815608864E+03  0.12699999809E+01 0.  1.
       -4    1    3    3    0  502  0.49172160551E+03  0.35262108193E+02  0.12381822065E+04  0.13327154021E+04  0.12699999809E+01 0. -1.
</event>
<event>
 5   0  0.2098250E-05  0.1722409E+04  0.7818609E-02  0.8748686E-01
       -3   -1    0    0    0  501  0.00000000000E+00  0.00000000000E+00  0.19247088119E+04  0.19247088146E+04  0.10100000352E+00 0. -1.
        3   -1    0    0  501    0  0.00000000000E+00  0.00000000000E+00 -0.38534320536E+03  0.38534321860E+03  0.10100000352E+00 0.  1.
    10030    2    1    2    0    0  0.00000000000E+00  0.00000000000E+00  0.15393656066E+04  0.23100520332E+04  0.17224093373E+04 0.  0.
        5    1    3    3  502    0  0.13793929945E+03  0.17443844482E+03 -0.34615157118E+03  0.41145962328E+03  0.46999998093E+01 0.  1.
       -5    1    3    3    0  502 -0.13793929945E+03 -0.17443844482E+03  0.18855171777E+04  0.18985924099E+04  0.46999998093E+01 0. -1.
</event>
<event>
 5   0  0.5652631E-05  0.1697316E+04  0.7818609E-02  0.8762897E-01
       -2   -1    0    0    0  501  0.00000000000E+00  0.00000000000E+00  0.88276893309E+03  0.88276893310E+03  0.25500000920E-02 0.  1.
        2   -1    0    0  501    0  0.00000000000E+00  0.00000000000E+00 -0.81586476589E+03  0.81586476590E+03  0.25500000920E-02 0. -1.
    10030    2    1    2    0    0  0.00000000000E+00  0.00000000000E+00  0.66904167202E+02  0.16986336990E+04  0.16973156088E+04 0.  0.
        2    1    3    3  502    0  0.20664818896E+03  0.40304488877E+03 -0.68479000982E+03  0.82102741362E+03  0.25500000920E-02 0. -1.
       -2    1    3    3    0  502 -0.20664818896E+03 -0.40304488877E+03  0.75169417702E+03  0.87760628538E+03  0.25500000920E-02 0.  1.
</event>
<event>
 5   0  0.2966258E-05  0.1703898E+04  0.7818609E-02  0.8759145E-01
        1   -1    0    0  501    0  0.00000000000E+00  0.00000000000E+00  0.10728402417E+04  0.10728402417E+04  0.50400001928E-02 0. -1.
       -1   -1    0    0    0  501  0.00000000000E+00  0.00000000000E+00 -0.67653752191E+03  0.67653752192E+03  0.50400001928E-02 0.  1.
    10030    2    1    2    0    0  0.00000000000E+00  0.00000000000E+00  0.39630271981E+03  0.17493777636E+04  0.17038975070E+04 0.  0.
        4    1    3    3  502    0  0.61480374709E+03  0.52739470477E+03 -0.72876328993E+02  0.81329047350E+03  0.12699999809E+01 0. -1.
       -4    1    3    3    0  502 -0.61480374709E+03 -0.52739470477E+03  0.46917904880E+03  0.93608729015E+03  0.12699999809E+01 0.  1.
</event>
<event>
 5   0  0.5755321E-05  0.1697392E+04  0.7818609E-02  0.8762853E-01
       -2   -1    0    0    0  501  0.00000000000E+00  0.00000000000E+00  0.57111050500E+03  0.57111050500E+03  0.25500000920E-02 0. -1.
        2   -1    0    0  501    0  0.00000000000E+00  0.00000000000E+00 -0.12612000255E+04  0.12612000255E+04  0.25500000920E-02 0.  1.
    10030    2    1    2    0    0  0.00000000000E+00  0.00000000000E+00 -0.69008952052E+03  0.18323105305E+04  0.16973916266E+04 0.  0.
        4    1    3    3  502    0  0.55625266988E+03 -0.62475716976E+03 -0.49977098513E+03  0.97442865537E+03  0.12699999809E+01 0. -1.
       -4    1    3    3    0  502 -0.55625266988E+03  0.62475716976E+03 -0.19031853539E+03  0.85788187516E+03  0.12699999809E+01 0.  1.
</event>
<event>
 5   0  0.2993769E-05  0.1699046E+04  0.7818609E-02  0.8761909E-01
       -1   -1    0    0    0  501  0.00000000000E+00  0.00000000000E+00  0.39008852379E+03  0.39008852382E+03  0.50400001928E-02 0. -1.
        1   -1    0    0  501    0  0.00000000000E+00  0.00000000000E+00 -0.18500660618E+04  0.18500660618E+04  0.50400001928E-02 0.  1.
    10030    2    1    2    0    0  0.00000000000E+00  0.00000000000E+00 -0.14599775381E+04  0.22401545857E+04  0.16990462489E+04 0.  0.
        3    1    3    3  502    0  0.61414357848E+02  0.50545957995E+03 -0.16265811535E+04  0.17044140839E+04  0.10100000352E+00 0.  1.
       -3    1    3    3    0  502 -0.61414357848E+02 -0.50545957995E+03  0.16660361547E+03  0.53574050173E+03  0.10100000352E+00 0. -1.
</event>
<event>
 5   0  0.5859822E-05  0.1701707E+04  0.7818609E-02  0.8760392E-01
        2   -1    0    0  501    0  0.00000000000E+00  0.00000000000E+00  0.15295462463E+04  0.15295462463E+04  0.25500000920E-02 0.  1.
       -2   -1    0    0    0  501  0.00000000000E+00  0.00000000000E+00 -0.47331128123E+03  0.47331128124E+03  0.25500000920E-02 0. -1.
    10030    2    1    2    0    0  0.00000000000E+00  0.00000000000E+00  0.10562349651E+04  0.20028575275E+04  0.17017067827E+04 0.  0.
        5    1    3    3  502    0 -0.74425491206E+03  0.21224341084E+03  0.94418382881E+03  0.12208471780E+04  0.46999998093E+01 0. -1.
       -5    1    3    3    0  502  0.74425491206E+03 -0.21224341084E+03  0.11205113626E+03  0.78201034949E+03  0.46999998093E+01 0.  1.
</event>
<event>
 5   0  0.5859822E-05  0.1702099E+04  0.7818609E-02  0.8760168E-01
       -2   -1    0    0    0  501  0.00000000000E+00  0.00000000000E+00  0.32506197132E+03  0.32506197133E+03  0.25500000920E-02 0. -1.
        2   -1    0    0  501    0  0.00000000000E+00  0.00000000000E+00 -0.22281458349E+04  0.22281458349E+04  0.25500000920E-02 0.  1.
    10030    2    1    2    0    0  0.00000000000E+00  0.00000000000E+00 -0.19030838636E+04  0.25532078062E+04  0.17020992656E+04 0.  0.
        5    1    3    3  502    0 -0.38530325022E+03 -0.12295293950E+03 -0.20747537515E+04  0.21138120161E+04  0.46999998093E+01 0.  1.
       -5    1    3    3    0  502  0.38530325022E+03  0.12295293950E+03  0.17166988794E+03  0.43939579013E+03  0.46999998093E+01 0. -1.
</event>
<event>
 5   0  0.5821584E-05  0.1698234E+04  0.7818609E-02  0.8762372E-01
        2   -1    0    0  501    0  0.00000000000E+00  0.00000000000E+00  0.90928754636E+03  0.90928754637E+03  0.25500000920E-02 0. -1.
       -2   -1    0    0    0  501  0.00000000000E+00  0.00000000000E+00 -0.79292794599E+03  0.79292794600E+03  0.25500000920E-02 0.  1.
    10030    2    1    2    0    0  0.00000000000E+00  0.00000000000E+00  0.11635960037E+03  0.17022154924E+04  0.16982337960E+04 0.  0.
        1    1    3    3  502    0 -0.51504367556E+03  0.67459182134E+03  0.32519126477E+02  0.84935364058E+03  0.50400001928E-02 0.  1.
       -1    1    3    3    0  502  0.51504367556E+03 -0.67459182134E+03  0.83840473896E+02  0.85286185179E+03  0.50400001928E-02 0. -1.
</event>
<event>
 5   0  0.2966258E-05  0.1699271E+04  0.7818609E-02  0.8761780E-01
        1   -1    0    0  501    0  0.00000000000E+00  0.00000000000E+00  0.65360115812E+03  0.65360115814E+03  0.50400001928E-02 0.  1.
       -1   -1    0    0    0  501  0.00000000000E+00  0.00000000000E+00 -0.11044669388E+04  0.11044669388E+04  0.50400001928E-02 0. -1.
    10030    2    1    2    0    0  0.00000000000E+00  0.00000000000E+00 -0.45086578066E+03  0.17580680969E+04  0.16992714560E+04 0.  0.
        4    1    3    3  502    0  0.33779236931E+03 -0.57869391489E+03  0.31503000861E+03  0.74042950449E+03  0.12699999809E+01 0.  1.
       -4    1    3    3    0  502 -0.33779236931E+03  0.57869391489E+03 -0.76589578927E+03  0.10176385924E+04  0.12699999809E+01 0. -1.
</event>
<event>
 5   0  0.2993769E-05  0.1699931E+04  0.7818609E-02  0.8761404E-01
       -1   -1    0    0    0  501  0.00000000000E+00  0.00000000000E+00  0.55593130875E+03  0.55593130877E+03  0.50400001928E-02 0. -1.
        1   -1    0    0  501    0  0.00000000000E+00  0.00000000000E+00 -0.12995153713E+04  0.12995153713E+04  0.50400001928E-02 0.  1.
    10030    2    1    2    0    0  0.00000000000E+00  0.00000000000E+00 -0.74358406256E+03  0.18554466801E+04  0.16999309176E+04 0.  0.
        3    1    3    3  502    0 -0.61105805659E+03 -0.55730970730E+03 -0.58583196805E+03  0.10135014373E+04  0.10100000352E+00 0.  1.
       -3    1    3    3    0  502  0.61105805659E+03  0.55730970730E+03 -0.15775209451E+03  0.84194524281E+03  0.10100000352E+00 0. -1.
</event>
<event>
 5   0  0.2993769E-05  0.1703118E+04  0.7818609E-02  0.8759588E-01
       -1   -1    0    0    0  501  0.00000000000E+00  0.00000000000E+00  0.90324669544E+03  0.90324669545E+03  0.50400001928E-02 0. -1.
        1   -1    0    0  501    0  0.00000000000E+00  0.00000000000E+00 -0.80282956899E+03  0.80282956900E+03  0.50400001928E-02 0.  1.
    10030    2    1    2    0    0  0.00000000000E+00  0.00000000000E+00  0.10041712645E+03  0.17060762645E+04  0.17031184988E+04 0.  0.
        3    1    3    3  502    0  0.52747433794E+03 -0.25822005298E+03  0.66792067150E+03  0.88939575362E+03  0.10100000352E+00 0. -1.
       -3    1    3    3    0  502 -0.52747433794E+03  0.25822005298E+03 -0.56750354504E+03  0.81668051084E+03  0.10100000352E+00 0.  1.
</event>
<event>
 5   0  0.5755321E-05  0.1700982E+04  0.7818609E-02  0.8760805E-01
       -2   -1    0    0    0  501  0.00000000000E+00  0.00000000000E+00  0.54310854712E+03  0.54310854713E+03  0.25500000920E-02 0. -1.
        2   -1    0    0  501    0  0.00000000000E+00  0.00000000000E+00 -0.13318416974E+04  0.13318416974E+04  0.25500000920E-02 0.  1.
    10030    2    1    2    0    0  0.00000000000E+00  0.00000000000E+00 -0.78873315030E+03  0.18749502445E+04  0.17009816099E+04 0.  0.
        4    1    3    3  502    0  0.41816294899E+03  0.60545729568E+03 -0.86447665553E+03  0.11352357859E+04  0.12699999809E+01 0.  1.
       -4    1    3    3    0  502 -0.41816294899E+03 -0.60545729568E+03  0.75743505230E+02  0.73971445862E+03  0.12699999809E+01 0. -1.
</event>
<event>
 5   0  0.2987859E-05  0.1700419E+04  0.7818609E-02  0.8761126E-01
        1   -1    0    0  501    0  0.00000000000E+00  0.00000000000E+00  0.13805306271E+04  0.13805306272E+04  0.50400001928E-02 0.  1.
       -1   -1    0    0    0  501  0.00000000000E+00  0.00000000000E+00 -0.52360735783E+03  0.52360735785E+03  0.50400001928E-02 0. -1.
    10030    2    1    2    0    0  0.00000000000E+00  0.00000000000E+00  0.85692326932E+03  0.19041379850E+04  0.17004187650E+04 0.  0.
        5    1    3    3  502    0 -0.10499472730E+03  0.82761315476E+03  0.24491438058E+03  0.86946683117E+03  0.46999998093E+01 0. -1.
       -5    1    3    3    0  502  0.10499472730E+03 -0.82761315476E+03  0.61200888874E+03  0.10346711538E+04  0.46999998093E+01 0.  1.
</event>
<event>
 5   0  0.2966258E-05  0.1683292E+04  0.7818609E-02  0.8770951E-01
       -1   -1    0    0    0  501  0.00000000000E+00  0.00000000000E+00  0.11753139739E+04  0.11753139739E+04  0.50400001928E-02 0.  1.
        1   -1    0    0  501    0  0.00000000000E+00  0.00000000000E+00 -0.60270555693E+03  0.60270555695E+03  0.50400001928E-02 0. -1.
    10030    2    1    2    0    0  0.00000000000E+00  0.00000000000E+00  0.57260841699E+03  0.17780195309E+04  0.16832923255E+04 0.  0.
        4    1    3    3  502    0  0.65964291440E+03  0.95341779579E+02 -0.25657161356E+03  0.71417745360E+03  0.12699999809E+01 0. -1.
       -4    1    3    3    0  502 -0.65964291440E+03 -0.95341779579E+02  0.82918003055E+03  0.10638420773E+04  0.12699999809E+01 0.  1.
</event>
<event>
 5   0  0.2967704E-05  0.1700548E+04  0.7818609E-02  0.8761052E-01
        1   -1    0    0  501    0  0.00000000000E+00  0.00000000000E+00  0.99940817954E+03  0.99940817956E+03  0.50400001928E-02 0.  1.
       -1   -1    0    0    0  501  0.00000000000E+00  0.00000000000E+00 -0.72339359190E+03  0.72339359192E+03  0.50400001928E-02 0. -1.
    10030    2    1    2    0    0  0.00000000000E+00  0.00000000000E+00  0.27601458764E+03  0.17228017715E+04  0.17005475269E+04 0.  0.
        2    1    3    3  502    0  0.27477890726E+03 -0.79190071859E+02  0.94923024648E+03  0.99136904137E+03  0.25500000920E-02 0.  1.
       -2    1    3    3    0  502 -0.27477890726E+03  0.79190071859E+02 -0.67321565883E+03  0.73143273010E+03  0.25500000920E-02 0. -1.
</event>
<event>
 5   0  0.5671132E-05  0.1698548E+04  0.7818609E-02  0.8762193E-01
        2   -1    0    0  501    0  0.00000000000E+00  0.00000000000E+00  0.45060200523E+03  0.45060200523E+03  0.25500000920E-02 0.  1.
       -2   -1    0    0    0  501  0.00000000000E+00  0.00000000000E+00 -0.16006731726E+04  0.16006731726E+04  0.25500000920E-02 0. -1.
    10030    2    1    2    0    0  0.00000000000E+00  0.00000000000E+00 -0.11500711674E+04  0.20512751778E+04  0.16985482522E+04 0.  0.
        3    1    3    3  502    0 -0.33569358018E+02 -0.82519571503E+03 -0.33595579026E+03  0.89159473592E+03  0.10100000352E+00 0. -1.
       -3    1    3    3    0  502  0.33569358018E+02  0.82519571503E+03 -0.81411537710E+03  0.11596804419E+04  0.10100000352E+00 0.  1.
</event>
<event>
 5   0  0.5755321E-05  0.1704068E+04  0.7818609E-02  0.8759047E-01
       -2   -1    0    0    0  501  0.00000000000E+00  0.00000000000E+00  0.78114365549E+03  0.78114365550E+03  0.25500000920E-02 0.  1.
        2   -1    0    0  501    0  0.00000000000E+00  0.00000000000E+00 -0.92935828641E+03  0.92935828642E+03  0.25500000920E-02 0. -1.
    10030    2    1    2    0    0  0.00000000000E+00  0.00000000000E+00 -0.14821463092E+03  0.17105019419E+04  0.17040684600E+04 0.  0.
        4    1    3    3  502    0 -0.94838987595E+01 -0.77366056251E+03  0.28405923882E+03  0.82421591490E+03  0.12699999809E+01 0.  1.
       -4    1    3    3    0  502  0.94838987595E+01  0.77366056251E+03 -0.43227386974E+03  0.88628602701E+03  0.12699999809E+01 0. -1.
</event>
<event>
 5   0  0.5821584E-05  0.1699984E+04  0.7818609E-02  0.8761373E-01
        2   -1    0    0  501    0  0.00000000000E+00  0.00000000000E+00  0.51198561677E+03  0.51198561678E+03  0.25500000920E-02 0.  1.
       -2   -1    0    0    0  501  0.00000000000E+00  0.00000000000E+00 -0.14111458839E+04  0.14111458839E+04  0.25500000920E-02 0. -1.
    10030    2    1    2    0    0  0.00000000000E+00  0.00000000000E+00 -0.89916026711E+03  0.19231315007E+04  0.16999839949E+04 0.  0.
        1    1    3    3  502    0  0.46139967356E+03  0.65981926038E+03 -0.14135409391E+03  0.81745464402E+03  0.50400001928E-02 0. -1.
       -1    1    3    3    0  502 -0.46139967356E+03 -0.65981926038E+03 -0.75780617320E+03  0.11056768566E+04  0.50400001928E-02 0.  1.
</event>
<event>
 5   0  0.5671132E-05  0.1702567E+04  0.7818609E-02  0.8759902E-01
       -2   -1    0    0    0  501  0.00000000000E+00  0.00000000000E+00  0.77130406948E+03  0.77130406948E+03  0.25500000920E-02 0.  1.
        2   -1    0    0  501    0  0.00000000000E+00  0.00000000000E+00 -0.93955579317E+03  0.93955579317E+03  0.25500000920E-02 0. -1.
    10030    2    1    2    0    0  0.00000000000E+00  0.00000000000E+00 -0.16825172369E+03  0.17108598627E+04  0.17025665412E+04 0.  0.
        3    1    3    3  502    0 -0.53935598691E+03 -0.38303970155E+03  0.45426273610E+03  0.80248298249E+03  0.10100000352E+00 0.  1.
       -3    1    3    3    0  502  0.53935598691E+03  0.38303970155E+03 -0.62251445979E+03  0.90837688017E+03  0.10100000352E+00 0. -1.
</event>
<event>
 5   0  0.2987859E-05  0.1700414E+04  0.7818609E-02  0.8761128E-01
       -1   -1    0    0    0  501  0.00000000000E+00  0.00000000000E+00  0.13111985971E+04  0.13111985971E+04  0.50400001928E-02 0. -1.
        1   -1    0    0  501    0  0.00000000000E+00  0.00000000000E+00 -0.55129090827E+03  0.55129090829E+03  0.50400001928E-02 0.  1.
    10030    2    1    2    0    0  0.00000000000E+00  0.00000000000E+00  0.75990768884E+03  0.18624895054E+04  0.17004139091E+04 0.  0.
        5    1    3    3  502    0  0.34556530597E+02 -0.79996467929E+03  0.69301508730E+03  0.10589757519E+04  0.46999998093E+01 0. -1.
       -5    1    3    3    0  502 -0.34556530597E+02  0.79996467929E+03  0.66892601539E+02  0.80351375349E+03  0.46999998093E+01 0.  1.
</event>
<event>
 5   0  0.2966258E-05  0.1699396E+04  0.7818609E-02  0.8761709E-01
       -1   -1    0    0    0  501  0.00000000000E+00  0.00000000000E+00  0.86987755991E+03  0.86987755992E+03  0.50400001928E-02 0. -1.
        1   -1    0    0  501    0  0.00000000000E+00  0.00000000000E+00 -0.82998650874E+03  0.82998650876E+03  0.50400001928E-02 0.  1.
    10030    2    1    2    0    0  0.00000000000E+00  0.00000000000E+00  0.39891051161E+02  0.16998640687E+04  0.16993959386E+04 0.  0.
        4    1    3    3  502    0 -0.65376496852E+03  0.49109690850E+03 -0.21120300398E+03  0.84450762542E+03  0.12699999809E+01 0. -1.
       -4    1    3    3    0  502  0.65376496852E+03 -0.49109690850E+03  0.25109405514E+03  0.85535644326E+03  0.12699999809E+01 0.  1.
</event>
<event>
 5   0  0.2987859E-05  0.1697696E+04  0.7818609E-02  0.8762680E-01
        1   -1    0    0  501    0  0.00000000000E+00  0.00000000000E+00  0.12706694034E+04  0.12706694034E+04  0.50400001928E-02 0. -1.
       -1   -1    0    0    0  501  0.00000000000E+00  0.00000000000E+00 -0.56705764236E+03  0.56705764238E+03  0.50400001928E-02 0.  1.
    10030    2    1    2    0    0  0.00000000000E+00  0.00000000000E+00  0.70361176101E+03  0.18377270457E+04  0.16976958457E+04 0.  0.
        5    1    3    3  502    0 -0.40509245832E+03  0.74029640098E+03  0.45091100596E+03  0.95680796735E+03  0.46999998093E+01 0. -1.
       -5    1    3    3    0  502  0.40509245832E+03 -0.74029640098E+03  0.25270075505E+03  0.88091907840E+03  0.46999998093E+01 0.  1.
</event>
<event>
 5   0  0.2911632E-05  0.1699840E+04  0.7818609E-02  0.8761455E-01
        1   -1    0    0  501    0  0.00000000000E+00  0.00000000000E+00  0.11130883111E+04  0.11130883111E+04  0.50400001928E-02 0. -1.
       -1   -1    0    0    0  501  0.00000000000E+00  0.00000000000E+00 -0.64897314267E+03  0.64897314269E+03  0.50400001928E-02 0.  1.
    10030    2    1    2    0    0  0.00000000000E+00  0.00000000000E+00  0.46411516846E+03  0.17620614538E+04  0.16998404859E+04 0.  0.
        1    1    3    3  502    0  0.20058720841E+03  0.82311245872E+03  0.30247856945E+03  0.89957914209E+03  0.50400001928E-02 0. -1.
       -1    1    3    3    0  502 -0.20058720841E+03 -0.82311245872E+03  0.16163659901E+03  0.86248231173E+03  0.50400001928E-02 0.  1.
</event>
<event>
 5   0  0.5755321E-05  0.1701068E+04  0.7818609E-02  0.8760755E-01
        2   -1    0    0  501    0  0.00000000000E+00  0.00000000000E+00  0.20293262744E+04  0.20293262744E+04  0.25500000920E-02 0.  1.
       -2   -1    0    0    0  501  0.00000000000E+00  0.00000000000E+00 -0.35647705240E+03  0.35647705240E+03  0.25500000920E-02 0. -1.
    10030    2    1    2    0    0  0.00000000000E+00  0.00000000000E+00  0.16728492220E+04  0.23858033268E+04  0.17010681922E+04 0.  0.
        4    1    3    3  502    0  0.71982586987E+03  0.45181081863E+03  0.78939610705E+03  0.11599267759E+04  0.12699999809E+01 0. -1.
       -4    1    3    3    0  502 -0.71982586987E+03 -0.45181081863E+03  0.88345311493E+03  0.12258765509E+04  0.12699999809E+01 0.  1.
</event>
<event>
 5   0  0.5821584E-05  0.1699433E+04  0.7818609E-02  0.8761688E-01
       -2   -1    0    0    0  501  0.00000000000E+00  0.00000000000E+00  0.85539014409E+03  0.85539014410E+03  0.25500000920E-02 0.  1.
        2   -1    0    0  501    0  0.00000000000E+00  0.00000000000E+00 -0.84408002802E+03  0.84408002803E+03  0.25500000920E-02 0. -1.
    10030    2    1    2    0    0  0.00000000000E+00  0.00000000000E+00  0.11310116070E+02  0.16994701721E+04  0.16994325368E+04 0.  0.
        1    1    3    3  502    0 -0.57796584954E+03  0.57545043311E+03  0.24405079980E+03  0.85132162965E+03  0.50400001928E-02 0.  1.
       -1    1    3    3    0  502  0.57796584954E+03 -0.57545043311E+03 -0.23274068373E+03  0.84814854247E+03  0.50400001928E-02 0. -1.
</event>
<event>
 5   0  0.5652631E-05  0.1700563E+04  0.7818609E-02  0.8761044E-01
        2   -1    0    0  501    0  0.00000000000E+00  0.00000000000E+00  0.12091225224E+04  0.12091225224E+04  0.25500000920E-02 0.  1.
       -2   -1    0    0    0  501  0.00000000000E+00  0.00000000000E+00 -0.59793633121E+03  0.59793633121E+03  0.25500000920E-02 0. -1.
    10030    2    1    2    0    0  0.00000000000E+00  0.00000000000E+00  0.61118619117E+03  0.18070588536E+04  0.17005625952E+04 0.  0.
        2    1    3    3  502    0  0.10699301420E+01  0.65231041938E+03 -0.27396902032E+03  0.70750904735E+03  0.25500000920E-02 0.  1.
       -2    1    3    3    0  502 -0.10699301420E+01 -0.65231041938E+03  0.88515521149E+03  0.10995498062E+04  0.25500000920E-02 0. -1.
</event>
<event>
 5   0  0.2993769E-05  0.1703857E+04  0.7818609E-02  0.8759168E-01
        1   -1    0    0  501    0  0.00000000000E+00  0.00000000000E+00  0.76008340994E+03  0.76008340996E+03  0.50400001928E-02 0.  1.
       -1   -1    0    0    0  501  0.00000000000E+00  0.00000000000E+00 -0.95487161550E+03  0.95487161552E+03  0.50400001928E-02 0. -1.
    10030    2    1    2    0    0  0.00000000000E+00  0.00000000000E+00 -0.19478820556E+03  0.17149550255E+04  0.17038568879E+04 0.  0.
        3    1    3    3  502    0  0.14740980844E+03  0.52531400498E+03 -0.75594754106E+03  0.93227739997E+03  0.10100000352E+00 0. -1.
       -3    1    3    3    0  502 -0.14740980844E+03 -0.52531400498E+03  0.56115933550E+03  0.78267762551E+03  0.10100000352E+00 0.  1.
</event>
<event>
 5   0  0.5671132E-05  0.1703775E+04  0.7818609E-02  0.8759214E-01
       -2   -1    0    0    0  501  0.00000000000E+00  0.00000000000E+00  0.54513647310E+03  0.54513647311E+03  0.25500000920E-02 0. -1.
        2   -1    0    0  501    0  0.00000000000E+00  0.00000000000E+00 -0.13312483753E+04  0.13312483753E+04  0.25500000920E-02 0.  1.
    10030    2    1    2    0    0  0.00000000000E+00  0.00000000000E+00 -0.78611190217E+03  0.18763848484E+04  0.17037746848E+04 0.  0.
        3    1    3    3  502    0  0.53674798427E+03 -0.39527092921E+03 -0.97724329761E+03  0.11829378593E+04  0.10100000352E+00 0.  1.
       -3    1    3    3    0  502 -0.53674798427E+03  0.39527092921E+03  0.19113139544E+03  0.69344698905E+03  0.10100000352E+00 0. -1.
</event>
<event>
 5   0  0.5859822E-05  0.1700034E+04  0.7818609E-02  0.8761345E-01
       -2   -1    0    0    0  501  0.00000000000E+00  0.00000000000E+00  0.58159327638E+03  0.58159327639E+03  0.25500000920E-02 0.  1.
        2   -1    0    0  501    0  0.00000000000E+00  0.00000000000E+00 -0.12423272322E+04  0.12423272322E+04  0.25500000920E-02 0. -1.
    10030    2    1    2    0    0  0.00000000000E+00  0.00000000000E+00 -0.66073395586E+03  0.18239205086E+04  0.17000343118E+04 0.  0.
        5    1    3    3  502    0 -0.57861571068E+03  0.26755899861E+03  0.27285387662E+03  0.69343729808E+03  0.46999998093E+01 0.  1.
       -5    1    3    3    0  502  0.57861571068E+03 -0.26755899861E+03 -0.93358783248E+03  0.11304832106E+04  0.46999998093E+01 0. -1.
</event>
<event>
 5   0  0.5821584E-05  0.1700400E+04  0.7818609E-02  0.8761136E-01
       -2   -1    0    0    0  501  0.00000000000E+00  0.00000000000E+00  0.16186671521E+04  0.16186671521E+04  0.25500000920E-02 0. -1.
        2   -1    0    0  501    0  0.00000000000E+00  0.00000000000E+00 -0.44656502550E+03  0.44656502551E+03  0.25500000920E-02 0.  1.
    10030    2    1    2    0    0  0.00000000000E+00  0.00000000000E+00  0.11721021266E+04  0.20652321776E+04  0.17004001153E+04 0.  0.
        1    1    3    3  502    0  0.61774291487E+03  0.57538289312E+03  0.70852484195E+03  0.11021248724E+04  0.50400001928E-02 0. -1.
       -1    1    3    3    0  502 -0.61774291487E+03 -0.57538289312E+03  0.46357728465E+03  0.96310730526E+03  0.50400001928E-02 0.  1.
</event>
<event>
 5   0  0.2993769E-05  0.1709064E+04  0.7818609E-02  0.8756211E-01
        1   -1    0    0  501    0  0.00000000000E+00  0.00000000000E+00  0.11004767534E+04  0.11004767535E+04  0.50400001928E-02 0. -1.
       -1   -1    0    0    0  501  0.00000000000E+00  0.00000000000E+00 -0.66355362865E+03  0.66355362867E+03  0.50400001928E-02 0.  1.
    10030    2    1    2    0    0  0.00000000000E+00  0.00000000000E+00  0.43692312480E+03  0.17640303821E+04  0.17090644728E+04 0.  0.
        3    1    3    3  502    0  0.82668551799E+03  0.17470136777E+03  0.86700916840E+02  0.84938011087E+03  0.10100000352E+00 0.  1.
       -3    1    3    3    0  502 -0.82668551799E+03 -0.17470136777E+03  0.35022220796E+03  0.91465027125E+03  0.10100000352E+00 0. -1.
</event>
<event>
 5   0  0.2966258E-05  0.1701430E+04  0.7818609E-02  0.8760549E-01
        1   -1    0    0  501    0  0.00000000000E+00  0.00000000000E+00  0.89751641353E+03  0.89751641354E+03  0.50400001928E-02 0. -1.
       -1   -1    0    0    0  501  0.00000000000E+00  0.00000000000E+00 -0.80635400657E+03  0.80635400659E+03  0.50400001928E-02 0.  1.
    10030    2    1    2    0    0  0.00000000000E+00  0.00000000000E+00  0.91162406957E+02  0.17038704201E+04  0.17014299351E+04 0.  0.
        4    1    3    3  502    0 -0.84473963695E+03  0.68965566347E+02 -0.27824957735E+02  0.84800775041E+03  0.12699999809E+01 0. -1.
       -4    1    3    3    0  502  0.84473963695E+03 -0.68965566347E+02  0.11898736469E+03  0.85586266973E+03  0.12699999809E+01 0.  1.
</event>
<event>
 5   0  0.2993769E-05  0.1700748E+04  0.7818609E-02  0.8760938E-01
       -1   -1    0    0    0  501  0.00000000000E+00  0.00000000000E+00  0.13311189380E+04  0.13311189380E+04  0.50400001928E-02 0. -1.
        1   -1    0    0  501    0  0.00000000000E+00  0.00000000000E+00 -0.54325440276E+03  0.54325440278E+03  0.50400001928E-02 0.  1.
    10030    2    1    2    0    0  0.00000000000E+00  0.00000000000E+00  0.78786453524E+03  0.18743733408E+04  0.17007483338E+04 0.  0.
        3    1    3    3  502    0  0.33757586695E+03  0.76673972508E+03  0.55473487227E+03  0.10047776175E+04  0.10100000352E+00 0. -1.
       -3    1    3    3    0  502 -0.33757586695E+03 -0.76673972508E+03  0.23312966297E+03  0.86959572326E+03  0.10100000352E+00 0.  1.
</event>
<event>
 5   0  0.5755321E-05  0.1698288E+04  0.7818609E-02  0.8762342E-01
       -2   -1    0    0    0  501  0.00000000000E+00  0.00000000000E+00  0.79124674899E+03  0.79124674899E+03  0.25500000920E-02 0. -1.
        2   -1    0    0  501    0  0.00000000000E+00  0.00000000000E+00 -0.91127746253E+03  0.91127746253E+03  0.25500000920E-02 0.  1.
    10030    2    1    2    0    0  0.00000000000E+00  0.00000000000E+00 -0.12003071354E+03  0.17025242115E+04  0.16982877608E+04 0.  0.
        4    1    3    3  502    0 -0.81374159056E+03  0.71662978145E+02  0.17236616090E+03  0.83487883251E+03  0.12699999809E+01 0. -1.
       -4    1    3    3    0  502  0.81374159056E+03 -0.71662978145E+02 -0.29239687444E+03  0.86764537902E+03  0.12699999809E+01 0.  1.
</event>
<event>
 5   0  0.5859822E-05  0.1697499E+04  0.7818609E-02  0.8762792E-01
        2   -1    0    0  501    0  0.00000000000E+00  0.00000000000E+00  0.61662441690E+03  0.61662441690E+03  0.25500000920E-02 0. -1.
       -2   -1    0    0    0  501  0.00000000000E+00  0.00000000000E+00 -0.11682572273E+04  0.11682572273E+04  0.25500000920E-02 0.  1.
    10030    2    1    2    0    0  0.00000000000E+00  0.00000000000E+00 -0.55163281038E+03  0.17848816442E+04  0.16974992566E+04 0.  0.
        5    1    3    3  502    0  0.48541509071E+03 -0.69534596470E+03 -0.23908957712E+03  0.88109008438E+03  0.46999998093E+01 0. -1.
       -5    1    3    3    0  502 -0.48541509071E+03  0.69534596470E+03 -0.31254323326E+03  0.90379155980E+03  0.46999998093E+01 0.  1.
</event>
<event>
 5   0  0.5652631E-05  0.1678547E+04  0.7818609E-02  0.8773695E-01
       -2   -1    0    0    0  501  0.00000000000E+00  0.00000000000E+00  0.10905591349E+04  0.10905591349E+04  0.25500000920E-02 0. -1.
        2   -1    0    0  501    0  0.00000000000E+00  0.00000000000E+00 -0.64588885168E+03  0.64588885169E+03  0.25500000920E-02 0.  1.
    10030    2    1    2    0    0  0.00000000000E+00  0.00000000000E+00  0.44467028322E+03  0.17364479866E+04  0.16785469756E+04 0.  0.
        2    1    3    3  502    0 -0.73936300812E+02  0.83589269292E+03  0.23684820954E+03  0.87194050544E+03  0.25500000920E-02 0.  1.
       -2    1    3    3    0  502  0.73936300812E+02 -0.83589269292E+03  0.20782207369E+03  0.86450748116E+03  0.25500000920E-02 0. -1.
</event>
<event>
 5   0  0.5671132E-05  0.1705460E+04  0.7818609E-02  0.8758257E-01
        2   -1    0    0  501    0  0.00000000000E+00  0.00000000000E+00  0.12754155797E+04  0.12754155797E+04  0.25500000920E-02 0. -1.
       -2   -1    0    0    0  501  0.00000000000E+00  0.00000000000E+00 -0.57012659579E+03  0.57012659580E+03  0.25500000920E-02 0.  1.
    10030    2    1    2    0    0  0.00000000000E+00  0.00000000000E+00  0.70528898387E+03  0.18455421755E+04  0.17054598707E+04 0.  0.
        3    1    3    3  502    0  0.30127899624E+03  0.23532962537E+02 -0.51023756791E+03  0.59301367591E+03  0.10100000352E+00 0.  1.
       -3    1    3    3    0  502 -0.30127899624E+03 -0.23532962537E+02  0.12155265518E+04  0.12525284996E+04  0.10100000352E+00 0. -1.
</event>
<event>
 5   0  0.5652631E-05  0.1709207E+04  0.7818609E-02  0.8756130E-01
       -2   -1    0    0    0  501  0.00000000000E+00  0.00000000000E+00  0.54891567241E+03  0.54891567242E+03  0.25500000920E-02 0. -1.
        2   -1    0    0  501    0  0.00000000000E+00  0.00000000000E+00 -0.13305276691E+04  0.13305276691E+04  0.25500000920E-02 0.  1.
    10030    2    1    2    0    0  0.00000000000E+00  0.00000000000E+00 -0.78161199669E+03  0.18794433415E+04  0.17092074071E+04 0.  0.
        2    1    3    3  502    0 -0.67831386200E+03  0.19388969947E+03  0.13956643172E+03  0.71915346054E+03  0.25500000920E-02 0. -1.
       -2    1    3    3    0  502  0.67831386200E+03 -0.19388969947E+03 -0.92117842841E+03  0.11602898810E+04  0.25500000920E-02 0.  1.
</event>
<event>
 5   0  0.5671132E-05  0.1699096E+04  0.7818609E-02  0.8761880E-01
       -2   -1    0    0    0  501  0.00000000000E+00  0.00000000000E+00  0.40307317461E+03  0.40307317462E+03  0.25500000920E-02 0.  1.
        2   -1    0    0  501    0  0.00000000000E+00  0.00000000000E+00 -0.17905720439E+04  0.17905720439E+04  0.25500000920E-02 0. -1.
    10030    2    1    2    0    0  0.00000000000E+00  0.00000000000E+00 -0.13874988693E+04  0.21936452185E+04  0.16990957102E+04 0.  0.
        3    1    3    3  502    0  0.52582720296E+03  0.61902517456E+03 -0.37215952830E+03  0.89341431532E+03  0.10100000352E+00 0.  1.
       -3    1    3    3    0  502 -0.52582720296E+03 -0.61902517456E+03 -0.10153393410E+04  0.13002309032E+04  0.10100000352E+00 0. -1.
</event>
<event>
 5   0  0.5671132E-05  0.1695137E+04  0.7818609E-02  0.8764143E-01
       -2   -1    0    0    0  501  0.00000000000E+00  0.00000000000E+00  0.51156253132E+03  0.51156253132E+03  0.25500000920E-02 0.  1.
        2   -1    0    0  501    0  0.00000000000E+00  0.00000000000E+00 -0.14042710746E+04  0.14042710746E+04  0.25500000920E-02 0. -1.
    10030    2    1    2    0    0  0.00000000000E+00  0.00000000000E+00 -0.89270854333E+03  0.19158336060E+04  0.16951371220E+04 0.  0.
        3    1    3    3  502    0  0.57157992244E+03  0.38876024411E+03 -0.10006499318E+04  0.12161983519E+04  0.10100000352E+00 0. -1.
       -3    1    3    3    0  502 -0.57157992244E+03 -0.38876024411E+03  0.10794138843E+03  0.69963525403E+03  0.10100000352E+00 0.  1.
</event>
<event>
 5   0  0.5755321E-05  0.1702152E+04  0.7818609E-02  0.8760138E-01
       -2   -1    0    0    0  501  0.00000000000E+00  0.00000000000E+00  0.61125041047E+03  0.61125041048E+03  0.25500000920E-02 0.  1.
        2   -1    0    0  501    0  0.00000000000E+00  0.00000000000E+00 -0.11849973520E+04  0.11849973520E+04  0.25500000920E-02 0. -1.
    10030    2    1    2    0    0  0.00000000000E+00  0.00000000000E+00 -0.57374694156E+03  0.17962477625E+04  0.17021517181E+04 0.  0.
        4    1    3    3  502    0  0.43340153879E+03 -0.43801963788E+03  0.33263146337E+03  0.70024524298E+03  0.12699999809E+01 0. -1.
       -4    1    3    3    0  502 -0.43340153879E+03  0.43801963788E+03 -0.90637840493E+03  0.10960025195E+04  0.12699999809E+01 0.  1.
</event>
<event>
 5   0  0.2987859E-05  0.1698920E+04  0.7818609E-02  0.8761980E-01
       -1   -1    0    0    0  501  0.00000000000E+00  0.00000000000E+00  0.71534152561E+03  0.71534152562E+03  0.50400001928E-02 0.  1.
        1   -1    0    0  501    0  0.00000000000E+00  0.00000000000E+00 -0.10087245339E+04  0.10087245339E+04  0.50400001928E-02 0. -1.
    10030    2    1    2    0    0  0.00000000000E+00  0.00000000000E+00 -0.29338300828E+03  0.17240660595E+04  0.16989203007E+04 0.  0.
        5    1    3    3  502    0 -0.10185795086E+03 -0.60709605827E+03 -0.74069242643E+03  0.96311371431E+03  0.46999998093E+01 0. -1.
       -5    1    3    3    0  502  0.10185795086E+03  0.60709605827E+03  0.44730941815E+03  0.76095234521E+03  0.46999998093E+01 0.  1.
</event>
<event>
 5   0  0.2967704E-05  0.1702338E+04  0.7818609E-02  0.8760032E-01
        1   -1    0    0  501    0  0.00000000000E+00  0.00000000000E+00  0.10251838799E+04  0.10251838799E+04  0.50400001928E-02 0. -1.
       -1   -1    0    0    0  501  0.00000000000E+00  0.00000000000E+00 -0.70669144295E+03  0.70669144297E+03  0.50400001928E-02 0.  1.
    10030    2    1    2    0    0  0.00000000000E+00  0.00000000000E+00  0.31849243695E+03  0.17318753229E+04  0.17023380104E+04 0.  0.
        2    1    3    3  502    0 -0.73627771049E+03 -0.37578769323E+03 -0.47171818001E+02  0.82797731718E+03  0.25500000920E-02 0. -1.
       -2    1    3    3    0  502  0.73627771049E+03  0.37578769323E+03  0.36566425495E+03  0.90389800569E+03  0.25500000920E-02 0.  1.
</event>
<event>
 5   0  0.2967704E-05  0.1689176E+04  0.7818609E-02  0.8767562E-01
       -1   -1    0    0    0  501  0.00000000000E+00  0.00000000000E+00  0.67795805356E+03  0.67795805358E+03  0.50400001928E-02 0. -1.
        1   -1    0    0  501    0  0.00000000000E+00  0.00000000000E+00 -0.10521729157E+04  0.10521729157E+04  0.50400001928E-02 0.  1.
    10030    2    1    2    0    0  0.00000000000E+00  0.00000000000E+00 -0.37421486211E+03  0.17301309693E+04  0.16891762512E+04 0.  0.
        2    1    3    3  502    0  0.46501717266E+03 -0.28292229597E+03 -0.84855357065E+03  0.10081315185E+04  0.25500000920E-02 0.  1.
       -2    1    3    3    0  502 -0.46501717266E+03  0.28292229597E+03  0.47433870853E+03  0.72199945072E+03  0.25500000920E-02 0. -1.
</event>
<event>
 5   0  0.2993769E-05  0.1699512E+04  0.7818609E-02  0.8761643E-01
       -1   -1    0    0    0  501  0.00000000000E+00  0.00000000000E+00  0.58715058545E+03  0.58715058547E+03  0.50400001928E-02 0. -1.
        1   -1    0    0  501    0  0.00000000000E+00  0.00000000000E+00 -0.12298125341E+04  0.12298125342E+04  0.50400001928E-02 0.  1.
    10030    2    1    2    0    0  0.00000000000E+00  0.00000000000E+00 -0.64266194869E+03  0.18169631196E+04  0.16995118704E+04 0.  0.
        3    1    3    3  502    0 -0.56225746391E+03  0.59032335148E+03 -0.65034518918E+02  0.81782920826E+03  0.10100000352E+00 0.  1.
       -3    1    3    3    0  502  0.56225746391E+03 -0.59032335148E+03 -0.57762742977E+03  0.99913391137E+03  0.10100000352E+00 0. -1.
</event>
<event>
 5   0  0.5821584E-05  0.1699600E+04  0.7818609E-02  0.8761593E-01
       -2   -1    0    0    0  501  0.00000000000E+00  0.00000000000E+00  0.33590280364E+03  0.33590280365E+03  0.25500000920E-02 0. -1.
        2   -1    0    0  501    0  0.00000000000E+00  0.00000000000E+00 -0.21499074309E+04  0.21499074309E+04  0.25500000920E-02 0.  1.
    10030    2    1    2    0    0  0.00000000000E+00  0.00000000000E+00 -0.18140046273E+04  0.24858102346E+04  0.16995998748E+04 0.  0.
        1    1    3    3  502    0 -0.23207911743E+03  0.74444458436E+03 -0.41295685023E+03  0.88237849935E+03  0.50400001928E-02 0. -1.
       -1    1    3    3    0  502  0.23207911743E+03 -0.74444458436E+03 -0.14010477771E+04  0.16034317352E+04  0.50400001928E-02 0.  1.
</event>
<event>
 5   0  0.2993769E-05  0.1701044E+04  0.7818609E-02  0.8760769E-01
       -1   -1    0    0    0  501  0.00000000000E+00  0.00000000000E+00  0.75145654788E+03  0.75145654790E+03  0.50400001928E-02 0.  1.
        1   -1    0    0  501    0  0.00000000000E+00  0.00000000000E+00 -0.96264790205E+03  0.96264790207E+03  0.50400001928E-02 0. -1.
    10030    2    1    2    0    0  0.00000000000E+00  0.00000000000E+00 -0.21119135417E+03  0.17141044500E+04  0.17010444666E+04 0.  0.
        3    1    3    3  502    0  0.23798834379E+03 -0.46656583159E+03 -0.78086445571E+03  0.94025073006E+03  0.10100000352E+00 0. -1.
       -3    1    3    3    0  502 -0.23798834379E+03  0.46656583159E+03  0.56967310154E+03  0.77385371990E+03  0.10100000352E+00 0.  1.
</event>
<event>
 5   0  0.5671132E-05  0.1701814E+04  0.7818609E-02  0.8760331E-01
        2   -1    0    0  501    0  0.00000000000E+00  0.00000000000E+00  0.11680842404E+04  0.11680842404E+04  0.25500000920E-02 0.  1.
       -2   -1    0    0    0  501  0.00000000000E+00  0.00000000000E+00 -0.61985481034E+03  0.61985481035E+03  0.25500000920E-02 0. -1.
    10030    2    1    2    0    0  0.00000000000E+00  0.00000000000E+00  0.54822943008E+03  0.17879390508E+04  0.17018138974E+04 0.  0.
        3    1    3    3  502    0 -0.73416585203E+03 -0.42437640904E+03  0.34801502945E+03  0.91662931753E+03  0.10100000352E+00 0.  1.
       -3    1    3    3    0  502  0.73416585203E+03  0.42437640904E+03  0.20021440063E+03  0.87130973325E+03  0.10100000352E+00 0. -1.
</event>
<event>
 5   0  0.2911632E-05  0.1699109E+04  0.7818609E-02  0.8761873E-01
        1   -1    0    0  501    0  0.00000000000E+00  0.00000000000E+00  0.67263597690E+03  0.67263597692E+03  0.50400001928E-02 0. -1.
       -1   -1    0    0    0  501  0.00000000000E+00  0.00000000000E+00 -0.10730064541E+04  0.10730064541E+04  0.50400001928E-02 0.  1.
    10030    2    1    2    0    0  0.00000000000E+00  0.00000000000E+00 -0.40037047717E+03  0.17456424310E+04  0.16991088776E+04 0.  0.
        1    1    3    3  502    0  0.58514248734E+03  0.16346496807E+03  0.40990467302E+03  0.73289451305E+03  0.50400001928E-02 0. -1.
       -1    1    3    3    0  502 -0.58514248734E+03 -0.16346496807E+03 -0.81027515019E+03  0.10127479179E+04  0.50400001928E-02 0.  1.
</event>
<event>
 5   0  0.5755321E-05  0.1700132E+04  0.7818609E-02  0.8761289E-01
        2   -1    0    0  501    0  0.00000000000E+00  0.00000000000E+00  0.68987659792E+03  0.68987659792E+03  0.25500000920E-02 0.  1.
       -2   -1    0    0    0  501  0.00000000000E+00  0.00000000000E+00 -0.10474510061E+04  0.10474510061E+04  0.25500000920E-02 0. -1.
    10030    2    1    2    0    0  0.00000000000E+00  0.00000000000E+00 -0.35757440816E+03  0.17373276040E+04  0.17001316850E+04 0.  0.
        4    1    3    3  502    0 -0.45779417480E+03  0.63501673417E+03 -0.51737999891E+03  0.93835251122E+03  0.12699999809E+01 0. -1.
       -4    1    3    3    0  502  0.45779417480E+03 -0.63501673417E+03  0.15980559075E+03  0.79897509278E+03  0.12699999809E+01 0.  1.
</event>
<event>
 5   0  0.5755321E-05  0.1701135E+04  0.7818609E-02  0.8760718E-01
        2   -1    0    0  501    0  0.00000000000E+00  0.00000000000E+00  0.82869711328E+03  0.82869711329E+03  0.25500000920E-02 0.  1.
       -2   -1    0    0    0  501  0.00000000000E+00  0.00000000000E+00 -0.87301464070E+03  0.87301464071E+03  0.25500000920E-02 0. -1.
    10030    2    1    2    0    0  0.00000000000E+00  0.00000000000E+00 -0.44317527422E+02  0.17017117540E+04  0.17011345774E+04 0.  0.
        4    1    3    3  502    0  0.74381035249E+02 -0.53775368061E+03 -0.67717214616E+03  0.86791433209E+03  0.12699999809E+01 0. -1.
       -4    1    3    3    0  502 -0.74381035249E+02  0.53775368061E+03  0.63285461874E+03  0.83379742190E+03  0.12699999809E+01 0.  1.
</event>
<event>
 5   0  0.2987859E-05  0.1709555E+04  0.7818609E-02  0.8755934E-01
       -1   -1    0    0    0  501  0.00000000000E+00  0.00000000000E+00  0.52451618052E+03  0.52451618055E+03  0.50400001928E-02 0.  1.
        1   -1    0    0  501    0  0.00000000000E+00  0.00000000000E+00 -0.13929869565E+04  0.13929869565E+04  0.50400001928E-02 0. -1.
    10030    2    1    2    0    0  0.00000000000E+00  0.00000000000E+00 -0.86847077594E+03  0.19175031370E+04  0.17095545595E+04 0.  0.
        5    1    3    3  502    0 -0.50118803523E+03  0.10781199003E+03 -0.12013981490E+04  0.13062130279E+04  0.46999998093E+01 0. -1.
       -5    1    3    3    0  502  0.50118803523E+03 -0.10781199003E+03  0.33292737301E+03  0.61129010916E+03  0.46999998093E+01 0.  1.
</event>
<event>
 5   0  0.2993769E-05  0.1690086E+04  0.7818609E-02  0.8767039E-01
       -1   -1    0    0    0  501  0.00000000000E+00  0.00000000000E+00  0.38374908651E+03  0.38374908654E+03  0.50400001928E-02 0. -1.
        1   -1    0    0  501    0  0.00000000000E+00  0.00000000000E+00 -0.18608456763E+04  0.18608456763E+04  0.50400001928E-02 0.  1.
    10030    2    1    2    0    0  0.00000000000E+00  0.00000000000E+00 -0.14770965898E+04  0.22445947628E+04  0.16900861853E+04 0.  0.
        3    1    3    3  502    0 -0.70399160291E+03 -0.45797337717E+03 -0.86280877757E+03  0.12040692621E+04  0.10100000352E+00 0.  1.
       -3    1    3    3    0  502  0.70399160291E+03  0.45797337717E+03 -0.61428781219E+03  0.10405255007E+04  0.10100000352E+00 0. -1.
</event>
<event>
 5   0  0.2967704E-05  0.1698184E+04  0.7818609E-02  0.8762401E-01
       -1   -1    0    0    0  501  0.00000000000E+00  0.00000000000E+00  0.92490738648E+03  0.92490738649E+03  0.50400001928E-02 0. -1.
        1   -1    0    0  501    0  0.00000000000E+00  0.00000000000E+00 -0.77949126471E+03  0.77949126472E+03  0.50400001928E-02 0.  1.
    10030    2    1    2    0    0  0.00000000000E+00  0.00000000000E+00  0.14541612177E+03  0.17043986512E+04  0.16981840047E+04 0.  0.
        2    1    3    3  502    0  0.15833932766E+03 -0.60047121400E+03 -0.50847948409E+03  0.80261348561E+03  0.25500000920E-02 0.  1.
       -2    1    3    3    0  502 -0.15833932766E+03  0.60047121400E+03  0.65389560587E+03  0.90178516561E+03  0.25500000920E-02 0. -1.
</event>
<event>
 5   0  0.5755321E-05  0.1709615E+04  0.7818609E-02  0.8755899E-01
        2   -1    0    0  501    0  0.00000000000E+00  0.00000000000E+00  0.93305275387E+03  0.93305275388E+03  0.25500000920E-02 0.  1.
       -2   -1    0    0    0  501  0.00000000000E+00  0.00000000000E+00 -0.78312413379E+03  0.78312413379E+03  0.25500000920E-02 0. -1.
    10030    2    1    2    0    0  0.00000000000E+00  0.00000000000E+00  0.14992862008E+03  0.17161768877E+04  0.17096153131E+04 0.  0.
        4    1    3    3  502    0 -0.56100041981E+03 -0.15716516732E+03  0.70288258272E+03  0.91294463076E+03  0.12699999809E+01 0.  1.
       -4    1    3    3    0  502  0.56100041981E+03  0.15716516732E+03 -0.55295396264E+03  0.80323225691E+03  0.12699999809E+01 0. -1.
</event>
<event>
 5   0  0.2993769E-05  0.1700532E+04  0.7818609E-02  0.8761061E-01
       -1   -1    0    0    0  501  0.00000000000E+00  0.00000000000E+00  0.48770766699E+03  0.48770766702E+03  0.50400001928E-02 0. -1.
        1   -1    0    0  501    0  0.00000000000E+00  0.00000000000E+00 -0.14823468276E+04  0.14823468276E+04  0.50400001928E-02 0.  1.
    10030    2    1    2    0    0  0.00000000000E+00  0.00000000000E+00 -0.99463916061E+03  0.19700544946E+04  0.17005315792E+04 0.  0.
        3    1    3    3  502    0 -0.20030757355E+03 -0.44207860223E+03  0.31146749318E+03  0.57668763129E+03  0.10100000352E+00 0. -1.
       -3    1    3    3    0  502  0.20030757355E+03  0.44207860223E+03 -0.13061066538E+04  0.13933668633E+04  0.10100000352E+00 0.  1.
</event>
<event>
 5   0  0.5652631E-05  0.1699141E+04  0.7818609E-02  0.8761854E-01
        2   -1    0    0  501    0  0.00000000000E+00  0.00000000000E+00  0.96020977079E+03  0.96020977080E+03  0.25500000920E-02 0.  1.
       -2   -1    0    0    0  501  0.00000000000E+00  0.00000000000E+00 -0.75167989619E+03  0.75167989619E+03  0.25500000920E-02 0. -1.
    10030    2    1    2    0    0  0.00000000000E+00  0.00000000000E+00  0.20852987461E+03  0.17118896670E+04  0.16991414077E+04 0.  0.
        2    1    3    3  502    0 -0.23395657148E+03 -0.36229605342E+02  0.92630453938E+03  0.95607968357E+03  0.25500000920E-02 0.  1.
       -2    1    3    3    0  502  0.23395657148E+03  0.36229605342E+02 -0.71777466477E+03  0.75580998342E+03  0.25500000920E-02 0. -1.
</event>
<event>
 5   0  0.5755321E-05  0.1695035E+04  0.7818609E-02  0.8764201E-01
        2   -1    0    0  501    0  0.00000000000E+00  0.00000000000E+00  0.96773044227E+03  0.96773044228E+03  0.25500000920E-02 0.  1.
       -2   -1    0    0    0  501  0.00000000000E+00  0.00000000000E+00 -0.74223784202E+03  0.74223784202E+03  0.25500000920E-02 0. -1.
    10030    2    1    2    0    0  0.00000000000E+00  0.00000000000E+00  0.22549260025E+03  0.17099682843E+04  0.16950352859E+04 0.  0.
        4    1    3    3  502    0 -0.79862676418E+02 -0.21790680880E+03  0.93504893024E+03  0.96342074882E+03  0.12699999809E+01 0.  1.
       -4    1    3    3    0  502  0.79862676418E+02  0.21790680880E+03 -0.70955632999E+03  0.74654753548E+03  0.12699999809E+01 0. -1.
</event>
<event>
 5   0  0.2987859E-05  0.1701252E+04  0.7818609E-02  0.8760650E-01
        1   -1    0    0  501    0  0.00000000000E+00  0.00000000000E+00  0.11736904298E+04  0.11736904298E+04  0.50400001928E-02 0.  1.
       -1   -1    0    0    0  501  0.00000000000E+00  0.00000000000E+00 -0.61648708914E+03  0.61648708916E+03  0.50400001928E-02 0. -1.
    10030    2    1    2    0    0  0.00000000000E+00  0.00000000000E+00  0.55720334065E+03  0.17901775190E+04  0.17012524759E+04 0.  0.
        5    1    3    3  502    0  0.41477196375E+03  0.20741811646E+03  0.10289559045E+04  0.11286409528E+04  0.46999998093E+01 0.  1.
       -5    1    3    3    0  502 -0.41477196375E+03 -0.20741811646E+03 -0.47175256381E+03  0.66153656620E+03  0.46999998093E+01 0. -1.
</event>
<event>
 5   0  0.2967704E-05  0.1707544E+04  0.7818609E-02  0.8757074E-01
        1   -1    0    0  501    0  0.00000000000E+00  0.00000000000E+00  0.78787231437E+03  0.78787231438E+03  0.50400001928E-02 0.  1.
       -1   -1    0    0    0  501  0.00000000000E+00  0.00000000000E+00 -0.92518349414E+03  0.92518349415E+03  0.50400001928E-02 0. -1.
    10030    2    1    2    0    0  0.00000000000E+00  0.00000000000E+00 -0.13731117977E+03  0.17130558085E+04  0.17075438041E+04 0.  0.
        2    1    3    3  502    0  0.43743346994E+03 -0.62926501222E+03  0.30886215016E+03  0.82626770725E+03  0.25500000920E-02 0.  1.
       -2    1    3    3    0  502 -0.43743346994E+03  0.62926501222E+03 -0.44617332994E+03  0.88678810129E+03  0.25500000920E-02 0. -1.
</event>
<event>
 5   0  0.5652631E-05  0.1713501E+04  0.7818609E-02  0.8753702E-01
        2   -1    0    0  501    0  0.00000000000E+00  0.00000000000E+00  0.12848960655E+04  0.12848960655E+04  0.25500000920E-02 0. -1.
       -2   -1    0    0    0  501  0.00000000000E+00  0.00000000000E+00 -0.57126876848E+03  0.57126876849E+03  0.25500000920E-02 0.  1.
    10030    2    1    2    0    0  0.00000000000E+00  0.00000000000E+00  0.71362729705E+03  0.18561648340E+04  0.17135005025E+04 0.  0.
        2    1    3    3  502    0 -0.19970331829E+03  0.34368973938E+02 -0.54493576994E+03  0.58139284057E+03  0.25500000920E-02 0.  1.
       -2    1    3    3    0  502  0.19970331829E+03 -0.34368973938E+02  0.12585630670E+04  0.12747719935E+04  0.25500000920E-02 0. -1.
</event>
<event>
 5   0  0.5671132E-05  0.1697733E+04  0.7818609E-02  0.8762658E-01
        2   -1    0    0  501    0  0.00000000000E+00  0.00000000000E+00  0.25720055723E+04  0.25720055723E+04  0.25500000920E-02 0. -1.
       -2   -1    0    0    0  501  0.00000000000E+00  0.00000000000E+00 -0.28016042439E+03  0.28016042440E+03  0.25500000920E-02 0.  1.
    10030    2    1    2    0    0  0.00000000000E+00  0.00000000000E+00  0.22918451479E+04  0.28521659967E+04  0.16977328090E+04 0.  0.
        3    1    3    3  502    0  0.39108240495E+03  0.20342315316E+03  0.23646331403E+04  0.24053723880E+04  0.10100000352E+00 0.  1.
       -3    1    3    3    0  502 -0.39108240495E+03 -0.20342315316E+03 -0.72787992398E+02  0.44679360866E+03  0.10100000352E+00 0. -1.
</event>
<event>
 5   0  0.5859822E-05  0.1699711E+04  0.7818609E-02  0.8761529E-01
       -2   -1    0    0    0  501  0.00000000000E+00  0.00000000000E+00  0.50482134740E+03  0.50482134741E+03  0.25500000920E-02 0. -1.
        2   -1    0    0  501    0  0.00000000000E+00  0.00000000000E+00 -0.14307134121E+04  0.14307134121E+04  0.25500000920E-02 0.  1.
    10030    2    1    2    0    0  0.00000000000E+00  0.00000000000E+00 -0.92589206474E+03  0.19355347595E+04  0.16997113549E+04 0.  0.
        5    1    3    3  502    0  0.83082729678E+02  0.76780750018E+03 -0.59050840230E+02  0.77455806047E+03  0.46999998093E+01 0. -1.
       -5    1    3    3    0  502 -0.83082729678E+02 -0.76780750018E+03 -0.86684122451E+03  0.11609766991E+04  0.46999998093E+01 0.  1.
</event>
<event>
 5   0  0.2967704E-05  0.1690252E+04  0.7818609E-02  0.8766944E-01
        1   -1    0    0  501    0  0.00000000000E+00  0.00000000000E+00  0.13230218278E+04  0.13230218278E+04  0.50400001928E-02 0. -1.
       -1   -1    0    0    0  501  0.00000000000E+00  0.00000000000E+00 -0.53985321473E+03  0.53985321475E+03  0.50400001928E-02 0.  1.
    10030    2    1    2    0    0  0.00000000000E+00  0.00000000000E+00  0.78316861309E+03  0.18628750426E+04  0.16902515634E+04 0.  0.
        2    1    3    3  502    0  0.66413793072E+03 -0.22490285014E+03  0.91154752309E+03  0.11500345081E+04  0.25500000920E-02 0. -1.
       -2    1    3    3    0  502 -0.66413793072E+03  0.22490285014E+03 -0.12837891000E+03  0.71284053445E+03  0.25500000920E-02 0.  1.
</event>
<event>
 5   0  0.5652631E-05  0.1695753E+04  0.7818609E-02  0.8763790E-01
       -2   -1    0    0    0  501  0.00000000000E+00  0.00000000000E+00  0.38682956470E+03  0.38682956471E+03  0.25500000920E-02 0.  1.
        2   -1    0    0  501    0  0.00000000000E+00  0.00000000000E+00 -0.18584267279E+04  0.18584267279E+04  0.25500000920E-02 0. -1.
    10030    2    1    2    0    0  0.00000000000E+00  0.00000000000E+00 -0.14715971632E+04  0.22452562926E+04  0.16957528147E+04 0.  0.
        2    1    3    3  502    0 -0.74161700489E+03 -0.51887174016E+02 -0.19600567838E+03  0.76883436885E+03  0.25500000920E-02 0.  1.
       -2    1    3    3    0  502  0.74161700489E+03  0.51887174016E+02 -0.12755914848E+04  0.14764219237E+04  0.25500000920E-02 0. -1.
</event>
<event>
 5   0  0.2967704E-05  0.1696229E+04  0.7818609E-02  0.8763518E-01
        1   -1    0    0  501    0  0.00000000000E+00  0.00000000000E+00  0.12458108921E+04  0.12458108921E+04  0.50400001928E-02 0. -1.
       -1   -1    0    0    0  501  0.00000000000E+00  0.00000000000E+00 -0.57737368666E+03  0.57737368668E+03  0.50400001928E-02 0.  1.
    10030    2    1    2    0    0  0.00000000000E+00  0.00000000000E+00  0.66843720547E+03  0.18231845788E+04  0.16962292625E+04 0.  0.
        2    1    3    3  502    0 -0.24311315539E+03 -0.49078969757E+03 -0.36179675312E+03  0.65641101768E+03  0.25500000920E-02 0.  1.
       -2    1    3    3    0  502  0.24311315539E+03  0.49078969757E+03  0.10302339586E+04  0.11667735611E+04  0.25500000920E-02 0. -1.
</event>
<event>
 5   0  0.5859822E-05  0.1701626E+04  0.7818609E-02  0.8760438E-01
        2   -1    0    0  501    0  0.00000000000E+00  0.00000000000E+00  0.12999853790E+04  0.12999853790E+04  0.25500000920E-02 0.  1.
       -2   -1    0    0    0  501  0.00000000000E+00  0.00000000000E+00 -0.55683906271E+03  0.55683906272E+03  0.25500000920E-02 0. -1.
    10030    2    1    2    0    0  0.00000000000E+00  0.00000000000E+00  0.74314631634E+03  0.18568244418E+04  0.17016258578E+04 0.  0.
        5    1    3    3  502    0 -0.45870455031E+03 -0.14731865814E+03 -0.39363223811E+03  0.62215840458E+03  0.46999998093E+01 0. -1.
       -5    1    3    3    0  502  0.45870455031E+03  0.14731865814E+03  0.11367785545E+04  0.12346660372E+04  0.46999998093E+01 0.  1.
</event>
<event>
 5   0  0.2911632E-05  0.1702835E+04  0.7818609E-02  0.8759749E-01
       -1   -1    0    0    0  501  0.00000000000E+00  0.00000000000E+00  0.88798671257E+03  0.88798671259E+03  0.50400001928E-02 0.  1.
        1   -1    0    0  501    0  0.00000000000E+00  0.00000000000E+00 -0.81635399375E+03  0.81635399377E+03  0.50400001928E-02 0. -1.
    10030    2    1    2    0    0  0.00000000000E+00  0.00000000000E+00  0.71632718818E+02  0.17043407064E+04  0.17028346945E+04 0.  0.
        1    1    3    3  502    0  0.64074635549E+03 -0.54492702086E+03 -0.96247860823E+02  0.84661974987E+03  0.50400001928E-02 0.  1.
       -1    1    3    3    0  502 -0.64074635549E+03  0.54492702086E+03  0.16788057964E+03  0.85772095648E+03  0.50400001928E-02 0. -1.
</event>
<event>
 5   0  0.2967704E-05  0.1702193E+04  0.7818609E-02  0.8760114E-01
        1   -1    0    0  501    0  0.00000000000E+00  0.00000000000E+00  0.16314208863E+04  0.16314208863E+04  0.50400001928E-02 0. -1.
       -1   -1    0    0    0  501  0.00000000000E+00  0.00000000000E+00 -0.44400903906E+03  0.44400903909E+03  0.50400001928E-02 0.  1.
    10030    2    1    2    0    0  0.00000000000E+00  0.00000000000E+00  0.11874118472E+04  0.20754299254E+04  0.17021934321E+04 0.  0.
        2    1    3    3  502    0  0.25504771457E+02  0.11147955143E+03 -0.43459856816E+03  0.44939303422E+03  0.25500000920E-02 0.  1.
       -2    1    3    3    0  502 -0.25504771457E+02 -0.11147955143E+03  0.16220104154E+04  0.16260368912E+04  0.25500000920E-02 0. -1.
</event>
<event>
 5   0  0.2911632E-05  0.1693403E+04  0.7818609E-02  0.8765136E-01
        1   -1    0    0  501    0  0.00000000000E+00  0.00000000000E+00  0.79029818500E+03  0.79029818502E+03  0.50400001928E-02 0. -1.
       -1   -1    0    0    0  501  0.00000000000E+00  0.00000000000E+00 -0.90713010608E+03  0.90713010609E+03  0.50400001928E-02 0.  1.
    10030    2    1    2    0    0  0.00000000000E+00  0.00000000000E+00 -0.11683192108E+03  0.16974282911E+04  0.16934028185E+04 0.  0.
        1    1    3    3  502    0  0.44204959523E+02 -0.67012674389E+03  0.45844467610E+03  0.81313925769E+03  0.50400001928E-02 0. -1.
       -1    1    3    3    0  502 -0.44204959523E+02  0.67012674389E+03 -0.57527659718E+03  0.88428903341E+03  0.50400001928E-02 0.  1.
</event>
<event>
 5   0  0.5859822E-05  0.1701563E+04  0.7818609E-02  0.8760474E-01
       -2   -1    0    0    0  501  0.00000000000E+00  0.00000000000E+00  0.55340933313E+03  0.55340933314E+03  0.25500000920E-02 0.  1.
        2   -1    0    0  501    0  0.00000000000E+00  0.00000000000E+00 -0.13079449981E+04  0.13079449981E+04  0.25500000920E-02 0. -1.
    10030    2    1    2    0    0  0.00000000000E+00  0.00000000000E+00 -0.75453566498E+03  0.18613543313E+04  0.17015627748E+04 0.  0.
        5    1    3    3  502    0  0.72078460171E+03 -0.40436761076E+03 -0.15640857930E+03  0.84114763292E+03  0.46999998093E+01 0.  1.
       -5    1    3    3    0  502 -0.72078460171E+03  0.40436761076E+03 -0.59812708567E+03  0.10202066983E+04  0.46999998093E+01 0. -1.
</event>
<event>
 5   0  0.2987859E-05  0.1683165E+04  0.7818609E-02  0.8771025E-01
       -1   -1    0    0    0  501  0.00000000000E+00  0.00000000000E+00  0.88008529490E+03  0.88008529491E+03  0.50400001928E-02 0. -1.
        1   -1    0    0  501    0  0.00000000000E+00  0.00000000000E+00 -0.80476395748E+03  0.80476395749E+03  0.50400001928E-02 0.  1.
    10030    2    1    2    0    0  0.00000000000E+00  0.00000000000E+00  0.75321337421E+02  0.16848492524E+04  0.16831647868E+04 0.  0.
        5    1    3    3  502    0  0.15480791269E+03 -0.67137347613E+03  0.52139474591E+03  0.86405000165E+03  0.46999998093E+01 0. -1.
       -5    1    3    3    0  502 -0.15480791269E+03  0.67137347613E+03 -0.44607340849E+03  0.82079925076E+03  0.46999998093E+01 0.  1.
</event>
<event>
 5   0  0.2993769E-05  0.1697415E+04  0.7818609E-02  0.8762840E-01
        1   -1    0    0  501    0  0.00000000000E+00  0.00000000000E+00  0.62026577976E+03  0.62026577978E+03  0.50400001928E-02 0. -1.
       -1   -1    0    0    0  501  0.00000000000E+00  0.00000000000E+00 -0.11612834327E+04  0.11612834328E+04  0.50400001928E-02 0.  1.
    10030    2    1    2    0    0  0.00000000000E+00  0.00000000000E+00 -0.54101765298E+03  0.17815492125E+04  0.16974149451E+04 0.  0.
        3    1    3    3  502    0 -0.69125722834E+03  0.41465451659E+03  0.82284288864E+01  0.80612817908E+03  0.10100000352E+00 0. -1.
       -3    1    3    3    0  502  0.69125722834E+03 -0.41465451659E+03 -0.54924608186E+03  0.97542103346E+03  0.10100000352E+00 0.  1.
</event>
<event>
 5   0  0.5821584E-05  0.1702305E+04  0.7818609E-02  0.8760051E-01
        2   -1    0    0  501    0  0.00000000000E+00  0.00000000000E+00  0.10031683361E+04  0.10031683361E+04  0.25500000920E-02 0. -1.
       -2   -1    0    0    0  501  0.00000000000E+00  0.00000000000E+00 -0.72217231433E+03  0.72217231434E+03  0.25500000920E-02 0.  1.
    10030    2    1    2    0    0  0.00000000000E+00  0.00000000000E+00  0.28099602181E+03  0.17253406505E+04  0.17023047894E+04 0.  0.
        1    1    3    3  502    0  0.23720830483E+03 -0.66202278158E+03 -0.34548876362E+03  0.78352053517E+03  0.50400001928E-02 0.  1.
       -1    1    3    3    0  502 -0.23720830483E+03  0.66202278158E+03  0.62648478543E+03  0.94182011532E+03  0.50400001928E-02 0. -1.
</event>
<event>
 5   0  0.2993769E-05  0.1697266E+04  0.7818609E-02  0.8762925E-01
        1   -1    0    0  501    0  0.00000000000E+00  0.00000000000E+00  0.81742641185E+03  0.81742641187E+03  0.50400001928E-02 0. -1.
       -1   -1    0    0    0  501  0.00000000000E+00  0.00000000000E+00 -0.88103133739E+03  0.88103133741E+03  0.50400001928E-02 0.  1.
    10030    2    1    2    0    0  0.00000000000E+00  0.00000000000E+00 -0.63604925543E+02  0.16984577493E+04  0.16972663726E+04 0.  0.
        3    1    3    3  502    0  0.13970618441E+03 -0.24255171748E+03 -0.83350720050E+03  0.87925162332E+03  0.10100000352E+00 0.  1.
       -3    1    3    3    0  502 -0.13970618441E+03  0.24255171748E+03  0.76990227496E+03  0.81920612596E+03  0.10100000352E+00 0. -1.
</event>
<event>
 5   0  0.5671132E-05  0.1703170E+04  0.7818609E-02  0.8759559E-01
        2   -1    0    0  501    0  0.00000000000E+00  0.00000000000E+00  0.82111150544E+03  0.82111150545E+03  0.25500000920E-02 0.  1.
       -2   -1    0    0    0  501  0.00000000000E+00  0.00000000000E+00 -0.88318920782E+03  0.88318920782E+03  0.25500000920E-02 0. -1.
    10030    2    1    2    0    0  0.00000000000E+00  0.00000000000E+00 -0.62077702376E+02  0.17043007133E+04  0.17031697743E+04 0.  0.
        3    1    3    3  502    0 -0.74783060696E+02 -0.33205791257E+02  0.81716878554E+03  0.82125511566E+03  0.10100000352E+00 0.  1.
       -3    1    3    3    0  502  0.74783060696E+02  0.33205791257E+02 -0.87924648792E+03  0.88304559761E+03  0.10100000352E+00 0. -1.
</event>
<event>
 5   0  0.2911632E-05  0.1704779E+04  0.7818609E-02  0.8758644E-01
       -1   -1    0    0    0  501  0.00000000000E+00  0.00000000000E+00  0.44879809919E+03  0.44879809921E+03  0.50400001928E-02 0.  1.
        1   -1    0    0  501    0  0.00000000000E+00  0.00000000000E+00 -0.16189186049E+04  0.16189186049E+04  0.50400001928E-02 0. -1.
    10030    2    1    2    0    0  0.00000000000E+00  0.00000000000E+00 -0.11701205057E+04  0.20677167041E+04  0.17047786867E+04 0.  0.
        1    1    3    3  502    0  0.69127750019E+02  0.50252005734E+03 -0.14159262232E+04  0.15040452531E+04  0.50400001928E-02 0. -1.
       -1    1    3    3    0  502 -0.69127750019E+02 -0.50252005734E+03  0.24580571752E+03  0.56367145097E+03  0.50400001928E-02 0.  1.
</event>
<event>
 5   0  0.2911632E-05  0.1695061E+04  0.7818609E-02  0.8764186E-01
       -1   -1    0    0    0  501  0.00000000000E+00  0.00000000000E+00  0.35970420746E+03  0.35970420750E+03  0.50400001928E-02 0. -1.
        1   -1    0    0  501    0  0.00000000000E+00  0.00000000000E+00 -0.19969410419E+04  0.19969410419E+04  0.50400001928E-02 0.  1.
    10030    2    1    2    0    0  0.00000000000E+00  0.00000000000E+00 -0.16372368344E+04  0.23566452494E+04  0.16950611728E+04 0.  0.
        1    1    3    3  502    0 -0.12042551985E+03  0.44837302855E+03 -0.18044265533E+04  0.18631950689E+04  0.50400001928E-02 0.  1.
       -1    1    3    3    0  502  0.12042551985E+03 -0.44837302855E+03  0.16718971881E+03  0.49345018053E+03  0.50400001928E-02 0. -1.
</event>
<event>
 5   0  0.5821584E-05  0.1699073E+04  0.7818609E-02  0.8761893E-01
        2   -1    0    0  501    0  0.00000000000E+00  0.00000000000E+00  0.11898371364E+04  0.11898371364E+04  0.25500000920E-02 0.  1.
       -2   -1    0    0    0  501  0.00000000000E+00  0.00000000000E+00 -0.60656425027E+03  0.60656425027E+03  0.25500000920E-02 0. -1.
    10030    2    1    2    0    0  0.00000000000E+00  0.00000000000E+00  0.58327288612E+03  0.17964013867E+04  0.16990734776E+04 0.  0.
        1    1    3    3  502    0  0.45621599119E+03  0.41550073856E+03  0.90898355382E+03  0.10986468930E+04  0.50400001928E-02 0.  1.
       -1    1    3    3    0  502 -0.45621599119E+03 -0.41550073856E+03 -0.32571066769E+03  0.69775449367E+03  0.50400001928E-02 0. -1.
</event>
<event>
 5   0  0.2993769E-05  0.1699492E+04  0.7818609E-02  0.8761654E-01
        1   -1    0    0  501    0  0.00000000000E+00  0.00000000000E+00  0.15653759484E+04  0.15653759484E+04  0.50400001928E-02 0.  1.
       -1   -1    0    0    0  501  0.00000000000E+00  0.00000000000E+00 -0.46127482958E+03  0.46127482961E+03  0.50400001928E-02 0. -1.
    10030    2    1    2    0    0  0.00000000000E+00  0.00000000000E+00  0.11041011188E+04  0.20266507780E+04  0.16994923052E+04 0.  0.
        3    1    3    3  502    0 -0.29646102446E+03 -0.73109252711E+03  0.17554580364E+03  0.80820898386E+03  0.10100000352E+00 0. -1.
       -3    1    3    3    0  502  0.29646102446E+03  0.73109252711E+03  0.92855531520E+03  0.12184417942E+04  0.10100000352E+00 0.  1.
</event>
<event>
 5   0  0.2911632E-05  0.1696156E+04  0.7818609E-02  0.8763560E-01
        1   -1    0    0  501    0  0.00000000000E+00  0.00000000000E+00  0.25306590727E+04  0.25306590727E+04  0.50400001928E-02 0. -1.
       -1   -1    0    0    0  501  0.00000000000E+00  0.00000000000E+00 -0.28420907020E+03  0.28420907024E+03  0.50400001928E-02 0.  1.
    10030    2    1    2    0    0  0.00000000000E+00  0.00000000000E+00  0.22464500025E+04  0.28148681429E+04  0.16961559623E+04 0.  0.
        1    1    3    3  502    0 -0.16326067895E+03  0.35240191733E+03  0.23743982087E+04  0.24059526209E+04  0.50400001928E-02 0. -1.
       -1    1    3    3    0  502  0.16326067895E+03 -0.35240191733E+03 -0.12794820623E+03  0.40891552199E+03  0.50400001928E-02 0.  1.
</event>
<event>
 5   0  0.5671132E-05  0.1699785E+04  0.7818609E-02  0.8761487E-01
       -2   -1    0    0    0  501  0.00000000000E+00  0.00000000000E+00  0.10707325981E+04  0.10707325981E+04  0.25500000920E-02 0. -1.
        2   -1    0    0  501    0  0.00000000000E+00  0.00000000000E+00 -0.67460129161E+03  0.67460129162E+03  0.25500000920E-02 0.  1.
    10030    2    1    2    0    0  0.00000000000E+00  0.00000000000E+00  0.39613130645E+03  0.17453338897E+04  0.16997853907E+04 0.  0.
        3    1    3    3  502    0  0.11108949275E+03 -0.60884415492E+03 -0.40002509044E+03  0.73692073085E+03  0.10100000352E+00 0.  1.
       -3    1    3    3    0  502 -0.11108949275E+03  0.60884415492E+03  0.79615639689E+03  0.10084131588E+04  0.10100000352E+00 0. -1.
</event>
<event>
 5   0  0.5859822E-05  0.1700411E+04  0.7818609E-02  0.8761130E-01
       -2   -1    0    0    0  501  0.00000000000E+00  0.00000000000E+00  0.57911812510E+03  0.57911812510E+03  0.25500000920E-02 0.  1.
        2   -1    0    0  501    0  0.00000000000E+00  0.00000000000E+00 -0.12481891697E+04  0.12481891697E+04  0.25500000920E-02 0. -1.
    10030    2    1    2    0    0  0.00000000000E+00  0.00000000000E+00 -0.66907104456E+03  0.18273072948E+04  0.17004105054E+04 0.  0.
        5    1    3    3  502    0 -0.91331194891E+02 -0.32252989648E+03  0.50509148704E+03  0.60622307904E+03  0.46999998093E+01 0.  1.
       -5    1    3    3    0  502  0.91331194891E+02  0.32252989648E+03 -0.11741625316E+04  0.12210842157E+04  0.46999998093E+01 0. -1.
</event>
<event>
 5   0  0.5652631E-05  0.1700701E+04  0.7818609E-02  0.8760965E-01
        2   -1    0    0  501    0  0.00000000000E+00  0.00000000000E+00  0.11017292438E+04  0.11017292438E+04  0.25500000920E-02 0. -1.
       -2   -1    0    0    0  501  0.00000000000E+00  0.00000000000E+00 -0.65632839534E+03  0.65632839535E+03  0.25500000920E-02 0.  1.
    10030    2    1    2    0    0  0.00000000000E+00  0.00000000000E+00  0.44540084849E+03  0.17580576392E+04  0.17007012515E+04 0.  0.
        2    1    3    3  502    0 -0.51734227387E+03 -0.42345063067E+03  0.76591558072E+03  0.10166514357E+04  0.25500000920E-02 0. -1.
       -2    1    3    3    0  502  0.51734227387E+03  0.42345063067E+03 -0.32051473223E+03  0.74140620346E+03  0.25500000920E-02 0.  1.
</event>
<event>
 5   0  0.5652631E-05  0.1672778E+04  0.7818609E-02  0.8777044E-01
       -2   -1    0    0    0  501  0.00000000000E+00  0.00000000000E+00  0.36986320240E+03  0.36986320241E+03  0.25500000920E-02 0. -1.
        2   -1    0    0  501    0  0.00000000000E+00  0.00000000000E+00 -0.18913645288E+04  0.18913645288E+04  0.25500000920E-02 0.  1.
    10030    2    1    2    0    0  0.00000000000E+00  0.00000000000E+00 -0.15215013264E+04  0.22612277312E+04  0.16727775005E+04 0.  0.
        2    1    3    3  502    0  0.45743605758E+03  0.69980618838E+03 -0.72848602870E+03  0.11089041176E+04  0.25500000920E-02 0.  1.
       -2    1    3    3    0  502 -0.45743605758E+03 -0.69980618838E+03 -0.79301529771E+03  0.11523236136E+04  0.25500000920E-02 0. -1.
</event>
<event>
 5   0  0.5671132E-05  0.1700005E+04  0.7818609E-02  0.8761361E-01
        2   -1    0    0  501    0  0.00000000000E+00  0.00000000000E+00  0.74966283356E+03  0.74966283356E+03  0.25500000920E-02 0. -1.
       -2   -1    0    0    0  501  0.00000000000E+00  0.00000000000E+00 -0.96377255662E+03  0.96377255662E+03  0.25500000920E-02 0.  1.
    10030    2    1    2    0    0  0.00000000000E+00  0.00000000000E+00 -0.21410972306E+03  0.17134353902E+04  0.17000052538E+04 0.  0.
        3    1    3    3  502    0 -0.92639991183E+02  0.69430149603E+03 -0.59238539538E+03  0.91736426910E+03  0.10100000352E+00 0.  1.
       -3    1    3    3    0  502  0.92639991183E+02 -0.69430149603E+03  0.37827567232E+03  0.79607112109E+03  0.10100000352E+00 0. -1.
</event>
<event>
 5   0  0.2967704E-05  0.1702034E+04  0.7818609E-02  0.8760205E-01
       -1   -1    0    0    0  501  0.00000000000E+00  0.00000000000E+00  0.54577302700E+03  0.54577302702E+03  0.50400001928E-02 0. -1.
        1   -1    0    0  501    0  0.00000000000E+00  0.00000000000E+00 -0.13269802181E+04  0.13269802181E+04  0.50400001928E-02 0.  1.
    10030    2    1    2    0    0  0.00000000000E+00  0.00000000000E+00 -0.78120719107E+03  0.18727532451E+04  0.17020340894E+04 0.  0.
        2    1    3    3  502    0  0.66648692800E+02 -0.74878938585E+03 -0.82948855091E+03  0.11194547104E+04  0.25500000920E-02 0.  1.
       -2    1    3    3    0  502 -0.66648692800E+02  0.74878938585E+03  0.48281359835E+02  0.75329853467E+03  0.25500000920E-02 0. -1.
</event>
<event>
 5   0  0.5821584E-05  0.1708998E+04  0.7818609E-02  0.8756249E-01
        2   -1    0    0  501    0  0.00000000000E+00  0.00000000000E+00  0.20958869488E+04  0.20958869488E+04  0.25500000920E-02 0. -1.
       -2   -1    0    0    0  501  0.00000000000E+00  0.00000000000E+00 -0.34838183641E+03  0.34838183642E+03  0.25500000920E-02 0.  1.
    10030    2    1    2    0    0  0.00000000000E+00  0.00000000000E+00  0.17475051124E+04  0.24442687852E+04  0.17089984718E+04 0.  0.
        1    1    3    3  502    0 -0.62791200780E+03  0.26452843880E+03  0.16112880383E+04  0.17494278856E+04  0.50400001928E-02 0. -1.
       -1    1    3    3    0  502  0.62791200780E+03 -0.26452843880E+03  0.13621707405E+03  0.69484089960E+03  0.50400001928E-02 0.  1.
</event>
<event>
 5   0  0.2993769E-05  0.1700474E+04  0.7818609E-02  0.8761094E-01
        1   -1    0    0  501    0  0.00000000000E+00  0.00000000000E+00  0.14112689115E+04  0.14112689115E+04  0.50400001928E-02 0. -1.
       -1   -1    0    0    0  501  0.00000000000E+00  0.00000000000E+00 -0.51223627669E+03  0.51223627672E+03  0.50400001928E-02 0.  1.
    10030    2    1    2    0    0  0.00000000000E+00  0.00000000000E+00  0.89903263480E+03  0.19235051882E+04  0.17004742076E+04 0.  0.
        3    1    3    3  502    0 -0.34672357018E+03 -0.51535680565E+03 -0.20723105204E+03  0.65479354790E+03  0.10100000352E+00 0.  1.
       -3    1    3    3    0  502  0.34672357018E+03  0.51535680565E+03  0.11062636868E+04  0.12687116403E+04  0.10100000352E+00 0. -1.
</event>
<event>
 5   0  0.2993769E-05  0.1701038E+04  0.7818609E-02  0.8760773E-01
       -1   -1    0    0    0  501  0.00000000000E+00  0.00000000000E+00  0.74424431831E+03  0.74424431833E+03  0.50400001928E-02 0.  1.
        1   -1    0    0  501    0  0.00000000000E+00  0.00000000000E+00 -0.97196908313E+03  0.97196908314E+03  0.50400001928E-02 0. -1.
    10030    2    1    2    0    0  0.00000000000E+00  0.00000000000E+00 -0.22772476481E+03  0.17162134015E+04  0.17010378805E+04 0.  0.
        3    1    3    3  502    0 -0.17925742015E+03  0.48239541307E+03  0.56933747060E+03  0.76745274959E+03  0.10100000352E+00 0.  1.
       -3    1    3    3    0  502  0.17925742015E+03 -0.48239541307E+03 -0.79706223541E+03  0.94876065188E+03  0.10100000352E+00 0. -1.
</event>
<event>
 5   0  0.2966258E-05  0.1697088E+04  0.7818609E-02  0.8763027E-01
        1   -1    0    0  501    0  0.00000000000E+00  0.00000000000E+00  0.11335676473E+04  0.11335676473E+04  0.50400001928E-02 0.  1.
       -1   -1    0    0    0  501  0.00000000000E+00  0.00000000000E+00 -0.63518625852E+03  0.63518625854E+03  0.50400001928E-02 0. -1.
    10030    2    1    2    0    0  0.00000000000E+00  0.00000000000E+00  0.49838138878E+03  0.17687539059E+04  0.16970876144E+04 0.  0.
        4    1    3    3  502    0  0.14300971161E+03 -0.39688196890E+02  0.11199342169E+04  0.11297261587E+04  0.12699999809E+01 0.  1.
       -4    1    3    3    0  502 -0.14300971161E+03  0.39688196890E+02 -0.62155282812E+03  0.63902774715E+03  0.12699999809E+01 0. -1.
</event>
<event>
 5   0  0.5755321E-05  0.1695617E+04  0.7818609E-02  0.8763868E-01
        2   -1    0    0  501    0  0.00000000000E+00  0.00000000000E+00  0.12583518121E+04  0.12583518121E+04  0.25500000920E-02 0. -1.
       -2   -1    0    0    0  501  0.00000000000E+00  0.00000000000E+00 -0.57120716630E+03  0.57120716630E+03  0.25500000920E-02 0.  1.
    10030    2    1    2    0    0  0.00000000000E+00  0.00000000000E+00  0.68714464579E+03  0.18295589784E+04  0.16956173776E+04 0.  0.
        4    1    3    3  502    0  0.55126664685E+03 -0.59541243093E+03  0.78466880368E+02  0.81521134870E+03  0.12699999809E+01 0.  1.
       -4    1    3    3    0  502 -0.55126664685E+03  0.59541243093E+03  0.60867776542E+03  0.10143476297E+04  0.12699999809E+01 0. -1.
</event>
<event>
 5   0  0.2993769E-05  0.1701704E+04  0.7818609E-02  0.8760393E-01
       -1   -1    0    0    0  501  0.00000000000E+00  0.00000000000E+00  0.97309679800E+03  0.97309679802E+03  0.50400001928E-02 0. -1.
        1   -1    0    0  501    0  0.00000000000E+00  0.00000000000E+00 -0.74396431756E+03  0.74396431758E+03  0.50400001928E-02 0.  1.
    10030    2    1    2    0    0  0.00000000000E+00  0.00000000000E+00  0.22913248044E+03  0.17170611156E+04  0.17017041991E+04 0.  0.
        3    1    3    3  502    0  0.60907412617E+03  0.20426380457E+03  0.67750267366E+03  0.93365136751E+03  0.10100000352E+00 0. -1.
       -3    1    3    3    0  502 -0.60907412617E+03 -0.20426380457E+03 -0.44837019322E+03  0.78340974809E+03  0.10100000352E+00 0.  1.
</event>
<event>
 5   0  0.5859822E-05  0.1699542E+04  0.7818609E-02  0.8761625E-01
       -2   -1    0    0    0  501  0.00000000000E+00  0.00000000000E+00  0.94800055622E+03  0.94800055622E+03  0.25500000920E-02 0. -1.
        2   -1    0    0  501    0  0.00000000000E+00  0.00000000000E+00 -0.76172019717E+03  0.76172019717E+03  0.25500000920E-02 0.  1.
    10030    2    1    2    0    0  0.00000000000E+00  0.00000000000E+00  0.18628035905E+03  0.17097207534E+04  0.16995424921E+04 0.  0.
        5    1    3    3  502    0 -0.19428678649E+03 -0.80029462975E+03 -0.11756640901E+03  0.83190311956E+03  0.46999998093E+01 0.  1.
       -5    1    3    3    0  502  0.19428678649E+03  0.80029462975E+03  0.30384676806E+03  0.87781763383E+03  0.46999998093E+01 0. -1.
</event>
<event>
 5   0  0.2993769E-05  0.1701181E+04  0.7818609E-02  0.8760691E-01
        1   -1    0    0  501    0  0.00000000000E+00  0.00000000000E+00  0.15015552348E+04  0.15015552348E+04  0.50400001928E-02 0. -1.
       -1   -1    0    0    0  501  0.00000000000E+00  0.00000000000E+00 -0.48183660437E+03  0.48183660440E+03  0.50400001928E-02 0.  1.
    10030    2    1    2    0    0  0.00000000000E+00  0.00000000000E+00  0.10197186305E+04  0.19833918392E+04  0.17011810905E+04 0.  0.
        3    1    3    3  502    0  0.59845739986E+03  0.17181510622E+03 -0.16578695739E+03  0.64432679257E+03  0.10100000352E+00 0.  1.
       -3    1    3    3    0  502 -0.59845739986E+03 -0.17181510622E+03  0.11855055878E+04  0.13390650467E+04  0.10100000352E+00 0. -1.
</event>
<event>
 5   0  0.5821584E-05  0.1715294E+04  0.7818609E-02  0.8752689E-01
       -2   -1    0    0    0  501  0.00000000000E+00  0.00000000000E+00  0.75842365568E+03  0.75842365569E+03  0.25500000920E-02 0.  1.
        2   -1    0    0  501    0  0.00000000000E+00  0.00000000000E+00 -0.96985178830E+03  0.96985178830E+03  0.25500000920E-02 0. -1.
    10030    2    1    2    0    0  0.00000000000E+00  0.00000000000E+00 -0.21142813262E+03  0.17282754440E+04  0.17152941891E+04 0.  0.
        1    1    3    3  502    0 -0.66007703603E+02 -0.65425540824E+02  0.75333497360E+03  0.75904617830E+03  0.50400001928E-02 0.  1.
       -1    1    3    3    0  502  0.66007703603E+02  0.65425540824E+02 -0.96476310621E+03  0.96922926569E+03  0.50400001928E-02 0. -1.
</event>
<event>
 5   0  0.2993769E-05  0.1707967E+04  0.7818609E-02  0.8756833E-01
       -1   -1    0    0    0  501  0.00000000000E+00  0.00000000000E+00  0.56028557818E+03  0.56028557820E+03  0.50400001928E-02 0. -1.
        1   -1    0    0  501    0  0.00000000000E+00  0.00000000000E+00 -0.13016365763E+04  0.13016365763E+04  0.50400001928E-02 0.  1.
    10030    2    1    2    0    0  0.00000000000E+00  0.00000000000E+00 -0.74135099813E+03  0.18619221545E+04  0.17079674491E+04 0.  0.
        3    1    3    3  502    0 -0.75400925522E+03 -0.39574364334E+03 -0.44086220359E+03  0.95890691986E+03  0.10100000352E+00 0. -1.
       -3    1    3    3    0  502  0.75400925522E+03  0.39574364334E+03 -0.30048879454E+03  0.90301523467E+03  0.10100000352E+00 0.  1.
</event>
<event>
 5   0  0.5859822E-05  0.1699211E+04  0.7818609E-02  0.8761815E-01
        2   -1    0    0  501    0  0.00000000000E+00  0.00000000000E+00  0.12884230744E+04  0.12884230744E+04  0.25500000920E-02 0.  1.
       -2   -1    0    0    0  501  0.00000000000E+00  0.00000000000E+00 -0.56024231094E+03  0.56024231094E+03  0.25500000920E-02 0. -1.
    10030    2    1    2    0    0  0.00000000000E+00  0.00000000000E+00  0.72818076342E+03  0.18486653853E+04  0.16992105469E+04 0.  0.
        5    1    3    3  502    0  0.83623898815E+03  0.27318999370E+02  0.20358447285E+03  0.86111015591E+03  0.46999998093E+01 0. -1.
       -5    1    3    3    0  502 -0.83623898815E+03 -0.27318999370E+02  0.52459629057E+03  0.98755522939E+03  0.46999998093E+01 0.  1.
</event>
<event>
 5   0  0.5671132E-05  0.1699957E+04  0.7818609E-02  0.8761389E-01
        2   -1    0    0  501    0  0.00000000000E+00  0.00000000000E+00  0.80122787401E+03  0.80122787401E+03  0.25500000920E-02 0.  1.
       -2   -1    0    0    0  501  0.00000000000E+00  0.00000000000E+00 -0.90169556859E+03  0.90169556860E+03  0.25500000920E-02 0. -1.
    10030    2    1    2    0    0  0.00000000000E+00  0.00000000000E+00 -0.10046769459E+03  0.17029234426E+04  0.16999572035E+04 0.  0.
        3    1    3    3  502    0 -0.72701128313E+03  0.13643648268E+03  0.36918908657E+03  0.82671694760E+03  0.10100000352E+00 0. -1.
       -3    1    3    3    0  502  0.72701128313E+03 -0.13643648268E+03 -0.46965678115E+03  0.87620649501E+03  0.10100000352E+00 0.  1.
</event>
<event>
 5   0  0.5671132E-05  0.1704095E+04  0.7818609E-02  0.8759032E-01
       -2   -1    0    0    0  501  0.00000000000E+00  0.00000000000E+00  0.45091718409E+03  0.45091718410E+03  0.25500000920E-02 0.  1.
        2   -1    0    0  501    0  0.00000000000E+00  0.00000000000E+00 -0.16100179120E+04  0.16100179120E+04  0.25500000920E-02 0. -1.
    10030    2    1    2    0    0  0.00000000000E+00  0.00000000000E+00 -0.11591007279E+04  0.20609350961E+04  0.17040947664E+04 0.  0.
        3    1    3    3  502    0  0.64222678807E+03 -0.40817463265E+03 -0.10431204460E+04  0.12911862968E+04  0.10100000352E+00 0. -1.
       -3    1    3    3    0  502 -0.64222678807E+03  0.40817463265E+03 -0.11598028198E+03  0.76974879933E+03  0.10100000352E+00 0.  1.
</event>
<event>
 5   0  0.2911632E-05  0.1699580E+04  0.7818609E-02  0.8761604E-01
       -1   -1    0    0    0  501  0.00000000000E+00  0.00000000000E+00  0.32205887685E+03  0.32205887689E+03  0.50400001928E-02 0. -1.
        1   -1    0    0  501    0  0.00000000000E+00  0.00000000000E+00 -0.22422698181E+04  0.22422698181E+04  0.50400001928E-02 0.  1.
    10030    2    1    2    0    0  0.00000000000E+00  0.00000000000E+00 -0.19202109413E+04  0.25643286950E+04  0.16995798296E+04 0.  0.
        1    1    3    3  502    0  0.18301320763E+03  0.30506179083E+03 -0.21245116423E+04  0.21540905851E+04  0.50400001928E-02 0.  1.
       -1    1    3    3    0  502 -0.18301320763E+03 -0.30506179083E+03  0.20430070103E+03  0.41023810995E+03  0.50400001928E-02 0. -1.
</event>
<event>
 5   0  0.2966258E-05  0.1701341E+04  0.7818609E-02  0.8760600E-01
        1   -1    0    0  501    0  0.00000000000E+00  0.00000000000E+00  0.13448749666E+04  0.13448749666E+04  0.50400001928E-02 0.  1.
       -1   -1    0    0    0  501  0.00000000000E+00  0.00000000000E+00 -0.53807237963E+03  0.53807237965E+03  0.50400001928E-02 0. -1.
    10030    2    1    2    0    0  0.00000000000E+00  0.00000000000E+00  0.80680258694E+03  0.18829473462E+04  0.17013407344E+04 0.  0.
        4    1    3    3  502    0 -0.30588656787E+03 -0.36994273467E+03  0.11806583609E+04  0.12745116701E+04  0.12699999809E+01 0.  1.
       -4    1    3    3    0  502  0.30588656787E+03  0.36994273467E+03 -0.37385577392E+03  0.60843567609E+03  0.12699999809E+01 0. -1.
</event>
<event>
 5   0  0.2911632E-05  0.1699334E+04  0.7818609E-02  0.8761744E-01
        1   -1    0    0  501    0  0.00000000000E+00  0.00000000000E+00  0.14633932969E+04  0.14633932969E+04  0.50400001928E-02 0. -1.
       -1   -1    0    0    0  501  0.00000000000E+00  0.00000000000E+00 -0.49332895105E+03  0.49332895107E+03  0.50400001928E-02 0.  1.
    10030    2    1    2    0    0  0.00000000000E+00  0.00000000000E+00  0.97006434585E+03  0.19567222480E+04  0.16993343169E+04 0.  0.
        1    1    3    3  502    0 -0.71558786706E+03 -0.41520965226E+03  0.70792071088E+03  0.10888603142E+04  0.50400001928E-02 0. -1.
       -1    1    3    3    0  502  0.71558786706E+03  0.41520965226E+03  0.26214363497E+03  0.86786193383E+03  0.50400001928E-02 0.  1.
</event>
<event>
 5   0  0.2098250E-05  0.1699971E+04  0.7818609E-02  0.8761381E-01
        3   -1    0    0  501    0  0.00000000000E+00  0.00000000000E+00  0.24214130753E+04  0.24214130774E+04  0.10100000352E+00 0.  1.
       -3   -1    0    0    0  501  0.00000000000E+00  0.00000000000E+00 -0.29836945909E+03  0.29836947619E+03  0.10100000352E+00 0. -1.
    10030    2    1    2    0    0  0.00000000000E+00  0.00000000000E+00  0.21230436162E+04  0.27197825536E+04  0.16999714534E+04 0.  0.
        4    1    3    3  502    0  0.26753949015E+02  0.17972388361E+03 -0.26693170039E+03  0.32290957511E+03  0.12699999809E+01 0. -1.
       -4    1    3    3    0  502 -0.26753949015E+02 -0.17972388361E+03  0.23899753166E+04  0.23968729784E+04  0.12699999809E+01 0.  1.
</event>
<event>
 5   0  0.2993769E-05  0.1705112E+04  0.7818609E-02  0.8758454E-01
       -1   -1    0    0    0  501  0.00000000000E+00  0.00000000000E+00  0.29552970303E+03  0.29552970308E+03  0.50400001928E-02 0.  1.
        1   -1    0    0  501    0  0.00000000000E+00  0.00000000000E+00 -0.24594866059E+04  0.24594866059E+04  0.50400001928E-02 0. -1.
    10030    2    1    2    0    0  0.00000000000E+00  0.00000000000E+00 -0.21639569029E+04  0.27550163090E+04  0.17051115463E+04 0.  0.
        3    1    3    3  502    0 -0.35337355855E+03 -0.48059775861E+03 -0.97829517797E+02  0.60449789264E+03  0.10100000352E+00 0.  1.
       -3    1    3    3    0  502  0.35337355855E+03  0.48059775861E+03 -0.20661273851E+04  0.21505184163E+04  0.10100000352E+00 0. -1.
</event>
<event>
 5   0  0.2966258E-05  0.1702068E+04  0.7818609E-02  0.8760186E-01
       -1   -1    0    0    0  501  0.00000000000E+00  0.00000000000E+00  0.60297029288E+03  0.60297029290E+03  0.50400001928E-02 0.  1.
        1   -1    0    0  501    0  0.00000000000E+00  0.00000000000E+00 -0.12011516437E+04  0.12011516438E+04  0.50400001928E-02 0. -1.
    10030    2    1    2    0    0  0.00000000000E+00  0.00000000000E+00 -0.59818135086E+03  0.18041219367E+04  0.17020678699E+04 0.  0.
        4    1    3    3  502    0 -0.55423137010E+03  0.62588080941E+03 -0.46788041887E+03  0.95802552077E+03  0.12699999809E+01 0.  1.
       -4    1    3    3    0  502  0.55423137010E+03 -0.62588080941E+03 -0.13030093199E+03  0.84609641588E+03  0.12699999809E+01 0. -1.
</event>
<event>
 5   0  0.2967704E-05  0.1710262E+04  0.7818609E-02  0.8755533E-01
       -1   -1    0    0    0  501  0.00000000000E+00  0.00000000000E+00  0.86066261298E+03  0.86066261300E+03  0.50400001928E-02 0.  1.
        1   -1    0    0  501    0  0.00000000000E+00  0.00000000000E+00 -0.84963539431E+03  0.84963539433E+03  0.50400001928E-02 0. -1.
    10030    2    1    2    0    0  0.00000000000E+00  0.00000000000E+00  0.11027218670E+02  0.17102980073E+04  0.17102624577E+04 0.  0.
        2    1    3    3  502    0  0.80767245094E+03  0.27904408005E+03 -0.26875826770E+02  0.85494017141E+03  0.25500000920E-02 0.  1.
       -2    1    3    3    0  502 -0.80767245094E+03 -0.27904408005E+03  0.37903045440E+02  0.85535783592E+03  0.25500000920E-02 0. -1.
</event>
<event>
 5   0  0.5652631E-05  0.1687050E+04  0.7818609E-02  0.8768785E-01
        2   -1    0    0  501    0  0.00000000000E+00  0.00000000000E+00  0.12825422914E+04  0.12825422914E+04  0.25500000920E-02 0. -1.
       -2   -1    0    0    0  501  0.00000000000E+00  0.00000000000E+00 -0.55478457666E+03  0.55478457667E+03  0.25500000920E-02 0.  1.
    10030    2    1    2    0    0  0.00000000000E+00  0.00000000000E+00  0.72775771476E+03  0.18373268681E+04  0.16870503042E+04 0.  0.
        2    1    3    3  502    0  0.71255595194E+03 -0.44948475034E+03  0.31816154781E+03  0.90055499329E+03  0.25500000920E-02 0. -1.
       -2    1    3    3    0  502 -0.71255595194E+03  0.44948475034E+03  0.40959616695E+03  0.93677187480E+03  0.25500000920E-02 0.  1.
</event>
<event>
 5   0  0.2987859E-05  0.1699837E+04  0.7818609E-02  0.8761457E-01
       -1   -1    0    0    0  501  0.00000000000E+00  0.00000000000E+00  0.50598648615E+03  0.50598648617E+03  0.50400001928E-02 0. -1.
        1   -1    0    0  501    0  0.00000000000E+00  0.00000000000E+00 -0.14276304400E+04  0.14276304400E+04  0.50400001928E-02 0.  1.
    10030    2    1    2    0    0  0.00000000000E+00  0.00000000000E+00 -0.92164395388E+03  0.19336169262E+04  0.16998372980E+04 0.  0.
        5    1    3    3  502    0 -0.32051626367E+03 -0.76294212338E+02 -0.13520161334E+04  0.13915894499E+04  0.46999998093E+01 0.  1.
       -5    1    3    3    0  502  0.32051626367E+03  0.76294212338E+02  0.43037217955E+03  0.54202747628E+03  0.46999998093E+01 0. -1.
</event>
<event>
 5   0  0.2993769E-05  0.1686809E+04  0.7818609E-02  0.8768924E-01
       -1   -1    0    0    0  501  0.00000000000E+00  0.00000000000E+00  0.12709688388E+04  0.12709688388E+04  0.50400001928E-02 0.  1.
        1   -1    0    0  501    0  0.00000000000E+00  0.00000000000E+00 -0.55967609313E+03  0.55967609315E+03  0.50400001928E-02 0. -1.
    10030    2    1    2    0    0  0.00000000000E+00  0.00000000000E+00  0.71129274565E+03  0.18306449319E+04  0.16868086723E+04 0.  0.
        3    1    3    3  502    0  0.39278681322E+03 -0.74418315072E+03  0.41742892601E+03  0.93932793045E+03  0.10100000352E+00 0. -1.
       -3    1    3    3    0  502 -0.39278681322E+03  0.74418315072E+03  0.29386381964E+03  0.89131700150E+03  0.10100000352E+00 0.  1.
</event>
<event>
 5   0  0.5652631E-05  0.1717898E+04  0.7818609E-02  0.8751222E-01
        2   -1    0    0  501    0  0.00000000000E+00  0.00000000000E+00  0.23471086142E+04  0.23471086142E+04  0.25500000920E-02 0. -1.
       -2   -1    0    0    0  501  0.00000000000E+00  0.00000000000E+00 -0.31434142184E+03  0.31434142185E+03  0.25500000920E-02 0.  1.
    10030    2    1    2    0    0  0.00000000000E+00  0.00000000000E+00  0.20327671923E+04  0.26614500360E+04  0.17178980866E+04 0.  0.
        2    1    3    3  502    0 -0.21026374596E+03  0.19074434766E+03  0.22723251737E+04  0.22899903808E+04  0.25500000920E-02 0. -1.
       -2    1    3    3    0  502  0.21026374596E+03 -0.19074434766E+03 -0.23955798137E+03  0.37145965525E+03  0.25500000920E-02 0.  1.
</event>
<event>
 5   0  0.2967704E-05  0.1703544E+04  0.7818609E-02  0.8759345E-01
       -1   -1    0    0    0  501  0.00000000000E+00  0.00000000000E+00  0.80195812073E+03  0.80195812075E+03  0.50400001928E-02 0. -1.
        1   -1    0    0  501    0  0.00000000000E+00  0.00000000000E+00 -0.90468056612E+03  0.90468056613E+03  0.50400001928E-02 0.  1.
    10030    2    1    2    0    0  0.00000000000E+00  0.00000000000E+00 -0.10272244539E+03  0.17066386869E+04  0.17035444540E+04 0.  0.
        2    1    3    3  502    0 -0.65100472407E+03 -0.27974941446E+03 -0.52492378617E+03  0.88182303607E+03  0.25500000920E-02 0. -1.
       -2    1    3    3    0  502  0.65100472407E+03  0.27974941446E+03  0.42220134078E+03  0.82481565081E+03  0.25500000920E-02 0.  1.
</event>
<event>
 5   0  0.2987859E-05  0.1709013E+04  0.7818609E-02  0.8756241E-01
        1   -1    0    0  501    0  0.00000000000E+00  0.00000000000E+00  0.10154478687E+04  0.10154478687E+04  0.50400001928E-02 0.  1.
       -1   -1    0    0    0  501  0.00000000000E+00  0.00000000000E+00 -0.71907284561E+03  0.71907284563E+03  0.50400001928E-02 0. -1.
    10030    2    1    2    0    0  0.00000000000E+00  0.00000000000E+00  0.29637502312E+03  0.17345207144E+04  0.17090125670E+04 0.  0.
        5    1    3    3  502    0  0.97337959376E+02  0.63229879387E+03 -0.42673222863E+03  0.76902466021E+03  0.46999998093E+01 0. -1.
       -5    1    3    3    0  502 -0.97337959376E+02 -0.63229879387E+03  0.72310725175E+03  0.96549605416E+03  0.46999998093E+01 0.  1.
</event>
<event>
 5   0  0.5821584E-05  0.1700644E+04  0.7818609E-02  0.8760997E-01
        2   -1    0    0  501    0  0.00000000000E+00  0.00000000000E+00  0.84113499883E+03  0.84113499883E+03  0.25500000920E-02 0.  1.
       -2   -1    0    0    0  501  0.00000000000E+00  0.00000000000E+00 -0.85960922263E+03  0.85960922264E+03  0.25500000920E-02 0. -1.
    10030    2    1    2    0    0  0.00000000000E+00  0.00000000000E+00 -0.18474223804E+02  0.17007442215E+04  0.17006438810E+04 0.  0.
        1    1    3    3  502    0  0.24544799764E+03 -0.65086035093E+03 -0.49832985534E+03  0.85568484894E+03  0.50400001928E-02 0. -1.
       -1    1    3    3    0  502 -0.24544799764E+03  0.65086035093E+03  0.47985563153E+03  0.84505937253E+03  0.50400001928E-02 0.  1.
</event>
<event>
 5   0  0.5652631E-05  0.1701541E+04  0.7818609E-02  0.8760486E-01
       -2   -1    0    0    0  501  0.00000000000E+00  0.00000000000E+00  0.95486438355E+03  0.95486438355E+03  0.25500000920E-02 0.  1.
        2   -1    0    0  501    0  0.00000000000E+00  0.00000000000E+00 -0.75802395403E+03  0.75802395403E+03  0.25500000920E-02 0. -1.
    10030    2    1    2    0    0  0.00000000000E+00  0.00000000000E+00  0.19684042952E+03  0.17128883376E+04  0.17015405673E+04 0.  0.
        2    1    3    3  502    0 -0.67601977828E+03 -0.51121363943E+03  0.17285895327E+03  0.86499846444E+03  0.25500000920E-02 0. -1.
       -2    1    3    3    0  502  0.67601977828E+03  0.51121363943E+03  0.23981476252E+02  0.84788987314E+03  0.25500000920E-02 0.  1.
</event>
<event>
 5   0  0.5755321E-05  0.1692855E+04  0.7818609E-02  0.8765450E-01
       -2   -1    0    0    0  501  0.00000000000E+00  0.00000000000E+00  0.43034829693E+03  0.43034829694E+03  0.25500000920E-02 0. -1.
        2   -1    0    0  501    0  0.00000000000E+00  0.00000000000E+00 -0.16647894341E+04  0.16647894341E+04  0.25500000920E-02 0.  1.
    10030    2    1    2    0    0  0.00000000000E+00  0.00000000000E+00 -0.12344411372E+04  0.20951377310E+04  0.16928547459E+04 0.  0.
        4    1    3    3  502    0 -0.18072679333E+03 -0.70938193723E+03 -0.91330498788E+02  0.73771795397E+03  0.12699999809E+01 0. -1.
       -4    1    3    3    0  502  0.18072679333E+03  0.70938193723E+03 -0.11431106384E+04  0.13574197771E+04  0.12699999809E+01 0.  1.
</event>
<event>
 5   0  0.5859822E-05  0.1699022E+04  0.7818609E-02  0.8761922E-01
       -2   -1    0    0    0  501  0.00000000000E+00  0.00000000000E+00  0.83166606896E+03  0.83166606896E+03  0.25500000920E-02 0.  1.
        2   -1    0    0  501    0  0.00000000000E+00  0.00000000000E+00 -0.86773870537E+03  0.86773870537E+03  0.25500000920E-02 0. -1.
    10030    2    1    2    0    0  0.00000000000E+00  0.00000000000E+00 -0.36072636408E+02  0.16994047743E+04  0.16990218809E+04 0.  0.
        5    1    3    3  502    0 -0.74664458224E+03 -0.52706444863E+01 -0.42327060396E+03  0.85830414543E+03  0.46999998093E+01 0.  1.
       -5    1    3    3    0  502  0.74664458224E+03  0.52706444863E+01  0.38719796755E+03  0.84110062891E+03  0.46999998093E+01 0. -1.
</event>
<event>
 5   0  0.5755321E-05  0.1700997E+04  0.7818609E-02  0.8760796E-01
        2   -1    0    0  501    0  0.00000000000E+00  0.00000000000E+00  0.16454109305E+04  0.16454109305E+04  0.25500000920E-02 0. -1.
       -2   -1    0    0    0  501  0.00000000000E+00  0.00000000000E+00 -0.43961544540E+03  0.43961544541E+03  0.25500000920E-02 0.  1.
    10030    2    1    2    0    0  0.00000000000E+00  0.00000000000E+00  0.12057954850E+04  0.20850263759E+04  0.17009974239E+04 0.  0.
        4    1    3    3  502    0  0.16335565532E+03  0.82137686982E+03  0.78471419997E+03  0.11476598019E+04  0.12699999809E+01 0. -1.
       -4    1    3    3    0  502 -0.16335565532E+03 -0.82137686982E+03  0.42108128508E+03  0.93736657394E+03  0.12699999809E+01 0.  1.
</event>
<event>
 5   0  0.5821584E-05  0.1698886E+04  0.7818609E-02  0.8762000E-01
        2   -1    0    0  501    0  0.00000000000E+00  0.00000000000E+00  0.18693931326E+04  0.18693931326E+04  0.25500000920E-02 0. -1.
       -2   -1    0    0    0  501  0.00000000000E+00  0.00000000000E+00 -0.38598282237E+03  0.38598282238E+03  0.25500000920E-02 0.  1.
    10030    2    1    2    0    0  0.00000000000E+00  0.00000000000E+00  0.14834103102E+04  0.22553759550E+04  0.16988862675E+04 0.  0.
        1    1    3    3  502    0 -0.34721619617E+03 -0.58058498358E+03  0.59700728142E+02  0.67911868404E+03  0.50400001928E-02 0.  1.
       -1    1    3    3    0  502  0.34721619617E+03  0.58058498358E+03  0.14237095821E+04  0.15762572709E+04  0.50400001928E-02 0. -1.
</event>
<event>
 5   0  0.2967704E-05  0.1695234E+04  0.7818609E-02  0.8764087E-01
        1   -1    0    0  501    0  0.00000000000E+00  0.00000000000E+00  0.10418254457E+04  0.10418254457E+04  0.50400001928E-02 0. -1.
       -1   -1    0    0    0  501  0.00000000000E+00  0.00000000000E+00 -0.68961126411E+03  0.68961126413E+03  0.50400001928E-02 0.  1.
    10030    2    1    2    0    0  0.00000000000E+00  0.00000000000E+00  0.35221418158E+03  0.17314367098E+04  0.16952339810E+04 0.  0.
        2    1    3    3  502    0 -0.78885604594E+03 -0.30612576696E+03  0.12557613615E+03  0.85543919269E+03  0.25500000920E-02 0. -1.
       -2    1    3    3    0  502  0.78885604594E+03  0.30612576696E+03  0.22663804543E+03  0.87599751715E+03  0.25500000920E-02 0.  1.
</event>
<event>
 5   0  0.5652631E-05  0.1697863E+04  0.7818609E-02  0.8762584E-01
        2   -1    0    0  501    0  0.00000000000E+00  0.00000000000E+00  0.85936622415E+03  0.85936622416E+03  0.25500000920E-02 0. -1.
       -2   -1    0    0    0  501  0.00000000000E+00  0.00000000000E+00 -0.83862306553E+03  0.83862306553E+03  0.25500000920E-02 0.  1.
    10030    2    1    2    0    0  0.00000000000E+00  0.00000000000E+00  0.20743158626E+02  0.16979892897E+04  0.16978625826E+04 0.  0.
        2    1    3    3  502    0  0.89078990828E+02 -0.77557189373E+03 -0.32317618596E+03  0.84491992291E+03  0.25500000920E-02 0.  1.
       -2    1    3    3    0  502 -0.89078990828E+02  0.77557189373E+03  0.34391934459E+03  0.85306936678E+03  0.25500000920E-02 0. -1.
</event>
<event>
 5   0  0.5671132E-05  0.1700087E+04  0.7818609E-02  0.8761315E-01
       -2   -1    0    0    0  501  0.00000000000E+00  0.00000000000E+00  0.40872851002E+03  0.40872851003E+03  0.25500000920E-02 0. -1.
        2   -1    0    0  501    0  0.00000000000E+00  0.00000000000E+00 -0.17678583673E+04  0.17678583673E+04  0.25500000920E-02 0.  1.
    10030    2    1    2    0    0  0.00000000000E+00  0.00000000000E+00 -0.13591298573E+04  0.21765868774E+04  0.17000871935E+04 0.  0.
        3    1    3    3  502    0 -0.44755373770E+03 -0.63309578926E+03 -0.11257556336E+04  0.13669090618E+04  0.10100000352E+00 0.  1.
       -3    1    3    3    0  502  0.44755373770E+03  0.63309578926E+03 -0.23337422373E+03  0.80967781556E+03  0.10100000352E+00 0. -1.
</event>
<event>
 5   0  0.2098250E-05  0.1705065E+04  0.7818609E-02  0.8758481E-01
        4   -1    0    0  501    0  0.00000000000E+00  0.00000000000E+00  0.66611164886E+03  0.66611285954E+03  0.12699999809E+01 0. -1.
       -4   -1    0    0    0  501  0.00000000000E+00  0.00000000000E+00 -0.10911228354E+04  0.10911235745E+04  0.12699999809E+01 0.  1.
    10030    2    1    2    0    0  0.00000000000E+00  0.00000000000E+00 -0.42501118650E+03  0.17572364340E+04  0.17050646253E+04 0.  0.
        4    1    3    3  502    0 -0.27641256621E+03  0.51553654613E+03 -0.85166582195E+03  0.10332076860E+04  0.12699999809E+01 0.  1.
       -4    1    3    3    0  502  0.27641256621E+03 -0.51553654613E+03  0.42665463544E+03  0.72402874805E+03  0.12699999809E+01 0. -1.
</event>
<event>
 5   0  0.5821584E-05  0.1698652E+04  0.7818609E-02  0.8762134E-01
        2   -1    0    0  501    0  0.00000000000E+00  0.00000000000E+00  0.18008510384E+04  0.18008510384E+04  0.25500000920E-02 0. -1.
       -2   -1    0    0    0  501  0.00000000000E+00  0.00000000000E+00 -0.40056297974E+03  0.40056297975E+03  0.25500000920E-02 0.  1.
    10030    2    1    2    0    0  0.00000000000E+00  0.00000000000E+00  0.14002880587E+04  0.22014140182E+04  0.16986515335E+04 0.  0.
        1    1    3    3  502    0  0.30999843649E+03 -0.64592638763E+03  0.10903861755E+03  0.72471328745E+03  0.50400001928E-02 0.  1.
       -1    1    3    3    0  502 -0.30999843649E+03  0.64592638763E+03  0.12912494411E+04  0.14767007307E+04  0.50400001928E-02 0. -1.
</event>
<event>
 5   0  0.2911632E-05  0.1685208E+04  0.7818609E-02  0.8769846E-01
       -1   -1    0    0    0  501  0.00000000000E+00  0.00000000000E+00  0.57744739979E+03  0.57744739981E+03  0.50400001928E-02 0.  1.
        1   -1    0    0  501    0  0.00000000000E+00  0.00000000000E+00 -0.12295167953E+04  0.12295167953E+04  0.50400001928E-02 0. -1.
    10030    2    1    2    0    0  0.00000000000E+00  0.00000000000E+00 -0.65206939552E+03  0.18069641951E+04  0.16852077338E+04 0.  0.
        1    1    3    3  502    0  0.75891403223E+03  0.16289975393E+03 -0.67758631565E+03  0.10303446284E+04  0.50400001928E-02 0. -1.
       -1    1    3    3    0  502 -0.75891403223E+03 -0.16289975393E+03  0.25516920133E+02  0.77661956670E+03  0.50400001928E-02 0.  1.
</event>
<event>
 5   0  0.5652631E-05  0.1699344E+04  0.7818609E-02  0.8761739E-01
        2   -1    0    0  501    0  0.00000000000E+00  0.00000000000E+00  0.87821648612E+03  0.87821648613E+03  0.25500000920E-02 0.  1.
       -2   -1    0    0    0  501  0.00000000000E+00  0.00000000000E+00 -0.82205489254E+03  0.82205489255E+03  0.25500000920E-02 0. -1.
    10030    2    1    2    0    0  0.00000000000E+00  0.00000000000E+00  0.56161593581E+02  0.17002713787E+04  0.16993435899E+04 0.  0.
        2    1    3    3  502    0 -0.77894100394E+03  0.27884347655E+03 -0.16551744633E+03  0.84374095378E+03  0.25500000920E-02 0.  1.
       -2    1    3    3    0  502  0.77894100394E+03 -0.27884347655E+03  0.22167903992E+03  0.85653042490E+03  0.25500000920E-02 0. -1.
</event>
<event>
 5   0  0.2987859E-05  0.1696276E+04  0.7818609E-02  0.8763491E-01
        1   -1    0    0  501    0  0.00000000000E+00  0.00000000000E+00  0.77494288504E+03  0.77494288506E+03  0.50400001928E-02 0. -1.
       -1   -1    0    0    0  501  0.00000000000E+00  0.00000000000E+00 -0.92824673312E+03  0.92824673313E+03  0.50400001928E-02 0.  1.
    10030    2    1    2    0    0  0.00000000000E+00  0.00000000000E+00 -0.15330384808E+03  0.17031896182E+04  0.16962761584E+04 0.  0.
        5    1    3    3  502    0 -0.74093699942E+02 -0.52368636949E+03  0.58905768133E+03  0.79167438502E+03  0.46999998093E+01 0. -1.
       -5    1    3    3    0  502  0.74093699942E+02  0.52368636949E+03 -0.74236152940E+03  0.91151523317E+03  0.46999998093E+01 0.  1.
</event>
<event>
 5   0  0.5859822E-05  0.1701853E+04  0.7818609E-02  0.8760308E-01
        2   -1    0    0  501    0  0.00000000000E+00  0.00000000000E+00  0.13509324135E+04  0.13509324135E+04  0.25500000920E-02 0. -1.
       -2   -1    0    0    0  501  0.00000000000E+00  0.00000000000E+00 -0.53598221512E+03  0.53598221513E+03  0.25500000920E-02 0.  1.
    10030    2    1    2    0    0  0.00000000000E+00  0.00000000000E+00  0.81495019842E+03  0.18869146287E+04  0.17018528109E+04 0.  0.
        5    1    3    3  502    0  0.64825836114E+03 -0.55100377725E+03  0.39142351945E+03  0.93652470705E+03  0.46999998093E+01 0.  1.
       -5    1    3    3    0  502 -0.64825836114E+03  0.55100377725E+03  0.42352667898E+03  0.95038992163E+03  0.46999998093E+01 0. -1.
</event>
<event>
 5   0  0.2966258E-05  0.1702465E+04  0.7818609E-02  0.8759960E-01
        1   -1    0    0  501    0  0.00000000000E+00  0.00000000000E+00  0.10238357241E+04  0.10238357242E+04  0.50400001928E-02 0. -1.
       -1   -1    0    0    0  501  0.00000000000E+00  0.00000000000E+00 -0.70772785454E+03  0.70772785456E+03  0.50400001928E-02 0.  1.
    10030    2    1    2    0    0  0.00000000000E+00  0.00000000000E+00  0.31610786960E+03  0.17315635787E+04  0.17024653424E+04 0.  0.
        4    1    3    3  502    0 -0.55347045124E+03 -0.30189578055E+03 -0.42366999277E+03  0.75958441163E+03  0.12699999809E+01 0.  1.
       -4    1    3    3    0  502  0.55347045124E+03  0.30189578055E+03  0.73977786237E+03  0.97197916709E+03  0.12699999809E+01 0. -1.
</event>
<event>
 5   0  0.5755321E-05  0.1701397E+04  0.7818609E-02  0.8760568E-01
        2   -1    0    0  501    0  0.00000000000E+00  0.00000000000E+00  0.24549791034E+04  0.24549791034E+04  0.25500000920E-02 0.  1.
       -2   -1    0    0    0  501  0.00000000000E+00  0.00000000000E+00 -0.29478377862E+03  0.29478377863E+03  0.25500000920E-02 0. -1.
    10030    2    1    2    0    0  0.00000000000E+00  0.00000000000E+00  0.21601953248E+04  0.27497628821E+04  0.17013970925E+04 0.  0.
        4    1    3    3  502    0 -0.64498151902E+03  0.22991402692E+03  0.26424752428E+03  0.73395503039E+03  0.12699999809E+01 0. -1.
       -4    1    3    3    0  502  0.64498151902E+03 -0.22991402692E+03  0.18959478005E+04  0.20158078517E+04  0.12699999809E+01 0.  1.
</event>
<event>
 5   0  0.2911632E-05  0.1699021E+04  0.7818609E-02  0.8761923E-01
        1   -1    0    0  501    0  0.00000000000E+00  0.00000000000E+00  0.60847108440E+03  0.60847108442E+03  0.50400001928E-02 0.  1.
       -1   -1    0    0    0  501  0.00000000000E+00  0.00000000000E+00 -0.11860354923E+04  0.11860354923E+04  0.50400001928E-02 0. -1.
    10030    2    1    2    0    0  0.00000000000E+00  0.00000000000E+00 -0.57756440789E+03  0.17945065767E+04  0.16990212502E+04 0.  0.
        1    1    3    3  502    0 -0.31545561165E+03  0.56683088222E+03  0.29054991947E+03  0.71079444827E+03  0.50400001928E-02 0.  1.
       -1    1    3    3    0  502  0.31545561165E+03 -0.56683088222E+03 -0.86811432737E+03  0.10837121285E+04  0.50400001928E-02 0. -1.
</event>
<event>
 5   0  0.5821584E-05  0.1700099E+04  0.7818609E-02  0.8761308E-01
        2   -1    0    0  501    0  0.00000000000E+00  0.00000000000E+00  0.16971129426E+04  0.16971129426E+04  0.25500000920E-02 0. -1.
       -2   -1    0    0    0  501  0.00000000000E+00  0.00000000000E+00 -0.42577265343E+03  0.42577265344E+03  0.25500000920E-02 0.  1.
    10030    2    1    2    0    0  0.00000000000E+00  0.00000000000E+00  0.12713402892E+04  0.21228855960E+04  0.17000991509E+04 0.  0.
        1    1    3    3  502    0  0.16759817639E+03 -0.82332095523E+03  0.79673450898E+03  0.11579000051E+04  0.50400001928E-02 0. -1.
       -1    1    3    3    0  502 -0.16759817639E+03  0.82332095523E+03  0.47460578018E+03  0.96498559090E+03  0.50400001928E-02 0.  1.
</event>
<event>
 5   0  0.2966258E-05  0.1687953E+04  0.7818609E-02  0.8768265E-01
        1   -1    0    0  501    0  0.00000000000E+00  0.00000000000E+00  0.61551111293E+03  0.61551111295E+03  0.50400001928E-02 0. -1.
       -1   -1    0    0    0  501  0.00000000000E+00  0.00000000000E+00 -0.11572435417E+04  0.11572435417E+04  0.50400001928E-02 0.  1.
    10030    2    1    2    0    0  0.00000000000E+00  0.00000000000E+00 -0.54173242877E+03  0.17727546547E+04  0.16879529144E+04 0.  0.
        4    1    3    3  502    0 -0.61716045012E+03  0.15676521219E+03 -0.85261949420E+03  0.10641541090E+04  0.12699999809E+01 0.  1.
       -4    1    3    3    0  502  0.61716045012E+03 -0.15676521219E+03  0.31088706543E+03  0.70860054565E+03  0.12699999809E+01 0. -1.
</event>
<event>
 5   0  0.5671132E-05  0.1703529E+04  0.7818609E-02  0.8759354E-01
       -2   -1    0    0    0  501  0.00000000000E+00  0.00000000000E+00  0.66971428973E+03  0.66971428974E+03  0.25500000920E-02 0. -1.
        2   -1    0    0  501    0  0.00000000000E+00  0.00000000000E+00 -0.10833020377E+04  0.10833020377E+04  0.25500000920E-02 0.  1.
    10030    2    1    2    0    0  0.00000000000E+00  0.00000000000E+00 -0.41358774795E+03  0.17530163274E+04  0.17035291072E+04 0.  0.
        3    1    3    3  502    0  0.43364721796E+03 -0.15252274157E+03 -0.94469489174E+03  0.10506005640E+04  0.10100000352E+00 0.  1.
       -3    1    3    3    0  502 -0.43364721796E+03  0.15252274157E+03  0.53110714379E+03  0.70241576344E+03  0.10100000352E+00 0. -1.
</event>
<event>
 5   0  0.2993769E-05  0.1700385E+04  0.7818609E-02  0.8761145E-01
        1   -1    0    0  501    0  0.00000000000E+00  0.00000000000E+00  0.49683365951E+03  0.49683365954E+03  0.50400001928E-02 0.  1.
       -1   -1    0    0    0  501  0.00000000000E+00  0.00000000000E+00 -0.14548679283E+04  0.14548679283E+04  0.50400001928E-02 0. -1.
    10030    2    1    2    0    0  0.00000000000E+00  0.00000000000E+00 -0.95803426882E+03  0.19517015879E+04  0.17003850822E+04 0.  0.
        3    1    3    3  502    0 -0.49305853331E+02 -0.74520362506E+03 -0.12682835237E+02  0.74694067668E+03  0.10100000352E+00 0.  1.
       -3    1    3    3    0  502  0.49305853331E+02  0.74520362506E+03 -0.94535143359E+03  0.12047609112E+04  0.10100000352E+00 0. -1.
</event>
<event>
 5   0  0.5821584E-05  0.1692789E+04  0.7818609E-02  0.8765488E-01
       -2   -1    0    0    0  501  0.00000000000E+00  0.00000000000E+00  0.40821438368E+03  0.40821438369E+03  0.25500000920E-02 0. -1.
        2   -1    0    0  501    0  0.00000000000E+00  0.00000000000E+00 -0.17549204843E+04  0.17549204843E+04  0.25500000920E-02 0.  1.
    10030    2    1    2    0    0  0.00000000000E+00  0.00000000000E+00 -0.13467061006E+04  0.21631348680E+04  0.16927891587E+04 0.  0.
        1    1    3    3  502    0  0.23044861464E+03 -0.74779227796E+03 -0.26109175103E+03  0.82490530210E+03  0.50400001928E-02 0. -1.
       -1    1    3    3    0  502 -0.23044861464E+03  0.74779227796E+03 -0.10856143496E+04  0.13382295659E+04  0.50400001928E-02 0.  1.
</event>
<event>
 5   0  0.2966258E-05  0.1700769E+04  0.7818609E-02  0.8760926E-01
        1   -1    0    0  501    0  0.00000000000E+00  0.00000000000E+00  0.11585968739E+04  0.11585968739E+04  0.50400001928E-02 0. -1.
       -1   -1    0    0    0  501  0.00000000000E+00  0.00000000000E+00 -0.62416346428E+03  0.62416346430E+03  0.50400001928E-02 0.  1.
    10030    2    1    2    0    0  0.00000000000E+00  0.00000000000E+00  0.53443340960E+03  0.17827603382E+04  0.17007690479E+04 0.  0.
        4    1    3    3  502    0 -0.36656055238E+03 -0.70983464357E+03 -0.38242733160E+02  0.79980996449E+03  0.12699999809E+01 0.  1.
       -4    1    3    3    0  502  0.36656055238E+03  0.70983464357E+03  0.57267614276E+03  0.98295037370E+03  0.12699999809E+01 0. -1.
</event>
<event>
 5   0  0.5671132E-05  0.1699881E+04  0.7818609E-02  0.8761432E-01
        2   -1    0    0  501    0  0.00000000000E+00  0.00000000000E+00  0.10617862662E+04  0.10617862662E+04  0.25500000920E-02 0.  1.
       -2   -1    0    0    0  501  0.00000000000E+00  0.00000000000E+00 -0.68036155296E+03  0.68036155297E+03  0.25500000920E-02 0. -1.
    10030    2    1    2    0    0  0.00000000000E+00  0.00000000000E+00  0.38142471322E+03  0.17421478192E+04  0.16998806464E+04 0.  0.
        3    1    3    3  502    0 -0.13799822396E+03 -0.34139226349E+03  0.97579247023E+03  0.10429588403E+04  0.10100000352E+00 0.  1.
       -3    1    3    3    0  502  0.13799822396E+03  0.34139226349E+03 -0.59436775701E+03  0.69918897886E+03  0.10100000352E+00 0. -1.
</event>
<event>
 5   0  0.2966258E-05  0.1702478E+04  0.7818609E-02  0.8759952E-01
       -1   -1    0    0    0  501  0.00000000000E+00  0.00000000000E+00  0.54653371368E+03  0.54653371371E+03  0.50400001928E-02 0. -1.
        1   -1    0    0  501    0  0.00000000000E+00  0.00000000000E+00 -0.13258249579E+04  0.13258249579E+04  0.50400001928E-02 0.  1.
    10030    2    1    2    0    0  0.00000000000E+00  0.00000000000E+00 -0.77929124421E+03  0.18723586716E+04  0.17024782383E+04 0.  0.
        4    1    3    3  502    0  0.69448219237E+03 -0.25210446887E+03  0.75322857205E+02  0.74265558939E+03  0.12699999809E+01 0. -1.
       -4    1    3    3    0  502 -0.69448219237E+03  0.25210446887E+03 -0.85461410142E+03  0.11297030822E+04  0.12699999809E+01 0.  1.
</event>
<event>
 5   0  0.2098250E-05  0.1697867E+04  0.7818609E-02  0.8762582E-01
       -3   -1    0    0    0  501  0.00000000000E+00  0.00000000000E+00  0.97088044220E+03  0.97088044745E+03  0.10100000352E+00 0. -1.
        3   -1    0    0  501    0  0.00000000000E+00  0.00000000000E+00 -0.74230322063E+03  0.74230322750E+03  0.10100000352E+00 0.  1.
    10030    2    1    2    0    0  0.00000000000E+00  0.00000000000E+00  0.22857722157E+03  0.17131836749E+04  0.16978665312E+04 0.  0.
        4    1    3    3  502    0  0.81416969552E+02 -0.26661311626E+03  0.92337958380E+03  0.96454276493E+03  0.12699999809E+01 0. -1.
       -4    1    3    3    0  502 -0.81416969552E+02  0.26661311626E+03 -0.69480236223E+03  0.74864091002E+03  0.12699999809E+01 0.  1.
</event>
<event>
 5   0  0.2966258E-05  0.1700517E+04  0.7818609E-02  0.8761070E-01
       -1   -1    0    0    0  501  0.00000000000E+00  0.00000000000E+00  0.45497258250E+03  0.45497258253E+03  0.50400001928E-02 0. -1.
        1   -1    0    0  501    0  0.00000000000E+00  0.00000000000E+00 -0.15889733873E+04  0.15889733873E+04  0.50400001928E-02 0.  1.
    10030    2    1    2    0    0  0.00000000000E+00  0.00000000000E+00 -0.11340008048E+04  0.20439459698E+04  0.17005167751E+04 0.  0.
        4    1    3    3  502    0 -0.36911111467E+03 -0.52228051762E+03  0.10643575961E+03  0.64834415080E+03  0.12699999809E+01 0. -1.
       -4    1    3    3    0  502  0.36911111467E+03  0.52228051762E+03 -0.12404365644E+04  0.13956018190E+04  0.12699999809E+01 0.  1.
</event>
<event>
 5   0  0.2987859E-05  0.1704915E+04  0.7818609E-02  0.8758566E-01
       -1   -1    0    0    0  501  0.00000000000E+00  0.00000000000E+00  0.10264607421E+04  0.10264607421E+04  0.50400001928E-02 0. -1.
        1   -1    0    0  501    0  0.00000000000E+00  0.00000000000E+00 -0.70795068509E+03  0.70795068511E+03  0.50400001928E-02 0.  1.
    10030    2    1    2    0    0  0.00000000000E+00  0.00000000000E+00  0.31851005703E+03  0.17344114272E+04  0.17049147611E+04 0.  0.
        5    1    3    3  502    0 -0.59090939285E+03  0.54220059750E+03  0.45322877591E+03  0.92119151744E+03  0.46999998093E+01 0. -1.
       -5    1    3    3    0  502  0.59090939285E+03 -0.54220059750E+03 -0.13471871888E+03  0.81321990980E+03  0.46999998093E+01 0.  1.
</event>
<event>
 5   0  0.5652631E-05  0.1705197E+04  0.7818609E-02  0.8758406E-01
       -2   -1    0    0    0  501  0.00000000000E+00  0.00000000000E+00  0.39025904082E+03  0.39025904082E+03  0.25500000920E-02 0. -1.
        2   -1    0    0  501    0  0.00000000000E+00  0.00000000000E+00 -0.18626701043E+04  0.18626701043E+04  0.25500000920E-02 0.  1.
    10030    2    1    2    0    0  0.00000000000E+00  0.00000000000E+00 -0.14724110634E+04  0.22529291451E+04  0.17051965849E+04 0.  0.
        2    1    3    3  502    0  0.32911962506E+03 -0.53672738824E+03 -0.14957917846E+04  0.16228952769E+04  0.25500000920E-02 0.  1.
       -2    1    3    3    0  502 -0.32911962506E+03  0.53672738824E+03  0.23380721196E+02  0.63003386815E+03  0.25500000920E-02 0. -1.
</event>
<event>
 5   0  0.5755321E-05  0.1696453E+04  0.7818609E-02  0.8763390E-01
        2   -1    0    0  501    0  0.00000000000E+00  0.00000000000E+00  0.11325369598E+04  0.11325369598E+04  0.25500000920E-02 0.  1.
       -2   -1    0    0    0  501  0.00000000000E+00  0.00000000000E+00 -0.63528908041E+03  0.63528908041E+03  0.25500000920E-02 0. -1.
    10030    2    1    2    0    0  0.00000000000E+00  0.00000000000E+00  0.49724787940E+03  0.17678260402E+04  0.16964531986E+04 0.  0.
        4    1    3    3  502    0  0.10144182875E+03  0.64776795480E+03  0.80940283541E+03  0.10416469319E+04  0.12699999809E+01 0.  1.
       -4    1    3    3    0  502 -0.10144182875E+03 -0.64776795480E+03 -0.31215495601E+03  0.72617910831E+03  0.12699999809E+01 0. -1.
</event>
<event>
 5   0  0.5859822E-05  0.1692304E+04  0.7818609E-02  0.8765766E-01
       -2   -1    0    0    0  501  0.00000000000E+00  0.00000000000E+00  0.28051892413E+03  0.28051892414E+03  0.25500000920E-02 0.  1.
        2   -1    0    0  501    0  0.00000000000E+00  0.00000000000E+00 -0.25523163724E+04  0.25523163724E+04  0.25500000920E-02 0. -1.
    10030    2    1    2    0    0  0.00000000000E+00  0.00000000000E+00 -0.22717974482E+04  0.28328352965E+04  0.16923038059E+04 0.  0.
        5    1    3    3  502    0 -0.75378259067E+03  0.76650734587E+02 -0.17664420679E+04  0.19220830363E+04  0.46999998093E+01 0. -1.
       -5    1    3    3    0  502  0.75378259067E+03 -0.76650734587E+02 -0.50535538036E+03  0.91075226026E+03  0.46999998093E+01 0.  1.
</event>
<event>
 5   0  0.5859822E-05  0.1701873E+04  0.7818609E-02  0.8760297E-01
        2   -1    0    0  501    0  0.00000000000E+00  0.00000000000E+00  0.10099425751E+04  0.10099425751E+04  0.25500000920E-02 0. -1.
       -2   -1    0    0    0  501  0.00000000000E+00  0.00000000000E+00 -0.71696414390E+03  0.71696414390E+03  0.25500000920E-02 0.  1.
    10030    2    1    2    0    0  0.00000000000E+00  0.00000000000E+00  0.29297843116E+03  0.17269067190E+04  0.17018726318E+04 0.  0.
        5    1    3    3  502    0 -0.82679027723E+03 -0.17497523929E+03  0.45669611343E+02  0.84634880533E+03  0.46999998093E+01 0.  1.
       -5    1    3    3    0  502  0.82679027723E+03  0.17497523929E+03  0.24730881982E+03  0.88055791363E+03  0.46999998093E+01 0. -1.
</event>
<event>
 5   0  0.2966258E-05  0.1699877E+04  0.7818609E-02  0.8761434E-01
        1   -1    0    0  501    0  0.00000000000E+00  0.00000000000E+00  0.13128777162E+04  0.13128777162E+04  0.50400001928E-02 0. -1.
       -1   -1    0    0    0  501  0.00000000000E+00  0.00000000000E+00 -0.55023848728E+03  0.55023848731E+03  0.50400001928E-02 0.  1.
    10030    2    1    2    0    0  0.00000000000E+00  0.00000000000E+00  0.76263922895E+03  0.18631162035E+04  0.16998774645E+04 0.  0.
        4    1    3    3  502    0  0.17639634815E+03 -0.36132230963E+02  0.12917324725E+04  0.13042222216E+04  0.12699999809E+01 0. -1.
       -4    1    3    3    0  502 -0.17639634815E+03  0.36132230963E+02 -0.52909324360E+03  0.55889398196E+03  0.12699999809E+01 0.  1.
</event>
<event>
 5   0  0.2911632E-05  0.1692417E+04  0.7818609E-02  0.8765701E-01
        1   -1    0    0  501    0  0.00000000000E+00  0.00000000000E+00  0.14078798689E+04  0.14078798689E+04  0.50400001928E-02 0. -1.
       -1   -1    0    0    0  501  0.00000000000E+00  0.00000000000E+00 -0.50861490974E+03  0.50861490976E+03  0.50400001928E-02 0.  1.
    10030    2    1    2    0    0  0.00000000000E+00  0.00000000000E+00  0.89926495914E+03  0.19164947787E+04  0.16924168428E+04 0.  0.
        1    1    3    3  502    0  0.77651703215E+03 -0.39478274505E+02  0.71452103315E+02  0.78079615680E+03  0.50400001928E-02 0.  1.
       -1    1    3    3    0  502 -0.77651703215E+03  0.39478274505E+02  0.82781285582E+03  0.11356986218E+04  0.50400001928E-02 0. -1.
</event>
<event>
 5   0  0.5671132E-05  0.1700309E+04  0.7818609E-02  0.8761188E-01
       -2   -1    0    0    0  501  0.00000000000E+00  0.00000000000E+00  0.13413414466E+04  0.13413414466E+04  0.25500000920E-02 0.  1.
        2   -1    0    0  501    0  0.00000000000E+00  0.00000000000E+00 -0.53883562318E+03  0.53883562319E+03  0.25500000920E-02 0. -1.
    10030    2    1    2    0    0  0.00000000000E+00  0.00000000000E+00  0.80250582339E+03  0.18801770698E+04  0.17003088593E+04 0.  0.
        3    1    3    3  502    0 -0.66869602418E+03  0.27106734161E+03  0.89840244878E+03  0.11522841866E+04  0.10100000352E+00 0.  1.
       -3    1    3    3    0  502  0.66869602418E+03 -0.27106734161E+03 -0.95896625387E+02  0.72789288320E+03  0.10100000352E+00 0. -1.
</event>
<event>
 5   0  0.5821584E-05  0.1710851E+04  0.7818609E-02  0.8755199E-01
       -2   -1    0    0    0  501  0.00000000000E+00  0.00000000000E+00  0.36879409400E+03  0.36879409401E+03  0.25500000920E-02 0. -1.
        2   -1    0    0  501    0  0.00000000000E+00  0.00000000000E+00 -0.19841780674E+04  0.19841780674E+04  0.25500000920E-02 0.  1.
    10030    2    1    2    0    0  0.00000000000E+00  0.00000000000E+00 -0.16153839734E+04  0.23529721614E+04  0.17108514286E+04 0.  0.
        1    1    3    3  502    0  0.53203722976E+03 -0.27458609401E+02 -0.17281675521E+04  0.18084193864E+04  0.50400001928E-02 0.  1.
       -1    1    3    3    0  502 -0.53203722976E+03  0.27458609401E+02  0.11278357870E+03  0.54455277497E+03  0.50400001928E-02 0. -1.
</event>
<event>
 5   0  0.5859822E-05  0.1698053E+04  0.7818609E-02  0.8762475E-01
        2   -1    0    0  501    0  0.00000000000E+00  0.00000000000E+00  0.14385347163E+04  0.14385347163E+04  0.25500000920E-02 0. -1.
       -2   -1    0    0    0  501  0.00000000000E+00  0.00000000000E+00 -0.50109756659E+03  0.50109756659E+03  0.25500000920E-02 0.  1.
    10030    2    1    2    0    0  0.00000000000E+00  0.00000000000E+00  0.93743714969E+03  0.19396322829E+04  0.16980532922E+04 0.  0.
        5    1    3    3  502    0  0.11446093334E+03  0.25357023185E+03 -0.44753788436E+03  0.52698331632E+03  0.46999998093E+01 0.  1.
       -5    1    3    3    0  502 -0.11446093334E+03 -0.25357023185E+03  0.13849750341E+04  0.14126489666E+04  0.46999998093E+01 0. -1.
</event>
<event>
 5   0  0.2993769E-05  0.1701082E+04  0.7818609E-02  0.8760747E-01
       -1   -1    0    0    0  501  0.00000000000E+00  0.00000000000E+00  0.14341496027E+04  0.14341496027E+04  0.50400001928E-02 0.  1.
        1   -1    0    0  501    0  0.00000000000E+00  0.00000000000E+00 -0.50442464346E+03  0.50442464348E+03  0.50400001928E-02 0. -1.
    10030    2    1    2    0    0  0.00000000000E+00  0.00000000000E+00  0.92972495921E+03  0.19385742462E+04  0.17010824813E+04 0.  0.
        3    1    3    3  502    0 -0.26086055047E+03 -0.51209322326E+03 -0.24967769054E+03  0.62659927821E+03  0.10100000352E+00 0. -1.
       -3    1    3    3    0  502  0.26086055047E+03  0.51209322326E+03  0.11794026497E+04  0.13119749679E+04  0.10100000352E+00 0.  1.
</event>
<event>
 5   0  0.5652631E-05  0.1698508E+04  0.7818609E-02  0.8762216E-01
        2   -1    0    0  501    0  0.00000000000E+00  0.00000000000E+00  0.23214760852E+04  0.23214760852E+04  0.25500000920E-02 0.  1.
       -2   -1    0    0    0  501  0.00000000000E+00  0.00000000000E+00 -0.31067820617E+03  0.31067820618E+03  0.25500000920E-02 0. -1.
    10030    2    1    2    0    0  0.00000000000E+00  0.00000000000E+00  0.20107978790E+04  0.26321542914E+04  0.16985076106E+04 0.  0.
        2    1    3    3  502    0  0.65883649841E+03  0.42523930624E+03  0.15107441387E+04  0.17021286238E+04  0.25500000920E-02 0.  1.
       -2    1    3    3    0  502 -0.65883649841E+03 -0.42523930624E+03  0.50005374032E+03  0.93002566762E+03  0.25500000920E-02 0. -1.
</event>
<event>
 5   0  0.2911632E-05  0.1703679E+04  0.7818609E-02  0.8759269E-01
        1   -1    0    0  501    0  0.00000000000E+00  0.00000000000E+00  0.16931486342E+04  0.16931486342E+04  0.50400001928E-02 0. -1.
       -1   -1    0    0    0  501  0.00000000000E+00  0.00000000000E+00 -0.42856874376E+03  0.42856874378E+03  0.50400001928E-02 0.  1.
    10030    2    1    2    0    0  0.00000000000E+00  0.00000000000E+00  0.12645798905E+04  0.21217173780E+04  0.17036790580E+04 0.  0.
        1    1    3    3  502    0 -0.45920807393E+03  0.22466701544E+03  0.14808669546E+04  0.15666251180E+04  0.50400001928E-02 0. -1.
       -1    1    3    3    0  502  0.45920807393E+03 -0.22466701544E+03 -0.21628706416E+03  0.55509226002E+03  0.50400001928E-02 0.  1.
</event>
<event>
 5   0  0.5671132E-05  0.1703540E+04  0.7818609E-02  0.8759348E-01
       -2   -1    0    0    0  501  0.00000000000E+00  0.00000000000E+00  0.98996246100E+03  0.98996246100E+03  0.25500000920E-02 0.  1.
        2   -1    0    0  501    0  0.00000000000E+00  0.00000000000E+00 -0.73286793964E+03  0.73286793964E+03  0.25500000920E-02 0. -1.
    10030    2    1    2    0    0  0.00000000000E+00  0.00000000000E+00  0.25709452136E+03  0.17228304006E+04  0.17035395494E+04 0.  0.
        3    1    3    3  502    0  0.19288469715E+02 -0.75578145978E+03  0.52533449807E+03  0.92062696304E+03  0.10100000352E+00 0. -1.
       -3    1    3    3    0  502 -0.19288469715E+02  0.75578145978E+03 -0.26823997671E+03  0.80220343761E+03  0.10100000352E+00 0.  1.
</event>
<event>
 5   0  0.5652631E-05  0.1702179E+04  0.7818609E-02  0.8760123E-01
        2   -1    0    0  501    0  0.00000000000E+00  0.00000000000E+00  0.11181406072E+04  0.11181406072E+04  0.25500000920E-02 0. -1.
       -2   -1    0    0    0  501  0.00000000000E+00  0.00000000000E+00 -0.64781931250E+03  0.64781931250E+03  0.25500000920E-02 0.  1.
    10030    2    1    2    0    0  0.00000000000E+00  0.00000000000E+00  0.47032129465E+03  0.17659599197E+04  0.17021786973E+04 0.  0.
        2    1    3    3  502    0 -0.44264292597E+03  0.41133763046E+03  0.85696958088E+03  0.10485839350E+04  0.25500000920E-02 0. -1.
       -2    1    3    3    0  502  0.44264292597E+03 -0.41133763046E+03 -0.38664828623E+03  0.71737598468E+03  0.25500000920E-02 0.  1.
</event>
<event>
 5   0  0.2911632E-05  0.1703278E+04  0.7818609E-02  0.8759497E-01
       -1   -1    0    0    0  501  0.00000000000E+00  0.00000000000E+00  0.75671548354E+03  0.75671548355E+03  0.50400001928E-02 0.  1.
        1   -1    0    0  501    0  0.00000000000E+00  0.00000000000E+00 -0.95847018888E+03  0.95847018889E+03  0.50400001928E-02 0. -1.
    10030    2    1    2    0    0  0.00000000000E+00  0.00000000000E+00 -0.20175470534E+03  0.17151856724E+04  0.17032782890E+04 0.  0.
        1    1    3    3  502    0 -0.51599390137E+03 -0.59591279960E+02 -0.78049428844E+03  0.93753515199E+03  0.50400001928E-02 0. -1.
       -1    1    3    3    0  502  0.51599390137E+03  0.59591279960E+02  0.57873958310E+03  0.77765052046E+03  0.50400001928E-02 0.  1.
</event>
<event>
 5   0  0.5859822E-05  0.1700721E+04  0.7818609E-02  0.8760953E-01
       -2   -1    0    0    0  501  0.00000000000E+00  0.00000000000E+00  0.48279277740E+03  0.48279277741E+03  0.25500000920E-02 0.  1.
        2   -1    0    0  501    0  0.00000000000E+00  0.00000000000E+00 -0.14977710763E+04  0.14977710763E+04  0.25500000920E-02 0. -1.
    10030    2    1    2    0    0  0.00000000000E+00  0.00000000000E+00 -0.10149782989E+04  0.19805638537E+04  0.17007210916E+04 0.  0.
        5    1    3    3  502    0 -0.74240343147E+03 -0.39887127408E+03 -0.37558270191E+03  0.92268391355E+03  0.46999998093E+01 0.  1.
       -5    1    3    3    0  502  0.74240343147E+03  0.39887127408E+03 -0.63939559696E+03  0.10578799401E+04  0.46999998093E+01 0. -1.
</event>
<event>
 5   0  0.5652631E-05  0.1701955E+04  0.7818609E-02  0.8760250E-01
       -2   -1    0    0    0  501  0.00000000000E+00  0.00000000000E+00  0.54583617630E+03  0.54583617631E+03  0.25500000920E-02 0.  1.
        2   -1    0    0  501    0  0.00000000000E+00  0.00000000000E+00 -0.13267036954E+04  0.13267036954E+04  0.25500000920E-02 0. -1.
    10030    2    1    2    0    0  0.00000000000E+00  0.00000000000E+00 -0.78086751912E+03  0.18725398717E+04  0.17019551959E+04 0.  0.
        2    1    3    3  502    0 -0.67862402383E+03 -0.30837900559E+03  0.61242860539E+02  0.74791634879E+03  0.25500000920E-02 0.  1.
       -2    1    3    3    0  502  0.67862402383E+03  0.30837900559E+03 -0.84211037965E+03  0.11246235229E+04  0.25500000920E-02 0. -1.
</event>
<event>
 5   0  0.5859822E-05  0.1696930E+04  0.7818609E-02  0.8763117E-01
       -2   -1    0    0    0  501  0.00000000000E+00  0.00000000000E+00  0.10768760860E+04  0.10768760860E+04  0.25500000920E-02 0. -1.
        2   -1    0    0  501    0  0.00000000000E+00  0.00000000000E+00 -0.66850088993E+03  0.66850088993E+03  0.25500000920E-02 0.  1.
    10030    2    1    2    0    0  0.00000000000E+00  0.00000000000E+00  0.40837519610E+03  0.17453769760E+04  0.16969297238E+04 0.  0.
        5    1    3    3  502    0  0.16991665761E+03  0.18734170760E+03 -0.62881210282E+03  0.67778708795E+03  0.46999998093E+01 0.  1.
       -5    1    3    3    0  502 -0.16991665761E+03 -0.18734170760E+03  0.10371872989E+04  0.10675898880E+04  0.46999998093E+01 0. -1.
</event>
<event>
 5   0  0.2911632E-05  0.1694704E+04  0.7818609E-02  0.8764391E-01
        1   -1    0    0  501    0  0.00000000000E+00  0.00000000000E+00  0.18005974859E+04  0.18005974859E+04  0.50400001928E-02 0. -1.
       -1   -1    0    0    0  501  0.00000000000E+00  0.00000000000E+00 -0.39875948269E+03  0.39875948272E+03  0.50400001928E-02 0.  1.
    10030    2    1    2    0    0  0.00000000000E+00  0.00000000000E+00  0.14018380032E+04  0.21993569686E+04  0.16947038940E+04 0.  0.
        1    1    3    3  502    0  0.39591883281E+03  0.29733291140E+03 -0.19148620558E+03  0.53087244167E+03  0.50400001928E-02 0.  1.
       -1    1    3    3    0  502 -0.39591883281E+03 -0.29733291140E+03  0.15933242088E+04  0.16684845269E+04  0.50400001928E-02 0. -1.
</event>
<event>
 5   0  0.5755321E-05  0.1696768E+04  0.7818609E-02  0.8763210E-01
        2   -1    0    0  501    0  0.00000000000E+00  0.00000000000E+00  0.15745563305E+04  0.15745563305E+04  0.25500000920E-02 0.  1.
       -2   -1    0    0    0  501  0.00000000000E+00  0.00000000000E+00 -0.45711647629E+03  0.45711647630E+03  0.25500000920E-02 0. -1.
    10030    2    1    2    0    0  0.00000000000E+00  0.00000000000E+00  0.11174398542E+04  0.20316728068E+04  0.16967682712E+04 0.  0.
        4    1    3    3  502    0  0.83365236250E+03 -0.19911339105E+02  0.37175518568E+03  0.91300397256E+03  0.12699999809E+01 0.  1.
       -4    1    3    3    0  502 -0.83365236250E+03  0.19911339105E+02  0.74568466854E+03  0.11186688343E+04  0.12699999809E+01 0. -1.
</event>
<event>
 5   0  0.5671132E-05  0.1698111E+04  0.7818609E-02  0.8762442E-01
        2   -1    0    0  501    0  0.00000000000E+00  0.00000000000E+00  0.64474170552E+03  0.64474170552E+03  0.25500000920E-02 0.  1.
       -2   -1    0    0    0  501  0.00000000000E+00  0.00000000000E+00 -0.11181154479E+04  0.11181154479E+04  0.25500000920E-02 0. -1.
    10030    2    1    2    0    0  0.00000000000E+00  0.00000000000E+00 -0.47337374241E+03  0.17628571535E+04  0.16981114932E+04 0.  0.
        3    1    3    3  502    0 -0.79197964505E+02 -0.62499892276E+01  0.64087480111E+03  0.64578007157E+03  0.10100000352E+00 0.  1.
       -3    1    3    3    0  502  0.79197964505E+02  0.62499892276E+01 -0.11142485435E+04  0.11170770819E+04  0.10100000352E+00 0. -1.
</event>
<event>
 5   0  0.5859822E-05  0.1698931E+04  0.7818609E-02  0.8761974E-01
        2   -1    0    0  501    0  0.00000000000E+00  0.00000000000E+00  0.16789579128E+04  0.16789579128E+04  0.25500000920E-02 0.  1.
       -2   -1    0    0    0  501  0.00000000000E+00  0.00000000000E+00 -0.42978563654E+03  0.42978563655E+03  0.25500000920E-02 0. -1.
    10030    2    1    2    0    0  0.00000000000E+00  0.00000000000E+00  0.12491722762E+04  0.21087435493E+04  0.16989314233E+04 0.  0.
        5    1    3    3  502    0 -0.50035747511E+02  0.72263581231E+02  0.16732822728E+04  0.16755957912E+04  0.46999998093E+01 0.  1.
       -5    1    3    3    0  502  0.50035747511E+02 -0.72263581231E+02 -0.42410999653E+03  0.43314775811E+03  0.46999998093E+01 0. -1.
</event>
<event>
 5   0  0.5671132E-05  0.1699431E+04  0.7818609E-02  0.8761689E-01
        2   -1    0    0  501    0  0.00000000000E+00  0.00000000000E+00  0.11454648833E+04  0.11454648833E+04  0.25500000920E-02 0. -1.
       -2   -1    0    0    0  501  0.00000000000E+00  0.00000000000E+00 -0.63032575657E+03  0.63032575657E+03  0.25500000920E-02 0.  1.
    10030    2    1    2    0    0  0.00000000000E+00  0.00000000000E+00  0.51513912678E+03  0.17757906399E+04  0.16994305155E+04 0.  0.
        3    1    3    3  502    0  0.10290388101E+03  0.73314418928E+03 -0.17821425677E+03  0.76147878665E+03  0.10100000352E+00 0.  1.
       -3    1    3    3    0  502 -0.10290388101E+03 -0.73314418928E+03  0.69335338355E+03  0.10143118533E+04  0.10100000352E+00 0. -1.
</event>
<event>
 5   0  0.2993769E-05  0.1697414E+04  0.7818609E-02  0.8762841E-01
       -1   -1    0    0    0  501  0.00000000000E+00  0.00000000000E+00  0.89969774148E+03  0.89969774150E+03  0.50400001928E-02 0.  1.
        1   -1    0    0  501    0  0.00000000000E+00  0.00000000000E+00 -0.80060571939E+03  0.80060571941E+03  0.50400001928E-02 0. -1.
    10030    2    1    2    0    0  0.00000000000E+00  0.00000000000E+00  0.99092022092E+02  0.17003034609E+04  0.16974135119E+04 0.  0.
        3    1    3    3  502    0  0.84129613583E+03 -0.10091440989E+03  0.10876093807E+01  0.84732762222E+03  0.10100000352E+00 0.  1.
       -3    1    3    3    0  502 -0.84129613583E+03  0.10091440989E+03  0.98004412711E+02  0.85297583869E+03  0.10100000352E+00 0. -1.
</event>
<event>
 5   0  0.2993769E-05  0.1700085E+04  0.7818609E-02  0.8761316E-01
        1   -1    0    0  501    0  0.00000000000E+00  0.00000000000E+00  0.15194909312E+04  0.15194909312E+04  0.50400001928E-02 0.  1.
       -1   -1    0    0    0  501  0.00000000000E+00  0.00000000000E+00 -0.47553593558E+03  0.47553593561E+03  0.50400001928E-02 0. -1.
    10030    2    1    2    0    0  0.00000000000E+00  0.00000000000E+00  0.10439549956E+04  0.19950268668E+04  0.17000853409E+04 0.  0.
        3    1    3    3  502    0 -0.64378432893E+03 -0.55356405193E+03  0.57009200533E+03  0.10226907287E+04  0.10100000352E+00 0.  1.
       -3    1    3    3    0  502  0.64378432893E+03  0.55356405193E+03  0.47386299028E+03  0.97233613814E+03  0.10100000352E+00 0. -1.
</event>
<event>
 5   0  0.5755321E-05  0.1700035E+04  0.7818609E-02  0.8761344E-01
       -2   -1    0    0    0  501  0.00000000000E+00  0.00000000000E+00  0.86901717522E+03  0.86901717522E+03  0.25500000920E-02 0.  1.
        2   -1    0    0  501    0  0.00000000000E+00  0.00000000000E+00 -0.83143361679E+03  0.83143361679E+03  0.25500000920E-02 0. -1.
    10030    2    1    2    0    0  0.00000000000E+00  0.00000000000E+00  0.37583558428E+02  0.17004507920E+04  0.17000354032E+04 0.  0.
        4    1    3    3  502    0 -0.64258285216E+02 -0.47841608284E+03 -0.68103437951E+03  0.83475775798E+03  0.12699999809E+01 0. -1.
       -4    1    3    3    0  502  0.64258285216E+02  0.47841608284E+03  0.71861793794E+03  0.86569303403E+03  0.12699999809E+01 0.  1.
</event>
<event>
 5   0  0.2987859E-05  0.1701348E+04  0.7818609E-02  0.8760596E-01
       -1   -1    0    0    0  501  0.00000000000E+00  0.00000000000E+00  0.55121445085E+03  0.55121445087E+03  0.50400001928E-02 0. -1.
        1   -1    0    0  501    0  0.00000000000E+00  0.00000000000E+00 -0.13128222802E+04  0.13128222802E+04  0.50400001928E-02 0.  1.
    10030    2    1    2    0    0  0.00000000000E+00  0.00000000000E+00 -0.76160782938E+03  0.18640367311E+04  0.17013484209E+04 0.  0.
        5    1    3    3  502    0 -0.48844724429E+03 -0.67799217936E+03 -0.55531579689E+03  0.10033204025E+04  0.46999998093E+01 0. -1.
       -5    1    3    3    0  502  0.48844724429E+03  0.67799217936E+03 -0.20629203249E+03  0.86071632865E+03  0.46999998093E+01 0.  1.
</event>
<event>
 5   0  0.2098250E-05  0.1700541E+04  0.7818609E-02  0.8761056E-01
       -3   -1    0    0    0  501  0.00000000000E+00  0.00000000000E+00  0.11066194308E+04  0.11066194354E+04  0.10100000352E+00 0.  1.
        3   -1    0    0  501    0  0.00000000000E+00  0.00000000000E+00 -0.65330487723E+03  0.65330488504E+03  0.10100000352E+00 0. -1.
    10030    2    1    2    0    0  0.00000000000E+00  0.00000000000E+00  0.45331455357E+03  0.17599243205E+04  0.17005409519E+04 0.  0.
        5    1    3    3  502    0  0.23238621462E+03  0.17743664529E+03  0.10529428899E+04  0.10927936380E+04  0.46999998093E+01 0.  1.
       -5    1    3    3    0  502 -0.23238621462E+03 -0.17743664529E+03 -0.59962833630E+03  0.66713068250E+03  0.46999998093E+01 0. -1.
</event>
<event>
 5   0  0.2993769E-05  0.1699666E+04  0.7818609E-02  0.8761555E-01
        1   -1    0    0  501    0  0.00000000000E+00  0.00000000000E+00  0.13884913224E+04  0.13884913224E+04  0.50400001928E-02 0. -1.
       -1   -1    0    0    0  501  0.00000000000E+00  0.00000000000E+00 -0.52014477196E+03  0.52014477198E+03  0.50400001928E-02 0.  1.
    10030    2    1    2    0    0  0.00000000000E+00  0.00000000000E+00  0.86834655045E+03  0.19086360944E+04  0.16996664406E+04 0.  0.
        3    1    3    3  502    0 -0.27072953116E+03 -0.70840244387E+03  0.86484666689E+03  0.11502557407E+04  0.10100000352E+00 0. -1.
       -3    1    3    3    0  502  0.27072953116E+03  0.70840244387E+03  0.34998835620E+01  0.75838035372E+03  0.10100000352E+00 0.  1.
</event>
<event>
 5   0  0.2098250E-05  0.1700985E+04  0.7818609E-02  0.8760803E-01
        3   -1    0    0  501    0  0.00000000000E+00  0.00000000000E+00  0.83599726473E+03  0.83599727083E+03  0.10100000352E+00 0.  1.
       -3   -1    0    0    0  501  0.00000000000E+00  0.00000000000E+00 -0.86523936109E+03  0.86523936699E+03  0.10100000352E+00 0. -1.
    10030    2    1    2    0    0  0.00000000000E+00  0.00000000000E+00 -0.29242096358E+02  0.17012366378E+04  0.17009853020E+04 0.  0.
        1    1    3    3  502    0 -0.31168014024E+03 -0.39535000739E+03 -0.70020873978E+03  0.86240270028E+03  0.50400001928E-02 0. -1.
       -1    1    3    3    0  502  0.31168014024E+03  0.39535000739E+03  0.67096664342E+03  0.83883393754E+03  0.50400001928E-02 0.  1.
</event>
<event>
 5   0  0.2993769E-05  0.1700069E+04  0.7818609E-02  0.8761325E-01
       -1   -1    0    0    0  501  0.00000000000E+00  0.00000000000E+00  0.61911782904E+03  0.61911782906E+03  0.50400001928E-02 0.  1.
        1   -1    0    0  501    0  0.00000000000E+00  0.00000000000E+00 -0.11670774076E+04  0.11670774076E+04  0.50400001928E-02 0. -1.
    10030    2    1    2    0    0  0.00000000000E+00  0.00000000000E+00 -0.54795957857E+03  0.17861952367E+04  0.17000687409E+04 0.  0.
        3    1    3    3  502    0 -0.49611845424E+03 -0.49368885768E+03 -0.78080370684E+03  0.10485783937E+04  0.10100000352E+00 0. -1.
       -3    1    3    3    0  502  0.49611845424E+03  0.49368885768E+03  0.23284412827E+03  0.73761684302E+03  0.10100000352E+00 0.  1.
</event>
<event>
 5   0  0.5821584E-05  0.1703293E+04  0.7818609E-02  0.8759489E-01
        2   -1    0    0  501    0  0.00000000000E+00  0.00000000000E+00  0.22518915336E+04  0.22518915336E+04  0.25500000920E-02 0.  1.
       -2   -1    0    0    0  501  0.00000000000E+00  0.00000000000E+00 -0.32208544754E+03  0.32208544755E+03  0.25500000920E-02 0. -1.
    10030    2    1    2    0    0  0.00000000000E+00  0.00000000000E+00  0.19298060861E+04  0.25739769812E+04  0.17032926847E+04 0.  0.
        1    1    3    3  502    0  0.81664526130E+03  0.16711058569E+03  0.70113417435E+03  0.10892311789E+04  0.50400001928E-02 0. -1.
       -1    1    3    3    0  502 -0.81664526130E+03 -0.16711058569E+03  0.12286719117E+04  0.14847458023E+04  0.50400001928E-02 0.  1.
</event>
<event>
 5   0  0.2967704E-05  0.1699491E+04  0.7818609E-02  0.8761655E-01
        1   -1    0    0  501    0  0.00000000000E+00  0.00000000000E+00  0.56444757212E+03  0.56444757215E+03  0.50400001928E-02 0.  1.
       -1   -1    0    0    0  501  0.00000000000E+00  0.00000000000E+00 -0.12792455872E+04  0.12792455872E+04  0.50400001928E-02 0. -1.
    10030    2    1    2    0    0  0.00000000000E+00  0.00000000000E+00 -0.71479801503E+03  0.18436931593E+04  0.16994905894E+04 0.  0.
        2    1    3    3  502    0  0.70618365703E+03  0.39708433896E+03 -0.63545897776E+03  0.10296501552E+04  0.25500000920E-02 0. -1.
       -2    1    3    3    0  502 -0.70618365703E+03 -0.39708433896E+03 -0.79339037276E+02  0.81404300411E+03  0.25500000920E-02 0.  1.
</event>
<event>
 5   0  0.2993769E-05  0.1700153E+04  0.7818609E-02  0.8761277E-01
       -1   -1    0    0    0  501  0.00000000000E+00  0.00000000000E+00  0.44003916193E+03  0.44003916196E+03  0.50400001928E-02 0.  1.
        1   -1    0    0  501    0  0.00000000000E+00  0.00000000000E+00 -0.16421954367E+04  0.16421954367E+04  0.50400001928E-02 0. -1.
    10030    2    1    2    0    0  0.00000000000E+00  0.00000000000E+00 -0.12021562748E+04  0.20822345987E+04  0.17001532916E+04 0.  0.
        3    1    3    3  502    0 -0.36319416670E+02 -0.94604413037E+02  0.43261517332E+03  0.44432532381E+03  0.10100000352E+00 0.  1.
       -3    1    3    3    0  502  0.36319416670E+02  0.94604413037E+02 -0.16347714481E+04  0.16379092749E+04  0.10100000352E+00 0. -1.
</event>
<event>
 5   0  0.2967704E-05  0.1699026E+04  0.7818609E-02  0.8761920E-01
        1   -1    0    0  501    0  0.00000000000E+00  0.00000000000E+00  0.10957076756E+04  0.10957076756E+04  0.50400001928E-02 0.  1.
       -1   -1    0    0    0  501  0.00000000000E+00  0.00000000000E+00 -0.65863593647E+03  0.65863593649E+03  0.50400001928E-02 0. -1.
    10030    2    1    2    0    0  0.00000000000E+00  0.00000000000E+00  0.43707173916E+03  0.17543436121E+04  0.16990261341E+04 0.  0.
        2    1    3    3  502    0  0.23111095313E+03  0.82262203061E+02  0.10583385620E+04  0.10863976503E+04  0.25500000920E-02 0.  1.
       -2    1    3    3    0  502 -0.23111095313E+03 -0.82262203061E+02 -0.62126682287E+03  0.66794596182E+03  0.25500000920E-02 0. -1.
</event>
<event>
 5   0  0.2993769E-05  0.1700734E+04  0.7818609E-02  0.8760946E-01
        1   -1    0    0  501    0  0.00000000000E+00  0.00000000000E+00  0.15419268072E+04  0.15419268072E+04  0.50400001928E-02 0. -1.
       -1   -1    0    0    0  501  0.00000000000E+00  0.00000000000E+00 -0.46897449676E+03  0.46897449679E+03  0.50400001928E-02 0.  1.
    10030    2    1    2    0    0  0.00000000000E+00  0.00000000000E+00  0.10729523104E+04  0.20109013040E+04  0.17007343690E+04 0.  0.
        3    1    3    3  502    0 -0.50384923925E+03  0.15351109655E+03 -0.25287993879E+03  0.58427560817E+03  0.10100000352E+00 0.  1.
       -3    1    3    3    0  502  0.50384923925E+03 -0.15351109655E+03  0.13258322492E+04  0.14266256958E+04  0.10100000352E+00 0. -1.
</event>
<event>
 5   0  0.5859822E-05  0.1698767E+04  0.7818609E-02  0.8762068E-01
       -2   -1    0    0    0  501  0.00000000000E+00  0.00000000000E+00  0.41047065850E+03  0.41047065851E+03  0.25500000920E-02 0. -1.
        2   -1    0    0  501    0  0.00000000000E+00  0.00000000000E+00 -0.17576211640E+04  0.17576211641E+04  0.25500000920E-02 0.  1.
    10030    2    1    2    0    0  0.00000000000E+00  0.00000000000E+00 -0.13471505055E+04  0.21680918226E+04  0.16987665132E+04 0.  0.
        5    1    3    3  502    0  0.65693955724E+03 -0.68146000687E+01  0.13498748325E+02  0.65713037279E+03  0.46999998093E+01 0. -1.
       -5    1    3    3    0  502 -0.65693955724E+03  0.68146000687E+01 -0.13606492539E+04  0.15109614498E+04  0.46999998093E+01 0.  1.
</event>
<event>
 5   0  0.5821584E-05  0.1701110E+04  0.7818609E-02  0.8760732E-01
        2   -1    0    0  501    0  0.00000000000E+00  0.00000000000E+00  0.69842778742E+03  0.69842778742E+03  0.25500000920E-02 0. -1.
       -2   -1    0    0    0  501  0.00000000000E+00  0.00000000000E+00 -0.10358171454E+04  0.10358171454E+04  0.25500000920E-02 0.  1.
    10030    2    1    2    0    0  0.00000000000E+00  0.00000000000E+00 -0.33738935795E+03  0.17342449328E+04  0.17011096108E+04 0.  0.
        1    1    3    3  502    0  0.76585295747E+03 -0.25629999136E+03  0.10338016334E+03  0.81419155991E+03  0.50400001928E-02 0. -1.
       -1    1    3    3    0  502 -0.76585295747E+03  0.25629999136E+03 -0.44076952129E+03  0.92005337288E+03  0.50400001928E-02 0.  1.
</event>
<event>
 5   0  0.2911632E-05  0.1700043E+04  0.7818609E-02  0.8761340E-01
        1   -1    0    0  501    0  0.00000000000E+00  0.00000000000E+00  0.76009517746E+03  0.76009517747E+03  0.50400001928E-02 0.  1.
       -1   -1    0    0    0  501  0.00000000000E+00  0.00000000000E+00 -0.95058645898E+03  0.95058645900E+03  0.50400001928E-02 0. -1.
    10030    2    1    2    0    0  0.00000000000E+00  0.00000000000E+00 -0.19049128152E+03  0.17106816365E+04  0.17000425680E+04 0.  0.
        1    1    3    3  502    0  0.62261011619E+03  0.11222241250E+03 -0.66651225932E+03  0.91895365416E+03  0.50400001928E-02 0. -1.
       -1    1    3    3    0  502 -0.62261011619E+03 -0.11222241250E+03  0.47602097779E+03  0.79172798231E+03  0.50400001928E-02 0.  1.
</event>
<event>
 5   0  0.5652631E-05  0.1698778E+04  0.7818609E-02  0.8762062E-01
        2   -1    0    0  501    0  0.00000000000E+00  0.00000000000E+00  0.92638437357E+03  0.92638437358E+03  0.25500000920E-02 0. -1.
       -2   -1    0    0    0  501  0.00000000000E+00  0.00000000000E+00 -0.77879308831E+03  0.77879308831E+03  0.25500000920E-02 0.  1.
    10030    2    1    2    0    0  0.00000000000E+00  0.00000000000E+00  0.14759128526E+03  0.17051774619E+04  0.16987780871E+04 0.  0.
        2    1    3    3  502    0 -0.70493502770E+02 -0.18839680604E+03  0.90213097923E+03  0.92428512601E+03  0.25500000920E-02 0. -1.
       -2    1    3    3    0  502  0.70493502770E+02  0.18839680604E+03 -0.75453969397E+03  0.78089233588E+03  0.25500000920E-02 0.  1.
</event>
<event>
 5   0  0.5859822E-05  0.1698730E+04  0.7818609E-02  0.8762089E-01
        2   -1    0    0  501    0  0.00000000000E+00  0.00000000000E+00  0.13282733372E+04  0.13282733372E+04  0.25500000920E-02 0.  1.
       -2   -1    0    0    0  501  0.00000000000E+00  0.00000000000E+00 -0.54312683261E+03  0.54312683262E+03  0.25500000920E-02 0. -1.
    10030    2    1    2    0    0  0.00000000000E+00  0.00000000000E+00  0.78514650458E+03  0.18714001698E+04  0.16987299850E+04 0.  0.
        5    1    3    3  502    0  0.22063820030E+03 -0.19146140160E+02 -0.51074407879E+03  0.55671302673E+03  0.46999998093E+01 0. -1.
       -5    1    3    3    0  502 -0.22063820030E+03  0.19146140160E+02  0.12958905834E+04  0.13146871431E+04  0.46999998093E+01 0.  1.
</event>
<event>
 5   0  0.2967704E-05  0.1699856E+04  0.7818609E-02  0.8761447E-01
       -1   -1    0    0    0  501  0.00000000000E+00  0.00000000000E+00  0.83576342262E+03  0.83576342264E+03  0.50400001928E-02 0.  1.
        1   -1    0    0  501    0  0.00000000000E+00  0.00000000000E+00 -0.86433217265E+03  0.86433217267E+03  0.50400001928E-02 0. -1.
    10030    2    1    2    0    0  0.00000000000E+00  0.00000000000E+00 -0.28568750031E+02  0.17000955953E+04  0.16998555408E+04 0.  0.
        2    1    3    3  502    0 -0.54341586807E+03  0.39817770579E+03 -0.53255725041E+03  0.85875695981E+03  0.25500000920E-02 0. -1.
       -2    1    3    3    0  502  0.54341586807E+03 -0.39817770579E+03  0.50398850038E+03  0.84133863550E+03  0.25500000920E-02 0.  1.
</event>
<event>
 5   0  0.5652631E-05  0.1699729E+04  0.7818609E-02  0.8761519E-01
        2   -1    0    0  501    0  0.00000000000E+00  0.00000000000E+00  0.12221326624E+04  0.12221326624E+04  0.25500000920E-02 0.  1.
       -2   -1    0    0    0  501  0.00000000000E+00  0.00000000000E+00 -0.59099146983E+03  0.59099146984E+03  0.25500000920E-02 0. -1.
    10030    2    1    2    0    0  0.00000000000E+00  0.00000000000E+00  0.63114119256E+03  0.18131241322E+04  0.16997293649E+04 0.  0.
        2    1    3    3  502    0 -0.67423757906E+03 -0.12709909759E+03  0.85054570821E+03  0.10927847434E+04  0.25500000920E-02 0.  1.
       -2    1    3    3    0  502  0.67423757906E+03  0.12709909759E+03 -0.21940451565E+03  0.72033938885E+03  0.25500000920E-02 0. -1.
</event>
<event>
 5   0  0.5671132E-05  0.1696470E+04  0.7818609E-02  0.8763380E-01
        2   -1    0    0  501    0  0.00000000000E+00  0.00000000000E+00  0.19814478448E+04  0.19814478448E+04  0.25500000920E-02 0. -1.
       -2   -1    0    0    0  501  0.00000000000E+00  0.00000000000E+00 -0.36311950590E+03  0.36311950591E+03  0.25500000920E-02 0.  1.
    10030    2    1    2    0    0  0.00000000000E+00  0.00000000000E+00  0.16183283389E+04  0.23445673507E+04  0.16964697019E+04 0.  0.
        3    1    3    3  502    0  0.54990433789E+03  0.20955514102E+03 -0.35111076888E+02  0.58952602646E+03  0.10100000352E+00 0.  1.
       -3    1    3    3    0  502 -0.54990433789E+03 -0.20955514102E+03  0.16534394158E+04  0.17550413243E+04  0.10100000352E+00 0. -1.
</event>
<event>
 5   0  0.2098250E-05  0.1697732E+04  0.7818609E-02  0.8762659E-01
        3   -1    0    0  501    0  0.00000000000E+00  0.00000000000E+00  0.90956226296E+03  0.90956226857E+03  0.10100000352E+00 0. -1.
       -3   -1    0    0    0  501  0.00000000000E+00  0.00000000000E+00 -0.79222042611E+03  0.79222043255E+03  0.10100000352E+00 0.  1.
    10030    2    1    2    0    0  0.00000000000E+00  0.00000000000E+00  0.11734183685E+03  0.17017827011E+04  0.16977323862E+04 0.  0.
        4    1    3    3  502    0  0.46531623146E+03  0.53491388337E+02 -0.65096697241E+03  0.80196018352E+03  0.12699999809E+01 0.  1.
       -4    1    3    3    0  502 -0.46531623146E+03 -0.53491388337E+02  0.76830880926E+03  0.89982251760E+03  0.12699999809E+01 0. -1.
</event>
<event>
 5   0  0.2987859E-05  0.1702797E+04  0.7818609E-02  0.8759771E-01
        1   -1    0    0  501    0  0.00000000000E+00  0.00000000000E+00  0.11371093475E+04  0.11371093475E+04  0.50400001928E-02 0. -1.
       -1   -1    0    0    0  501  0.00000000000E+00  0.00000000000E+00 -0.63747572895E+03  0.63747572897E+03  0.50400001928E-02 0.  1.
    10030    2    1    2    0    0  0.00000000000E+00  0.00000000000E+00  0.49963361858E+03  0.17745850765E+04  0.17027972401E+04 0.  0.
        5    1    3    3  502    0  0.57605558990E+03 -0.26897812452E+03 -0.34033244893E+03  0.72113628387E+03  0.46999998093E+01 0.  1.
       -5    1    3    3    0  502 -0.57605558990E+03  0.26897812452E+03  0.83996606751E+03  0.10534487926E+04  0.46999998093E+01 0. -1.
</event>
<event>
 5   0  0.5821584E-05  0.1702380E+04  0.7818609E-02  0.8760008E-01
        2   -1    0    0  501    0  0.00000000000E+00  0.00000000000E+00  0.10732750788E+04  0.10732750788E+04  0.25500000920E-02 0. -1.
       -2   -1    0    0    0  501  0.00000000000E+00  0.00000000000E+00 -0.67505903116E+03  0.67505903116E+03  0.25500000920E-02 0.  1.
    10030    2    1    2    0    0  0.00000000000E+00  0.00000000000E+00  0.39821604760E+03  0.17483341099E+04  0.17023795521E+04 0.  0.
        1    1    3    3  502    0 -0.12030929636E+02  0.17678134063E+03  0.10541248240E+04  0.10689132473E+04  0.50400001928E-02 0. -1.
       -1    1    3    3    0  502  0.12030929636E+02 -0.17678134063E+03 -0.65590877637E+03  0.67942086265E+03  0.50400001928E-02 0.  1.
</event>
<event>
 5   0  0.2966258E-05  0.1718997E+04  0.7818609E-02  0.8750603E-01
        1   -1    0    0  501    0  0.00000000000E+00  0.00000000000E+00  0.17448827467E+04  0.17448827467E+04  0.50400001928E-02 0.  1.
       -1   -1    0    0    0  501  0.00000000000E+00  0.00000000000E+00 -0.42337368588E+03  0.42337368591E+03  0.50400001928E-02 0. -1.
    10030    2    1    2    0    0  0.00000000000E+00  0.00000000000E+00  0.13215090608E+04  0.21682564326E+04  0.17189967306E+04 0.  0.
        4    1    3    3  502    0  0.23911240774E+03  0.34583619559E+03 -0.28480239553E+03  0.50783012427E+03  0.12699999809E+01 0. -1.
       -4    1    3    3    0  502 -0.23911240774E+03 -0.34583619559E+03  0.16063114564E+04  0.16604263083E+04  0.12699999809E+01 0.  1.
</event>
<event>
 5   0  0.2967704E-05  0.1706230E+04  0.7818609E-02  0.8757819E-01
        1   -1    0    0  501    0  0.00000000000E+00  0.00000000000E+00  0.22734529795E+04  0.22734529795E+04  0.50400001928E-02 0.  1.
       -1   -1    0    0    0  501  0.00000000000E+00  0.00000000000E+00 -0.32013222125E+03  0.32013222128E+03  0.50400001928E-02 0. -1.
    10030    2    1    2    0    0  0.00000000000E+00  0.00000000000E+00  0.19533207582E+04  0.25935852008E+04  0.17062304091E+04 0.  0.
        2    1    3    3  502    0  0.53332469082E+03 -0.63338767146E+03  0.12888867499E+04  0.15319413247E+04  0.25500000920E-02 0.  1.
       -2    1    3    3    0  502 -0.53332469082E+03  0.63338767146E+03  0.66443400832E+03  0.10616438761E+04  0.25500000920E-02 0. -1.
</event>
<event>
 5   0  0.5755321E-05  0.1697609E+04  0.7818609E-02  0.8762729E-01
       -2   -1    0    0    0  501  0.00000000000E+00  0.00000000000E+00  0.32550842297E+03  0.32550842298E+03  0.25500000920E-02 0. -1.
        2   -1    0    0  501    0  0.00000000000E+00  0.00000000000E+00 -0.22133654744E+04  0.22133654744E+04  0.25500000920E-02 0.  1.
    10030    2    1    2    0    0  0.00000000000E+00  0.00000000000E+00 -0.18878570514E+04  0.25388738974E+04  0.16976090304E+04 0.  0.
        4    1    3    3  502    0 -0.34438573850E+03  0.28131075492E+03 -0.20252186975E+04  0.20734632052E+04  0.12699999809E+01 0.  1.
       -4    1    3    3    0  502  0.34438573850E+03 -0.28131075492E+03  0.13736164605E+03  0.46541069221E+03  0.12699999809E+01 0. -1.
</event>
<event>
 5   0  0.5652631E-05  0.1701491E+04  0.7818609E-02  0.8760515E-01
       -2   -1    0    0    0  501  0.00000000000E+00  0.00000000000E+00  0.10662610388E+04  0.10662610388E+04  0.25500000920E-02 0.  1.
        2   -1    0    0  501    0  0.00000000000E+00  0.00000000000E+00 -0.67879025002E+03  0.67879025002E+03  0.25500000920E-02 0. -1.
    10030    2    1    2    0    0  0.00000000000E+00  0.00000000000E+00  0.38747078874E+03  0.17450512888E+04  0.17014906372E+04 0.  0.
        2    1    3    3  502    0  0.61807406078E+03  0.58449410652E+03  0.20490889376E+03  0.87500660564E+03  0.25500000920E-02 0.  1.
       -2    1    3    3    0  502 -0.61807406078E+03 -0.58449410652E+03  0.18256189498E+03  0.87004468315E+03  0.25500000920E-02 0. -1.
</event>
<event>
 5   0  0.5671132E-05  0.1706904E+04  0.7818609E-02  0.8757436E-01
        2   -1    0    0  501    0  0.00000000000E+00  0.00000000000E+00  0.87686862597E+03  0.87686862598E+03  0.25500000920E-02 0.  1.
       -2   -1    0    0    0  501  0.00000000000E+00  0.00000000000E+00 -0.83066116857E+03  0.83066116858E+03  0.25500000920E-02 0. -1.
    10030    2    1    2    0    0  0.00000000000E+00  0.00000000000E+00  0.46207457401E+02  0.17075297946E+04  0.17069044701E+04 0.  0.
        3    1    3    3  502    0  0.51197011692E+03 -0.64644516942E+03  0.24312963901E+03  0.85971901761E+03  0.10100000352E+00 0.  1.
       -3    1    3    3    0  502 -0.51197011692E+03  0.64644516942E+03 -0.19692218161E+03  0.84781077694E+03  0.10100000352E+00 0. -1.
</event>
<event>
 5   0  0.2098250E-05  0.1699640E+04  0.7818609E-02  0.8761570E-01
       -4   -1    0    0    0  501  0.00000000000E+00  0.00000000000E+00  0.50298666784E+03  0.50298827116E+03  0.12699999809E+01 0. -1.
        4   -1    0    0  501    0  0.00000000000E+00  0.00000000000E+00 -0.14358064770E+04  0.14358070387E+04  0.12699999809E+01 0.  1.
    10030    2    1    2    0    0  0.00000000000E+00  0.00000000000E+00 -0.93281980914E+03  0.19387953098E+04  0.16996395080E+04 0.  0.
        5    1    3    3  502    0  0.19419942907E+03 -0.81139377670E+03 -0.28212880465E+03  0.88073380288E+03  0.46999998093E+01 0. -1.
       -5    1    3    3    0  502 -0.19419942907E+03  0.81139377670E+03 -0.65069100449E+03  0.10580615069E+04  0.46999998093E+01 0.  1.
</event>
<event>
 5   0  0.5755321E-05  0.1699453E+04  0.7818609E-02  0.8761677E-01
        2   -1    0    0  501    0  0.00000000000E+00  0.00000000000E+00  0.22709795042E+04  0.22709795042E+04  0.25500000920E-02 0.  1.
       -2   -1    0    0    0  501  0.00000000000E+00  0.00000000000E+00 -0.31793982846E+03  0.31793982847E+03  0.25500000920E-02 0. -1.
    10030    2    1    2    0    0  0.00000000000E+00  0.00000000000E+00  0.19530396757E+04  0.25889193326E+04  0.16994526578E+04 0.  0.
        4    1    3    3  502    0 -0.36918374896E+03  0.72252422285E+03  0.13609905277E+04  0.15844982558E+04  0.12699999809E+01 0.  1.
       -4    1    3    3    0  502  0.36918374896E+03 -0.72252422285E+03  0.59204914795E+03  0.10044210768E+04  0.12699999809E+01 0. -1.
</event>
<event>
 5   0  0.5671132E-05  0.1693853E+04  0.7818609E-02  0.8764878E-01
       -2   -1    0    0    0  501  0.00000000000E+00  0.00000000000E+00  0.47696015852E+03  0.47696015852E+03  0.25500000920E-02 0. -1.
        2   -1    0    0  501    0  0.00000000000E+00  0.00000000000E+00 -0.15038664998E+04  0.15038664998E+04  0.25500000920E-02 0.  1.
    10030    2    1    2    0    0  0.00000000000E+00  0.00000000000E+00 -0.10269063413E+04  0.19808266583E+04  0.16938528911E+04 0.  0.
        3    1    3    3  502    0  0.57072669239E+02 -0.78405120286E+03 -0.14496349723E+03  0.79937976207E+03  0.10100000352E+00 0. -1.
       -3    1    3    3    0  502 -0.57072669239E+02  0.78405120286E+03 -0.88194284404E+03  0.11814468962E+04  0.10100000352E+00 0.  1.
</event>
<event>
 5   0  0.2993769E-05  0.1717337E+04  0.7818609E-02  0.8751538E-01
        1   -1    0    0  501    0  0.00000000000E+00  0.00000000000E+00  0.11642156204E+04  0.11642156204E+04  0.50400001928E-02 0. -1.
       -1   -1    0    0    0  501  0.00000000000E+00  0.00000000000E+00 -0.63331220222E+03  0.63331220224E+03  0.50400001928E-02 0.  1.
    10030    2    1    2    0    0  0.00000000000E+00  0.00000000000E+00  0.53090341820E+03  0.17975278227E+04  0.17173374257E+04 0.  0.
        3    1    3    3  502    0 -0.69584512120E+03 -0.37263741682E+03 -0.88344803723E+02  0.79426940748E+03  0.10100000352E+00 0.  1.
       -3    1    3    3    0  502  0.69584512120E+03  0.37263741682E+03  0.61924822193E+03  0.10032584152E+04  0.10100000352E+00 0. -1.
</event>
<event>
 5   0  0.5671132E-05  0.1696038E+04  0.7818609E-02  0.8763627E-01
        2   -1    0    0  501    0  0.00000000000E+00  0.00000000000E+00  0.77685814850E+03  0.77685814851E+03  0.25500000920E-02 0.  1.
       -2   -1    0    0    0  501  0.00000000000E+00  0.00000000000E+00 -0.92569784072E+03  0.92569784073E+03  0.25500000920E-02 0. -1.
    10030    2    1    2    0    0  0.00000000000E+00  0.00000000000E+00 -0.14883969222E+03  0.17025559892E+04  0.16960376300E+04 0.  0.
        3    1    3    3  502    0  0.10845486952E+03  0.26737677655E+03 -0.87490735755E+03  0.92125766964E+03  0.10100000352E+00 0. -1.
       -3    1    3    3    0  502 -0.10845486952E+03 -0.26737677655E+03  0.72606766533E+03  0.78129831960E+03  0.10100000352E+00 0.  1.
</event>
<event>
 5   0  0.2967704E-05  0.1698799E+04  0.7818609E-02  0.8762050E-01
       -1   -1    0    0    0  501  0.00000000000E+00  0.00000000000E+00  0.79803783935E+03  0.79803783936E+03  0.50400001928E-02 0. -1.
        1   -1    0    0  501    0  0.00000000000E+00  0.00000000000E+00 -0.90406672308E+03  0.90406672310E+03  0.50400001928E-02 0.  1.
    10030    2    1    2    0    0  0.00000000000E+00  0.00000000000E+00 -0.10602888374E+03  0.17021045625E+04  0.16987989338E+04 0.  0.
        2    1    3    3  502    0 -0.31005221157E+03 -0.70833639787E+03  0.29924702188E+03  0.82910892322E+03  0.25500000920E-02 0. -1.
       -2    1    3    3    0  502  0.31005221157E+03  0.70833639787E+03 -0.40527590562E+03  0.87299563924E+03  0.25500000920E-02 0.  1.
</event>
<event>
 5   0  0.2911632E-05  0.1699308E+04  0.7818609E-02  0.8761759E-01
       -1   -1    0    0    0  501  0.00000000000E+00  0.00000000000E+00  0.70827985387E+03  0.70827985389E+03  0.50400001928E-02 0.  1.
        1   -1    0    0  501    0  0.00000000000E+00  0.00000000000E+00 -0.10192472140E+04  0.10192472140E+04  0.50400001928E-02 0. -1.
    10030    2    1    2    0    0  0.00000000000E+00  0.00000000000E+00 -0.31096736011E+03  0.17275270679E+04  0.16993084097E+04 0.  0.
        1    1    3    3  502    0 -0.11530629895E+03  0.27810819752E+03  0.65223682593E+03  0.71836800404E+03  0.50400001928E-02 0.  1.
       -1    1    3    3    0  502  0.11530629895E+03 -0.27810819752E+03 -0.96320418603E+03  0.10091590638E+04  0.50400001928E-02 0. -1.
</event>
<event>
 5   0  0.5755321E-05  0.1696748E+04  0.7818609E-02  0.8763221E-01
       -2   -1    0    0    0  501  0.00000000000E+00  0.00000000000E+00  0.12372590314E+04  0.12372590315E+04  0.25500000920E-02 0.  1.
        2   -1    0    0  501    0  0.00000000000E+00  0.00000000000E+00 -0.58172005457E+03  0.58172005457E+03  0.25500000920E-02 0. -1.
    10030    2    1    2    0    0  0.00000000000E+00  0.00000000000E+00  0.65553897688E+03  0.18189790860E+04  0.16967479380E+04 0.  0.
        4    1    3    3  502    0 -0.12031071841E+03  0.43301019759E+03 -0.44362479781E+03  0.63148798430E+03  0.12699999809E+01 0. -1.
       -4    1    3    3    0  502  0.12031071841E+03 -0.43301019759E+03  0.10991637747E+04  0.11874911017E+04  0.12699999809E+01 0.  1.
</event>
<event>
 5   0  0.5755321E-05  0.1697853E+04  0.7818609E-02  0.8762590E-01
       -2   -1    0    0    0  501  0.00000000000E+00  0.00000000000E+00  0.77001682732E+03  0.77001682732E+03  0.25500000920E-02 0. -1.
        2   -1    0    0  501    0  0.00000000000E+00  0.00000000000E+00 -0.93592215964E+03  0.93592215964E+03  0.25500000920E-02 0.  1.
    10030    2    1    2    0    0  0.00000000000E+00  0.00000000000E+00 -0.16590533232E+03  0.17059389870E+04  0.16978525401E+04 0.  0.
        4    1    3    3  502    0 -0.39855859992E+03 -0.23988191426E+03  0.63055758946E+03  0.78357946431E+03  0.12699999809E+01 0. -1.
       -4    1    3    3    0  502  0.39855859992E+03  0.23988191426E+03 -0.79646292178E+03  0.92235952265E+03  0.12699999809E+01 0.  1.
</event>
<event>
 5   0  0.5755321E-05  0.1694139E+04  0.7818609E-02  0.8764714E-01
       -2   -1    0    0    0  501  0.00000000000E+00  0.00000000000E+00  0.87272011704E+03  0.87272011705E+03  0.25500000920E-02 0. -1.
        2   -1    0    0  501    0  0.00000000000E+00  0.00000000000E+00 -0.82217244887E+03  0.82217244887E+03  0.25500000920E-02 0.  1.
    10030    2    1    2    0    0  0.00000000000E+00  0.00000000000E+00  0.50547668175E+02  0.16948925659E+04  0.16941386435E+04 0.  0.
        4    1    3    3  502    0  0.69892340840E+02  0.72597082011E+03  0.45628599751E+03  0.86030058432E+03  0.12699999809E+01 0. -1.
       -4    1    3    3    0  502 -0.69892340840E+02 -0.72597082011E+03 -0.40573832934E+03  0.83459198160E+03  0.12699999809E+01 0.  1.
</event>
<event>
 5   0  0.2911632E-05  0.1701413E+04  0.7818609E-02  0.8760559E-01
        1   -1    0    0  501    0  0.00000000000E+00  0.00000000000E+00  0.11436450717E+04  0.11436450717E+04  0.50400001928E-02 0. -1.
       -1   -1    0    0    0  501  0.00000000000E+00  0.00000000000E+00 -0.63280275287E+03  0.63280275289E+03  0.50400001928E-02 0.  1.
    10030    2    1    2    0    0  0.00000000000E+00  0.00000000000E+00  0.51084231884E+03  0.17764478246E+04  0.17014132358E+04 0.  0.
        1    1    3    3  502    0  0.32030807903E+03  0.14854789716E+03 -0.55268764458E+03  0.65584096833E+03  0.50400001928E-02 0.  1.
       -1    1    3    3    0  502 -0.32030807903E+03 -0.14854789716E+03  0.10635299634E+04  0.11206068563E+04  0.50400001928E-02 0. -1.
</event>
<event>
 5   0  0.5671132E-05  0.1701256E+04  0.7818609E-02  0.8760648E-01
       -2   -1    0    0    0  501  0.00000000000E+00  0.00000000000E+00  0.11994432521E+04  0.11994432521E+04  0.25500000920E-02 0.  1.
        2   -1    0    0  501    0  0.00000000000E+00  0.00000000000E+00 -0.60325322480E+03  0.60325322480E+03  0.25500000920E-02 0. -1.
    10030    2    1    2    0    0  0.00000000000E+00  0.00000000000E+00  0.59619002734E+03  0.18026964769E+04  0.17012560181E+04 0.  0.
        3    1    3    3  502    0 -0.10494307386E+03 -0.68318492399E+02 -0.59343315118E+03  0.60650093180E+03  0.10100000352E+00 0. -1.
       -3    1    3    3    0  502  0.10494307386E+03  0.68318492399E+02  0.11896231785E+04  0.11961955451E+04  0.10100000352E+00 0.  1.
</event>
<event>
 5   0  0.5821584E-05  0.1700023E+04  0.7818609E-02  0.8761351E-01
        2   -1    0    0  501    0  0.00000000000E+00  0.00000000000E+00  0.24556290977E+03  0.24556290978E+03  0.25500000920E-02 0. -1.
       -2   -1    0    0    0  501  0.00000000000E+00  0.00000000000E+00 -0.29422981838E+04  0.29422981838E+04  0.25500000920E-02 0.  1.
    10030    2    1    2    0    0  0.00000000000E+00  0.00000000000E+00 -0.26967352741E+04  0.31878610936E+04  0.17000227098E+04 0.  0.
        1    1    3    3  502    0  0.10167682967E+03 -0.81760650395E+03 -0.95636497666E+03  0.12623203007E+04  0.50400001928E-02 0. -1.
       -1    1    3    3    0  502 -0.10167682967E+03  0.81760650395E+03 -0.17403702974E+04  0.19255407929E+04  0.50400001928E-02 0.  1.
</event>
<event>
 5   0  0.2967704E-05  0.1698489E+04  0.7818609E-02  0.8762227E-01
        1   -1    0    0  501    0  0.00000000000E+00  0.00000000000E+00  0.12657541623E+04  0.12657541623E+04  0.50400001928E-02 0. -1.
       -1   -1    0    0    0  501  0.00000000000E+00  0.00000000000E+00 -0.56979148989E+03  0.56979148991E+03  0.50400001928E-02 0.  1.
    10030    2    1    2    0    0  0.00000000000E+00  0.00000000000E+00  0.69596267240E+03  0.18355456522E+04  0.16984886811E+04 0.  0.
        2    1    3    3  502    0  0.60449436855E+03 -0.38672553240E+03 -0.14280805294E+03  0.73168587455E+03  0.25500000920E-02 0.  1.
       -2    1    3    3    0  502 -0.60449436855E+03  0.38672553240E+03  0.83877072535E+03  0.11038597777E+04  0.25500000920E-02 0. -1.
</event>
<event>
 5   0  0.2911632E-05  0.1700026E+04  0.7818609E-02  0.8761350E-01
       -1   -1    0    0    0  501  0.00000000000E+00  0.00000000000E+00  0.64298033679E+03  0.64298033681E+03  0.50400001928E-02 0. -1.
        1   -1    0    0  501    0  0.00000000000E+00  0.00000000000E+00 -0.11237079538E+04  0.11237079538E+04  0.50400001928E-02 0.  1.
    10030    2    1    2    0    0  0.00000000000E+00  0.00000000000E+00 -0.48072761701E+03  0.17666882906E+04  0.17000260217E+04 0.  0.
        1    1    3    3  502    0 -0.60496830107E+03  0.39043151619E+03  0.22912417993E+03  0.75559334564E+03  0.50400001928E-02 0. -1.
       -1    1    3    3    0  502  0.60496830107E+03 -0.39043151619E+03 -0.70985179694E+03  0.10110949450E+04  0.50400001928E-02 0.  1.
</event>
<event>
 5   0  0.2967704E-05  0.1702061E+04  0.7818609E-02  0.8760190E-01
        1   -1    0    0  501    0  0.00000000000E+00  0.00000000000E+00  0.89036323996E+03  0.89036323997E+03  0.50400001928E-02 0. -1.
       -1   -1    0    0    0  501  0.00000000000E+00  0.00000000000E+00 -0.81343528109E+03  0.81343528111E+03  0.50400001928E-02 0.  1.
    10030    2    1    2    0    0  0.00000000000E+00  0.00000000000E+00  0.76927958866E+02  0.17037985211E+04  0.17020609535E+04 0.  0.
        2    1    3    3  502    0  0.73213318120E+03 -0.96980667546E+02 -0.38484906334E+03  0.83278631500E+03  0.25500000920E-02 0.  1.
       -2    1    3    3    0  502 -0.73213318120E+03  0.96980667546E+02  0.46177702220E+03  0.87101220608E+03  0.25500000920E-02 0. -1.
</event>
<event>
 5   0  0.5671132E-05  0.1701023E+04  0.7818609E-02  0.8760781E-01
        2   -1    0    0  501    0  0.00000000000E+00  0.00000000000E+00  0.10853656544E+04  0.10853656544E+04  0.25500000920E-02 0. -1.
       -2   -1    0    0    0  501  0.00000000000E+00  0.00000000000E+00 -0.66647546978E+03  0.66647546979E+03  0.25500000920E-02 0.  1.
    10030    2    1    2    0    0  0.00000000000E+00  0.00000000000E+00  0.41889018460E+03  0.17518411242E+04  0.17010227328E+04 0.  0.
        3    1    3    3  502    0  0.78619498232E+03 -0.15612233872E+03  0.50235876155E+03  0.94596039578E+03  0.10100000352E+00 0.  1.
       -3    1    3    3    0  502 -0.78619498232E+03  0.15612233872E+03 -0.83468576946E+02  0.80588072840E+03  0.10100000352E+00 0. -1.
</event>
<event>
 5   0  0.2967704E-05  0.1699123E+04  0.7818609E-02  0.8761865E-01
       -1   -1    0    0    0  501  0.00000000000E+00  0.00000000000E+00  0.21863160793E+04  0.21863160793E+04  0.50400001928E-02 0. -1.
        1   -1    0    0  501    0  0.00000000000E+00  0.00000000000E+00 -0.33012381741E+03  0.33012381745E+03  0.50400001928E-02 0.  1.
    10030    2    1    2    0    0  0.00000000000E+00  0.00000000000E+00  0.18561922619E+04  0.25164398968E+04  0.16991233154E+04 0.  0.
        2    1    3    3  502    0 -0.76841550313E+03  0.36229902642E+03  0.93647932301E+03  0.12644036114E+04  0.25500000920E-02 0.  1.
       -2    1    3    3    0  502  0.76841550313E+03 -0.36229902642E+03  0.91971293888E+03  0.12520362854E+04  0.25500000920E-02 0. -1.
</event>
<event>
 5   0  0.5652631E-05  0.1703448E+04  0.7818609E-02  0.8759400E-01
        2   -1    0    0  501    0  0.00000000000E+00  0.00000000000E+00  0.10418937208E+04  0.10418937208E+04  0.25500000920E-02 0. -1.
       -2   -1    0    0    0  501  0.00000000000E+00  0.00000000000E+00 -0.69626463389E+03  0.69626463389E+03  0.25500000920E-02 0.  1.
    10030    2    1    2    0    0  0.00000000000E+00  0.00000000000E+00  0.34562908687E+03  0.17381583547E+04  0.17034479740E+04 0.  0.
        2    1    3    3  502    0  0.44474716471E+03 -0.53179728958E+03  0.67769511666E+03  0.96947360401E+03  0.25500000920E-02 0. -1.
       -2    1    3    3    0  502 -0.44474716471E+03  0.53179728958E+03 -0.33206602979E+03  0.76868475064E+03  0.25500000920E-02 0.  1.
</event>
<event>
 5   0  0.2993769E-05  0.1696623E+04  0.7818609E-02  0.8763293E-01
        1   -1    0    0  501    0  0.00000000000E+00  0.00000000000E+00  0.52927067114E+03  0.52927067116E+03  0.50400001928E-02 0.  1.
       -1   -1    0    0    0  501  0.00000000000E+00  0.00000000000E+00 -0.13596675957E+04  0.13596675957E+04  0.50400001928E-02 0. -1.
    10030    2    1    2    0    0  0.00000000000E+00  0.00000000000E+00 -0.83039692454E+03  0.18889382668E+04  0.16966227405E+04 0.  0.
        3    1    3    3  502    0 -0.10546962224E+03 -0.24060839561E+03 -0.13132366963E+04  0.13392560890E+04  0.10100000352E+00 0. -1.
       -3    1    3    3    0  502  0.10546962224E+03  0.24060839561E+03  0.48283977175E+03  0.54968217784E+03  0.10100000352E+00 0.  1.
</event>
<event>
 5   0  0.2911632E-05  0.1702056E+04  0.7818609E-02  0.8760192E-01
       -1   -1    0    0    0  501  0.00000000000E+00  0.00000000000E+00  0.44126995590E+03  0.44126995593E+03  0.50400001928E-02 0. -1.
        1   -1    0    0  501    0  0.00000000000E+00  0.00000000000E+00 -0.16412834286E+04  0.16412834286E+04  0.50400001928E-02 0.  1.
    10030    2    1    2    0    0  0.00000000000E+00  0.00000000000E+00 -0.12000134727E+04  0.20825533845E+04  0.17020564811E+04 0.  0.
        1    1    3    3  502    0 -0.20483975344E+03  0.71866061215E+02  0.40682431994E+03  0.46111829574E+03  0.50400001928E-02 0. -1.
       -1    1    3    3    0  502  0.20483975344E+03 -0.71866061215E+02 -0.16068377926E+04  0.16214350888E+04  0.50400001928E-02 0.  1.
</event>
<event>
 5   0  0.5755321E-05  0.1700368E+04  0.7818609E-02  0.8761155E-01
       -2   -1    0    0    0  501  0.00000000000E+00  0.00000000000E+00  0.76010893256E+03  0.76010893257E+03  0.25500000920E-02 0.  1.
        2   -1    0    0  501    0  0.00000000000E+00  0.00000000000E+00 -0.95093286231E+03  0.95093286232E+03  0.25500000920E-02 0. -1.
    10030    2    1    2    0    0  0.00000000000E+00  0.00000000000E+00 -0.19082392975E+03  0.17110417949E+04  0.17003676813E+04 0.  0.
        4    1    3    3  502    0 -0.49192718175E+03  0.44841658627E+02  0.60089124174E+03  0.77786568494E+03  0.12699999809E+01 0.  1.
       -4    1    3    3    0  502  0.49192718175E+03 -0.44841658627E+02 -0.79171517150E+03  0.93317610995E+03  0.12699999809E+01 0. -1.
</event>
<event>
 5   0  0.5859822E-05  0.1701236E+04  0.7818609E-02  0.8760659E-01
        2   -1    0    0  501    0  0.00000000000E+00  0.00000000000E+00  0.16185360767E+04  0.16185360767E+04  0.25500000920E-02 0.  1.
       -2   -1    0    0    0  501  0.00000000000E+00  0.00000000000E+00 -0.44704062165E+03  0.44704062166E+03  0.25500000920E-02 0. -1.
    10030    2    1    2    0    0  0.00000000000E+00  0.00000000000E+00  0.11714954551E+04  0.20655766984E+04  0.17012364608E+04 0.  0.
        5    1    3    3  502    0  0.32858788736E+03  0.74571515393E+03  0.88183450713E+03  0.12007144867E+04  0.46999998093E+01 0. -1.
       -5    1    3    3    0  502 -0.32858788736E+03 -0.74571515393E+03  0.28966094796E+03  0.86486221174E+03  0.46999998093E+01 0.  1.
</event>
<event>
 5   0  0.2967704E-05  0.1691396E+04  0.7818609E-02  0.8766287E-01
        1   -1    0    0  501    0  0.00000000000E+00  0.00000000000E+00  0.29085320364E+03  0.29085320369E+03  0.50400001928E-02 0.  1.
       -1   -1    0    0    0  501  0.00000000000E+00  0.00000000000E+00 -0.24589888226E+04  0.24589888226E+04  0.50400001928E-02 0. -1.
    10030    2    1    2    0    0  0.00000000000E+00  0.00000000000E+00 -0.21681356189E+04  0.27498420263E+04  0.16913956093E+04 0.  0.
        2    1    3    3  502    0 -0.79615307995E+02 -0.78474632945E+03 -0.58816571188E+03  0.98392291542E+03  0.25500000920E-02 0. -1.
       -2    1    3    3    0  502  0.79615307995E+02  0.78474632945E+03 -0.15799699071E+04  0.17659191109E+04  0.25500000920E-02 0.  1.
</event>
<event>
 5   0  0.2967704E-05  0.1699718E+04  0.7818609E-02  0.8761525E-01
       -1   -1    0    0    0  501  0.00000000000E+00  0.00000000000E+00  0.97505744138E+03  0.97505744139E+03  0.50400001928E-02 0.  1.
        1   -1    0    0  501    0  0.00000000000E+00  0.00000000000E+00 -0.74073605207E+03  0.74073605209E+03  0.50400001928E-02 0. -1.
    10030    2    1    2    0    0  0.00000000000E+00  0.00000000000E+00  0.23432138931E+03  0.17157934935E+04  0.16997178586E+04 0.  0.
        2    1    3    3  502    0 -0.32993880758E+03  0.46858815561E+03  0.75065135851E+03  0.94441089487E+03  0.25500000920E-02 0.  1.
       -2    1    3    3    0  502  0.32993880758E+03 -0.46858815561E+03 -0.51632996920E+03  0.77138259860E+03  0.25500000920E-02 0. -1.
</event>
<event>
 5   0  0.2911632E-05  0.1699151E+04  0.7818609E-02  0.8761849E-01
        1   -1    0    0  501    0  0.00000000000E+00  0.00000000000E+00  0.12114016425E+04  0.12114016425E+04  0.50400001928E-02 0.  1.
       -1   -1    0    0    0  501  0.00000000000E+00  0.00000000000E+00 -0.59582074853E+03  0.59582074855E+03  0.50400001928E-02 0. -1.
    10030    2    1    2    0    0  0.00000000000E+00  0.00000000000E+00  0.61558089401E+03  0.18072223911E+04  0.16991506507E+04 0.  0.
        1    1    3    3  502    0 -0.53793313443E+03 -0.60170638893E+03  0.25673586974E+02  0.80751580089E+03  0.50400001928E-02 0.  1.
       -1    1    3    3    0  502  0.53793313443E+03  0.60170638893E+03  0.58990730704E+03  0.99970659021E+03  0.50400001928E-02 0. -1.
</event>
<event>
 5   0  0.2987859E-05  0.1704780E+04  0.7818609E-02  0.8758643E-01
       -1   -1    0    0    0  501  0.00000000000E+00  0.00000000000E+00  0.42993082687E+03  0.42993082690E+03  0.50400001928E-02 0.  1.
        1   -1    0    0  501    0  0.00000000000E+00  0.00000000000E+00 -0.16899656183E+04  0.16899656183E+04  0.50400001928E-02 0. -1.
    10030    2    1    2    0    0  0.00000000000E+00  0.00000000000E+00 -0.12600347914E+04  0.21198964452E+04  0.17047795350E+04 0.  0.
        5    1    3    3  502    0  0.38780806244E+03 -0.33834442835E+03  0.21489993183E+03  0.55774197994E+03  0.46999998093E+01 0.  1.
       -5    1    3    3    0  502 -0.38780806244E+03  0.33834442835E+03 -0.14749347233E+04  0.15621544653E+04  0.46999998093E+01 0. -1.
</event>
<event>
 5   0  0.2993769E-05  0.1701249E+04  0.7818609E-02  0.8760652E-01
       -1   -1    0    0    0  501  0.00000000000E+00  0.00000000000E+00  0.12545802498E+04  0.12545802498E+04  0.50400001928E-02 0. -1.
        1   -1    0    0  501    0  0.00000000000E+00  0.00000000000E+00 -0.57673618801E+03  0.57673618804E+03  0.50400001928E-02 0.  1.
    10030    2    1    2    0    0  0.00000000000E+00  0.00000000000E+00  0.67784406175E+03  0.18313164378E+04  0.17012487541E+04 0.  0.
        3    1    3    3  502    0 -0.47253209656E+03  0.20213542911E+03 -0.39070156587E+03  0.64559510357E+03  0.10100000352E+00 0.  1.
       -3    1    3    3    0  502  0.47253209656E+03 -0.20213542911E+03  0.10685456276E+04  0.11857213342E+04  0.10100000352E+00 0. -1.
</event>
<event>
 5   0  0.5821584E-05  0.1700537E+04  0.7818609E-02  0.8761058E-01
        2   -1    0    0  501    0  0.00000000000E+00  0.00000000000E+00  0.10054289676E+04  0.10054289676E+04  0.25500000920E-02 0. -1.
       -2   -1    0    0    0  501  0.00000000000E+00  0.00000000000E+00 -0.71905270040E+03  0.71905270040E+03  0.25500000920E-02 0.  1.
    10030    2    1    2    0    0  0.00000000000E+00  0.00000000000E+00  0.28637626716E+03  0.17244816680E+04  0.17005368731E+04 0.  0.
        1    1    3    3  502    0 -0.51324045337E+03  0.66726281825E+03  0.26445871713E+03  0.88237964884E+03  0.50400001928E-02 0.  1.
       -1    1    3    3    0  502  0.51324045337E+03 -0.66726281825E+03  0.21917550033E+02  0.84210201912E+03  0.50400001928E-02 0. -1.
</event>
<event>
 5   0  0.2987859E-05  0.1699682E+04  0.7818609E-02  0.8761546E-01
       -1   -1    0    0    0  501  0.00000000000E+00  0.00000000000E+00  0.46648097060E+03  0.46648097063E+03  0.50400001928E-02 0.  1.
        1   -1    0    0  501    0  0.00000000000E+00  0.00000000000E+00 -0.15482518380E+04  0.15482518380E+04  0.50400001928E-02 0. -1.
    10030    2    1    2    0    0  0.00000000000E+00  0.00000000000E+00 -0.10817708674E+04  0.20147328086E+04  0.16996823470E+04 0.  0.
        5    1    3    3  502    0  0.78233765655E+03  0.13249257052E+03 -0.18017511589E+03  0.81369014526E+03  0.46999998093E+01 0.  1.
       -5    1    3    3    0  502 -0.78233765655E+03 -0.13249257052E+03 -0.90159575146E+03  0.12010426633E+04  0.46999998093E+01 0. -1.
</event>
<event>
 5   0  0.2911632E-05  0.1699009E+04  0.7818609E-02  0.8761930E-01
        1   -1    0    0  501    0  0.00000000000E+00  0.00000000000E+00  0.10897069353E+04  0.10897069354E+04  0.50400001928E-02 0. -1.
       -1   -1    0    0    0  501  0.00000000000E+00  0.00000000000E+00 -0.66224925504E+03  0.66224925506E+03  0.50400001928E-02 0.  1.
    10030    2    1    2    0    0  0.00000000000E+00  0.00000000000E+00  0.42745768030E+03  0.17519561904E+04  0.16990086594E+04 0.  0.
        1    1    3    3  502    0 -0.58068854190E+03  0.21676190777E+03  0.81275663198E+03  0.10221341645E+04  0.50400001928E-02 0. -1.
       -1    1    3    3    0  502  0.58068854190E+03 -0.21676190777E+03 -0.38529895168E+03  0.72982202593E+03  0.50400001928E-02 0.  1.
</event>
<event>
 5   0  0.2911632E-05  0.1699333E+04  0.7818609E-02  0.8761745E-01
       -1   -1    0    0    0  501  0.00000000000E+00  0.00000000000E+00  0.89389821672E+03  0.89389821673E+03  0.50400001928E-02 0. -1.
        1   -1    0    0  501    0  0.00000000000E+00  0.00000000000E+00 -0.80762343863E+03  0.80762343864E+03  0.50400001928E-02 0.  1.
    10030    2    1    2    0    0  0.00000000000E+00  0.00000000000E+00  0.86274778091E+02  0.17015216554E+04  0.16993329887E+04 0.  0.
        1    1    3    3  502    0  0.47571114759E+03 -0.66657644991E+03 -0.18366680364E+03  0.83926083806E+03  0.50400001928E-02 0.  1.
       -1    1    3    3    0  502 -0.47571114759E+03  0.66657644991E+03  0.26994158173E+03  0.86226081732E+03  0.50400001928E-02 0. -1.
</event>
<event>
 5   0  0.2966258E-05  0.1701412E+04  0.7818609E-02  0.8760560E-01
        1   -1    0    0  501    0  0.00000000000E+00  0.00000000000E+00  0.93366193136E+03  0.93366193137E+03  0.50400001928E-02 0.  1.
       -1   -1    0    0    0  501  0.00000000000E+00  0.00000000000E+00 -0.77512051367E+03  0.77512051369E+03  0.50400001928E-02 0. -1.
    10030    2    1    2    0    0  0.00000000000E+00  0.00000000000E+00  0.15854141768E+03  0.17087824451E+04  0.17014117854E+04 0.  0.
        4    1    3    3  502    0  0.45030740813E+03  0.69659057138E+03  0.26899038742E+03  0.87199347897E+03  0.12699999809E+01 0.  1.
       -4    1    3    3    0  502 -0.45030740813E+03 -0.69659057138E+03 -0.11044896974E+03  0.83678896609E+03  0.12699999809E+01 0. -1.
</event>
<event>
 5   0  0.2993769E-05  0.1671950E+04  0.7818609E-02  0.8777526E-01
       -1   -1    0    0    0  501  0.00000000000E+00  0.00000000000E+00  0.10866470689E+04  0.10866470689E+04  0.50400001928E-02 0. -1.
        1   -1    0    0  501    0  0.00000000000E+00  0.00000000000E+00 -0.64312859654E+03  0.64312859655E+03  0.50400001928E-02 0.  1.
    10030    2    1    2    0    0  0.00000000000E+00  0.00000000000E+00  0.44351847240E+03  0.17297756655E+04  0.16719495260E+04 0.  0.
        3    1    3    3  502    0 -0.11333076001E+03  0.88303725934E+02 -0.63026015450E+03  0.64642809479E+03  0.10100000352E+00 0.  1.
       -3    1    3    3    0  502  0.11333076001E+03 -0.88303725934E+02  0.10737786269E+04  0.10833475707E+04  0.10100000352E+00 0. -1.
</event>
<event>
 5   0  0.5821584E-05  0.1698145E+04  0.7818609E-02  0.8762423E-01
       -2   -1    0    0    0  501  0.00000000000E+00  0.00000000000E+00  0.27953844847E+03  0.27953844848E+03  0.25500000920E-02 0.  1.
        2   -1    0    0  501    0  0.00000000000E+00  0.00000000000E+00 -0.25789801148E+04  0.25789801148E+04  0.25500000920E-02 0. -1.
    10030    2    1    2    0    0  0.00000000000E+00  0.00000000000E+00 -0.22994416663E+04  0.28585185633E+04  0.16981449879E+04 0.  0.
        1    1    3    3  502    0 -0.29105207398E+03  0.79754702028E+03 -0.11690270037E+04  0.14447894984E+04  0.50400001928E-02 0. -1.
       -1    1    3    3    0  502  0.29105207398E+03 -0.79754702028E+03 -0.11304146626E+04  0.14137290649E+04  0.50400001928E-02 0.  1.
</event>
<event>
 5   0  0.5671132E-05  0.1698981E+04  0.7818609E-02  0.8761946E-01
       -2   -1    0    0    0  501  0.00000000000E+00  0.00000000000E+00  0.10194356580E+04  0.10194356580E+04  0.25500000920E-02 0. -1.
        2   -1    0    0  501    0  0.00000000000E+00  0.00000000000E+00 -0.70787576905E+03  0.70787576905E+03  0.25500000920E-02 0.  1.
    10030    2    1    2    0    0  0.00000000000E+00  0.00000000000E+00  0.31155988897E+03  0.17273114271E+04  0.16989806361E+04 0.  0.
        3    1    3    3  502    0 -0.78358111316E+02 -0.80765585786E+03  0.41133942820E+03  0.90975167696E+03  0.10100000352E+00 0. -1.
       -3    1    3    3    0  502  0.78358111316E+02  0.80765585786E+03 -0.99779539237E+02  0.81755975011E+03  0.10100000352E+00 0.  1.
</event>
<event>
 5   0  0.2993769E-05  0.1701499E+04  0.7818609E-02  0.8760510E-01
       -1   -1    0    0    0  501  0.00000000000E+00  0.00000000000E+00  0.62296339790E+03  0.62296339792E+03  0.50400001928E-02 0. -1.
        1   -1    0    0  501    0  0.00000000000E+00  0.00000000000E+00 -0.11618253945E+04  0.11618253945E+04  0.50400001928E-02 0.  1.
    10030    2    1    2    0    0  0.00000000000E+00  0.00000000000E+00 -0.53886199659E+03  0.17847887924E+04  0.17014989809E+04 0.  0.
        3    1    3    3  502    0  0.34524830708E+03  0.59083221366E+03  0.26077768813E+03  0.73231421608E+03  0.10100000352E+00 0. -1.
       -3    1    3    3    0  502 -0.34524830708E+03 -0.59083221366E+03 -0.79963968472E+03  0.10524745763E+04  0.10100000352E+00 0.  1.
</event>
<event>
 5   0  0.2098250E-05  0.1702333E+04  0.7818609E-02  0.8760035E-01
        4   -1    0    0  501    0  0.00000000000E+00  0.00000000000E+00  0.36284184232E+03  0.36284406491E+03  0.12699999809E+01 0.  1.
       -4   -1    0    0    0  501  0.00000000000E+00  0.00000000000E+00 -0.19966852206E+04  0.19966856245E+04  0.12699999809E+01 0. -1.
    10030    2    1    2    0    0  0.00000000000E+00  0.00000000000E+00 -0.16338433782E+04  0.23595296894E+04  0.17023325675E+04 0.  0.
        4    1    3    3  502    0 -0.19775141604E+03  0.35127527976E+03 -0.18559860013E+04  0.18992592226E+04  0.12699999809E+01 0. -1.
       -4    1    3    3    0  502  0.19775141604E+03 -0.35127527976E+03  0.22214262305E+03  0.46027046678E+03  0.12699999809E+01 0.  1.
</event>
<event>
 5   0  0.2966258E-05  0.1745722E+04  0.7818609E-02  0.8735708E-01
        1   -1    0    0  501    0  0.00000000000E+00  0.00000000000E+00  0.11917658730E+04  0.11917658730E+04  0.50400001928E-02 0.  1.
       -1   -1    0    0    0  501  0.00000000000E+00  0.00000000000E+00 -0.63929226382E+03  0.63929226384E+03  0.50400001928E-02 0. -1.
    10030    2    1    2    0    0  0.00000000000E+00  0.00000000000E+00  0.55247360913E+03  0.18310581368E+04  0.17457224326E+04 0.  0.
        4    1    3    3  502    0 -0.62318620989E+03  0.40086579025E+02 -0.36342440745E+03  0.72252813014E+03  0.12699999809E+01 0. -1.
       -4    1    3    3    0  502  0.62318620989E+03 -0.40086579025E+02  0.91589801658E+03  0.11085300067E+04  0.12699999809E+01 0.  1.
</event>
<event>
 5   0  0.2967704E-05  0.1691110E+04  0.7818609E-02  0.8766451E-01
        1   -1    0    0  501    0  0.00000000000E+00  0.00000000000E+00  0.13382899218E+04  0.13382899218E+04  0.50400001928E-02 0.  1.
       -1   -1    0    0    0  501  0.00000000000E+00  0.00000000000E+00 -0.53423668428E+03  0.53423668430E+03  0.50400001928E-02 0. -1.
    10030    2    1    2    0    0  0.00000000000E+00  0.00000000000E+00  0.80405323756E+03  0.18725266061E+04  0.16911103695E+04 0.  0.
        2    1    3    3  502    0  0.58196871938E+03  0.48308335344E+03  0.82060998456E+03  0.11160008349E+04  0.25500000920E-02 0.  1.
       -2    1    3    3    0  502 -0.58196871938E+03 -0.48308335344E+03 -0.16556746994E+02  0.75652577126E+03  0.25500000920E-02 0. -1.
</event>
<event>
 5   0  0.2911632E-05  0.1705217E+04  0.7818609E-02  0.8758394E-01
        1   -1    0    0  501    0  0.00000000000E+00  0.00000000000E+00  0.12967406937E+04  0.12967406937E+04  0.50400001928E-02 0. -1.
       -1   -1    0    0    0  501  0.00000000000E+00  0.00000000000E+00 -0.56059126319E+03  0.56059126321E+03  0.50400001928E-02 0.  1.
    10030    2    1    2    0    0  0.00000000000E+00  0.00000000000E+00  0.73614943048E+03  0.18573319569E+04  0.17052172923E+04 0.  0.
        1    1    3    3  502    0 -0.58503643174E+03 -0.25476688785E+03  0.98399868589E+03  0.11727860877E+04  0.50400001928E-02 0. -1.
       -1    1    3    3    0  502  0.58503643174E+03  0.25476688785E+03 -0.24784925541E+03  0.68454586920E+03  0.50400001928E-02 0.  1.
</event>
<event>
 5   0  0.2987859E-05  0.1699178E+04  0.7818609E-02  0.8761833E-01
       -1   -1    0    0    0  501  0.00000000000E+00  0.00000000000E+00  0.90601487642E+03  0.90601487644E+03  0.50400001928E-02 0.  1.
        1   -1    0    0  501    0  0.00000000000E+00  0.00000000000E+00 -0.79667772085E+03  0.79667772086E+03  0.50400001928E-02 0. -1.
    10030    2    1    2    0    0  0.00000000000E+00  0.00000000000E+00  0.10933715558E+03  0.17026925973E+04  0.16991784684E+04 0.  0.
        5    1    3    3  502    0  0.38174571433E+03  0.29395271838E+03 -0.64652267274E+03  0.80631981708E+03  0.46999998093E+01 0. -1.
       -5    1    3    3    0  502 -0.38174571433E+03 -0.29395271838E+03  0.75585982831E+03  0.89637278022E+03  0.46999998093E+01 0.  1.
</event>
<event>
 5   0  0.5859822E-05  0.1729519E+04  0.7818609E-02  0.8744706E-01
       -2   -1    0    0    0  501  0.00000000000E+00  0.00000000000E+00  0.44140905127E+03  0.44140905128E+03  0.25500000920E-02 0.  1.
        2   -1    0    0  501    0  0.00000000000E+00  0.00000000000E+00 -0.16941397899E+04  0.16941397899E+04  0.25500000920E-02 0. -1.
    10030    2    1    2    0    0  0.00000000000E+00  0.00000000000E+00 -0.12527307386E+04  0.21355488412E+04  0.17295185890E+04 0.  0.
        5    1    3    3  502    0 -0.44606633468E+03 -0.13607680910E+03 -0.15255374740E+04  0.15952362670E+04  0.46999998093E+01 0. -1.
       -5    1    3    3    0  502  0.44606633468E+03  0.13607680910E+03  0.27280673542E+03  0.54031257416E+03  0.46999998093E+01 0.  1.
</event>
<event>
 5   0  0.5755321E-05  0.1698952E+04  0.7818609E-02  0.8761962E-01
       -2   -1    0    0    0  501  0.00000000000E+00  0.00000000000E+00  0.60389831381E+03  0.60389831382E+03  0.25500000920E-02 0.  1.
        2   -1    0    0  501    0  0.00000000000E+00  0.00000000000E+00 -0.11949191848E+04  0.11949191848E+04  0.25500000920E-02 0. -1.
    10030    2    1    2    0    0  0.00000000000E+00  0.00000000000E+00 -0.59102087102E+03  0.17988174987E+04  0.16989522429E+04 0.  0.
        4    1    3    3  502    0  0.43092214621E+03 -0.72715956207E+03 -0.38505812634E+03  0.92883060801E+03  0.12699999809E+01 0. -1.
       -4    1    3    3    0  502 -0.43092214621E+03  0.72715956207E+03 -0.20596274468E+03  0.86998689065E+03  0.12699999809E+01 0.  1.
</event>
<event>
 5   0  0.2987859E-05  0.1696027E+04  0.7818609E-02  0.8763634E-01
       -1   -1    0    0    0  501  0.00000000000E+00  0.00000000000E+00  0.11869039549E+04  0.11869039549E+04  0.50400001928E-02 0.  1.
        1   -1    0    0  501    0  0.00000000000E+00  0.00000000000E+00 -0.60588465109E+03  0.60588465111E+03  0.50400001928E-02 0. -1.
    10030    2    1    2    0    0  0.00000000000E+00  0.00000000000E+00  0.58101930378E+03  0.17927886060E+04  0.16960269911E+04 0.  0.
        5    1    3    3  502    0  0.90042686102E+02  0.72925337303E+03 -0.15694510169E+03  0.75138007849E+03  0.46999998093E+01 0. -1.
       -5    1    3    3    0  502 -0.90042686102E+02 -0.72925337303E+03  0.73796440547E+03  0.10414085275E+04  0.46999998093E+01 0.  1.
</event>
<event>
 5   0  0.2098250E-05  0.1699037E+04  0.7818609E-02  0.8761914E-01
       -3   -1    0    0    0  501  0.00000000000E+00  0.00000000000E+00  0.97155568793E+03  0.97155569318E+03  0.10100000352E+00 0.  1.
        3   -1    0    0  501    0  0.00000000000E+00  0.00000000000E+00 -0.74281035093E+03  0.74281035779E+03  0.10100000352E+00 0. -1.
    10030    2    1    2    0    0  0.00000000000E+00  0.00000000000E+00  0.22874533700E+03  0.17143660510E+04  0.16990369412E+04 0.  0.
        1    1    3    3  502    0 -0.34066783734E+03 -0.90547846848E+02  0.89428102763E+03  0.96124504908E+03  0.50400001928E-02 0.  1.
       -1    1    3    3    0  502  0.34066783734E+03  0.90547846848E+02 -0.66553569063E+03  0.75312100189E+03  0.50400001928E-02 0. -1.
</event>
<event>
 5   0  0.5821584E-05  0.1706901E+04  0.7818609E-02  0.8757438E-01
       -2   -1    0    0    0  501  0.00000000000E+00  0.00000000000E+00  0.11550457913E+04  0.11550457913E+04  0.25500000920E-02 0.  1.
        2   -1    0    0  501    0  0.00000000000E+00  0.00000000000E+00 -0.63060486389E+03  0.63060486390E+03  0.25500000920E-02 0. -1.
    10030    2    1    2    0    0  0.00000000000E+00  0.00000000000E+00  0.52444092738E+03  0.17856506552E+04  0.17069006931E+04 0.  0.
        1    1    3    3  502    0  0.45500036402E+02 -0.93072054394E+02 -0.62400255052E+03  0.63254394607E+03  0.50400001928E-02 0. -1.
       -1    1    3    3    0  502 -0.45500036402E+02  0.93072054394E+02  0.11484434779E+04  0.11531067091E+04  0.50400001928E-02 0.  1.
</event>
<event>
 5   0  0.5755321E-05  0.1684583E+04  0.7818609E-02  0.8770206E-01
        2   -1    0    0  501    0  0.00000000000E+00  0.00000000000E+00  0.16528826763E+04  0.16528826763E+04  0.25500000920E-02 0. -1.
       -2   -1    0    0    0  501  0.00000000000E+00  0.00000000000E+00 -0.42922305426E+03  0.42922305427E+03  0.25500000920E-02 0.  1.
    10030    2    1    2    0    0  0.00000000000E+00  0.00000000000E+00  0.12236596220E+04  0.20821057305E+04  0.16845834508E+04 0.  0.
        4    1    3    3  502    0  0.79101484605E+03 -0.19247433345E+01  0.25415273220E+03  0.83084500088E+03  0.12699999809E+01 0.  1.
       -4    1    3    3    0  502 -0.79101484605E+03  0.19247433345E+01  0.96950688980E+03  0.12512607296E+04  0.12699999809E+01 0. -1.
</event>
<event>
 5   0  0.5755321E-05  0.1699514E+04  0.7818609E-02  0.8761642E-01
       -2   -1    0    0    0  501  0.00000000000E+00  0.00000000000E+00  0.39630892645E+03  0.39630892646E+03  0.25500000920E-02 0. -1.
        2   -1    0    0  501    0  0.00000000000E+00  0.00000000000E+00 -0.18220305259E+04  0.18220305259E+04  0.25500000920E-02 0.  1.
    10030    2    1    2    0    0  0.00000000000E+00  0.00000000000E+00 -0.14257215994E+04  0.22183394523E+04  0.16995140031E+04 0.  0.
        4    1    3    3  502    0  0.26338653556E+03  0.35853249391E+03 -0.16578747754E+04  0.17165280073E+04  0.12699999809E+01 0.  1.
       -4    1    3    3    0  502 -0.26338653556E+03 -0.35853249391E+03  0.23215317595E+03  0.50181144497E+03  0.12699999809E+01 0. -1.
</event>
<event>
 5   0  0.2966258E-05  0.1699349E+04  0.7818609E-02  0.8761736E-01
        1   -1    0    0  501    0  0.00000000000E+00  0.00000000000E+00  0.17855985118E+04  0.17855985118E+04  0.50400001928E-02 0.  1.
       -1   -1    0    0    0  501  0.00000000000E+00  0.00000000000E+00 -0.40431638702E+03  0.40431638706E+03  0.50400001928E-02 0. -1.
    10030    2    1    2    0    0  0.00000000000E+00  0.00000000000E+00  0.13812821247E+04  0.21899148988E+04  0.16993489800E+04 0.  0.
        4    1    3    3  502    0 -0.77953428545E+03  0.33743061737E+03  0.66448366572E+03  0.10784587515E+04  0.12699999809E+01 0. -1.
       -4    1    3    3    0  502  0.77953428545E+03 -0.33743061737E+03  0.71679845901E+03  0.11114561473E+04  0.12699999809E+01 0.  1.
</event>
<event>
 5   0  0.2993769E-05  0.1700109E+04  0.7818609E-02  0.8761302E-01
       -1   -1    0    0    0  501  0.00000000000E+00  0.00000000000E+00  0.11629212955E+04  0.11629212955E+04  0.50400001928E-02 0.  1.
        1   -1    0    0  501    0  0.00000000000E+00  0.00000000000E+00 -0.62135986228E+03  0.62135986230E+03  0.50400001928E-02 0. -1.
    10030    2    1    2    0    0  0.00000000000E+00  0.00000000000E+00  0.54156143323E+03  0.17842811578E+04  0.17001089566E+04 0.  0.
        3    1    3    3  502    0  0.68455312579E+03  0.46729236127E+03  0.72710997691E+02  0.83202285565E+03  0.10100000352E+00 0. -1.
       -3    1    3    3    0  502 -0.68455312579E+03 -0.46729236127E+03  0.46885043554E+03  0.95225830217E+03  0.10100000352E+00 0.  1.
</event>
<event>
 5   0  0.2993769E-05  0.1697426E+04  0.7818609E-02  0.8762834E-01
       -1   -1    0    0    0  501  0.00000000000E+00  0.00000000000E+00  0.12555747530E+04  0.12555747530E+04  0.50400001928E-02 0. -1.
        1   -1    0    0  501    0  0.00000000000E+00  0.00000000000E+00 -0.57369244270E+03  0.57369244272E+03  0.50400001928E-02 0.  1.
    10030    2    1    2    0    0  0.00000000000E+00  0.00000000000E+00  0.68188231033E+03  0.18292671958E+04  0.16974259891E+04 0.  0.
        3    1    3    3  502    0  0.31538722752E+03 -0.65954682491E+03 -0.12363718490E+03  0.74145618968E+03  0.10100000352E+00 0.  1.
       -3    1    3    3    0  502 -0.31538722752E+03  0.65954682491E+03  0.80551949524E+03  0.10878110061E+04  0.10100000352E+00 0. -1.
</event>
<event>
 5   0  0.5755321E-05  0.1701181E+04  0.7818609E-02  0.8760691E-01
        2   -1    0    0  501    0  0.00000000000E+00  0.00000000000E+00  0.14162890539E+04  0.14162890539E+04  0.25500000920E-02 0.  1.
       -2   -1    0    0    0  501  0.00000000000E+00  0.00000000000E+00 -0.51084528515E+03  0.51084528516E+03  0.25500000920E-02 0. -1.
    10030    2    1    2    0    0  0.00000000000E+00  0.00000000000E+00  0.90544376871E+03  0.19271343390E+04  0.17011814549E+04 0.  0.
        4    1    3    3  502    0  0.53875603325E+02  0.72134221860E+02  0.14108750122E+04  0.14137453234E+04  0.12699999809E+01 0.  1.
       -4    1    3    3    0  502 -0.53875603325E+02 -0.72134221860E+02 -0.50543124345E+03  0.51338901562E+03  0.12699999809E+01 0. -1.
</event>
<event>
 5   0  0.2966258E-05  0.1700702E+04  0.7818609E-02  0.8760964E-01
       -1   -1    0    0    0  501  0.00000000000E+00  0.00000000000E+00  0.74783259292E+03  0.74783259294E+03  0.50400001928E-02 0.  1.
        1   -1    0    0  501    0  0.00000000000E+00  0.00000000000E+00 -0.96692342197E+03  0.96692342198E+03  0.50400001928E-02 0. -1.
    10030    2    1    2    0    0  0.00000000000E+00  0.00000000000E+00 -0.21909082904E+03  0.17147560149E+04  0.17007020313E+04 0.  0.
        4    1    3    3  502    0  0.34504214331E+03  0.98554602781E+02  0.66775205461E+03  0.75806431767E+03  0.12699999809E+01 0.  1.
       -4    1    3    3    0  502 -0.34504214331E+03 -0.98554602781E+02 -0.88684288366E+03  0.95669169725E+03  0.12699999809E+01 0. -1.
</event>
<event>
 5   0  0.5671132E-05  0.1698279E+04  0.7818609E-02  0.8762347E-01
        2   -1    0    0  501    0  0.00000000000E+00  0.00000000000E+00  0.85082442785E+03  0.85082442785E+03  0.25500000920E-02 0. -1.
       -2   -1    0    0    0  501  0.00000000000E+00  0.00000000000E+00 -0.84745792586E+03  0.84745792586E+03  0.25500000920E-02 0.  1.
    10030    2    1    2    0    0  0.00000000000E+00  0.00000000000E+00  0.33665019901E+01  0.16982823537E+04  0.16982790170E+04 0.  0.
        3    1    3    3  502    0  0.14726586422E+03 -0.55474227019E+02 -0.83274829568E+03  0.84748708474E+03  0.10100000352E+00 0.  1.
       -3    1    3    3    0  502 -0.14726586422E+03  0.55474227019E+02  0.83611479767E+03  0.85079526898E+03  0.10100000352E+00 0. -1.
</event>
<event>
 5   0  0.2987859E-05  0.1699634E+04  0.7818609E-02  0.8761573E-01
        1   -1    0    0  501    0  0.00000000000E+00  0.00000000000E+00  0.71118088397E+03  0.71118088399E+03  0.50400001928E-02 0.  1.
       -1   -1    0    0    0  501  0.00000000000E+00  0.00000000000E+00 -0.10154786225E+04  0.10154786225E+04  0.50400001928E-02 0. -1.
    10030    2    1    2    0    0  0.00000000000E+00  0.00000000000E+00 -0.30429773850E+03  0.17266595065E+04  0.16996340599E+04 0.  0.
        5    1    3    3  502    0  0.65716356411E+03 -0.52100822605E+03 -0.12657991763E+02  0.83874658649E+03  0.46999998093E+01 0.  1.
       -5    1    3    3    0  502 -0.65716356411E+03  0.52100822605E+03 -0.29163974674E+03  0.88791291998E+03  0.46999998093E+01 0. -1.
</event>
<event>
 5   0  0.5671132E-05  0.1697732E+04  0.7818609E-02  0.8762659E-01
       -2   -1    0    0    0  501  0.00000000000E+00  0.00000000000E+00  0.28071695071E+03  0.28071695072E+03  0.25500000920E-02 0. -1.
        2   -1    0    0  501    0  0.00000000000E+00  0.00000000000E+00 -0.25669030749E+04  0.25669030749E+04  0.25500000920E-02 0.  1.
    10030    2    1    2    0    0  0.00000000000E+00  0.00000000000E+00 -0.22861861242E+04  0.28476200257E+04  0.16977316678E+04 0.  0.
        3    1    3    3  502    0 -0.26508452666E+03  0.26368809507E+03  0.13515697757E+03  0.39757846589E+03  0.10100000352E+00 0. -1.
       -3    1    3    3    0  502  0.26508452666E+03 -0.26368809507E+03 -0.24213431018E+04  0.24500415598E+04  0.10100000352E+00 0.  1.
</event>
<event>
 5   0  0.5821584E-05  0.1700574E+04  0.7818609E-02  0.8761037E-01
       -2   -1    0    0    0  501  0.00000000000E+00  0.00000000000E+00  0.90714451697E+03  0.90714451697E+03  0.25500000920E-02 0.  1.
        2   -1    0    0  501    0  0.00000000000E+00  0.00000000000E+00 -0.79699336498E+03  0.79699336498E+03  0.25500000920E-02 0. -1.
    10030    2    1    2    0    0  0.00000000000E+00  0.00000000000E+00  0.11015115199E+03  0.17041378820E+04  0.17005742102E+04 0.  0.
        1    1    3    3  502    0 -0.37861220247E+03 -0.16012085237E+02  0.81784382400E+03  0.90137234659E+03  0.50400001928E-02 0.  1.
       -1    1    3    3    0  502  0.37861220247E+03  0.16012085237E+02 -0.70769267201E+03  0.80276553536E+03  0.50400001928E-02 0. -1.
</event>
<event>
 5   0  0.2987859E-05  0.1682614E+04  0.7818609E-02  0.8771343E-01
        1   -1    0    0  501    0  0.00000000000E+00  0.00000000000E+00  0.10993242245E+04  0.10993242245E+04  0.50400001928E-02 0. -1.
       -1   -1    0    0    0  501  0.00000000000E+00  0.00000000000E+00 -0.64384743124E+03  0.64384743126E+03  0.50400001928E-02 0.  1.
    10030    2    1    2    0    0  0.00000000000E+00  0.00000000000E+00  0.45547679328E+03  0.17431716558E+04  0.16826135362E+04 0.  0.
        5    1    3    3  502    0  0.61264955509E+03  0.32488249233E+03  0.72120806764E+03  0.10005255009E+04  0.46999998093E+01 0. -1.
       -5    1    3    3    0  502 -0.61264955509E+03 -0.32488249233E+03 -0.26573127435E+03  0.74264615487E+03  0.46999998093E+01 0.  1.
</event>
<event>
 5   0  0.2967704E-05  0.1698362E+04  0.7818609E-02  0.8762299E-01
        1   -1    0    0  501    0  0.00000000000E+00  0.00000000000E+00  0.23332431754E+04  0.23332431754E+04  0.50400001928E-02 0.  1.
       -1   -1    0    0    0  501  0.00000000000E+00  0.00000000000E+00 -0.30905831720E+03  0.30905831724E+03  0.50400001928E-02 0. -1.
    10030    2    1    2    0    0  0.00000000000E+00  0.00000000000E+00  0.20241848582E+04  0.26423014926E+04  0.16983618101E+04 0.  0.
        2    1    3    3  502    0  0.78672138626E+03  0.41459846072E+02  0.15052049632E+04  0.16989088968E+04  0.25500000920E-02 0.  1.
       -2    1    3    3    0  502 -0.78672138626E+03 -0.41459846072E+02  0.51897989500E+03  0.94339259582E+03  0.25500000920E-02 0. -1.
</event>
<event>
 5   0  0.5652631E-05  0.1702352E+04  0.7818609E-02  0.8760024E-01
       -2   -1    0    0    0  501  0.00000000000E+00  0.00000000000E+00  0.66436602473E+03  0.66436602474E+03  0.25500000920E-02 0. -1.
        2   -1    0    0  501    0  0.00000000000E+00  0.00000000000E+00 -0.10905139252E+04  0.10905139252E+04  0.25500000920E-02 0.  1.
    10030    2    1    2    0    0  0.00000000000E+00  0.00000000000E+00 -0.42614790043E+03  0.17548799499E+04  0.17023517867E+04 0.  0.
        2    1    3    3  502    0  0.13715024840E+03  0.53915500185E+03  0.45101039968E+03  0.71617643585E+03  0.25500000920E-02 0. -1.
       -2    1    3    3    0  502 -0.13715024840E+03 -0.53915500185E+03 -0.87715830011E+03  0.10387035141E+04  0.25500000920E-02 0.  1.
</event>
<event>
 5   0  0.5652631E-05  0.1700228E+04  0.7818609E-02  0.8761234E-01
        2   -1    0    0  501    0  0.00000000000E+00  0.00000000000E+00  0.60434943242E+03  0.60434943243E+03  0.25500000920E-02 0.  1.
       -2   -1    0    0    0  501  0.00000000000E+00  0.00000000000E+00 -0.11958207678E+04  0.11958207678E+04  0.25500000920E-02 0. -1.
    10030    2    1    2    0    0  0.00000000000E+00  0.00000000000E+00 -0.59147133535E+03  0.18001702002E+04  0.17002277521E+04 0.  0.
        2    1    3    3  502    0  0.76439730869E+03 -0.21234979027E+03 -0.61913748495E+03  0.10063433332E+04  0.25500000920E-02 0. -1.
       -2    1    3    3    0  502 -0.76439730869E+03  0.21234979027E+03  0.27666149602E+02  0.79382686702E+03  0.25500000920E-02 0.  1.
</event>
<event>
 5   0  0.2993769E-05  0.1697566E+04  0.7818609E-02  0.8762754E-01
       -1   -1    0    0    0  501  0.00000000000E+00  0.00000000000E+00  0.44902556262E+03  0.44902556265E+03  0.50400001928E-02 0. -1.
        1   -1    0    0  501    0  0.00000000000E+00  0.00000000000E+00 -0.16044357786E+04  0.16044357786E+04  0.50400001928E-02 0.  1.
    10030    2    1    2    0    0  0.00000000000E+00  0.00000000000E+00 -0.11554102159E+04  0.20534613412E+04  0.16975661144E+04 0.  0.
        3    1    3    3  502    0  0.57423705235E+03 -0.30368891811E+03  0.83142152815E+02  0.65489524280E+03  0.10100000352E+00 0. -1.
       -3    1    3    3    0  502 -0.57423705235E+03  0.30368891811E+03 -0.12385523688E+04  0.13985660984E+04  0.10100000352E+00 0.  1.
</event>
<event>
 5   0  0.2967704E-05  0.1699740E+04  0.7818609E-02  0.8761513E-01
        1   -1    0    0  501    0  0.00000000000E+00  0.00000000000E+00  0.50636711638E+03  0.50636711640E+03  0.50400001928E-02 0. -1.
       -1   -1    0    0    0  501  0.00000000000E+00  0.00000000000E+00 -0.14263938812E+04  0.14263938812E+04  0.50400001928E-02 0.  1.
    10030    2    1    2    0    0  0.00000000000E+00  0.00000000000E+00 -0.92002676483E+03  0.19327609976E+04  0.16997399289E+04 0.  0.
        2    1    3    3  502    0 -0.22366438708E+03 -0.64888122078E+03  0.10990280383E+03  0.69509080200E+03  0.25500000920E-02 0. -1.
       -2    1    3    3    0  502  0.22366438708E+03  0.64888122078E+03 -0.10299295687E+04  0.12376701956E+04  0.25500000920E-02 0.  1.
</event>
<event>
 5   0  0.5821584E-05  0.1699883E+04  0.7818609E-02  0.8761431E-01
       -2   -1    0    0    0  501  0.00000000000E+00  0.00000000000E+00  0.50065889871E+03  0.50065889871E+03  0.25500000920E-02 0.  1.
        2   -1    0    0  501    0  0.00000000000E+00  0.00000000000E+00 -0.14428993166E+04  0.14428993166E+04  0.25500000920E-02 0. -1.
    10030    2    1    2    0    0  0.00000000000E+00  0.00000000000E+00 -0.94224041788E+03  0.19435582153E+04  0.16998827993E+04 0.  0.
        1    1    3    3  502    0 -0.65636123517E+03  0.28177244383E+03  0.55558472560E+02  0.71644436283E+03  0.50400001928E-02 0.  1.
       -1    1    3    3    0  502  0.65636123517E+03 -0.28177244383E+03 -0.99779889044E+03  0.12271138525E+04  0.50400001928E-02 0. -1.
</event>
<event>
 5   0  0.2966258E-05  0.1704130E+04  0.7818609E-02  0.8759013E-01
        1   -1    0    0  501    0  0.00000000000E+00  0.00000000000E+00  0.10460302712E+04  0.10460302712E+04  0.50400001928E-02 0. -1.
       -1   -1    0    0    0  501  0.00000000000E+00  0.00000000000E+00 -0.69406628874E+03  0.69406628876E+03  0.50400001928E-02 0.  1.
    10030    2    1    2    0    0  0.00000000000E+00  0.00000000000E+00  0.35196398243E+03  0.17400965599E+04  0.17041295118E+04 0.  0.
        4    1    3    3  502    0  0.83006508106E+03  0.29472639057E+01 -0.20421044426E+02  0.83032244166E+03  0.12699999809E+01 0.  1.
       -4    1    3    3    0  502 -0.83006508106E+03 -0.29472639057E+01  0.37238502685E+03  0.90977411828E+03  0.12699999809E+01 0. -1.
</event>
<event>
 5   0  0.5821584E-05  0.1700919E+04  0.7818609E-02  0.8760841E-01
       -2   -1    0    0    0  501  0.00000000000E+00  0.00000000000E+00  0.59314022341E+03  0.59314022341E+03  0.25500000920E-02 0. -1.
        2   -1    0    0  501    0  0.00000000000E+00  0.00000000000E+00 -0.12194098266E+04  0.12194098266E+04  0.25500000920E-02 0.  1.
    10030    2    1    2    0    0  0.00000000000E+00  0.00000000000E+00 -0.62626960317E+03  0.18125500500E+04  0.17009185953E+04 0.  0.
        1    1    3    3  502    0  0.25613514699E+03  0.14065143947E+03 -0.11642344057E+04  0.12003456971E+04  0.50400001928E-02 0.  1.
       -1    1    3    3    0  502 -0.25613514699E+03 -0.14065143947E+03  0.53796480255E+03  0.61220435294E+03  0.50400001928E-02 0. -1.
</event>
<event>
 5   0  0.2911632E-05  0.1702202E+04  0.7818609E-02  0.8760109E-01
       -1   -1    0    0    0  501  0.00000000000E+00  0.00000000000E+00  0.43932480765E+03  0.43932480768E+03  0.50400001928E-02 0. -1.
        1   -1    0    0  501    0  0.00000000000E+00  0.00000000000E+00 -0.16488323628E+04  0.16488323628E+04  0.50400001928E-02 0.  1.
    10030    2    1    2    0    0  0.00000000000E+00  0.00000000000E+00 -0.12095075552E+04  0.20881571705E+04  0.17022020570E+04 0.  0.
        1    1    3    3  502    0  0.29937974941E+03 -0.82937003112E+02  0.36728953776E+03  0.48104925467E+03  0.50400001928E-02 0. -1.
       -1    1    3    3    0  502 -0.29937974941E+03  0.82937003112E+02 -0.15767970929E+04  0.16071079158E+04  0.50400001928E-02 0.  1.
</event>
<event>
 5   0  0.5755321E-05  0.1698480E+04  0.7818609E-02  0.8762232E-01
        2   -1    0    0  501    0  0.00000000000E+00  0.00000000000E+00  0.10115950806E+04  0.10115950806E+04  0.25500000920E-02 0. -1.
       -2   -1    0    0    0  501  0.00000000000E+00  0.00000000000E+00 -0.71294176393E+03  0.71294176394E+03  0.25500000920E-02 0.  1.
    10030    2    1    2    0    0  0.00000000000E+00  0.00000000000E+00  0.29865331667E+03  0.17245368445E+04  0.16984797687E+04 0.  0.
        4    1    3    3  502    0 -0.23310086899E+03  0.10748330181E+02  0.97840451051E+03  0.10058471757E+04  0.12699999809E+01 0. -1.
       -4    1    3    3    0  502  0.23310086899E+03 -0.10748330181E+02 -0.67975119384E+03  0.71868966887E+03  0.12699999809E+01 0.  1.
</event>
<event>
 5   0  0.2098250E-05  0.1708570E+04  0.7818609E-02  0.8756492E-01
        3   -1    0    0  501    0  0.00000000000E+00  0.00000000000E+00  0.57934675065E+03  0.57934675946E+03  0.10100000352E+00 0.  1.
       -3   -1    0    0    0  501  0.00000000000E+00  0.00000000000E+00 -0.12596996917E+04  0.12596996958E+04  0.10100000352E+00 0. -1.
    10030    2    1    2    0    0  0.00000000000E+00  0.00000000000E+00 -0.68035294106E+03  0.18390464552E+04  0.17085700864E+04 0.  0.
        4    1    3    3  502    0 -0.86910432237E+01  0.37883628372E+03 -0.11642881891E+04  0.12244023295E+04  0.12699999809E+01 0. -1.
       -4    1    3    3    0  502  0.86910432237E+01 -0.37883628372E+03  0.48393524809E+03  0.61464412576E+03  0.12699999809E+01 0.  1.
</event>
<event>
 5   0  0.5671132E-05  0.1697258E+04  0.7818609E-02  0.8762930E-01
       -2   -1    0    0    0  501  0.00000000000E+00  0.00000000000E+00  0.50814250681E+03  0.50814250682E+03  0.25500000920E-02 0.  1.
        2   -1    0    0  501    0  0.00000000000E+00  0.00000000000E+00 -0.14172624310E+04  0.14172624310E+04  0.25500000920E-02 0. -1.
    10030    2    1    2    0    0  0.00000000000E+00  0.00000000000E+00 -0.90911992417E+03  0.19254049378E+04  0.16972581236E+04 0.  0.
        3    1    3    3  502    0  0.36150356061E+03  0.66039719220E+03 -0.89881571957E+03  0.11724670502E+04  0.10100000352E+00 0. -1.
       -3    1    3    3    0  502 -0.36150356061E+03 -0.66039719220E+03 -0.10304204600E+02  0.75293788763E+03  0.10100000352E+00 0.  1.
</event>
<event>
 5   0  0.5652631E-05  0.1702710E+04  0.7818609E-02  0.8759820E-01
        2   -1    0    0  501    0  0.00000000000E+00  0.00000000000E+00  0.17892614379E+04  0.17892614379E+04  0.25500000920E-02 0. -1.
       -2   -1    0    0    0  501  0.00000000000E+00  0.00000000000E+00 -0.40508625633E+03  0.40508625634E+03  0.25500000920E-02 0.  1.
    10030    2    1    2    0    0  0.00000000000E+00  0.00000000000E+00  0.13841751815E+04  0.21943476942E+04  0.17027098608E+04 0.  0.
        2    1    3    3  502    0  0.83900121412E+03  0.12001016361E+03  0.58834822015E+03  0.10317359666E+04  0.25500000920E-02 0.  1.
       -2    1    3    3    0  502 -0.83900121412E+03 -0.12001016361E+03  0.79582696140E+03  0.11626117276E+04  0.25500000920E-02 0. -1.
</event>
<event>
 5   0  0.5821584E-05  0.1697938E+04  0.7818609E-02  0.8762541E-01
       -2   -1    0    0    0  501  0.00000000000E+00  0.00000000000E+00  0.77874411368E+03  0.77874411369E+03  0.25500000920E-02 0. -1.
        2   -1    0    0  501    0  0.00000000000E+00  0.00000000000E+00 -0.92552677775E+03  0.92552677775E+03  0.25500000920E-02 0.  1.
    10030    2    1    2    0    0  0.00000000000E+00  0.00000000000E+00 -0.14678266407E+03  0.17042708914E+04  0.16979381970E+04 0.  0.
        1    1    3    3  502    0  0.33735467809E+03  0.40526043375E+03  0.59445052343E+03  0.79461665149E+03  0.50400001928E-02 0. -1.
       -1    1    3    3    0  502 -0.33735467809E+03 -0.40526043375E+03 -0.74123318749E+03  0.90965423995E+03  0.50400001928E-02 0.  1.
</event>
<event>
 5   0  0.2966258E-05  0.1700387E+04  0.7818609E-02  0.8761144E-01
       -1   -1    0    0    0  501  0.00000000000E+00  0.00000000000E+00  0.13105696090E+04  0.13105696090E+04  0.50400001928E-02 0. -1.
        1   -1    0    0  501    0  0.00000000000E+00  0.00000000000E+00 -0.55153802298E+03  0.55153802300E+03  0.50400001928E-02 0.  1.
    10030    2    1    2    0    0  0.00000000000E+00  0.00000000000E+00  0.75903158604E+03  0.18621076320E+04  0.17003869809E+04 0.  0.
        4    1    3    3  502    0  0.64068981323E+01 -0.81593352805E+03  0.64105822174E+03  0.10376636387E+04  0.12699999809E+01 0. -1.
       -4    1    3    3    0  502 -0.64068981323E+01  0.81593352805E+03  0.11797336429E+03  0.82444399332E+03  0.12699999809E+01 0.  1.
</event>
<event>
 5   0  0.5652631E-05  0.1701162E+04  0.7818609E-02  0.8760702E-01
       -2   -1    0    0    0  501  0.00000000000E+00  0.00000000000E+00  0.85892232035E+03  0.85892232035E+03  0.25500000920E-02 0. -1.
        2   -1    0    0  501    0  0.00000000000E+00  0.00000000000E+00 -0.84232040416E+03  0.84232040416E+03  0.25500000920E-02 0.  1.
    10030    2    1    2    0    0  0.00000000000E+00  0.00000000000E+00  0.16601916191E+02  0.17012427245E+04  0.17011617160E+04 0.  0.
        2    1    3    3  502    0  0.44238032569E+02  0.79294620631E+03  0.31289239207E+03  0.85359377847E+03  0.25500000920E-02 0. -1.
       -2    1    3    3    0  502 -0.44238032569E+02 -0.79294620631E+03 -0.29629047588E+03  0.84764894604E+03  0.25500000920E-02 0.  1.
</event>
<event>
 5   0  0.2993769E-05  0.1700599E+04  0.7818609E-02  0.8761023E-01
       -1   -1    0    0    0  501  0.00000000000E+00  0.00000000000E+00  0.11968736039E+04  0.11968736039E+04  0.50400001928E-02 0. -1.
        1   -1    0    0  501    0  0.00000000000E+00  0.00000000000E+00 -0.60408185069E+03  0.60408185071E+03  0.50400001928E-02 0.  1.
    10030    2    1    2    0    0  0.00000000000E+00  0.00000000000E+00  0.59279175324E+03  0.18009554547E+04  0.17005994493E+04 0.  0.
        3    1    3    3  502    0 -0.39874611939E+02 -0.60286654294E+03  0.93001050889E+03  0.11090345396E+04  0.10100000352E+00 0. -1.
       -3    1    3    3    0  502  0.39874611939E+02  0.60286654294E+03 -0.33721875565E+03  0.69192091501E+03  0.10100000352E+00 0.  1.
</event>
<event>
 5   0  0.2966258E-05  0.1668129E+04  0.7818609E-02  0.8779753E-01
        1   -1    0    0  501    0  0.00000000000E+00  0.00000000000E+00  0.95660499974E+03  0.95660499976E+03  0.50400001928E-02 0. -1.
       -1   -1    0    0    0  501  0.00000000000E+00  0.00000000000E+00 -0.72722097972E+03  0.72722097973E+03  0.50400001928E-02 0.  1.
    10030    2    1    2    0    0  0.00000000000E+00  0.00000000000E+00  0.22938402003E+03  0.16838259795E+04  0.16681285624E+04 0.  0.
        4    1    3    3  502    0  0.31525296013E+03 -0.66359037767E+03 -0.28389721596E+03  0.78761403005E+03  0.12699999809E+01 0.  1.
       -4    1    3    3    0  502 -0.31525296013E+03  0.66359037767E+03  0.51328123599E+03  0.89621194944E+03  0.12699999809E+01 0. -1.
</event>
<event>
 5   0  0.2967704E-05  0.1699162E+04  0.7818609E-02  0.8761843E-01
       -1   -1    0    0    0  501  0.00000000000E+00  0.00000000000E+00  0.63383286652E+03  0.63383286654E+03  0.50400001928E-02 0. -1.
        1   -1    0    0  501    0  0.00000000000E+00  0.00000000000E+00 -0.11387663637E+04  0.11387663637E+04  0.50400001928E-02 0.  1.
    10030    2    1    2    0    0  0.00000000000E+00  0.00000000000E+00 -0.50493349715E+03  0.17725992302E+04  0.16991616152E+04 0.  0.
        2    1    3    3  502    0  0.56654548122E+03 -0.47474525482E+03  0.18448016648E+03  0.76183316487E+03  0.25500000920E-02 0. -1.
       -2    1    3    3    0  502 -0.56654548122E+03  0.47474525482E+03 -0.68941366363E+03  0.10107660654E+04  0.25500000920E-02 0.  1.
</event>
<event>
 5   0  0.2987859E-05  0.1704104E+04  0.7818609E-02  0.8759027E-01
        1   -1    0    0  501    0  0.00000000000E+00  0.00000000000E+00  0.19404246936E+04  0.19404246936E+04  0.50400001928E-02 0. -1.
       -1   -1    0    0    0  501  0.00000000000E+00  0.00000000000E+00 -0.37414125890E+03  0.37414125893E+03  0.50400001928E-02 0.  1.
    10030    2    1    2    0    0  0.00000000000E+00  0.00000000000E+00  0.15662834347E+04  0.23145659526E+04  0.17041043838E+04 0.  0.
        5    1    3    3  502    0  0.12587567502E+03 -0.82933872347E+03  0.58020811523E+03  0.10199563475E+04  0.46999998093E+01 0.  1.
       -5    1    3    3    0  502 -0.12587567502E+03  0.82933872347E+03  0.98607531949E+03  0.12946096051E+04  0.46999998093E+01 0. -1.
</event>
<event>
 5   0  0.5671132E-05  0.1700000E+04  0.7818609E-02  0.8761365E-01
       -2   -1    0    0    0  501  0.00000000000E+00  0.00000000000E+00  0.77602923733E+03  0.77602923733E+03  0.25500000920E-02 0.  1.
        2   -1    0    0  501    0  0.00000000000E+00  0.00000000000E+00 -0.93102133508E+03  0.93102133509E+03  0.25500000920E-02 0. -1.
    10030    2    1    2    0    0  0.00000000000E+00  0.00000000000E+00 -0.15499209776E+03  0.17070505724E+04  0.16999997372E+04 0.  0.
        3    1    3    3  502    0 -0.81158462116E+03 -0.85229610887E+01  0.17605374933E+03  0.83050416677E+03  0.10100000352E+00 0.  1.
       -3    1    3    3    0  502  0.81158462116E+03  0.85229610887E+01 -0.33104584709E+03  0.87654640565E+03  0.10100000352E+00 0. -1.
</event>
<event>
 5   0  0.5755321E-05  0.1699857E+04  0.7818609E-02  0.8761446E-01
        2   -1    0    0  501    0  0.00000000000E+00  0.00000000000E+00  0.10373819112E+04  0.10373819112E+04  0.25500000920E-02 0. -1.
       -2   -1    0    0    0  501  0.00000000000E+00  0.00000000000E+00 -0.69634763411E+03  0.69634763411E+03  0.25500000920E-02 0.  1.
    10030    2    1    2    0    0  0.00000000000E+00  0.00000000000E+00  0.34103427707E+03  0.17337295453E+04  0.16998569817E+04 0.  0.
        4    1    3    3  502    0  0.63448235387E+03  0.27641087812E+03 -0.33267587525E+03  0.76788389864E+03  0.12699999809E+01 0.  1.
       -4    1    3    3    0  502 -0.63448235387E+03 -0.27641087812E+03  0.67371015232E+03  0.96584564665E+03  0.12699999809E+01 0. -1.
</event>
<event>
 5   0  0.5859822E-05  0.1701331E+04  0.7818609E-02  0.8760606E-01
        2   -1    0    0  501    0  0.00000000000E+00  0.00000000000E+00  0.61373278706E+03  0.61373278707E+03  0.25500000920E-02 0.  1.
       -2   -1    0    0    0  501  0.00000000000E+00  0.00000000000E+00 -0.11790658676E+04  0.11790658676E+04  0.25500000920E-02 0. -1.
    10030    2    1    2    0    0  0.00000000000E+00  0.00000000000E+00 -0.56533308053E+03  0.17927986547E+04  0.17013305159E+04 0.  0.
        5    1    3    3  502    0 -0.47243219338E+02 -0.24524067570E+02 -0.11772955284E+04  0.11785076168E+04  0.46999998093E+01 0. -1.
       -5    1    3    3    0  502  0.47243219338E+02  0.24524067570E+02  0.61196244784E+03  0.61429103789E+03  0.46999998093E+01 0.  1.
</event>
<event>
 5   0  0.2967704E-05  0.1698449E+04  0.7818609E-02  0.8762249E-01
        1   -1    0    0  501    0  0.00000000000E+00  0.00000000000E+00  0.40983082257E+03  0.40983082260E+03  0.50400001928E-02 0.  1.
       -1   -1    0    0    0  501  0.00000000000E+00  0.00000000000E+00 -0.17597070502E+04  0.17597070502E+04  0.50400001928E-02 0. -1.
    10030    2    1    2    0    0  0.00000000000E+00  0.00000000000E+00 -0.13498762276E+04  0.21695378728E+04  0.16984489252E+04 0.  0.
        2    1    3    3  502    0  0.79053677524E+03 -0.15320489588E+03 -0.10194999886E+04  0.12991537091E+04  0.25500000920E-02 0.  1.
       -2    1    3    3    0  502 -0.79053677524E+03  0.15320489588E+03 -0.33037623907E+03  0.87038416373E+03  0.25500000920E-02 0. -1.
</event>
<event>
 5   0  0.2967704E-05  0.1699849E+04  0.7818609E-02  0.8761450E-01
       -1   -1    0    0    0  501  0.00000000000E+00  0.00000000000E+00  0.13536945633E+04  0.13536945633E+04  0.50400001928E-02 0.  1.
        1   -1    0    0  501    0  0.00000000000E+00  0.00000000000E+00 -0.53362995478E+03  0.53362995481E+03  0.50400001928E-02 0. -1.
    10030    2    1    2    0    0  0.00000000000E+00  0.00000000000E+00  0.82006460855E+03  0.18873245182E+04  0.16998493682E+04 0.  0.
        2    1    3    3  502    0  0.32135991098E+03 -0.18727128843E+03 -0.43847080771E+03  0.57497771877E+03  0.25500000920E-02 0. -1.
       -2    1    3    3    0  502 -0.32135991098E+03  0.18727128843E+03  0.12585354163E+04  0.13123467994E+04  0.25500000920E-02 0.  1.
</event>
<event>
 5   0  0.2098250E-05  0.1670420E+04  0.7818609E-02  0.8778417E-01
        3   -1    0    0  501    0  0.00000000000E+00  0.00000000000E+00  0.52616123667E+03  0.52616124637E+03  0.10100000352E+00 0. -1.
       -3   -1    0    0    0  501  0.00000000000E+00  0.00000000000E+00 -0.13257832011E+04  0.13257832050E+04  0.10100000352E+00 0.  1.
    10030    2    1    2    0    0  0.00000000000E+00  0.00000000000E+00 -0.79962196446E+03  0.18519444513E+04  0.16704199965E+04 0.  0.
        3    1    3    3  502    0 -0.27335970800E+02  0.76694185463E+03 -0.76521599551E+03  0.10837447087E+04  0.10100000352E+00 0.  1.
       -3    1    3    3    0  502  0.27335970800E+02 -0.76694185463E+03 -0.34405968946E+02  0.76819974263E+03  0.10100000352E+00 0. -1.
</event>
<event>
 5   0  0.2098250E-05  0.1691887E+04  0.7818609E-02  0.8766005E-01
        3   -1    0    0  501    0  0.00000000000E+00  0.00000000000E+00  0.60986519242E+03  0.60986520079E+03  0.10100000352E+00 0. -1.
       -3   -1    0    0    0  501  0.00000000000E+00  0.00000000000E+00 -0.11734078460E+04  0.11734078504E+04  0.10100000352E+00 0.  1.
    10030    2    1    2    0    0  0.00000000000E+00  0.00000000000E+00 -0.56354265359E+03  0.17832730511E+04  0.16918872458E+04 0.  0.
        1    1    3    3  502    0  0.93903229203E+02  0.28854068118E+03  0.55053089149E+03  0.62861578381E+03  0.50400001928E-02 0. -1.
       -1    1    3    3    0  502 -0.93903229203E+02 -0.28854068118E+03 -0.11140735451E+04  0.11546572673E+04  0.50400001928E-02 0.  1.
</event>
<event>
 5   0  0.2966258E-05  0.1706889E+04  0.7818609E-02  0.8757445E-01
       -1   -1    0    0    0  501  0.00000000000E+00  0.00000000000E+00  0.89304036162E+03  0.89304036163E+03  0.50400001928E-02 0.  1.
        1   -1    0    0  501    0  0.00000000000E+00  0.00000000000E+00 -0.81560461105E+03  0.81560461107E+03  0.50400001928E-02 0. -1.
    10030    2    1    2    0    0  0.00000000000E+00  0.00000000000E+00  0.77435750567E+02  0.17086449727E+04  0.17068893776E+04 0.  0.
        4    1    3    3  502    0 -0.36977296883E+03  0.34291930702E+03  0.72793203659E+03  0.88555765617E+03  0.12699999809E+01 0.  1.
       -4    1    3    3    0  502  0.36977296883E+03 -0.34291930702E+03 -0.65049628602E+03  0.82308731653E+03  0.12699999809E+01 0. -1.
</event>
<event>
 5   0  0.2911632E-05  0.1692964E+04  0.7818609E-02  0.8765388E-01
       -1   -1    0    0    0  501  0.00000000000E+00  0.00000000000E+00  0.10607767732E+04  0.10607767732E+04  0.50400001928E-02 0.  1.
        1   -1    0    0  501    0  0.00000000000E+00  0.00000000000E+00 -0.67547801048E+03  0.67547801049E+03  0.50400001928E-02 0. -1.
    10030    2    1    2    0    0  0.00000000000E+00  0.00000000000E+00  0.38529876273E+03  0.17362547837E+04  0.16929635369E+04 0.  0.
        1    1    3    3  502    0  0.76559858820E+03  0.20271901385E+03 -0.11381490934E+03  0.80011876021E+03  0.50400001928E-02 0.  1.
       -1    1    3    3    0  502 -0.76559858820E+03 -0.20271901385E+03  0.49911367207E+03  0.93613602351E+03  0.50400001928E-02 0. -1.
</event>
<event>
 5   0  0.5755321E-05  0.1686314E+04  0.7818609E-02  0.8769209E-01
        2   -1    0    0  501    0  0.00000000000E+00  0.00000000000E+00  0.14108833351E+04  0.14108833351E+04  0.25500000920E-02 0. -1.
       -2   -1    0    0    0  501  0.00000000000E+00  0.00000000000E+00 -0.50387835562E+03  0.50387835563E+03  0.25500000920E-02 0.  1.
    10030    2    1    2    0    0  0.00000000000E+00  0.00000000000E+00  0.90700497951E+03  0.19147616908E+04  0.16863138200E+04 0.  0.
        4    1    3    3  502    0  0.66321402618E+03  0.25495267565E+03 -0.61929459343E+02  0.71322547780E+03  0.12699999809E+01 0.  1.
       -4    1    3    3    0  502 -0.66321402618E+03 -0.25495267565E+03  0.96893443886E+03  0.12015362130E+04  0.12699999809E+01 0. -1.
</event>
<event>
 5   0  0.5859822E-05  0.1708069E+04  0.7818609E-02  0.8756775E-01
        2   -1    0    0  501    0  0.00000000000E+00  0.00000000000E+00  0.11710007936E+04  0.11710007936E+04  0.25500000920E-02 0. -1.
       -2   -1    0    0    0  501  0.00000000000E+00  0.00000000000E+00 -0.62286478980E+03  0.62286478980E+03  0.25500000920E-02 0.  1.
    10030    2    1    2    0    0  0.00000000000E+00  0.00000000000E+00  0.54813600377E+03  0.17938655834E+04  0.17080692763E+04 0.  0.
        5    1    3    3  502    0  0.11789506673E+03  0.45729444044E+03  0.10213829297E+04  0.11252833559E+04  0.46999998093E+01 0. -1.
       -5    1    3    3    0  502 -0.11789506673E+03 -0.45729444044E+03 -0.47324692591E+03  0.66858222748E+03  0.46999998093E+01 0.  1.
</event>
<event>
 5   0  0.2987859E-05  0.1703621E+04  0.7818609E-02  0.8759302E-01
       -1   -1    0    0    0  501  0.00000000000E+00  0.00000000000E+00  0.44906925770E+03  0.44906925772E+03  0.50400001928E-02 0. -1.
        1   -1    0    0  501    0  0.00000000000E+00  0.00000000000E+00 -0.16157444615E+04  0.16157444615E+04  0.50400001928E-02 0.  1.
    10030    2    1    2    0    0  0.00000000000E+00  0.00000000000E+00 -0.11666752038E+04  0.20648137192E+04  0.17036210447E+04 0.  0.
        5    1    3    3  502    0  0.57927855355E+03 -0.34708070553E+03 -0.12125710099E+04  0.13879406338E+04  0.46999998093E+01 0.  1.
       -5    1    3    3    0  502 -0.57927855355E+03  0.34708070553E+03  0.45895806152E+02  0.67687308543E+03  0.46999998093E+01 0. -1.
</event>
<event>
 5   0  0.5821584E-05  0.1700393E+04  0.7818609E-02  0.8761140E-01
        2   -1    0    0  501    0  0.00000000000E+00  0.00000000000E+00  0.16510837674E+04  0.16510837674E+04  0.25500000920E-02 0. -1.
       -2   -1    0    0    0  501  0.00000000000E+00  0.00000000000E+00 -0.43779388042E+03  0.43779388043E+03  0.25500000920E-02 0.  1.
    10030    2    1    2    0    0  0.00000000000E+00  0.00000000000E+00  0.12132898870E+04  0.20888776478E+04  0.17003933303E+04 0.  0.
        1    1    3    3  502    0 -0.75530728606E+03  0.35975831620E+03  0.42066607866E+03  0.93641608925E+03  0.50400001928E-02 0. -1.
       -1    1    3    3    0  502  0.75530728606E+03 -0.35975831620E+03  0.79262380829E+03  0.11524615586E+04  0.50400001928E-02 0.  1.
</event>
<event>
 5   0  0.5652631E-05  0.1699940E+04  0.7818609E-02  0.8761398E-01
       -2   -1    0    0    0  501  0.00000000000E+00  0.00000000000E+00  0.26671683308E+03  0.26671683309E+03  0.25500000920E-02 0.  1.
        2   -1    0    0  501    0  0.00000000000E+00  0.00000000000E+00 -0.27086749682E+04  0.27086749682E+04  0.25500000920E-02 0. -1.
    10030    2    1    2    0    0  0.00000000000E+00  0.00000000000E+00 -0.24419581351E+04  0.29753918013E+04  0.16999402453E+04 0.  0.
        2    1    3    3  502    0 -0.51602794078E+03  0.35084361257E+03 -0.21084200139E+03  0.65865804914E+03  0.25500000920E-02 0.  1.
       -2    1    3    3    0  502  0.51602794078E+03 -0.35084361257E+03 -0.22311161337E+04  0.23167337522E+04  0.25500000920E-02 0. -1.
</event>
<event>
 5   0  0.5652631E-05  0.1700535E+04  0.7818609E-02  0.8761059E-01
       -2   -1    0    0    0  501  0.00000000000E+00  0.00000000000E+00  0.64213888669E+03  0.64213888669E+03  0.25500000920E-02 0. -1.
        2   -1    0    0  501    0  0.00000000000E+00  0.00000000000E+00 -0.11258539354E+04  0.11258539354E+04  0.25500000920E-02 0.  1.
    10030    2    1    2    0    0  0.00000000000E+00  0.00000000000E+00 -0.48371504871E+03  0.17679928221E+04  0.17005347308E+04 0.  0.
        2    1    3    3  502    0  0.36996353102E+03  0.89815708898E+02 -0.10322893886E+04  0.11002550875E+04  0.25500000920E-02 0.  1.
       -2    1    3    3    0  502 -0.36996353102E+03 -0.89815708898E+02  0.54857433984E+03  0.66773773459E+03  0.25500000920E-02 0. -1.
</event>
<event>
 5   0  0.2966258E-05  0.1700947E+04  0.7818609E-02  0.8760825E-01
       -1   -1    0    0    0  501  0.00000000000E+00  0.00000000000E+00  0.12435558764E+04  0.12435558764E+04  0.50400001928E-02 0. -1.
        1   -1    0    0  501    0  0.00000000000E+00  0.00000000000E+00 -0.58164251834E+03  0.58164251836E+03  0.50400001928E-02 0.  1.
    10030    2    1    2    0    0  0.00000000000E+00  0.00000000000E+00  0.66191335809E+03  0.18251983948E+04  0.17009467619E+04 0.  0.
        4    1    3    3  502    0 -0.29716340787E+03 -0.57870249573E+03  0.91878817768E+03  0.11257779523E+04  0.12699999809E+01 0. -1.
       -4    1    3    3    0  502  0.29716340787E+03  0.57870249573E+03 -0.25687481959E+03  0.69942044249E+03  0.12699999809E+01 0.  1.
</event>
<event>
 5   0  0.2911632E-05  0.1687882E+04  0.7818609E-02  0.8768306E-01
       -1   -1    0    0    0  501  0.00000000000E+00  0.00000000000E+00  0.67061172197E+03  0.67061172199E+03  0.50400001928E-02 0.  1.
        1   -1    0    0  501    0  0.00000000000E+00  0.00000000000E+00 -0.10620691468E+04  0.10620691468E+04  0.50400001928E-02 0. -1.
    10030    2    1    2    0    0  0.00000000000E+00  0.00000000000E+00 -0.39145742481E+03  0.17326808688E+04  0.16878815354E+04 0.  0.
        1    1    3    3  502    0  0.63800683602E+03 -0.31092759690E+03 -0.66447439144E+03  0.97224220760E+03  0.50400001928E-02 0. -1.
       -1    1    3    3    0  502 -0.63800683602E+03  0.31092759690E+03  0.27301696664E+03  0.76043866118E+03  0.50400001928E-02 0.  1.
</event>
<event>
 5   0  0.5859822E-05  0.1699786E+04  0.7818609E-02  0.8761486E-01
        2   -1    0    0  501    0  0.00000000000E+00  0.00000000000E+00  0.70229231678E+03  0.70229231678E+03  0.25500000920E-02 0. -1.
       -2   -1    0    0    0  501  0.00000000000E+00  0.00000000000E+00 -0.10285149403E+04  0.10285149403E+04  0.25500000920E-02 0.  1.
    10030    2    1    2    0    0  0.00000000000E+00  0.00000000000E+00 -0.32622262349E+03  0.17308072571E+04  0.16997860339E+04 0.  0.
        5    1    3    3  502    0  0.74763296509E+03 -0.38058128376E+03 -0.30160412629E+03  0.89150675995E+03  0.46999998093E+01 0.  1.
       -5    1    3    3    0  502 -0.74763296509E+03  0.38058128376E+03 -0.24618497198E+02  0.83930049711E+03  0.46999998093E+01 0. -1.
</event>
<event>
 5   0  0.2987859E-05  0.1692675E+04  0.7818609E-02  0.8765553E-01
        1   -1    0    0  501    0  0.00000000000E+00  0.00000000000E+00  0.67352116760E+03  0.67352116762E+03  0.50400001928E-02 0.  1.
       -1   -1    0    0    0  501  0.00000000000E+00  0.00000000000E+00 -0.10634955877E+04  0.10634955877E+04  0.50400001928E-02 0. -1.
    10030    2    1    2    0    0  0.00000000000E+00  0.00000000000E+00 -0.38997442009E+03  0.17370167553E+04  0.16926745582E+04 0.  0.
        5    1    3    3  502    0 -0.72069401454E+03  0.29951191167E+03 -0.53091174966E+03  0.94392617494E+03  0.46999998093E+01 0. -1.
       -5    1    3    3    0  502  0.72069401454E+03 -0.29951191167E+03  0.14093732957E+03  0.79309058038E+03  0.46999998093E+01 0.  1.
</event>
<event>
 5   0  0.5652631E-05  0.1706034E+04  0.7818609E-02  0.8757931E-01
        2   -1    0    0  501    0  0.00000000000E+00  0.00000000000E+00  0.17048216791E+04  0.17048216791E+04  0.25500000920E-02 0.  1.
       -2   -1    0    0    0  501  0.00000000000E+00  0.00000000000E+00 -0.42681160308E+03  0.42681160309E+03  0.25500000920E-02 0. -1.
    10030    2    1    2    0    0  0.00000000000E+00  0.00000000000E+00  0.12780100760E+04  0.21316332822E+04  0.17060336149E+04 0.  0.
        2    1    3    3  502    0 -0.30211801768E+03 -0.35321247839E+03 -0.25469460911E+03  0.53000348622E+03  0.25500000920E-02 0. -1.
       -2    1    3    3    0  502  0.30211801768E+03  0.35321247839E+03  0.15327046851E+04  0.16016297960E+04  0.25500000920E-02 0.  1.
</event>
<event>
 5   0  0.5755321E-05  0.1702734E+04  0.7818609E-02  0.8759807E-01
        2   -1    0    0  501    0  0.00000000000E+00  0.00000000000E+00  0.21783572540E+04  0.21783572540E+04  0.25500000920E-02 0. -1.
       -2   -1    0    0    0  501  0.00000000000E+00  0.00000000000E+00 -0.33273959661E+03  0.33273959662E+03  0.25500000920E-02 0.  1.
    10030    2    1    2    0    0  0.00000000000E+00  0.00000000000E+00  0.18456176574E+04  0.25110968506E+04  0.17027339357E+04 0.  0.
        4    1    3    3  502    0  0.41730125355E+03 -0.14078947857E+03  0.19973115679E+04  0.20452914525E+04  0.12699999809E+01 0. -1.
       -4    1    3    3    0  502 -0.41730125355E+03  0.14078947857E+03 -0.15169391056E+03  0.46580539809E+03  0.12699999809E+01 0.  1.
</event>
<event>
 5   0  0.2966258E-05  0.1701124E+04  0.7818609E-02  0.8760723E-01
       -1   -1    0    0    0  501  0.00000000000E+00  0.00000000000E+00  0.45829063403E+03  0.45829063405E+03  0.50400001928E-02 0. -1.
        1   -1    0    0  501    0  0.00000000000E+00  0.00000000000E+00 -0.15785961083E+04  0.15785961083E+04  0.50400001928E-02 0.  1.
    10030    2    1    2    0    0  0.00000000000E+00  0.00000000000E+00 -0.11203054743E+04  0.20368867424E+04  0.17011241123E+04 0.  0.
        4    1    3    3  502    0 -0.58950505899E+03 -0.42567399730E+03 -0.31758523085E+02  0.72782194473E+03  0.12699999809E+01 0. -1.
       -4    1    3    3    0  502  0.58950505899E+03  0.42567399730E+03 -0.10885469512E+04  0.13090647976E+04  0.12699999809E+01 0.  1.
</event>
<event>
 5   0  0.5859822E-05  0.1693529E+04  0.7818609E-02  0.8765064E-01
        2   -1    0    0  501    0  0.00000000000E+00  0.00000000000E+00  0.15021915062E+04  0.15021915062E+04  0.25500000920E-02 0.  1.
       -2   -1    0    0    0  501  0.00000000000E+00  0.00000000000E+00 -0.47730914778E+03  0.47730914779E+03  0.25500000920E-02 0. -1.
    10030    2    1    2    0    0  0.00000000000E+00  0.00000000000E+00  0.10248823584E+04  0.19795006540E+04  0.16935285621E+04 0.  0.
        5    1    3    3  502    0  0.12474338297E+03  0.14151490940E+03  0.14773011223E+04  0.14893045615E+04  0.46999998093E+01 0.  1.
       -5    1    3    3    0  502 -0.12474338297E+03 -0.14151490940E+03 -0.45241876385E+03  0.49019609245E+03  0.46999998093E+01 0. -1.
</event>
<event>
 5   0  0.5671132E-05  0.1699331E+04  0.7818609E-02  0.8761746E-01
        2   -1    0    0  501    0  0.00000000000E+00  0.00000000000E+00  0.17024859492E+04  0.17024859492E+04  0.25500000920E-02 0. -1.
       -2   -1    0    0    0  501  0.00000000000E+00  0.00000000000E+00 -0.42404535355E+03  0.42404535356E+03  0.25500000920E-02 0.  1.
    10030    2    1    2    0    0  0.00000000000E+00  0.00000000000E+00  0.12784405956E+04  0.21265313027E+04  0.16993307580E+04 0.  0.
        3    1    3    3  502    0  0.51815272911E+03 -0.21028265280E+02 -0.20303979892E+03  0.55691077272E+03  0.10100000352E+00 0.  1.
       -3    1    3    3    0  502 -0.51815272911E+03  0.21028265280E+02  0.14814803945E+04  0.15696205300E+04  0.10100000352E+00 0. -1.
</event>
<event>
 5   0  0.5755321E-05  0.1701215E+04  0.7818609E-02  0.8760672E-01
       -2   -1    0    0    0  501  0.00000000000E+00  0.00000000000E+00  0.14900891900E+04  0.14900891900E+04  0.25500000920E-02 0. -1.
        2   -1    0    0  501    0  0.00000000000E+00  0.00000000000E+00 -0.48556365543E+03  0.48556365544E+03  0.25500000920E-02 0.  1.
    10030    2    1    2    0    0  0.00000000000E+00  0.00000000000E+00  0.10045255346E+04  0.19756528455E+04  0.17012150411E+04 0.  0.
        4    1    3    3  502    0 -0.16618293205E+03  0.82103398141E+03  0.67380009747E+03  0.10750449990E+04  0.12699999809E+01 0. -1.
       -4    1    3    3    0  502  0.16618293205E+03 -0.82103398141E+03  0.33072543711E+03  0.90060784651E+03  0.12699999809E+01 0.  1.
</event>
<event>
 5   0  0.2967704E-05  0.1698430E+04  0.7818609E-02  0.8762260E-01
       -1   -1    0    0    0  501  0.00000000000E+00  0.00000000000E+00  0.79374579920E+03  0.79374579921E+03  0.50400001928E-02 0. -1.
        1   -1    0    0  501    0  0.00000000000E+00  0.00000000000E+00 -0.90856028798E+03  0.90856028799E+03  0.50400001928E-02 0.  1.
    10030    2    1    2    0    0  0.00000000000E+00  0.00000000000E+00 -0.11481448878E+03  0.17023060872E+04  0.16984297594E+04 0.  0.
        2    1    3    3  502    0  0.57591986088E+02  0.68770155309E+03 -0.55342626327E+03  0.88460776159E+03  0.25500000920E-02 0. -1.
       -2    1    3    3    0  502 -0.57591986088E+02 -0.68770155309E+03  0.43861177449E+03  0.81769832561E+03  0.25500000920E-02 0.  1.
</event>
<event>
 5   0  0.5859822E-05  0.1698476E+04  0.7818609E-02  0.8762234E-01
       -2   -1    0    0    0  501  0.00000000000E+00  0.00000000000E+00  0.47280549164E+03  0.47280549164E+03  0.25500000920E-02 0.  1.
        2   -1    0    0  501    0  0.00000000000E+00  0.00000000000E+00 -0.15253734806E+04  0.15253734806E+04  0.25500000920E-02 0. -1.
    10030    2    1    2    0    0  0.00000000000E+00  0.00000000000E+00 -0.10525679889E+04  0.19981789722E+04  0.16984757383E+04 0.  0.
        5    1    3    3  502    0  0.28559450853E+02 -0.21197785466E+03  0.44058147636E+03  0.48977993059E+03  0.46999998093E+01 0.  1.
       -5    1    3    3    0  502 -0.28559450853E+02  0.21197785466E+03 -0.14931494653E+04  0.15083990416E+04  0.46999998093E+01 0. -1.
</event>
<event>
 5   0  0.2987859E-05  0.1692431E+04  0.7818609E-02  0.8765693E-01
       -1   -1    0    0    0  501  0.00000000000E+00  0.00000000000E+00  0.61556277223E+03  0.61556277225E+03  0.50400001928E-02 0. -1.
        1   -1    0    0  501    0  0.00000000000E+00  0.00000000000E+00 -0.11632946559E+04  0.11632946559E+04  0.50400001928E-02 0.  1.
    10030    2    1    2    0    0  0.00000000000E+00  0.00000000000E+00 -0.54773188364E+03  0.17788574281E+04  0.16924312492E+04 0.  0.
        5    1    3    3  502    0  0.60090581550E+03 -0.12329845558E+03 -0.88652894152E+03  0.10780751191E+04  0.46999998093E+01 0.  1.
       -5    1    3    3    0  502 -0.60090581550E+03  0.12329845558E+03  0.33879705788E+03  0.70078230905E+03  0.46999998093E+01 0. -1.
</event>
<event>
 5   0  0.5755321E-05  0.1699951E+04  0.7818609E-02  0.8761392E-01
       -2   -1    0    0    0  501  0.00000000000E+00  0.00000000000E+00  0.11822972232E+04  0.11822972232E+04  0.25500000920E-02 0. -1.
        2   -1    0    0  501    0  0.00000000000E+00  0.00000000000E+00 -0.61106350748E+03  0.61106350748E+03  0.25500000920E-02 0.  1.
    10030    2    1    2    0    0  0.00000000000E+00  0.00000000000E+00  0.57123371567E+03  0.17933607306E+04  0.16999513970E+04 0.  0.
        4    1    3    3  502    0 -0.75671850009E+03  0.29100714254E+03  0.16348620611E+02  0.81091117620E+03  0.12699999809E+01 0.  1.
       -4    1    3    3    0  502  0.75671850009E+03 -0.29100714254E+03  0.55488509506E+03  0.98244955444E+03  0.12699999809E+01 0. -1.
</event>
<event>
 5   0  0.2911632E-05  0.1696399E+04  0.7818609E-02  0.8763421E-01
        1   -1    0    0  501    0  0.00000000000E+00  0.00000000000E+00  0.58375737164E+03  0.58375737166E+03  0.50400001928E-02 0.  1.
       -1   -1    0    0    0  501  0.00000000000E+00  0.00000000000E+00 -0.12324336023E+04  0.12324336023E+04  0.50400001928E-02 0. -1.
    10030    2    1    2    0    0  0.00000000000E+00  0.00000000000E+00 -0.64867623069E+03  0.18161909740E+04  0.16963987744E+04 0.  0.
        1    1    3    3  502    0 -0.26883709579E+03 -0.17825752793E+03  0.51552762058E+03  0.60812651475E+03  0.50400001928E-02 0.  1.
       -1    1    3    3    0  502  0.26883709579E+03  0.17825752793E+03 -0.11642038513E+04  0.12080644592E+04  0.50400001928E-02 0. -1.
</event>
<event>
 5   0  0.5859822E-05  0.1700135E+04  0.7818609E-02  0.8761287E-01
       -2   -1    0    0    0  501  0.00000000000E+00  0.00000000000E+00  0.92954673896E+03  0.92954673896E+03  0.25500000920E-02 0. -1.
        2   -1    0    0  501    0  0.00000000000E+00  0.00000000000E+00 -0.77738384248E+03  0.77738384249E+03  0.25500000920E-02 0.  1.
    10030    2    1    2    0    0  0.00000000000E+00  0.00000000000E+00  0.15216289647E+03  0.17069305814E+04  0.17001348367E+04 0.  0.
        5    1    3    3  502    0  0.46238253325E+03 -0.40848864552E+03  0.66316826918E+03  0.90580065347E+03  0.46999998093E+01 0. -1.
       -5    1    3    3    0  502 -0.46238253325E+03  0.40848864552E+03 -0.51100537271E+03  0.80112992798E+03  0.46999998093E+01 0.  1.
</event>
<event>
 5   0  0.2987859E-05  0.1698630E+04  0.7818609E-02  0.8762146E-01
        1   -1    0    0  501    0  0.00000000000E+00  0.00000000000E+00  0.12428981989E+04  0.12428981989E+04  0.50400001928E-02 0.  1.
       -1   -1    0    0    0  501  0.00000000000E+00  0.00000000000E+00 -0.58036589100E+03  0.58036589102E+03  0.50400001928E-02 0. -1.
    10030    2    1    2    0    0  0.00000000000E+00  0.00000000000E+00  0.66253230794E+03  0.18232640900E+04  0.16986297073E+04 0.  0.
        5    1    3    3  502    0 -0.35027646312E+03 -0.35899229149E+03 -0.40440164193E+03  0.64430725897E+03  0.46999998093E+01 0. -1.
       -5    1    3    3    0  502  0.35027646312E+03  0.35899229149E+03  0.10669339499E+04  0.11789568310E+04  0.46999998093E+01 0.  1.
</event>
<event>
 5   0  0.2987859E-05  0.1699202E+04  0.7818609E-02  0.8761820E-01
        1   -1    0    0  501    0  0.00000000000E+00  0.00000000000E+00  0.74926313691E+03  0.74926313693E+03  0.50400001928E-02 0.  1.
       -1   -1    0    0    0  501  0.00000000000E+00  0.00000000000E+00 -0.96337576754E+03  0.96337576756E+03  0.50400001928E-02 0. -1.
    10030    2    1    2    0    0  0.00000000000E+00  0.00000000000E+00 -0.21411263063E+03  0.17126389045E+04  0.16992021065E+04 0.  0.
        5    1    3    3  502    0 -0.80549934188E+03 -0.74321250443E+02 -0.36881563646E+03  0.88904437557E+03  0.46999998093E+01 0. -1.
       -5    1    3    3    0  502  0.80549934188E+03  0.74321250443E+02  0.15470300583E+03  0.82359452891E+03  0.46999998093E+01 0.  1.
</event>
<event>
 5   0  0.5859822E-05  0.1701097E+04  0.7818609E-02  0.8760739E-01
        2   -1    0    0  501    0  0.00000000000E+00  0.00000000000E+00  0.19314091217E+04  0.19314091217E+04  0.25500000920E-02 0.  1.
       -2   -1    0    0    0  501  0.00000000000E+00  0.00000000000E+00 -0.37456210251E+03  0.37456210251E+03  0.25500000920E-02 0. -1.
    10030    2    1    2    0    0  0.00000000000E+00  0.00000000000E+00  0.15568470192E+04  0.23059712242E+04  0.17010968949E+04 0.  0.
        5    1    3    3  502    0  0.18265689105E+03 -0.72971364024E+03  0.13165133058E+04  0.15162700653E+04  0.46999998093E+01 0.  1.
       -5    1    3    3    0  502 -0.18265689105E+03  0.72971364024E+03  0.24033371340E+03  0.78970115891E+03  0.46999998093E+01 0. -1.
</event>
<event>
 5   0  0.2966258E-05  0.1701507E+04  0.7818609E-02  0.8760505E-01
        1   -1    0    0  501    0  0.00000000000E+00  0.00000000000E+00  0.82018519379E+03  0.82018519381E+03  0.50400001928E-02 0.  1.
       -1   -1    0    0    0  501  0.00000000000E+00  0.00000000000E+00 -0.88246079227E+03  0.88246079228E+03  0.50400001928E-02 0. -1.
    10030    2    1    2    0    0  0.00000000000E+00  0.00000000000E+00 -0.62275598476E+02  0.17026459861E+04  0.17015067158E+04 0.  0.
        4    1    3    3  502    0  0.41716455120E+03  0.74057787585E+03  0.49114530405E+01  0.85000446366E+03  0.12699999809E+01 0.  1.
       -4    1    3    3    0  502 -0.41716455120E+03 -0.74057787585E+03 -0.67187051516E+02  0.85264152243E+03  0.12699999809E+01 0. -1.
</event>
<event>
 5   0  0.2966258E-05  0.1698562E+04  0.7818609E-02  0.8762185E-01
        1   -1    0    0  501    0  0.00000000000E+00  0.00000000000E+00  0.11327221145E+04  0.11327221145E+04  0.50400001928E-02 0.  1.
       -1   -1    0    0    0  501  0.00000000000E+00  0.00000000000E+00 -0.63676547709E+03  0.63676547711E+03  0.50400001928E-02 0. -1.
    10030    2    1    2    0    0  0.00000000000E+00  0.00000000000E+00  0.49595663742E+03  0.17694875916E+04  0.16985621421E+04 0.  0.
        4    1    3    3  502    0  0.21909412332E+03  0.81998237108E+03  0.27928999880E+03  0.89351991589E+03  0.12699999809E+01 0.  1.
       -4    1    3    3    0  502 -0.21909412332E+03 -0.81998237108E+03  0.21666663862E+03  0.87596767574E+03  0.12699999809E+01 0. -1.
</event>
<event>
 5   0  0.2987859E-05  0.1698562E+04  0.7818609E-02  0.8762185E-01
        1   -1    0    0  501    0  0.00000000000E+00  0.00000000000E+00  0.13595419000E+04  0.13595419000E+04  0.50400001928E-02 0.  1.
       -1   -1    0    0    0  501  0.00000000000E+00  0.00000000000E+00 -0.53053002119E+03  0.53053002121E+03  0.50400001928E-02 0. -1.
    10030    2    1    2    0    0  0.00000000000E+00  0.00000000000E+00  0.82901187880E+03  0.18900719212E+04  0.16985615008E+04 0.  0.
        5    1    3    3  502    0  0.79017863414E+03 -0.20508469183E+03  0.15398561705E+03  0.83076811742E+03  0.46999998093E+01 0. -1.
       -5    1    3    3    0  502 -0.79017863414E+03  0.20508469183E+03  0.67502626175E+03  0.10593038038E+04  0.46999998093E+01 0.  1.
</event>
<event>
 5   0  0.2966258E-05  0.1707328E+04  0.7818609E-02  0.8757196E-01
       -1   -1    0    0    0  501  0.00000000000E+00  0.00000000000E+00  0.47995611452E+03  0.47995611455E+03  0.50400001928E-02 0. -1.
        1   -1    0    0  501    0  0.00000000000E+00  0.00000000000E+00 -0.15183519289E+04  0.15183519290E+04  0.50400001928E-02 0.  1.
    10030    2    1    2    0    0  0.00000000000E+00  0.00000000000E+00 -0.10383958144E+04  0.19983080435E+04  0.17073280790E+04 0.  0.
        4    1    3    3  502    0 -0.66385271397E+02 -0.41366424686E+03 -0.13897457614E+04  0.14515233404E+04  0.12699999809E+01 0.  1.
       -4    1    3    3    0  502  0.66385271397E+02  0.41366424686E+03  0.35134994701E+03  0.54678470311E+03  0.12699999809E+01 0. -1.
</event>
<event>
 5   0  0.2966258E-05  0.1701678E+04  0.7818609E-02  0.8760408E-01
        1   -1    0    0  501    0  0.00000000000E+00  0.00000000000E+00  0.58172013369E+03  0.58172013371E+03  0.50400001928E-02 0.  1.
       -1   -1    0    0    0  501  0.00000000000E+00  0.00000000000E+00 -0.12444595156E+04  0.12444595157E+04  0.50400001928E-02 0. -1.
    10030    2    1    2    0    0  0.00000000000E+00  0.00000000000E+00 -0.66273938195E+03  0.18261796494E+04  0.17016781786E+04 0.  0.
        4    1    3    3  502    0  0.77236251185E+03  0.28013553014E+03 -0.94043234369E+02  0.82696161204E+03  0.12699999809E+01 0.  1.
       -4    1    3    3    0  502 -0.77236251185E+03 -0.28013553014E+03 -0.56869614758E+03  0.99921803733E+03  0.12699999809E+01 0. -1.
</event>
<event>
 5   0  0.2966258E-05  0.1702777E+04  0.7818609E-02  0.8759782E-01
       -1   -1    0    0    0  501  0.00000000000E+00  0.00000000000E+00  0.70610583185E+03  0.70610583187E+03  0.50400001928E-02 0.  1.
        1   -1    0    0  501    0  0.00000000000E+00  0.00000000000E+00 -0.10265628206E+04  0.10265628206E+04  0.50400001928E-02 0. -1.
    10030    2    1    2    0    0  0.00000000000E+00  0.00000000000E+00 -0.32045698870E+03  0.17326686524E+04  0.17027765495E+04 0.  0.
        4    1    3    3  502    0  0.74504630806E+03 -0.15586164146E+03 -0.54833403691E+03  0.93811442871E+03  0.12699999809E+01 0. -1.
       -4    1    3    3    0  502 -0.74504630806E+03  0.15586164146E+03  0.22787704821E+03  0.79455422372E+03  0.12699999809E+01 0.  1.
</event>
<event>
 5   0  0.2911632E-05  0.1703017E+04  0.7818609E-02  0.8759646E-01
       -1   -1    0    0    0  501  0.00000000000E+00  0.00000000000E+00  0.54563973589E+03  0.54563973591E+03  0.50400001928E-02 0.  1.
        1   -1    0    0  501    0  0.00000000000E+00  0.00000000000E+00 -0.13288375838E+04  0.13288375838E+04  0.50400001928E-02 0. -1.
    10030    2    1    2    0    0  0.00000000000E+00  0.00000000000E+00 -0.78319784795E+03  0.18744773198E+04  0.17030168388E+04 0.  0.
        1    1    3    3  502    0  0.10404973727E+03 -0.84465346245E+03 -0.36045202387E+03  0.92422480003E+03  0.50400001928E-02 0. -1.
       -1    1    3    3    0  502 -0.10404973727E+03  0.84465346245E+03 -0.42274582407E+03  0.95025251973E+03  0.50400001928E-02 0.  1.
</event>
<event>
 5   0  0.5652631E-05  0.1700323E+04  0.7818609E-02  0.8761180E-01
        2   -1    0    0  501    0  0.00000000000E+00  0.00000000000E+00  0.10135261207E+04  0.10135261207E+04  0.25500000920E-02 0.  1.
       -2   -1    0    0    0  501  0.00000000000E+00  0.00000000000E+00 -0.71312903139E+03  0.71312903139E+03  0.25500000920E-02 0. -1.
    10030    2    1    2    0    0  0.00000000000E+00  0.00000000000E+00  0.30039708932E+03  0.17266551521E+04  0.17003233819E+04 0.  0.
        2    1    3    3  502    0  0.50152652623E+03  0.37689031820E+03  0.73284326910E+03  0.96469395434E+03  0.25500000920E-02 0.  1.
       -2    1    3    3    0  502 -0.50152652623E+03 -0.37689031820E+03 -0.43244617978E+03  0.76196119776E+03  0.25500000920E-02 0. -1.
</event>
<event>
 5   0  0.2911632E-05  0.1698255E+04  0.7818609E-02  0.8762360E-01
       -1   -1    0    0    0  501  0.00000000000E+00  0.00000000000E+00  0.33689791548E+03  0.33689791552E+03  0.50400001928E-02 0. -1.
        1   -1    0    0  501    0  0.00000000000E+00  0.00000000000E+00 -0.21401658720E+04  0.21401658720E+04  0.50400001928E-02 0.  1.
    10030    2    1    2    0    0  0.00000000000E+00  0.00000000000E+00 -0.18032679565E+04  0.24770637875E+04  0.16982548938E+04 0.  0.
        1    1    3    3  502    0  0.25452074520E+03 -0.12430008115E+03 -0.20692252968E+04  0.20885221207E+04  0.50400001928E-02 0.  1.
       -1    1    3    3    0  502 -0.25452074520E+03  0.12430008115E+03  0.26595734031E+03  0.38854166675E+03  0.50400001928E-02 0. -1.
</event>
<event>
 5   0  0.2911632E-05  0.1726775E+04  0.7818609E-02  0.8746239E-01
        1   -1    0    0  501    0  0.00000000000E+00  0.00000000000E+00  0.10811390282E+04  0.10811390282E+04  0.50400001928E-02 0. -1.
       -1   -1    0    0    0  501  0.00000000000E+00  0.00000000000E+00 -0.68949296102E+03  0.68949296104E+03  0.50400001928E-02 0.  1.
    10030    2    1    2    0    0  0.00000000000E+00  0.00000000000E+00  0.39164606722E+03  0.17706319893E+04  0.17267747391E+04 0.  0.
        1    1    3    3  502    0 -0.40697475714E+03  0.47942851683E+03 -0.41077406753E+03  0.75114278954E+03  0.50400001928E-02 0.  1.
       -1    1    3    3    0  502  0.40697475714E+03 -0.47942851683E+03  0.80242013475E+03  0.10194891997E+04  0.50400001928E-02 0. -1.
</event>
<event>
 5   0  0.5859822E-05  0.1713382E+04  0.7818609E-02  0.8753769E-01
       -2   -1    0    0    0  501  0.00000000000E+00  0.00000000000E+00  0.49850900849E+03  0.49850900850E+03  0.25500000920E-02 0.  1.
        2   -1    0    0  501    0  0.00000000000E+00  0.00000000000E+00 -0.14722292620E+04  0.14722292620E+04  0.25500000920E-02 0. -1.
    10030    2    1    2    0    0  0.00000000000E+00  0.00000000000E+00 -0.97372025347E+03  0.19707382705E+04  0.17133820936E+04 0.  0.
        5    1    3    3  502    0  0.98647374554E+02 -0.83113005957E+03 -0.69703282390E+03  0.10892131692E+04  0.46999998093E+01 0. -1.
       -5    1    3    3    0  502 -0.98647374554E+02  0.83113005957E+03 -0.27668742957E+03  0.88152510123E+03  0.46999998093E+01 0.  1.
</event>
<event>
 5   0  0.2098250E-05  0.1699227E+04  0.7818609E-02  0.8761805E-01
       -4   -1    0    0    0  501  0.00000000000E+00  0.00000000000E+00  0.80277460515E+03  0.80277560972E+03  0.12699999809E+01 0.  1.
        4   -1    0    0  501    0  0.00000000000E+00  0.00000000000E+00 -0.89918374840E+03  0.89918464527E+03  0.12699999809E+01 0. -1.
    10030    2    1    2    0    0  0.00000000000E+00  0.00000000000E+00 -0.96409143253E+02  0.17019602550E+04  0.16992274676E+04 0.  0.
        1    1    3    3  502    0 -0.37828739691E+03 -0.73152351308E+02 -0.80664815789E+03  0.89394287950E+03  0.50400001928E-02 0. -1.
       -1    1    3    3    0  502  0.37828739691E+03  0.73152351308E+02  0.71023901463E+03  0.80801737549E+03  0.50400001928E-02 0.  1.
</event>
<event>
 5   0  0.2993769E-05  0.1664804E+04  0.7818609E-02  0.8781696E-01
        1   -1    0    0  501    0  0.00000000000E+00  0.00000000000E+00  0.10385399039E+04  0.10385399039E+04  0.50400001928E-02 0. -1.
       -1   -1    0    0    0  501  0.00000000000E+00  0.00000000000E+00 -0.66718010342E+03  0.66718010344E+03  0.50400001928E-02 0.  1.
    10030    2    1    2    0    0  0.00000000000E+00  0.00000000000E+00  0.37135980048E+03  0.17057200073E+04  0.16648040852E+04 0.  0.
        3    1    3    3  502    0 -0.63208605541E+03  0.16352515564E+03 -0.34336299330E+03  0.73767974985E+03  0.10100000352E+00 0.  1.
       -3    1    3    3    0  502  0.63208605541E+03 -0.16352515564E+03  0.71472279378E+03  0.96804025749E+03  0.10100000352E+00 0. -1.
</event>
<event>
 5   0  0.2966258E-05  0.1701397E+04  0.7818609E-02  0.8760568E-01
       -1   -1    0    0    0  501  0.00000000000E+00  0.00000000000E+00  0.13502190695E+04  0.13502190696E+04  0.50400001928E-02 0.  1.
        1   -1    0    0  501    0  0.00000000000E+00  0.00000000000E+00 -0.53597820726E+03  0.53597820728E+03  0.50400001928E-02 0. -1.
    10030    2    1    2    0    0  0.00000000000E+00  0.00000000000E+00  0.81424086229E+03  0.18861972768E+04  0.17013970687E+04 0.  0.
        4    1    3    3  502    0  0.64729647316E+03 -0.52104005986E+03  0.20508764377E+03  0.85588435123E+03  0.12699999809E+01 0. -1.
       -4    1    3    3    0  502 -0.64729647316E+03  0.52104005986E+03  0.60915321852E+03  0.10303129256E+04  0.12699999809E+01 0.  1.
</event>
<event>
 5   0  0.2966258E-05  0.1698508E+04  0.7818609E-02  0.8762215E-01
        1   -1    0    0  501    0  0.00000000000E+00  0.00000000000E+00  0.80534729822E+03  0.80534729824E+03  0.50400001928E-02 0.  1.
       -1   -1    0    0    0  501  0.00000000000E+00  0.00000000000E+00 -0.89555493207E+03  0.89555493209E+03  0.50400001928E-02 0. -1.
    10030    2    1    2    0    0  0.00000000000E+00  0.00000000000E+00 -0.90207633854E+02  0.17009022303E+04  0.16985084574E+04 0.  0.
        4    1    3    3  502    0 -0.82113578353E+02 -0.37514818642E+03 -0.80363574925E+03  0.89067998288E+03  0.12699999809E+01 0. -1.
       -4    1    3    3    0  502  0.82113578353E+02  0.37514818642E+03  0.71342811540E+03  0.81022224745E+03  0.12699999809E+01 0.  1.
</event>
<event>
 5   0  0.5755321E-05  0.1711596E+04  0.7818609E-02  0.8754778E-01
        2   -1    0    0  501    0  0.00000000000E+00  0.00000000000E+00  0.23667838364E+04  0.23667838364E+04  0.25500000920E-02 0.  1.
       -2   -1    0    0    0  501  0.00000000000E+00  0.00000000000E+00 -0.30944527258E+03  0.30944527259E+03  0.25500000920E-02 0. -1.
    10030    2    1    2    0    0  0.00000000000E+00  0.00000000000E+00  0.20573385638E+04  0.26762291090E+04  0.17115958278E+04 0.  0.
        4    1    3    3  502    0 -0.48325881979E+02  0.44398926906E+03  0.21701163257E+04  0.22155966108E+04  0.12699999809E+01 0.  1.
       -4    1    3    3    0  502  0.48325881979E+02 -0.44398926906E+03 -0.11277776187E+03  0.46063249819E+03  0.12699999809E+01 0. -1.
</event>
<event>
 5   0  0.2098250E-05  0.1691722E+04  0.7818609E-02  0.8766100E-01
        3   -1    0    0  501    0  0.00000000000E+00  0.00000000000E+00  0.11651537877E+04  0.11651537921E+04  0.10100000352E+00 0. -1.
       -3   -1    0    0    0  501  0.00000000000E+00  0.00000000000E+00 -0.61406524817E+03  0.61406525647E+03  0.10100000352E+00 0.  1.
    10030    2    1    2    0    0  0.00000000000E+00  0.00000000000E+00  0.55108853956E+03  0.17792190486E+04  0.16917215623E+04 0.  0.
        3    1    3    3  502    0  0.14612283701E+03 -0.39494586250E+03  0.10470705564E+04  0.11285791412E+04  0.10100000352E+00 0. -1.
       -3    1    3    3    0  502 -0.14612283701E+03  0.39494586250E+03 -0.49598201682E+03  0.65063990734E+03  0.10100000352E+00 0.  1.
</event>
<event>
 5   0  0.2993769E-05  0.1699123E+04  0.7818609E-02  0.8761865E-01
        1   -1    0    0  501    0  0.00000000000E+00  0.00000000000E+00  0.52716752723E+03  0.52716752725E+03  0.50400001928E-02 0. -1.
       -1   -1    0    0    0  501  0.00000000000E+00  0.00000000000E+00 -0.13691188761E+04  0.13691188761E+04  0.50400001928E-02 0.  1.
    10030    2    1    2    0    0  0.00000000000E+00  0.00000000000E+00 -0.84195134884E+03  0.18962864033E+04  0.16991233180E+04 0.  0.
        3    1    3    3  502    0 -0.77548523011E+03  0.19606442147E+03 -0.10151494593E+03  0.80630260692E+03  0.10100000352E+00 0. -1.
       -3    1    3    3    0  502  0.77548523011E+03 -0.19606442147E+03 -0.74043640291E+03  0.10899837964E+04  0.10100000352E+00 0.  1.
</event>
<event>
 5   0  0.5652631E-05  0.1694338E+04  0.7818609E-02  0.8764600E-01
        2   -1    0    0  501    0  0.00000000000E+00  0.00000000000E+00  0.55353457723E+03  0.55353457723E+03  0.25500000920E-02 0.  1.
       -2   -1    0    0    0  501  0.00000000000E+00  0.00000000000E+00 -0.12965682127E+04  0.12965682127E+04  0.25500000920E-02 0. -1.
    10030    2    1    2    0    0  0.00000000000E+00  0.00000000000E+00 -0.74303363544E+03  0.18501027899E+04  0.16943380270E+04 0.  0.
        2    1    3    3  502    0  0.20453363824E+03  0.29388209413E+03 -0.12098868219E+04  0.12617554502E+04  0.25500000920E-02 0. -1.
       -2    1    3    3    0  502 -0.20453363824E+03 -0.29388209413E+03  0.46685318643E+03  0.58834733968E+03  0.25500000920E-02 0.  1.
</event>
<event>
 5   0  0.5859822E-05  0.1699703E+04  0.7818609E-02  0.8761534E-01
       -2   -1    0    0    0  501  0.00000000000E+00  0.00000000000E+00  0.18783325782E+04  0.18783325782E+04  0.25500000920E-02 0.  1.
        2   -1    0    0  501    0  0.00000000000E+00  0.00000000000E+00 -0.38451533880E+03  0.38451533881E+03  0.25500000920E-02 0. -1.
    10030    2    1    2    0    0  0.00000000000E+00  0.00000000000E+00  0.14938172394E+04  0.22628479170E+04  0.16997031361E+04 0.  0.
        5    1    3    3  502    0  0.67168534541E+02 -0.14544482991E+03 -0.36421272431E+03  0.39791809349E+03  0.46999998093E+01 0. -1.
       -5    1    3    3    0  502 -0.67168534541E+02  0.14544482991E+03  0.18580299637E+04  0.18649298235E+04  0.46999998093E+01 0.  1.
</event>
<event>
 5   0  0.5671132E-05  0.1717561E+04  0.7818609E-02  0.8751411E-01
        2   -1    0    0  501    0  0.00000000000E+00  0.00000000000E+00  0.92272880657E+03  0.92272880658E+03  0.25500000920E-02 0.  1.
       -2   -1    0    0    0  501  0.00000000000E+00  0.00000000000E+00 -0.79926444303E+03  0.79926444304E+03  0.25500000920E-02 0. -1.
    10030    2    1    2    0    0  0.00000000000E+00  0.00000000000E+00  0.12346436354E+03  0.17219932496E+04  0.17175614407E+04 0.  0.
        3    1    3    3  502    0 -0.26090907581E+03 -0.46348887102E+03 -0.61425443739E+03  0.81252938621E+03  0.10100000352E+00 0. -1.
       -3    1    3    3    0  502  0.26090907581E+03  0.46348887102E+03  0.73771880093E+03  0.90946386341E+03  0.10100000352E+00 0.  1.
</event>
<event>
 5   0  0.2967704E-05  0.1699269E+04  0.7818609E-02  0.8761781E-01
       -1   -1    0    0    0  501  0.00000000000E+00  0.00000000000E+00  0.15910665661E+04  0.15910665661E+04  0.50400001928E-02 0.  1.
        1   -1    0    0  501    0  0.00000000000E+00  0.00000000000E+00 -0.45370760950E+03  0.45370760953E+03  0.50400001928E-02 0. -1.
    10030    2    1    2    0    0  0.00000000000E+00  0.00000000000E+00  0.11373589566E+04  0.20447741756E+04  0.16992692645E+04 0.  0.
        2    1    3    3  502    0 -0.76375552030E+03 -0.76957663499E+02  0.13044087100E+03  0.77862686673E+03  0.25500000920E-02 0. -1.
       -2    1    3    3    0  502  0.76375552030E+03  0.76957663499E+02  0.10069180856E+04  0.12661473089E+04  0.25500000920E-02 0.  1.
</event>
<event>
 5   0  0.5671132E-05  0.1698288E+04  0.7818609E-02  0.8762341E-01
       -2   -1    0    0    0  501  0.00000000000E+00  0.00000000000E+00  0.41092070311E+03  0.41092070312E+03  0.25500000920E-02 0.  1.
        2   -1    0    0  501    0  0.00000000000E+00  0.00000000000E+00 -0.17547081787E+04  0.17547081787E+04  0.25500000920E-02 0. -1.
    10030    2    1    2    0    0  0.00000000000E+00  0.00000000000E+00 -0.13437874756E+04  0.21656288818E+04  0.16982884544E+04 0.  0.
        3    1    3    3  502    0 -0.58476999538E+03 -0.11892586985E+03 -0.14422422314E+04  0.15608209295E+04  0.10100000352E+00 0. -1.
       -3    1    3    3    0  502  0.58476999538E+03  0.11892586985E+03  0.98454755753E+02  0.60480795228E+03  0.10100000352E+00 0.  1.
</event>
<event>
 5   0  0.2987859E-05  0.1701710E+04  0.7818609E-02  0.8760390E-01
        1   -1    0    0  501    0  0.00000000000E+00  0.00000000000E+00  0.14800855256E+04  0.14800855256E+04  0.50400001928E-02 0. -1.
       -1   -1    0    0    0  501  0.00000000000E+00  0.00000000000E+00 -0.48912971722E+03  0.48912971724E+03  0.50400001928E-02 0.  1.
    10030    2    1    2    0    0  0.00000000000E+00  0.00000000000E+00  0.99095580837E+03  0.19692152428E+04  0.17017095106E+04 0.  0.
        5    1    3    3  502    0 -0.46595473476E+03  0.21739524009E+03 -0.28899429850E+03  0.58984260598E+03  0.46999998093E+01 0.  1.
       -5    1    3    3    0  502  0.46595473476E+03 -0.21739524009E+03  0.12799501069E+04  0.13793726369E+04  0.46999998093E+01 0. -1.
</event>
<event>
 5   0  0.2993769E-05  0.1698833E+04  0.7818609E-02  0.8762030E-01
       -1   -1    0    0    0  501  0.00000000000E+00  0.00000000000E+00  0.12359557942E+04  0.12359557942E+04  0.50400001928E-02 0.  1.
        1   -1    0    0  501    0  0.00000000000E+00  0.00000000000E+00 -0.58376524788E+03  0.58376524790E+03  0.50400001928E-02 0. -1.
    10030    2    1    2    0    0  0.00000000000E+00  0.00000000000E+00  0.65219054633E+03  0.18197210421E+04  0.16988325881E+04 0.  0.
        3    1    3    3  502    0  0.31572873904E+03  0.45545370821E+03  0.10156304252E+04  0.11569908763E+04  0.10100000352E+00 0.  1.
       -3    1    3    3    0  502 -0.31572873904E+03 -0.45545370821E+03 -0.36343987887E+03  0.66273016585E+03  0.10100000352E+00 0. -1.
</event>
<event>
 5   0  0.2966258E-05  0.1699181E+04  0.7818609E-02  0.8761831E-01
       -1   -1    0    0    0  501  0.00000000000E+00  0.00000000000E+00  0.35966135881E+03  0.35966135885E+03  0.50400001928E-02 0. -1.
        1   -1    0    0  501    0  0.00000000000E+00  0.00000000000E+00 -0.20068994366E+04  0.20068994366E+04  0.50400001928E-02 0.  1.
    10030    2    1    2    0    0  0.00000000000E+00  0.00000000000E+00 -0.16472380778E+04  0.23665607955E+04  0.16991811892E+04 0.  0.
        4    1    3    3  502    0 -0.38849480507E+03 -0.27015702005E+03 -0.18063722552E+04  0.18673230482E+04  0.12699999809E+01 0.  1.
       -4    1    3    3    0  502  0.38849480507E+03  0.27015702005E+03  0.15913417736E+03  0.49923774732E+03  0.12699999809E+01 0. -1.
</event>
<event>
 5   0  0.5755321E-05  0.1698977E+04  0.7818609E-02  0.8761948E-01
       -2   -1    0    0    0  501  0.00000000000E+00  0.00000000000E+00  0.56675171656E+03  0.56675171657E+03  0.25500000920E-02 0. -1.
        2   -1    0    0  501    0  0.00000000000E+00  0.00000000000E+00 -0.12732744052E+04  0.12732744052E+04  0.25500000920E-02 0.  1.
    10030    2    1    2    0    0  0.00000000000E+00  0.00000000000E+00 -0.70652268867E+03  0.18400261218E+04  0.16989766977E+04 0.  0.
        4    1    3    3  502    0 -0.77735534592E+03 -0.26784148544E+03 -0.58455259649E+03  0.10088229508E+04  0.12699999809E+01 0. -1.
       -4    1    3    3    0  502  0.77735534592E+03  0.26784148544E+03 -0.12197009218E+03  0.83120317098E+03  0.12699999809E+01 0.  1.
</event>
<event>
 5   0  0.2966258E-05  0.1701888E+04  0.7818609E-02  0.8760288E-01
        1   -1    0    0  501    0  0.00000000000E+00  0.00000000000E+00  0.12790913329E+04  0.12790913329E+04  0.50400001928E-02 0.  1.
       -1   -1    0    0    0  501  0.00000000000E+00  0.00000000000E+00 -0.56610922976E+03  0.56610922978E+03  0.50400001928E-02 0. -1.
    10030    2    1    2    0    0  0.00000000000E+00  0.00000000000E+00  0.71298210314E+03  0.18452005627E+04  0.17018876688E+04 0.  0.
        4    1    3    3  502    0  0.54868544345E+03  0.12233469462E+03 -0.33611545566E+03  0.65497840101E+03  0.12699999809E+01 0. -1.
       -4    1    3    3    0  502 -0.54868544345E+03 -0.12233469462E+03  0.10490975588E+04  0.11902221617E+04  0.12699999809E+01 0.  1.
</event>
<event>
 5   0  0.2098250E-05  0.1715887E+04  0.7818609E-02  0.8752355E-01
       -4   -1    0    0    0  501  0.00000000000E+00  0.00000000000E+00  0.76857908199E+03  0.76858013127E+03  0.12699999809E+01 0.  1.
        4   -1    0    0  501    0  0.00000000000E+00  0.00000000000E+00 -0.95769638586E+03  0.95769722793E+03  0.12699999809E+01 0. -1.
    10030    2    1    2    0    0  0.00000000000E+00  0.00000000000E+00 -0.18911730386E+03  0.17262773592E+04  0.17158869911E+04 0.  0.
        2    1    3    3  502    0  0.14542082724E+03 -0.14397903582E+03  0.74366715264E+03  0.77130928536E+03  0.25500000920E-02 0.  1.
       -2    1    3    3    0  502 -0.14542082724E+03  0.14397903582E+03 -0.93278445650E+03  0.95496807384E+03  0.25500000920E-02 0. -1.
</event>
<event>
 5   0  0.2993769E-05  0.1693904E+04  0.7818609E-02  0.8764849E-01
        1   -1    0    0  501    0  0.00000000000E+00  0.00000000000E+00  0.75656060632E+03  0.75656060634E+03  0.50400001928E-02 0.  1.
       -1   -1    0    0    0  501  0.00000000000E+00  0.00000000000E+00 -0.94814310667E+03  0.94814310668E+03  0.50400001928E-02 0. -1.
    10030    2    1    2    0    0  0.00000000000E+00  0.00000000000E+00 -0.19158250035E+03  0.17047037130E+04  0.16939040394E+04 0.  0.
        3    1    3    3  502    0  0.50541605589E+03  0.74576882016E+02 -0.77561314372E+03  0.92875339020E+03  0.10100000352E+00 0. -1.
       -3    1    3    3    0  502 -0.50541605589E+03 -0.74576882016E+02  0.58403064338E+03  0.77595032282E+03  0.10100000352E+00 0.  1.
</event>
<event>
 5   0  0.5652631E-05  0.1697921E+04  0.7818609E-02  0.8762551E-01
       -2   -1    0    0    0  501  0.00000000000E+00  0.00000000000E+00  0.40462460816E+03  0.40462460817E+03  0.25500000920E-02 0.  1.
        2   -1    0    0  501    0  0.00000000000E+00  0.00000000000E+00 -0.17812399985E+04  0.17812399985E+04  0.25500000920E-02 0. -1.
    10030    2    1    2    0    0  0.00000000000E+00  0.00000000000E+00 -0.13766153903E+04  0.21858646067E+04  0.16979205358E+04 0.  0.
        2    1    3    3  502    0  0.38115659088E+03  0.46541285975E+03 -0.14594930574E+04  0.15786099776E+04  0.25500000920E-02 0. -1.
       -2    1    3    3    0  502 -0.38115659088E+03 -0.46541285975E+03  0.82877667082E+02  0.60725462905E+03  0.25500000920E-02 0.  1.
</event>
<event>
 5   0  0.5755321E-05  0.1699424E+04  0.7818609E-02  0.8761693E-01
        2   -1    0    0  501    0  0.00000000000E+00  0.00000000000E+00  0.10255892158E+04  0.10255892158E+04  0.25500000920E-02 0.  1.
       -2   -1    0    0    0  501  0.00000000000E+00  0.00000000000E+00 -0.70399564889E+03  0.70399564890E+03  0.25500000920E-02 0. -1.
    10030    2    1    2    0    0  0.00000000000E+00  0.00000000000E+00  0.32159356693E+03  0.17295848647E+04  0.16994238382E+04 0.  0.
        4    1    3    3  502    0  0.73916682220E+02 -0.48468240774E+03  0.86710790233E+03  0.99612169912E+03  0.12699999809E+01 0.  1.
       -4    1    3    3    0  502 -0.73916682220E+02  0.48468240774E+03 -0.54551433539E+03  0.73346316561E+03  0.12699999809E+01 0. -1.
</event>
<event>
 5   0  0.5652631E-05  0.1700443E+04  0.7818609E-02  0.8761112E-01
       -2   -1    0    0    0  501  0.00000000000E+00  0.00000000000E+00  0.30219242866E+03  0.30219242867E+03  0.25500000920E-02 0.  1.
        2   -1    0    0  501    0  0.00000000000E+00  0.00000000000E+00 -0.23921080848E+04  0.23921080848E+04  0.25500000920E-02 0. -1.
    10030    2    1    2    0    0  0.00000000000E+00  0.00000000000E+00 -0.20899156561E+04  0.26943005135E+04  0.17004434149E+04 0.  0.
        2    1    3    3  502    0 -0.49515032432E+03 -0.26647944034E+03 -0.34503785458E+02  0.56336102725E+03  0.25500000920E-02 0.  1.
       -2    1    3    3    0  502  0.49515032432E+03  0.26647944034E+03 -0.20554118707E+04  0.21309394862E+04  0.25500000920E-02 0. -1.
</event>
<event>
 5   0  0.2966258E-05  0.1702540E+04  0.7818609E-02  0.8759917E-01
        1   -1    0    0  501    0  0.00000000000E+00  0.00000000000E+00  0.55711905352E+03  0.55711905354E+03  0.50400001928E-02 0.  1.
       -1   -1    0    0    0  501  0.00000000000E+00  0.00000000000E+00 -0.13007286570E+04  0.13007286570E+04  0.50400001928E-02 0. -1.
    10030    2    1    2    0    0  0.00000000000E+00  0.00000000000E+00 -0.74360960343E+03  0.18578477105E+04  0.17025401238E+04 0.  0.
        4    1    3    3  502    0  0.43358579859E+03  0.65604044241E+03 -0.72753852710E+03  0.10713074387E+04  0.12699999809E+01 0. -1.
       -4    1    3    3    0  502 -0.43358579859E+03 -0.65604044241E+03 -0.16071076332E+02  0.78654027184E+03  0.12699999809E+01 0.  1.
</event>
<event>
 5   0  0.5859822E-05  0.1685237E+04  0.7818609E-02  0.8769829E-01
       -2   -1    0    0    0  501  0.00000000000E+00  0.00000000000E+00  0.91328136928E+03  0.91328136929E+03  0.25500000920E-02 0.  1.
        2   -1    0    0  501    0  0.00000000000E+00  0.00000000000E+00 -0.77742309053E+03  0.77742309053E+03  0.25500000920E-02 0. -1.
    10030    2    1    2    0    0  0.00000000000E+00  0.00000000000E+00  0.13585827875E+03  0.16907044598E+04  0.16852371045E+04 0.  0.
        5    1    3    3  502    0  0.80334820298E+03  0.76936015312E+02  0.31098863905E+03  0.86488352355E+03  0.46999998093E+01 0.  1.
       -5    1    3    3    0  502 -0.80334820298E+03 -0.76936015312E+02 -0.17513036030E+03  0.82582093627E+03  0.46999998093E+01 0. -1.
</event>
<event>
 5   0  0.2967704E-05  0.1699369E+04  0.7818609E-02  0.8761725E-01
        1   -1    0    0  501    0  0.00000000000E+00  0.00000000000E+00  0.24486274801E+04  0.24486274801E+04  0.50400001928E-02 0.  1.
       -1   -1    0    0    0  501  0.00000000000E+00  0.00000000000E+00 -0.29484413002E+03  0.29484413006E+03  0.50400001928E-02 0. -1.
    10030    2    1    2    0    0  0.00000000000E+00  0.00000000000E+00  0.21537833501E+04  0.27434716102E+04  0.16993686347E+04 0.  0.
        2    1    3    3  502    0  0.20083846808E+03 -0.76755224929E+03  0.15678700450E+04  0.17571821259E+04  0.25500000920E-02 0.  1.
       -2    1    3    3    0  502 -0.20083846808E+03  0.76755224929E+03  0.58591330507E+03  0.98628948424E+03  0.25500000920E-02 0. -1.
</event>
<event>
 5   0  0.2911632E-05  0.1707273E+04  0.7818609E-02  0.8757227E-01
        1   -1    0    0  501    0  0.00000000000E+00  0.00000000000E+00  0.10261790866E+04  0.10261790866E+04  0.50400001928E-02 0. -1.
       -1   -1    0    0    0  501  0.00000000000E+00  0.00000000000E+00 -0.71010522171E+03  0.71010522173E+03  0.50400001928E-02 0.  1.
    10030    2    1    2    0    0  0.00000000000E+00  0.00000000000E+00  0.31607386490E+03  0.17362843084E+04  0.17072728286E+04 0.  0.
        1    1    3    3  502    0  0.56077228531E+02 -0.53956344727E+02  0.10225641400E+04  0.10255210204E+04  0.50400001928E-02 0. -1.
       -1    1    3    3    0  502 -0.56077228531E+02  0.53956344727E+02 -0.70649027513E+03  0.71076328800E+03  0.50400001928E-02 0.  1.
</event>
<event>
 5   0  0.2987859E-05  0.1695439E+04  0.7818609E-02  0.8763970E-01
       -1   -1    0    0    0  501  0.00000000000E+00  0.00000000000E+00  0.41780197059E+03  0.41780197062E+03  0.50400001928E-02 0.  1.
        1   -1    0    0  501    0  0.00000000000E+00  0.00000000000E+00 -0.17200211938E+04  0.17200211938E+04  0.50400001928E-02 0. -1.
    10030    2    1    2    0    0  0.00000000000E+00  0.00000000000E+00 -0.13022192232E+04  0.21378231645E+04  0.16954388745E+04 0.  0.
        5    1    3    3  502    0  0.52663327549E+03 -0.25877857418E+03 -0.14225421075E+04  0.15388167841E+04  0.46999998093E+01 0. -1.
       -5    1    3    3    0  502 -0.52663327549E+03  0.25877857418E+03  0.12032288424E+03  0.59900638042E+03  0.46999998093E+01 0.  1.
</event>
<event>
 5   0  0.2966258E-05  0.1700564E+04  0.7818609E-02  0.8761043E-01
       -1   -1    0    0    0  501  0.00000000000E+00  0.00000000000E+00  0.32569735215E+03  0.32569735219E+03  0.50400001928E-02 0. -1.
        1   -1    0    0  501    0  0.00000000000E+00  0.00000000000E+00 -0.22197889653E+04  0.22197889653E+04  0.50400001928E-02 0.  1.
    10030    2    1    2    0    0  0.00000000000E+00  0.00000000000E+00 -0.18940916132E+04  0.25454863175E+04  0.17005638928E+04 0.  0.
        4    1    3    3  502    0 -0.60987960383E+03  0.57909104079E+03 -0.11344701781E+04  0.14122052834E+04  0.12699999809E+01 0.  1.
       -4    1    3    3    0  502  0.60987960383E+03 -0.57909104079E+03 -0.75962143508E+03  0.11332810341E+04  0.12699999809E+01 0. -1.
</event>
<event>
 5   0  0.5821584E-05  0.1699626E+04  0.7818609E-02  0.8761578E-01
        2   -1    0    0  501    0  0.00000000000E+00  0.00000000000E+00  0.12580103708E+04  0.12580103708E+04  0.25500000920E-02 0. -1.
       -2   -1    0    0    0  501  0.00000000000E+00  0.00000000000E+00 -0.57406658604E+03  0.57406658604E+03  0.25500000920E-02 0.  1.
    10030    2    1    2    0    0  0.00000000000E+00  0.00000000000E+00  0.68394378480E+03  0.18320769569E+04  0.16996255103E+04 0.  0.
        1    1    3    3  502    0  0.23799407612E+03  0.81176242217E+03  0.25451791083E+03  0.88339050101E+03  0.50400001928E-02 0. -1.
       -1    1    3    3    0  502 -0.23799407612E+03 -0.81176242217E+03  0.42942587397E+03  0.94868645588E+03  0.50400001928E-02 0.  1.
</event>
<event>
 5   0  0.2911632E-05  0.1699145E+04  0.7818609E-02  0.8761852E-01
       -1   -1    0    0    0  501  0.00000000000E+00  0.00000000000E+00  0.55251504213E+03  0.55251504216E+03  0.50400001928E-02 0. -1.
        1   -1    0    0  501    0  0.00000000000E+00  0.00000000000E+00 -0.13063415014E+04  0.13063415014E+04  0.50400001928E-02 0.  1.
    10030    2    1    2    0    0  0.00000000000E+00  0.00000000000E+00 -0.75382645924E+03  0.18588565435E+04  0.16991448787E+04 0.  0.
        1    1    3    3  502    0  0.62286664257E+03 -0.24867519898E+02 -0.10083978816E+04  0.11855157256E+04  0.50400001928E-02 0.  1.
       -1    1    3    3    0  502 -0.62286664257E+03  0.24867519898E+02  0.25457142239E+03  0.67334081793E+03  0.50400001928E-02 0. -1.
</event>
<event>
 5   0  0.5671132E-05  0.1694466E+04  0.7818609E-02  0.8764527E-01
       -2   -1    0    0    0  501  0.00000000000E+00  0.00000000000E+00  0.65075941762E+03  0.65075941762E+03  0.25500000920E-02 0.  1.
        2   -1    0    0  501    0  0.00000000000E+00  0.00000000000E+00 -0.11030251462E+04  0.11030251462E+04  0.25500000920E-02 0. -1.
    10030    2    1    2    0    0  0.00000000000E+00  0.00000000000E+00 -0.45226572855E+03  0.17537845638E+04  0.16944662897E+04 0.  0.
        3    1    3    3  502    0 -0.49338914836E+03 -0.59319495520E+03 -0.58837185582E+03  0.97030642455E+03  0.10100000352E+00 0. -1.
       -3    1    3    3    0  502  0.49338914836E+03  0.59319495520E+03  0.13610612727E+03  0.78347813925E+03  0.10100000352E+00 0.  1.
</event>
<event>
 5   0  0.5821584E-05  0.1700772E+04  0.7818609E-02  0.8760924E-01
        2   -1    0    0  501    0  0.00000000000E+00  0.00000000000E+00  0.11949349129E+04  0.11949349129E+04  0.25500000920E-02 0. -1.
       -2   -1    0    0    0  501  0.00000000000E+00  0.00000000000E+00 -0.60518478350E+03  0.60518478350E+03  0.25500000920E-02 0.  1.
    10030    2    1    2    0    0  0.00000000000E+00  0.00000000000E+00  0.58975012936E+03  0.18001196964E+04  0.17007720912E+04 0.  0.
        1    1    3    3  502    0 -0.31936921559E+03  0.12171643677E+03  0.11190418462E+04  0.11700710408E+04  0.50400001928E-02 0. -1.
       -1    1    3    3    0  502  0.31936921559E+03 -0.12171643677E+03 -0.52929171686E+03  0.63004865559E+03  0.50400001928E-02 0.  1.
</event>
<event>
 5   0  0.5821584E-05  0.1699642E+04  0.7818609E-02  0.8761569E-01
        2   -1    0    0  501    0  0.00000000000E+00  0.00000000000E+00  0.17245787452E+04  0.17245787452E+04  0.25500000920E-02 0. -1.
       -2   -1    0    0    0  501  0.00000000000E+00  0.00000000000E+00 -0.41876641079E+03  0.41876641080E+03  0.25500000920E-02 0.  1.
    10030    2    1    2    0    0  0.00000000000E+00  0.00000000000E+00  0.13058123344E+04  0.21433451560E+04  0.16996419049E+04 0.  0.
        1    1    3    3  502    0 -0.38993864024E+03  0.67676474930E+03  0.23062533396E+03  0.81440205902E+03  0.50400001928E-02 0. -1.
       -1    1    3    3    0  502  0.38993864024E+03 -0.67676474930E+03  0.10751870005E+04  0.13289430970E+04  0.50400001928E-02 0.  1.
</event>
<event>
 5   0  0.5859822E-05  0.1700538E+04  0.7818609E-02  0.8761057E-01
        2   -1    0    0  501    0  0.00000000000E+00  0.00000000000E+00  0.88867631532E+03  0.88867631533E+03  0.25500000920E-02 0. -1.
       -2   -1    0    0    0  501  0.00000000000E+00  0.00000000000E+00 -0.81352183372E+03  0.81352183372E+03  0.25500000920E-02 0.  1.
    10030    2    1    2    0    0  0.00000000000E+00  0.00000000000E+00  0.75154481606E+02  0.17021981490E+04  0.17005382508E+04 0.  0.
        5    1    3    3  502    0  0.62352691356E+03 -0.51968249971E+03  0.29096418010E+03  0.86228647012E+03  0.46999998093E+01 0. -1.
       -5    1    3    3    0  502 -0.62352691356E+03  0.51968249971E+03 -0.21580969849E+03  0.83991167893E+03  0.46999998093E+01 0.  1.
</event>
<event>
 5   0  0.2987859E-05  0.1698404E+04  0.7818609E-02  0.8762275E-01
        1   -1    0    0  501    0  0.00000000000E+00  0.00000000000E+00  0.50695126622E+03  0.50695126625E+03  0.50400001928E-02 0.  1.
       -1   -1    0    0    0  501  0.00000000000E+00  0.00000000000E+00 -0.14225122606E+04  0.14225122606E+04  0.50400001928E-02 0. -1.
    10030    2    1    2    0    0  0.00000000000E+00  0.00000000000E+00 -0.91556099434E+03  0.19294635268E+04  0.16984044180E+04 0.  0.
        5    1    3    3  502    0  0.11504915003E+03  0.30724886190E+02 -0.14129651751E+04  0.14179820173E+04  0.46999998093E+01 0. -1.
       -5    1    3    3    0  502 -0.11504915003E+03 -0.30724886190E+02  0.49740418072E+03  0.51148150949E+03  0.46999998093E+01 0.  1.
</event>
<event>
 5   0  0.5671132E-05  0.1740054E+04  0.7818609E-02  0.8738844E-01
       -2   -1    0    0    0  501  0.00000000000E+00  0.00000000000E+00  0.63917244483E+03  0.63917244483E+03  0.25500000920E-02 0. -1.
        2   -1    0    0  501    0  0.00000000000E+00  0.00000000000E+00 -0.11842604926E+04  0.11842604926E+04  0.25500000920E-02 0.  1.
    10030    2    1    2    0    0  0.00000000000E+00  0.00000000000E+00 -0.54508804780E+03  0.18234329375E+04  0.17400536479E+04 0.  0.
        3    1    3    3  502    0  0.84558342439E+03 -0.13270404523E+02 -0.48668679259E+03  0.97573125169E+03  0.10100000352E+00 0.  1.
       -3    1    3    3    0  502 -0.84558342439E+03  0.13270404523E+02 -0.58401255207E+02  0.84770168577E+03  0.10100000352E+00 0. -1.
</event>
<event>
 5   0  0.2967704E-05  0.1700676E+04  0.7818609E-02  0.8760979E-01
        1   -1    0    0  501    0  0.00000000000E+00  0.00000000000E+00  0.53673954828E+03  0.53673954831E+03  0.50400001928E-02 0. -1.
       -1   -1    0    0    0  501  0.00000000000E+00  0.00000000000E+00 -0.13471609795E+04  0.13471609795E+04  0.50400001928E-02 0.  1.
    10030    2    1    2    0    0  0.00000000000E+00  0.00000000000E+00 -0.81042143119E+03  0.18839005278E+04  0.17006758370E+04 0.  0.
        2    1    3    3  502    0 -0.77358589078E+03 -0.15945270074E+03 -0.56292596963E+02  0.79185172265E+03  0.25500000920E-02 0. -1.
       -2    1    3    3    0  502  0.77358589078E+03  0.15945270074E+03 -0.75412883423E+03  0.10920488051E+04  0.25500000920E-02 0.  1.
</event>
<event>
 5   0  0.2911632E-05  0.1674061E+04  0.7818609E-02  0.8776298E-01
       -1   -1    0    0    0  501  0.00000000000E+00  0.00000000000E+00  0.46253455140E+03  0.46253455143E+03  0.50400001928E-02 0. -1.
        1   -1    0    0  501    0  0.00000000000E+00  0.00000000000E+00 -0.15147410487E+04  0.15147410487E+04  0.50400001928E-02 0.  1.
    10030    2    1    2    0    0  0.00000000000E+00  0.00000000000E+00 -0.10522064973E+04  0.19772756001E+04  0.16740610162E+04 0.  0.
        1    1    3    3  502    0 -0.14069854508E+03  0.30516205376E+03 -0.14315727167E+04  0.14704830508E+04  0.50400001928E-02 0.  1.
       -1    1    3    3    0  502  0.14069854508E+03 -0.30516205376E+03  0.37936621935E+03  0.50679254932E+03  0.50400001928E-02 0. -1.
</event>
<event>
 5   0  0.2993769E-05  0.1681396E+04  0.7818609E-02  0.8772047E-01
       -1   -1    0    0    0  501  0.00000000000E+00  0.00000000000E+00  0.84531395404E+03  0.84531395406E+03  0.50400001928E-02 0. -1.
        1   -1    0    0  501    0  0.00000000000E+00  0.00000000000E+00 -0.83610721060E+03  0.83610721062E+03  0.50400001928E-02 0.  1.
    10030    2    1    2    0    0  0.00000000000E+00  0.00000000000E+00  0.92067434415E+01  0.16814211647E+04  0.16813959584E+04 0.  0.
        3    1    3    3  502    0 -0.81264969574E+03 -0.30408141984E+02  0.21779404136E+03  0.84187792330E+03  0.10100000352E+00 0. -1.
       -3    1    3    3    0  502  0.81264969574E+03  0.30408141984E+02 -0.20858729792E+03  0.83954324138E+03  0.10100000352E+00 0.  1.
</event>
<event>
 5   0  0.2993769E-05  0.1701345E+04  0.7818609E-02  0.8760597E-01
        1   -1    0    0  501    0  0.00000000000E+00  0.00000000000E+00  0.16335083737E+04  0.16335083737E+04  0.50400001928E-02 0. -1.
       -1   -1    0    0    0  501  0.00000000000E+00  0.00000000000E+00 -0.44299982748E+03  0.44299982750E+03  0.50400001928E-02 0.  1.
    10030    2    1    2    0    0  0.00000000000E+00  0.00000000000E+00  0.11905085462E+04  0.20765082012E+04  0.17013452651E+04 0.  0.
        3    1    3    3  502    0 -0.79053135853E+03 -0.67319555133E+02  0.22071059226E+03  0.82351984011E+03  0.10100000352E+00 0.  1.
       -3    1    3    3    0  502  0.79053135853E+03  0.67319555133E+02  0.96979795395E+03  0.12529883611E+04  0.10100000352E+00 0. -1.
</event>
<event>
 5   0  0.5652631E-05  0.1701927E+04  0.7818609E-02  0.8760266E-01
        2   -1    0    0  501    0  0.00000000000E+00  0.00000000000E+00  0.16555080700E+04  0.16555080700E+04  0.25500000920E-02 0. -1.
       -2   -1    0    0    0  501  0.00000000000E+00  0.00000000000E+00 -0.43741191878E+03  0.43741191879E+03  0.25500000920E-02 0.  1.
    10030    2    1    2    0    0  0.00000000000E+00  0.00000000000E+00  0.12180961513E+04  0.20929199888E+04  0.17019270977E+04 0.  0.
        2    1    3    3  502    0 -0.31003300721E+02 -0.69458349444E+03  0.12124103571E+04  0.13976216617E+04  0.25500000920E-02 0. -1.
       -2    1    3    3    0  502  0.31003300721E+02  0.69458349444E+03  0.56857941896E+01  0.69529832710E+03  0.25500000920E-02 0.  1.
</event>
<event>
 5   0  0.2987859E-05  0.1704929E+04  0.7818609E-02  0.8758558E-01
        1   -1    0    0  501    0  0.00000000000E+00  0.00000000000E+00  0.10473815994E+04  0.10473815995E+04  0.50400001928E-02 0. -1.
       -1   -1    0    0    0  501  0.00000000000E+00  0.00000000000E+00 -0.69382105461E+03  0.69382105463E+03  0.50400001928E-02 0.  1.
    10030    2    1    2    0    0  0.00000000000E+00  0.00000000000E+00  0.35356054483E+03  0.17412026541E+04  0.17049286272E+04 0.  0.
        5    1    3    3  502    0  0.56472480055E+03  0.52887072705E+03 -0.18868097836E+03  0.79639245845E+03  0.46999998093E+01 0.  1.
       -5    1    3    3    0  502 -0.56472480055E+03 -0.52887072705E+03  0.54224152319E+03  0.94481019563E+03  0.46999998093E+01 0. -1.
</event>
<event>
 5   0  0.5859822E-05  0.1700273E+04  0.7818609E-02  0.8761209E-01
       -2   -1    0    0    0  501  0.00000000000E+00  0.00000000000E+00  0.29809412815E+03  0.29809412816E+03  0.25500000920E-02 0.  1.
        2   -1    0    0  501    0  0.00000000000E+00  0.00000000000E+00 -0.24245083150E+04  0.24245083150E+04  0.25500000920E-02 0. -1.
    10030    2    1    2    0    0  0.00000000000E+00  0.00000000000E+00 -0.21264141869E+04  0.27226024432E+04  0.17002725574E+04 0.  0.
        5    1    3    3  502    0  0.56209668561E+03  0.33864704509E+03 -0.19285992398E+04  0.20371920928E+04  0.46999998093E+01 0. -1.
       -5    1    3    3    0  502 -0.56209668561E+03 -0.33864704509E+03 -0.19781494705E+03  0.68541035037E+03  0.46999998093E+01 0.  1.
</event>
<event>
 5   0  0.2967704E-05  0.1704929E+04  0.7818609E-02  0.8758558E-01
        1   -1    0    0  501    0  0.00000000000E+00  0.00000000000E+00  0.12771617282E+04  0.12771617282E+04  0.50400001928E-02 0.  1.
       -1   -1    0    0    0  501  0.00000000000E+00  0.00000000000E+00 -0.56899245455E+03  0.56899245457E+03  0.50400001928E-02 0. -1.
    10030    2    1    2    0    0  0.00000000000E+00  0.00000000000E+00  0.70816927367E+03  0.18461541828E+04  0.17049286045E+04 0.  0.
        2    1    3    3  502    0  0.58728373479E+03 -0.34792809741E+03  0.90700803628E+03  0.11351738739E+04  0.25500000920E-02 0.  1.
       -2    1    3    3    0  502 -0.58728373479E+03  0.34792809741E+03 -0.19883876261E+03  0.71098030890E+03  0.25500000920E-02 0. -1.
</event>
<event>
 5   0  0.2098250E-05  0.1699115E+04  0.7818609E-02  0.8761869E-01
        4   -1    0    0  501    0  0.00000000000E+00  0.00000000000E+00  0.53339660451E+03  0.53339811642E+03  0.12699999809E+01 0.  1.
       -4   -1    0    0    0  501  0.00000000000E+00  0.00000000000E+00 -0.13531130530E+04  0.13531136490E+04  0.12699999809E+01 0. -1.
    10030    2    1    2    0    0  0.00000000000E+00  0.00000000000E+00 -0.81971644852E+03  0.18865117654E+04  0.16991149417E+04 0.  0.
        3    1    3    3  502    0  0.66717269717E+03 -0.43191589678E+03 -0.76628261493E+02  0.79846267940E+03  0.10100000352E+00 0.  1.
       -3    1    3    3    0  502 -0.66717269717E+03  0.43191589678E+03 -0.74308818703E+03  0.10880490860E+04  0.10100000352E+00 0. -1.
</event>
<event>
 5   0  0.2911632E-05  0.1696308E+04  0.7818609E-02  0.8763473E-01
        1   -1    0    0  501    0  0.00000000000E+00  0.00000000000E+00  0.11664063388E+04  0.11664063388E+04  0.50400001928E-02 0. -1.
       -1   -1    0    0    0  501  0.00000000000E+00  0.00000000000E+00 -0.61673648410E+03  0.61673648412E+03  0.50400001928E-02 0.  1.
    10030    2    1    2    0    0  0.00000000000E+00  0.00000000000E+00  0.54966985469E+03  0.17831428229E+04  0.16963081612E+04 0.  0.
        1    1    3    3  502    0  0.34924944321E+03 -0.49239796364E+03 -0.35142617014E+03  0.69852078084E+03  0.50400001928E-02 0.  1.
       -1    1    3    3    0  502 -0.34924944321E+03  0.49239796364E+03  0.90109602484E+03  0.10846220421E+04  0.50400001928E-02 0. -1.
</event>
<event>
 5   0  0.2967704E-05  0.1702337E+04  0.7818609E-02  0.8760032E-01
       -1   -1    0    0    0  501  0.00000000000E+00  0.00000000000E+00  0.53386146178E+03  0.53386146181E+03  0.50400001928E-02 0. -1.
        1   -1    0    0  501    0  0.00000000000E+00  0.00000000000E+00 -0.13570715495E+04  0.13570715495E+04  0.50400001928E-02 0.  1.
    10030    2    1    2    0    0  0.00000000000E+00  0.00000000000E+00 -0.82321008769E+03  0.18909330113E+04  0.17023374532E+04 0.  0.
        2    1    3    3  502    0  0.24609305513E+03 -0.38058297617E+02  0.49249441996E+03  0.55187043723E+03  0.25500000920E-02 0. -1.
       -2    1    3    3    0  502 -0.24609305513E+03  0.38058297617E+02 -0.13157045076E+04  0.13390625741E+04  0.25500000920E-02 0.  1.
</event>
<event>
 5   0  0.5821584E-05  0.1705448E+04  0.7818609E-02  0.8758263E-01
        2   -1    0    0  501    0  0.00000000000E+00  0.00000000000E+00  0.13836596433E+04  0.13836596433E+04  0.25500000920E-02 0. -1.
       -2   -1    0    0    0  501  0.00000000000E+00  0.00000000000E+00 -0.52551813160E+03  0.52551813161E+03  0.25500000920E-02 0.  1.
    10030    2    1    2    0    0  0.00000000000E+00  0.00000000000E+00  0.85814151174E+03  0.19091777749E+04  0.17054480122E+04 0.  0.
        1    1    3    3  502    0 -0.56730145430E+03 -0.49331288227E+03  0.87957402439E+03  0.11570821078E+04  0.50400001928E-02 0. -1.
       -1    1    3    3    0  502  0.56730145430E+03  0.49331288227E+03 -0.21432512648E+02  0.75209566711E+03  0.50400001928E-02 0.  1.
</event>
<event>
 5   0  0.5821584E-05  0.1680063E+04  0.7818609E-02  0.8772817E-01
       -2   -1    0    0    0  501  0.00000000000E+00  0.00000000000E+00  0.48762587577E+03  0.48762587578E+03  0.25500000920E-02 0.  1.
        2   -1    0    0  501    0  0.00000000000E+00  0.00000000000E+00 -0.14471197872E+04  0.14471197872E+04  0.25500000920E-02 0. -1.
    10030    2    1    2    0    0  0.00000000000E+00  0.00000000000E+00 -0.95949391146E+03  0.19347456630E+04  0.16800631579E+04 0.  0.
        1    1    3    3  502    0 -0.57253166090E+03 -0.82490114431E+02  0.22173735632E+03  0.61948735009E+03  0.50400001928E-02 0.  1.
       -1    1    3    3    0  502  0.57253166090E+03  0.82490114431E+02 -0.11812312678E+04  0.13152583129E+04  0.50400001928E-02 0. -1.
</event>
<event>
 5   0  0.2098250E-05  0.1699082E+04  0.7818609E-02  0.8761888E-01
       -3   -1    0    0    0  501  0.00000000000E+00  0.00000000000E+00  0.52621649711E+03  0.52621650680E+03  0.10100000352E+00 0.  1.
        3   -1    0    0  501    0  0.00000000000E+00  0.00000000000E+00 -0.13715261087E+04  0.13715261124E+04  0.10100000352E+00 0. -1.
    10030    2    1    2    0    0  0.00000000000E+00  0.00000000000E+00 -0.84530961160E+03  0.18977426192E+04  0.16990817253E+04 0.  0.
        3    1    3    3  502    0 -0.31792164415E+03 -0.50278553195E+03 -0.11000774716E+04  0.12506150154E+04  0.10100000352E+00 0. -1.
       -3    1    3    3    0  502  0.31792164415E+03  0.50278553195E+03  0.25476786002E+03  0.64712760384E+03  0.10100000352E+00 0.  1.
</event>
<event>
 5   0  0.2966258E-05  0.1700785E+04  0.7818609E-02  0.8760916E-01
        1   -1    0    0  501    0  0.00000000000E+00  0.00000000000E+00  0.84458142114E+03  0.84458142116E+03  0.50400001928E-02 0.  1.
       -1   -1    0    0    0  501  0.00000000000E+00  0.00000000000E+00 -0.85624405325E+03  0.85624405327E+03  0.50400001928E-02 0. -1.
    10030    2    1    2    0    0  0.00000000000E+00  0.00000000000E+00 -0.11662632109E+02  0.17008254744E+04  0.17007854884E+04 0.  0.
        4    1    3    3  502    0  0.74540043543E+03  0.39752082347E+03  0.91749624442E+02  0.84974362058E+03  0.12699999809E+01 0. -1.
       -4    1    3    3    0  502 -0.74540043543E+03 -0.39752082347E+03 -0.10341225655E+03  0.85108185384E+03  0.12699999809E+01 0.  1.
</event>
<event>
 5   0  0.5859822E-05  0.1699330E+04  0.7818609E-02  0.8761747E-01
        2   -1    0    0  501    0  0.00000000000E+00  0.00000000000E+00  0.48048266188E+03  0.48048266189E+03  0.25500000920E-02 0. -1.
       -2   -1    0    0    0  501  0.00000000000E+00  0.00000000000E+00 -0.15025109241E+04  0.15025109241E+04  0.25500000920E-02 0.  1.
    10030    2    1    2    0    0  0.00000000000E+00  0.00000000000E+00 -0.10220282622E+04  0.19829935860E+04  0.16993298071E+04 0.  0.
        5    1    3    3  502    0 -0.26338889634E+03  0.78820769658E+02  0.42712679331E+03  0.50798209811E+03  0.46999998093E+01 0. -1.
       -5    1    3    3    0  502  0.26338889634E+03 -0.78820769658E+02 -0.14491550556E+04  0.14750114879E+04  0.46999998093E+01 0.  1.
</event>
<event>
 5   0  0.2987859E-05  0.1703360E+04  0.7818609E-02  0.8759450E-01
        1   -1    0    0  501    0  0.00000000000E+00  0.00000000000E+00  0.68495515991E+03  0.68495515993E+03  0.50400001928E-02 0. -1.
       -1   -1    0    0    0  501  0.00000000000E+00  0.00000000000E+00 -0.10589871533E+04  0.10589871534E+04  0.50400001928E-02 0.  1.
    10030    2    1    2    0    0  0.00000000000E+00  0.00000000000E+00 -0.37403199343E+03  0.17439423133E+04  0.17033598739E+04 0.  0.
        5    1    3    3  502    0  0.10189765198E+03 -0.84075660863E+03 -0.94975225144E+02  0.85223071397E+03  0.46999998093E+01 0. -1.
       -5    1    3    3    0  502 -0.10189765198E+03  0.84075660863E+03 -0.27905676829E+03  0.89171159932E+03  0.46999998093E+01 0.  1.
</event>
<event>
 5   0  0.2967704E-05  0.1709696E+04  0.7818609E-02  0.8755854E-01
        1   -1    0    0  501    0  0.00000000000E+00  0.00000000000E+00  0.12253505753E+04  0.12253505753E+04  0.50400001928E-02 0.  1.
       -1   -1    0    0    0  501  0.00000000000E+00  0.00000000000E+00 -0.59637221401E+03  0.59637221404E+03  0.50400001928E-02 0. -1.
    10030    2    1    2    0    0  0.00000000000E+00  0.00000000000E+00  0.62897836127E+03  0.18217227893E+04  0.17096959210E+04 0.  0.
        2    1    3    3  502    0  0.39072174467E+03 -0.60298777826E+03  0.80798610112E+03  0.10812489455E+04  0.25500000920E-02 0.  1.
       -2    1    3    3    0  502 -0.39072174467E+03  0.60298777826E+03 -0.17900773985E+03  0.74047384385E+03  0.25500000920E-02 0. -1.
</event>
<event>
 5   0  0.5859822E-05  0.1675607E+04  0.7818609E-02  0.8775400E-01
       -2   -1    0    0    0  501  0.00000000000E+00  0.00000000000E+00  0.39637280602E+03  0.39637280603E+03  0.25500000920E-02 0. -1.
        2   -1    0    0  501    0  0.00000000000E+00  0.00000000000E+00 -0.17708452641E+04  0.17708452641E+04  0.25500000920E-02 0.  1.
    10030    2    1    2    0    0  0.00000000000E+00  0.00000000000E+00 -0.13744724581E+04  0.21672180702E+04  0.16756072408E+04 0.  0.
        5    1    3    3  502    0  0.59944704992E+03 -0.43512852809E+03 -0.11935118335E+04  0.14046943399E+04  0.46999998093E+01 0.  1.
       -5    1    3    3    0  502 -0.59944704992E+03  0.43512852809E+03 -0.18096062456E+03  0.76252373029E+03  0.46999998093E+01 0. -1.
</event>
<event>
 5   0  0.5821584E-05  0.1700822E+04  0.7818609E-02  0.8760896E-01
       -2   -1    0    0    0  501  0.00000000000E+00  0.00000000000E+00  0.93806494854E+03  0.93806494855E+03  0.25500000920E-02 0. -1.
        2   -1    0    0  501    0  0.00000000000E+00  0.00000000000E+00 -0.77094734937E+03  0.77094734937E+03  0.25500000920E-02 0.  1.
    10030    2    1    2    0    0  0.00000000000E+00  0.00000000000E+00  0.16711759917E+03  0.17090122979E+04  0.17008217845E+04 0.  0.
        1    1    3    3  502    0 -0.66173662173E+03 -0.43500036524E+03 -0.22789840450E+03  0.82404997246E+03  0.50400001928E-02 0.  1.
       -1    1    3    3    0  502  0.66173662173E+03  0.43500036524E+03  0.39501600368E+03  0.88496232547E+03  0.50400001928E-02 0. -1.
</event>
<event>
 5   0  0.2967704E-05  0.1707372E+04  0.7818609E-02  0.8757171E-01
        1   -1    0    0  501    0  0.00000000000E+00  0.00000000000E+00  0.11712393345E+04  0.11712393346E+04  0.50400001928E-02 0.  1.
       -1   -1    0    0    0  501  0.00000000000E+00  0.00000000000E+00 -0.62222946209E+03  0.62222946211E+03  0.50400001928E-02 0. -1.
    10030    2    1    2    0    0  0.00000000000E+00  0.00000000000E+00  0.54900987246E+03  0.17934687967E+04  0.17073718062E+04 0.  0.
        2    1    3    3  502    0  0.70819173068E+03  0.25059778742E+03  0.70047183129E+03  0.10271297702E+04  0.25500000920E-02 0.  1.
       -2    1    3    3    0  502 -0.70819173068E+03 -0.25059778742E+03 -0.15146195883E+03  0.76633902644E+03  0.25500000920E-02 0. -1.
</event>
<event>
 5   0  0.2987859E-05  0.1698133E+04  0.7818609E-02  0.8762430E-01
        1   -1    0    0  501    0  0.00000000000E+00  0.00000000000E+00  0.14020731163E+04  0.14020731163E+04  0.50400001928E-02 0.  1.
       -1   -1    0    0    0  501  0.00000000000E+00  0.00000000000E+00 -0.51417682397E+03  0.51417682399E+03  0.50400001928E-02 0. -1.
    10030    2    1    2    0    0  0.00000000000E+00  0.00000000000E+00  0.88789629232E+03  0.19162499403E+04  0.16981325059E+04 0.  0.
        5    1    3    3  502    0 -0.64787912108E+03 -0.54791411504E+03  0.40945795366E+03  0.94214390557E+03  0.46999998093E+01 0.  1.
       -5    1    3    3    0  502  0.64787912108E+03  0.54791411504E+03  0.47843833867E+03  0.97410603472E+03  0.46999998093E+01 0. -1.
</event>
<event>
 5   0  0.2993769E-05  0.1696602E+04  0.7818609E-02  0.8763305E-01
       -1   -1    0    0    0  501  0.00000000000E+00  0.00000000000E+00  0.57035738611E+03  0.57035738614E+03  0.50400001928E-02 0.  1.
        1   -1    0    0  501    0  0.00000000000E+00  0.00000000000E+00 -0.12616900908E+04  0.12616900908E+04  0.50400001928E-02 0. -1.
    10030    2    1    2    0    0  0.00000000000E+00  0.00000000000E+00 -0.69133270464E+03  0.18320474769E+04  0.16966016177E+04 0.  0.
        3    1    3    3  502    0 -0.13504485233E+03  0.74692841202E+03  0.63354167274E+02  0.76167770450E+03  0.10100000352E+00 0.  1.
       -3    1    3    3    0  502  0.13504485233E+03 -0.74692841202E+03 -0.75468687192E+03  0.10703697724E+04  0.10100000352E+00 0. -1.
</event>
<event>
 5   0  0.2993769E-05  0.1699575E+04  0.7818609E-02  0.8761607E-01
        1   -1    0    0  501    0  0.00000000000E+00  0.00000000000E+00  0.13498081584E+04  0.13498081584E+04  0.50400001928E-02 0.  1.
       -1   -1    0    0    0  501  0.00000000000E+00  0.00000000000E+00 -0.53499350236E+03  0.53499350238E+03  0.50400001928E-02 0. -1.
    10030    2    1    2    0    0  0.00000000000E+00  0.00000000000E+00  0.81481465608E+03  0.18848016608E+04  0.16995747636E+04 0.  0.
        3    1    3    3  502    0 -0.41448670685E+03  0.74132829371E+03  0.43821463978E+03  0.95571907479E+03  0.10100000352E+00 0.  1.
       -3    1    3    3    0  502  0.41448670685E+03 -0.74132829371E+03  0.37660001630E+03  0.92908258604E+03  0.10100000352E+00 0. -1.
</event>
<event>
 5   0  0.2987859E-05  0.1701900E+04  0.7818609E-02  0.8760282E-01
        1   -1    0    0  501    0  0.00000000000E+00  0.00000000000E+00  0.10068722676E+04  0.10068722676E+04  0.50400001928E-02 0.  1.
       -1   -1    0    0    0  501  0.00000000000E+00  0.00000000000E+00 -0.71917329059E+03  0.71917329061E+03  0.50400001928E-02 0. -1.
    10030    2    1    2    0    0  0.00000000000E+00  0.00000000000E+00  0.28769897704E+03  0.17260455582E+04  0.17018996938E+04 0.  0.
        5    1    3    3  502    0 -0.51351471456E+02 -0.50530330478E+03 -0.54857044473E+03  0.74760954132E+03  0.46999998093E+01 0. -1.
       -5    1    3    3    0  502  0.51351471456E+02  0.50530330478E+03  0.83626942176E+03  0.97843601693E+03  0.46999998093E+01 0.  1.
</event>
<event>
 5   0  0.2966258E-05  0.1701790E+04  0.7818609E-02  0.8760344E-01
       -1   -1    0    0    0  501  0.00000000000E+00  0.00000000000E+00  0.74216478543E+03  0.74216478544E+03  0.50400001928E-02 0. -1.
        1   -1    0    0  501    0  0.00000000000E+00  0.00000000000E+00 -0.97555411838E+03  0.97555411839E+03  0.50400001928E-02 0.  1.
    10030    2    1    2    0    0  0.00000000000E+00  0.00000000000E+00 -0.23338933295E+03  0.17177189038E+04  0.17017895439E+04 0.  0.
        4    1    3    3  502    0  0.83429531349E+03  0.14416385826E+03 -0.20227278270E+03  0.87048709333E+03  0.12699999809E+01 0.  1.
       -4    1    3    3    0  502 -0.83429531349E+03 -0.14416385826E+03 -0.31116550250E+02  0.84723181051E+03  0.12699999809E+01 0. -1.
</event>
<event>
 5   0  0.2987859E-05  0.1698596E+04  0.7818609E-02  0.8762166E-01
        1   -1    0    0  501    0  0.00000000000E+00  0.00000000000E+00  0.73512658501E+03  0.73512658502E+03  0.50400001928E-02 0. -1.
       -1   -1    0    0    0  501  0.00000000000E+00  0.00000000000E+00 -0.98120072543E+03  0.98120072544E+03  0.50400001928E-02 0.  1.
    10030    2    1    2    0    0  0.00000000000E+00  0.00000000000E+00 -0.24607414042E+03  0.17163273105E+04  0.16985955828E+04 0.  0.
        5    1    3    3  502    0  0.80590404228E+03 -0.19454220771E+02  0.14700710296E+03  0.81944674653E+03  0.46999998093E+01 0. -1.
       -5    1    3    3    0  502 -0.80590404228E+03  0.19454220771E+02 -0.39308124339E+03  0.89688056394E+03  0.46999998093E+01 0.  1.
</event>
<event>
 5   0  0.5755321E-05  0.1699297E+04  0.7818609E-02  0.8761765E-01
       -2   -1    0    0    0  501  0.00000000000E+00  0.00000000000E+00  0.70895834562E+03  0.70895834563E+03  0.25500000920E-02 0. -1.
        2   -1    0    0  501    0  0.00000000000E+00  0.00000000000E+00 -0.10182583437E+04  0.10182583437E+04  0.25500000920E-02 0.  1.
    10030    2    1    2    0    0  0.00000000000E+00  0.00000000000E+00 -0.30929999806E+03  0.17272166893E+04  0.16992972086E+04 0.  0.
        4    1    3    3  502    0  0.17761790503E+03  0.71683366974E+03 -0.58167462570E+03  0.94007745072E+03  0.12699999809E+01 0.  1.
       -4    1    3    3    0  502 -0.17761790503E+03 -0.71683366974E+03  0.27237462764E+03  0.78713923860E+03  0.12699999809E+01 0. -1.
</event>
<event>
 5   0  0.2987859E-05  0.1698743E+04  0.7818609E-02  0.8762081E-01
       -1   -1    0    0    0  501  0.00000000000E+00  0.00000000000E+00  0.11169448974E+04  0.11169448974E+04  0.50400001928E-02 0.  1.
        1   -1    0    0  501    0  0.00000000000E+00  0.00000000000E+00 -0.64589779261E+03  0.64589779263E+03  0.50400001928E-02 0. -1.
    10030    2    1    2    0    0  0.00000000000E+00  0.00000000000E+00  0.47104710475E+03  0.17628426900E+04  0.16987433517E+04 0.  0.
        5    1    3    3  502    0  0.91601829422E+02  0.83228121643E+03  0.38347695127E+03  0.92095579727E+03  0.46999998093E+01 0.  1.
       -5    1    3    3    0  502 -0.91601829422E+02 -0.83228121643E+03  0.87570153482E+02  0.84188689273E+03  0.46999998093E+01 0. -1.
</event>
<event>
 5   0  0.5671132E-05  0.1701193E+04  0.7818609E-02  0.8760684E-01
       -2   -1    0    0    0  501  0.00000000000E+00  0.00000000000E+00  0.71722711518E+03  0.71722711518E+03  0.25500000920E-02 0. -1.
        2   -1    0    0  501    0  0.00000000000E+00  0.00000000000E+00 -0.10087656353E+04  0.10087656353E+04  0.25500000920E-02 0.  1.
    10030    2    1    2    0    0  0.00000000000E+00  0.00000000000E+00 -0.29153852014E+03  0.17259927505E+04  0.17011926011E+04 0.  0.
        3    1    3    3  502    0 -0.40240283640E+03 -0.72291748513E+03 -0.34607155093E+03  0.89682956107E+03  0.10100000352E+00 0. -1.
       -3    1    3    3    0  502  0.40240283640E+03  0.72291748513E+03  0.54533030797E+02  0.82916318943E+03  0.10100000352E+00 0.  1.
</event>
<event>
 5   0  0.5671132E-05  0.1698382E+04  0.7818609E-02  0.8762287E-01
        2   -1    0    0  501    0  0.00000000000E+00  0.00000000000E+00  0.16045004712E+04  0.16045004712E+04  0.25500000920E-02 0. -1.
       -2   -1    0    0    0  501  0.00000000000E+00  0.00000000000E+00 -0.44943942455E+03  0.44943942456E+03  0.25500000920E-02 0.  1.
    10030    2    1    2    0    0  0.00000000000E+00  0.00000000000E+00  0.11550610466E+04  0.20539398958E+04  0.16983824875E+04 0.  0.
        3    1    3    3  502    0 -0.10225698775E+03  0.82812626479E+03  0.38678960634E+03  0.91970419796E+03  0.10100000352E+00 0.  1.
       -3    1    3    3    0  502  0.10225698775E+03 -0.82812626479E+03  0.76827144031E+03  0.11342356978E+04  0.10100000352E+00 0. -1.
</event>
<event>
 5   0  0.2098250E-05  0.1700299E+04  0.7818609E-02  0.8761194E-01
        4   -1    0    0  501    0  0.00000000000E+00  0.00000000000E+00  0.57292021855E+03  0.57292162616E+03  0.12699999809E+01 0. -1.
       -4   -1    0    0    0  501  0.00000000000E+00  0.00000000000E+00 -0.12615231352E+04  0.12615237745E+04  0.12699999809E+01 0.  1.
    10030    2    1    2    0    0  0.00000000000E+00  0.00000000000E+00 -0.68860291664E+03  0.18344454006E+04  0.17002987829E+04 0.  0.
        5    1    3    3  502    0 -0.68518565175E+03 -0.48566581960E+03 -0.20206208655E+03  0.86382975320E+03  0.46999998093E+01 0. -1.
       -5    1    3    3    0  502  0.68518565175E+03  0.48566581960E+03 -0.48654083009E+03  0.97061564743E+03  0.46999998093E+01 0.  1.
</event>
<event>
 5   0  0.5859822E-05  0.1701670E+04  0.7818609E-02  0.8760412E-01
       -2   -1    0    0    0  501  0.00000000000E+00  0.00000000000E+00  0.10972992147E+04  0.10972992147E+04  0.25500000920E-02 0.  1.
        2   -1    0    0  501    0  0.00000000000E+00  0.00000000000E+00 -0.65972918276E+03  0.65972918276E+03  0.25500000920E-02 0. -1.
    10030    2    1    2    0    0  0.00000000000E+00  0.00000000000E+00  0.43757003195E+03  0.17570283975E+04  0.17016701374E+04 0.  0.
        5    1    3    3  502    0  0.18390539830E+03  0.60711427059E+03 -0.36666073551E+03  0.73271489547E+03  0.46999998093E+01 0. -1.
       -5    1    3    3    0  502 -0.18390539830E+03 -0.60711427059E+03  0.80423076745E+03  0.10243135020E+04  0.46999998093E+01 0.  1.
</event>
<event>
 5   0  0.2987859E-05  0.1697246E+04  0.7818609E-02  0.8762936E-01
       -1   -1    0    0    0  501  0.00000000000E+00  0.00000000000E+00  0.58940440929E+03  0.58940440931E+03  0.50400001928E-02 0. -1.
        1   -1    0    0  501    0  0.00000000000E+00  0.00000000000E+00 -0.12218456301E+04  0.12218456301E+04  0.50400001928E-02 0.  1.
    10030    2    1    2    0    0  0.00000000000E+00  0.00000000000E+00 -0.63244122085E+03  0.18112500395E+04  0.16972462425E+04 0.  0.
        5    1    3    3  502    0  0.64348472107E+02  0.63433559664E+03 -0.91385168069E+03  0.11143021849E+04  0.46999998093E+01 0.  1.
       -5    1    3    3    0  502 -0.64348472107E+02 -0.63433559664E+03  0.28141045984E+03  0.69694785453E+03  0.46999998093E+01 0. -1.
</event>
<event>
 5   0  0.2967704E-05  0.1698983E+04  0.7818609E-02  0.8761944E-01
       -1   -1    0    0    0  501  0.00000000000E+00  0.00000000000E+00  0.62836559916E+03  0.62836559918E+03  0.50400001928E-02 0.  1.
        1   -1    0    0  501    0  0.00000000000E+00  0.00000000000E+00 -0.11484334029E+04  0.11484334029E+04  0.50400001928E-02 0. -1.
    10030    2    1    2    0    0  0.00000000000E+00  0.00000000000E+00 -0.52006780375E+03  0.17767990021E+04  0.16989832764E+04 0.  0.
        2    1    3    3  502    0  0.67568987017E+03 -0.16077596328E+03  0.25147985629E+03  0.73867978796E+03  0.25500000920E-02 0.  1.
       -2    1    3    3    0  502 -0.67568987017E+03  0.16077596328E+03 -0.77154766004E+03  0.10381192141E+04  0.25500000920E-02 0. -1.
</event>
<event>
 5   0  0.5859822E-05  0.1701074E+04  0.7818609E-02  0.8760752E-01
       -2   -1    0    0    0  501  0.00000000000E+00  0.00000000000E+00  0.50835211936E+03  0.50835211937E+03  0.25500000920E-02 0. -1.
        2   -1    0    0  501    0  0.00000000000E+00  0.00000000000E+00 -0.14230557840E+04  0.14230557840E+04  0.25500000920E-02 0.  1.
    10030    2    1    2    0    0  0.00000000000E+00  0.00000000000E+00 -0.91470366468E+03  0.19314079034E+04  0.17010742768E+04 0.  0.
        5    1    3    3  502    0 -0.32171199960E+03 -0.24767954316E+03 -0.13059084194E+04  0.13675754665E+04  0.46999998093E+01 0.  1.
       -5    1    3    3    0  502  0.32171199960E+03  0.24767954316E+03  0.39120475471E+03  0.56383243689E+03  0.46999998093E+01 0. -1.
</event>
<event>
 5   0  0.5821584E-05  0.1701337E+04  0.7818609E-02  0.8760602E-01
        2   -1    0    0  501    0  0.00000000000E+00  0.00000000000E+00  0.11348348846E+04  0.11348348846E+04  0.25500000920E-02 0.  1.
       -2   -1    0    0    0  501  0.00000000000E+00  0.00000000000E+00 -0.63765852592E+03  0.63765852592E+03  0.25500000920E-02 0. -1.
    10030    2    1    2    0    0  0.00000000000E+00  0.00000000000E+00  0.49717635871E+03  0.17724934105E+04  0.17013372854E+04 0.  0.
        1    1    3    3  502    0 -0.30045578044E+03  0.70345372879E+03 -0.13915545293E+03  0.77748637586E+03  0.50400001928E-02 0. -1.
       -1    1    3    3    0  502  0.30045578044E+03 -0.70345372879E+03  0.63633181164E+03  0.99500703469E+03  0.50400001928E-02 0.  1.
</event>
<event>
 5   0  0.2967704E-05  0.1701248E+04  0.7818609E-02  0.8760653E-01
       -1   -1    0    0    0  501  0.00000000000E+00  0.00000000000E+00  0.56858547086E+03  0.56858547089E+03  0.50400001928E-02 0. -1.
        1   -1    0    0  501    0  0.00000000000E+00  0.00000000000E+00 -0.12725630577E+04  0.12725630578E+04  0.50400001928E-02 0.  1.
    10030    2    1    2    0    0  0.00000000000E+00  0.00000000000E+00 -0.70397758688E+03  0.18411485286E+04  0.17012476192E+04 0.  0.
        2    1    3    3  502    0  0.73556286008E+03  0.53379603746E+02  0.10672890475E+03  0.74517995299E+03  0.25500000920E-02 0. -1.
       -2    1    3    3    0  502 -0.73556286008E+03 -0.53379603746E+02 -0.81070649163E+03  0.10959685756E+04  0.25500000920E-02 0.  1.
</event>
<event>
 5   0  0.5821584E-05  0.1697347E+04  0.7818609E-02  0.8762879E-01
        2   -1    0    0  501    0  0.00000000000E+00  0.00000000000E+00  0.21544420698E+04  0.21544420698E+04  0.25500000920E-02 0. -1.
       -2   -1    0    0    0  501  0.00000000000E+00  0.00000000000E+00 -0.33430774577E+03  0.33430774578E+03  0.25500000920E-02 0.  1.
    10030    2    1    2    0    0  0.00000000000E+00  0.00000000000E+00  0.18201343241E+04  0.24887498156E+04  0.16973469554E+04 0.  0.
        1    1    3    3  502    0  0.26087854025E+03 -0.73627996787E+03  0.13965488952E+04  0.16001608108E+04  0.50400001928E-02 0. -1.
       -1    1    3    3    0  502 -0.26087854025E+03  0.73627996787E+03  0.42358542887E+03  0.88858900478E+03  0.50400001928E-02 0.  1.
</event>
<event>
 5   0  0.2966258E-05  0.1702311E+04  0.7818609E-02  0.8760047E-01
       -1   -1    0    0    0  501  0.00000000000E+00  0.00000000000E+00  0.43964326049E+03  0.43964326052E+03  0.50400001928E-02 0.  1.
        1   -1    0    0  501    0  0.00000000000E+00  0.00000000000E+00 -0.16478492683E+04  0.16478492683E+04  0.50400001928E-02 0. -1.
    10030    2    1    2    0    0  0.00000000000E+00  0.00000000000E+00 -0.12082060078E+04  0.20874925288E+04  0.17023111644E+04 0.  0.
        4    1    3    3  502    0  0.66067168426E+03 -0.10480708723E+03  0.41283791411E+02  0.67020710549E+03  0.12699999809E+01 0.  1.
       -4    1    3    3    0  502 -0.66067168426E+03  0.10480708723E+03 -0.12494897992E+04  0.14172854233E+04  0.12699999809E+01 0. -1.
</event>
<event>
 5   0  0.5671132E-05  0.1709062E+04  0.7818609E-02  0.8756213E-01
        2   -1    0    0  501    0  0.00000000000E+00  0.00000000000E+00  0.94435918872E+03  0.94435918872E+03  0.25500000920E-02 0. -1.
       -2   -1    0    0    0  501  0.00000000000E+00  0.00000000000E+00 -0.77324772702E+03  0.77324772703E+03  0.25500000920E-02 0.  1.
    10030    2    1    2    0    0  0.00000000000E+00  0.00000000000E+00  0.17111146169E+03  0.17176069157E+04  0.17090624286E+04 0.  0.
        3    1    3    3  502    0  0.31434469474E+03  0.75517512429E+03  0.33401943960E+03  0.88355591316E+03  0.10100000352E+00 0. -1.
       -3    1    3    3    0  502 -0.31434469474E+03 -0.75517512429E+03 -0.16290797790E+03  0.83405100259E+03  0.10100000352E+00 0.  1.
</event>
<event>
 5   0  0.2966258E-05  0.1693255E+04  0.7818609E-02  0.8765221E-01
       -1   -1    0    0    0  501  0.00000000000E+00  0.00000000000E+00  0.68089632169E+03  0.68089632171E+03  0.50400001928E-02 0.  1.
        1   -1    0    0  501    0  0.00000000000E+00  0.00000000000E+00 -0.10526973016E+04  0.10526973016E+04  0.50400001928E-02 0. -1.
    10030    2    1    2    0    0  0.00000000000E+00  0.00000000000E+00 -0.37180097987E+03  0.17335936233E+04  0.16932545237E+04 0.  0.
        4    1    3    3  502    0  0.27421400733E+03 -0.79913147568E+03 -0.13008877429E+03  0.85482696456E+03  0.12699999809E+01 0.  1.
       -4    1    3    3    0  502 -0.27421400733E+03  0.79913147568E+03 -0.24171220558E+03  0.87876665872E+03  0.12699999809E+01 0. -1.
</event>
<event>
 5   0  0.5671132E-05  0.1696424E+04  0.7818609E-02  0.8763406E-01
        2   -1    0    0  501    0  0.00000000000E+00  0.00000000000E+00  0.10780374923E+04  0.10780374923E+04  0.25500000920E-02 0.  1.
       -2   -1    0    0    0  501  0.00000000000E+00  0.00000000000E+00 -0.66738308211E+03  0.66738308212E+03  0.25500000920E-02 0. -1.
    10030    2    1    2    0    0  0.00000000000E+00  0.00000000000E+00  0.41065441016E+03  0.17454205744E+04  0.16964244566E+04 0.  0.
        3    1    3    3  502    0 -0.67041891614E+03 -0.51419597757E+03  0.28235568785E+03  0.89083318928E+03  0.10100000352E+00 0.  1.
       -3    1    3    3    0  502  0.67041891614E+03  0.51419597757E+03  0.12829872232E+03  0.85458738512E+03  0.10100000352E+00 0. -1.
</event>
<event>
 5   0  0.5755321E-05  0.1700578E+04  0.7818609E-02  0.8761035E-01
        2   -1    0    0  501    0  0.00000000000E+00  0.00000000000E+00  0.11896441111E+04  0.11896441111E+04  0.25500000920E-02 0.  1.
       -2   -1    0    0    0  501  0.00000000000E+00  0.00000000000E+00 -0.60773741402E+03  0.60773741402E+03  0.25500000920E-02 0. -1.
    10030    2    1    2    0    0  0.00000000000E+00  0.00000000000E+00  0.58190669711E+03  0.17973815252E+04  0.17005778262E+04 0.  0.
        4    1    3    3  502    0 -0.96364354812E+02 -0.13391514317E+03 -0.59065703094E+03  0.61326723013E+03  0.12699999809E+01 0. -1.
       -4    1    3    3    0  502  0.96364354812E+02  0.13391514317E+03  0.11725637281E+04  0.11841142950E+04  0.12699999809E+01 0.  1.
</event>
<event>
 5   0  0.5652631E-05  0.1700976E+04  0.7818609E-02  0.8760808E-01
        2   -1    0    0  501    0  0.00000000000E+00  0.00000000000E+00  0.67400920348E+03  0.67400920349E+03  0.25500000920E-02 0.  1.
       -2   -1    0    0    0  501  0.00000000000E+00  0.00000000000E+00 -0.10731752184E+04  0.10731752184E+04  0.25500000920E-02 0. -1.
    10030    2    1    2    0    0  0.00000000000E+00  0.00000000000E+00 -0.39916601492E+03  0.17471844219E+04  0.17009761599E+04 0.  0.
        2    1    3    3  502    0 -0.66703223957E+03 -0.13026263818E+03  0.32560876035E+03  0.75360561858E+03  0.25500000920E-02 0.  1.
       -2    1    3    3    0  502  0.66703223957E+03  0.13026263818E+03 -0.72477477527E+03  0.99357880331E+03  0.25500000920E-02 0. -1.
</event>
<event>
 5   0  0.5652631E-05  0.1697870E+04  0.7818609E-02  0.8762580E-01
       -2   -1    0    0    0  501  0.00000000000E+00  0.00000000000E+00  0.33803549123E+03  0.33803549124E+03  0.25500000920E-02 0. -1.
        2   -1    0    0  501    0  0.00000000000E+00  0.00000000000E+00 -0.21319979475E+04  0.21319979475E+04  0.25500000920E-02 0.  1.
    10030    2    1    2    0    0  0.00000000000E+00  0.00000000000E+00 -0.17939624563E+04  0.24700334388E+04  0.16978703997E+04 0.  0.
        2    1    3    3  502    0  0.24310524419E+03  0.59422731662E+03 -0.17049882170E+04  0.18218647271E+04  0.25500000920E-02 0.  1.
       -2    1    3    3    0  502 -0.24310524419E+03 -0.59422731662E+03 -0.88974239279E+02  0.64816871170E+03  0.25500000920E-02 0. -1.
</event>
<event>
 5   0  0.2966258E-05  0.1697867E+04  0.7818609E-02  0.8762582E-01
       -1   -1    0    0    0  501  0.00000000000E+00  0.00000000000E+00  0.96490917348E+03  0.96490917349E+03  0.50400001928E-02 0. -1.
        1   -1    0    0  501    0  0.00000000000E+00  0.00000000000E+00 -0.74689690786E+03  0.74689690788E+03  0.50400001928E-02 0.  1.
    10030    2    1    2    0    0  0.00000000000E+00  0.00000000000E+00  0.21801226562E+03  0.17118060814E+04  0.16978665178E+04 0.  0.
        4    1    3    3  502    0  0.50152360603E+03 -0.58367365875E+02 -0.57905817860E+03  0.76827251930E+03  0.12699999809E+01 0.  1.
       -4    1    3    3    0  502 -0.50152360603E+03  0.58367365875E+02  0.79707044421E+03  0.94353356207E+03  0.12699999809E+01 0. -1.
</event>
<event>
 5   0  0.5652631E-05  0.1704774E+04  0.7818609E-02  0.8758646E-01
        2   -1    0    0  501    0  0.00000000000E+00  0.00000000000E+00  0.12290971791E+04  0.12290971791E+04  0.25500000920E-02 0.  1.
       -2   -1    0    0    0  501  0.00000000000E+00  0.00000000000E+00 -0.59113595419E+03  0.59113595420E+03  0.25500000920E-02 0. -1.
    10030    2    1    2    0    0  0.00000000000E+00  0.00000000000E+00  0.63796122495E+03  0.18202331333E+04  0.17047739250E+04 0.  0.
        2    1    3    3  502    0 -0.61994669096E+02  0.36064330332E+03  0.11409616237E+04  0.11982071432E+04  0.25500000920E-02 0.  1.
       -2    1    3    3    0  502  0.61994669096E+02 -0.36064330332E+03 -0.50300039878E+03  0.62202599013E+03  0.25500000920E-02 0. -1.
</event>
<event>
 5   0  0.5859822E-05  0.1699288E+04  0.7818609E-02  0.8761770E-01
        2   -1    0    0  501    0  0.00000000000E+00  0.00000000000E+00  0.16701997785E+04  0.16701997785E+04  0.25500000920E-02 0. -1.
       -2   -1    0    0    0  501  0.00000000000E+00  0.00000000000E+00 -0.43222075981E+03  0.43222075982E+03  0.25500000920E-02 0.  1.
    10030    2    1    2    0    0  0.00000000000E+00  0.00000000000E+00  0.12379790187E+04  0.21024205383E+04  0.16992881066E+04 0.  0.
        5    1    3    3  502    0  0.63238029512E+03  0.18219416100E+03 -0.45871935120E+02  0.65971651062E+03  0.46999998093E+01 0. -1.
       -5    1    3    3    0  502 -0.63238029512E+03 -0.18219416100E+03  0.12838509538E+04  0.14427040277E+04  0.46999998093E+01 0.  1.
</event>
<event>
 5   0  0.5859822E-05  0.1705606E+04  0.7818609E-02  0.8758174E-01
       -2   -1    0    0    0  501  0.00000000000E+00  0.00000000000E+00  0.70034584915E+03  0.70034584915E+03  0.25500000920E-02 0.  1.
        2   -1    0    0  501    0  0.00000000000E+00  0.00000000000E+00 -0.10384481104E+04  0.10384481104E+04  0.25500000920E-02 0. -1.
    10030    2    1    2    0    0  0.00000000000E+00  0.00000000000E+00 -0.33810226121E+03  0.17387939595E+04  0.17056058439E+04 0.  0.
        5    1    3    3  502    0  0.43073344795E+03  0.35593120041E+03  0.48771455533E+03  0.74169124310E+03  0.46999998093E+01 0.  1.
       -5    1    3    3    0  502 -0.43073344795E+03 -0.35593120041E+03 -0.82581681653E+03  0.99710271641E+03  0.46999998093E+01 0. -1.
</event>
<event>
 5   0  0.5671132E-05  0.1705203E+04  0.7818609E-02  0.8758402E-01
       -2   -1    0    0    0  501  0.00000000000E+00  0.00000000000E+00  0.42729107165E+03  0.42729107166E+03  0.25500000920E-02 0. -1.
        2   -1    0    0  501    0  0.00000000000E+00  0.00000000000E+00 -0.17012512341E+04  0.17012512341E+04  0.25500000920E-02 0.  1.
    10030    2    1    2    0    0  0.00000000000E+00  0.00000000000E+00 -0.12739601624E+04  0.21285423057E+04  0.17052031703E+04 0.  0.
        3    1    3    3  502    0  0.53126109119E+03  0.38004702391E+03 -0.13209729020E+04  0.14736497227E+04  0.10100000352E+00 0.  1.
       -3    1    3    3    0  502 -0.53126109119E+03 -0.38004702391E+03  0.47012739536E+02  0.65489258301E+03  0.10100000352E+00 0. -1.
</event>
<event>
 5   0  0.2987859E-05  0.1699393E+04  0.7818609E-02  0.8761710E-01
       -1   -1    0    0    0  501  0.00000000000E+00  0.00000000000E+00  0.93833188046E+03  0.93833188047E+03  0.50400001928E-02 0. -1.
        1   -1    0    0  501    0  0.00000000000E+00  0.00000000000E+00 -0.76943399705E+03  0.76943399706E+03  0.50400001928E-02 0.  1.
    10030    2    1    2    0    0  0.00000000000E+00  0.00000000000E+00  0.16889788341E+03  0.17077658775E+04  0.16993933616E+04 0.  0.
        5    1    3    3  502    0  0.40730424074E+03 -0.27981453116E+02  0.83329313681E+03  0.92794355868E+03  0.46999998093E+01 0. -1.
       -5    1    3    3    0  502 -0.40730424074E+03  0.27981453116E+02 -0.66439525340E+03  0.77982231885E+03  0.46999998093E+01 0.  1.
</event>
<event>
 5   0  0.2911632E-05  0.1698582E+04  0.7818609E-02  0.8762174E-01
       -1   -1    0    0    0  501  0.00000000000E+00  0.00000000000E+00  0.47950871143E+03  0.47950871146E+03  0.50400001928E-02 0. -1.
        1   -1    0    0  501    0  0.00000000000E+00  0.00000000000E+00 -0.15042375335E+04  0.15042375335E+04  0.50400001928E-02 0.  1.
    10030    2    1    2    0    0  0.00000000000E+00  0.00000000000E+00 -0.10247288220E+04  0.19837462449E+04  0.16985817630E+04 0.  0.
        1    1    3    3  502    0  0.82648245767E+03 -0.69304984958E+02 -0.72586229558E+03  0.11021581130E+04  0.50400001928E-02 0. -1.
       -1    1    3    3    0  502 -0.82648245767E+03  0.69304984958E+02 -0.29886652645E+03  0.88158813198E+03  0.50400001928E-02 0.  1.
</event>
<event>
 5   0  0.5671132E-05  0.1705729E+04  0.7818609E-02  0.8758104E-01
        2   -1    0    0  501    0  0.00000000000E+00  0.00000000000E+00  0.19033503831E+04  0.19033503831E+04  0.25500000920E-02 0. -1.
       -2   -1    0    0    0  501  0.00000000000E+00  0.00000000000E+00 -0.38215660280E+03  0.38215660281E+03  0.25500000920E-02 0.  1.
    10030    2    1    2    0    0  0.00000000000E+00  0.00000000000E+00  0.15211937803E+04  0.22855069860E+04  0.17057290715E+04 0.  0.
        3    1    3    3  502    0 -0.30082971686E+03 -0.66866906923E+03  0.17691522068E+03  0.75426510472E+03  0.10100000352E+00 0.  1.
       -3    1    3    3    0  502  0.30082971686E+03  0.66866906923E+03  0.13442785597E+04  0.15312418812E+04  0.10100000352E+00 0. -1.
</event>
<event>
 5   0  0.2967704E-05  0.1701036E+04  0.7818609E-02  0.8760774E-01
       -1   -1    0    0    0  501  0.00000000000E+00  0.00000000000E+00  0.74538610828E+03  0.74538610830E+03  0.50400001928E-02 0.  1.
        1   -1    0    0  501    0  0.00000000000E+00  0.00000000000E+00 -0.97047780083E+03  0.97047780084E+03  0.50400001928E-02 0. -1.
    10030    2    1    2    0    0  0.00000000000E+00  0.00000000000E+00 -0.22509169255E+03  0.17158639091E+04  0.17010357682E+04 0.  0.
        2    1    3    3  502    0 -0.20396292061E+03 -0.73152849718E+03 -0.49882768610E+03  0.90860545651E+03  0.25500000920E-02 0. -1.
       -2    1    3    3    0  502  0.20396292061E+03  0.73152849718E+03  0.27373599355E+03  0.80725845263E+03  0.25500000920E-02 0.  1.
</event>
<event>
 5   0  0.5755321E-05  0.1703171E+04  0.7818609E-02  0.8759558E-01
        2   -1    0    0  501    0  0.00000000000E+00  0.00000000000E+00  0.13899622592E+04  0.13899622592E+04  0.25500000920E-02 0.  1.
       -2   -1    0    0    0  501  0.00000000000E+00  0.00000000000E+00 -0.52173912939E+03  0.52173912940E+03  0.25500000920E-02 0. -1.
    10030    2    1    2    0    0  0.00000000000E+00  0.00000000000E+00  0.86822312983E+03  0.19117013886E+04  0.17031708065E+04 0.  0.
        4    1    3    3  502    0 -0.61421510433E+03 -0.21978787360E+03 -0.18029225309E+03  0.67681150492E+03  0.12699999809E+01 0. -1.
       -4    1    3    3    0  502  0.61421510433E+03  0.21978787360E+03  0.10485153829E+04  0.12348898837E+04  0.12699999809E+01 0.  1.
</event>
<event>
 5   0  0.2966258E-05  0.1698918E+04  0.7818609E-02  0.8761982E-01
        1   -1    0    0  501    0  0.00000000000E+00  0.00000000000E+00  0.13863665863E+04  0.13863665863E+04  0.50400001928E-02 0. -1.
       -1   -1    0    0    0  501  0.00000000000E+00  0.00000000000E+00 -0.52048301551E+03  0.52048301553E+03  0.50400001928E-02 0.  1.
    10030    2    1    2    0    0  0.00000000000E+00  0.00000000000E+00  0.86588357080E+03  0.19068496018E+04  0.16989176101E+04 0.  0.
        4    1    3    3  502    0 -0.33260798342E+03  0.73286012052E+03  0.73798982677E+03  0.10919444236E+04  0.12699999809E+01 0. -1.
       -4    1    3    3    0  502  0.33260798342E+03 -0.73286012052E+03  0.12789374403E+03  0.81490517826E+03  0.12699999809E+01 0.  1.
</event>
<event>
 5   0  0.5755321E-05  0.1697103E+04  0.7818609E-02  0.8763018E-01
       -2   -1    0    0    0  501  0.00000000000E+00  0.00000000000E+00  0.12156938359E+04  0.12156938359E+04  0.25500000920E-02 0. -1.
        2   -1    0    0  501    0  0.00000000000E+00  0.00000000000E+00 -0.59228688050E+03  0.59228688050E+03  0.25500000920E-02 0.  1.
    10030    2    1    2    0    0  0.00000000000E+00  0.00000000000E+00  0.62340695541E+03  0.18079807164E+04  0.16971028369E+04 0.  0.
        4    1    3    3  502    0 -0.76526605263E+03 -0.36184017035E+03  0.24888079245E+03  0.88232856802E+03  0.12699999809E+01 0.  1.
       -4    1    3    3    0  502  0.76526605263E+03  0.36184017035E+03  0.37452616296E+03  0.92565214840E+03  0.12699999809E+01 0. -1.
</event>
<event>
 5   0  0.5821584E-05  0.1701747E+04  0.7818609E-02  0.8760369E-01
        2   -1    0    0  501    0  0.00000000000E+00  0.00000000000E+00  0.14259222865E+04  0.14259222865E+04  0.25500000920E-02 0. -1.
       -2   -1    0    0    0  501  0.00000000000E+00  0.00000000000E+00 -0.50773130470E+03  0.50773130471E+03  0.25500000920E-02 0.  1.
    10030    2    1    2    0    0  0.00000000000E+00  0.00000000000E+00  0.91819098183E+03  0.19336535912E+04  0.17017466121E+04 0.  0.
        1    1    3    3  502    0  0.16882751841E+03 -0.14245699114E+03 -0.47458083785E+03  0.52347272801E+03  0.50400001928E-02 0.  1.
       -1    1    3    3    0  502 -0.16882751841E+03  0.14245699114E+03  0.13927718197E+04  0.14101808632E+04  0.50400001928E-02 0. -1.
</event>
<event>
 5   0  0.5652631E-05  0.1695772E+04  0.7818609E-02  0.8763779E-01
       -2   -1    0    0    0  501  0.00000000000E+00  0.00000000000E+00  0.92564415156E+03  0.92564415156E+03  0.25500000920E-02 0.  1.
        2   -1    0    0  501    0  0.00000000000E+00  0.00000000000E+00 -0.77665986601E+03  0.77665986602E+03  0.25500000920E-02 0. -1.
    10030    2    1    2    0    0  0.00000000000E+00  0.00000000000E+00  0.14898428555E+03  0.17023040176E+04  0.16957719926E+04 0.  0.
        2    1    3    3  502    0 -0.22790370296E+03  0.58663704019E+03 -0.49587560490E+03  0.80123387989E+03  0.25500000920E-02 0. -1.
       -2    1    3    3    0  502  0.22790370296E+03 -0.58663704019E+03  0.64485989044E+03  0.90107013770E+03  0.25500000920E-02 0.  1.
</event>
<event>
 5   0  0.2993769E-05  0.1701751E+04  0.7818609E-02  0.8760367E-01
        1   -1    0    0  501    0  0.00000000000E+00  0.00000000000E+00  0.75604153419E+03  0.75604153421E+03  0.50400001928E-02 0. -1.
       -1   -1    0    0    0  501  0.00000000000E+00  0.00000000000E+00 -0.95760456171E+03  0.95760456172E+03  0.50400001928E-02 0.  1.
    10030    2    1    2    0    0  0.00000000000E+00  0.00000000000E+00 -0.20156302751E+03  0.17136460959E+04  0.17017506539E+04 0.  0.
        3    1    3    3  502    0 -0.37177108668E+03  0.14500399692E+02 -0.87135257353E+03  0.94745940286E+03  0.10100000352E+00 0.  1.
       -3    1    3    3    0  502  0.37177108668E+03 -0.14500399692E+02  0.66978954601E+03  0.76618669306E+03  0.10100000352E+00 0. -1.
</event>
<event>
 5   0  0.2911632E-05  0.1698935E+04  0.7818609E-02  0.8761972E-01
        1   -1    0    0  501    0  0.00000000000E+00  0.00000000000E+00  0.77773654286E+03  0.77773654288E+03  0.50400001928E-02 0. -1.
       -1   -1    0    0    0  501  0.00000000000E+00  0.00000000000E+00 -0.92781394644E+03  0.92781394646E+03  0.50400001928E-02 0.  1.
    10030    2    1    2    0    0  0.00000000000E+00  0.00000000000E+00 -0.15007740358E+03  0.17055504893E+04  0.16989347382E+04 0.  0.
        1    1    3    3  502    0 -0.66392830846E+03 -0.29285188957E+03  0.36830503713E+03  0.81376386526E+03  0.50400001928E-02 0. -1.
       -1    1    3    3    0  502  0.66392830846E+03  0.29285188957E+03 -0.51838244071E+03  0.89178662407E+03  0.50400001928E-02 0.  1.
</event>
<event>
 5   0  0.2967704E-05  0.1700561E+04  0.7818609E-02  0.8761045E-01
        1   -1    0    0  501    0  0.00000000000E+00  0.00000000000E+00  0.47975135958E+03  0.47975135961E+03  0.50400001928E-02 0.  1.
       -1   -1    0    0    0  501  0.00000000000E+00  0.00000000000E+00 -0.15069823641E+04  0.15069823641E+04  0.50400001928E-02 0. -1.
    10030    2    1    2    0    0  0.00000000000E+00  0.00000000000E+00 -0.10272310045E+04  0.19867337237E+04  0.17005608934E+04 0.  0.
        2    1    3    3  502    0  0.24626182398E+03 -0.22998460574E+03 -0.14256528212E+04  0.14649313197E+04  0.25500000920E-02 0. -1.
       -2    1    3    3    0  502 -0.24626182398E+03  0.22998460574E+03  0.39842181668E+03  0.52180240402E+03  0.25500000920E-02 0.  1.
</event>
<event>
 5   0  0.5652631E-05  0.1691924E+04  0.7818609E-02  0.8765984E-01
        2   -1    0    0  501    0  0.00000000000E+00  0.00000000000E+00  0.65607065293E+03  0.65607065294E+03  0.25500000920E-02 0.  1.
       -2   -1    0    0    0  501  0.00000000000E+00  0.00000000000E+00 -0.10908145925E+04  0.10908145925E+04  0.25500000920E-02 0. -1.
    10030    2    1    2    0    0  0.00000000000E+00  0.00000000000E+00 -0.43474393955E+03  0.17468852454E+04  0.16919236885E+04 0.  0.
        2    1    3    3  502    0 -0.10523196221E+03 -0.10125717247E+03 -0.10777016409E+04  0.10875511977E+04  0.25500000920E-02 0. -1.
       -2    1    3    3    0  502  0.10523196221E+03  0.10125717247E+03  0.64295770131E+03  0.65933404775E+03  0.25500000920E-02 0.  1.
</event>
<event>
 5   0  0.5859822E-05  0.1700711E+04  0.7818609E-02  0.8760959E-01
        2   -1    0    0  501    0  0.00000000000E+00  0.00000000000E+00  0.13319198507E+04  0.13319198507E+04  0.25500000920E-02 0. -1.
       -2   -1    0    0    0  501  0.00000000000E+00  0.00000000000E+00 -0.54290400315E+03  0.54290400316E+03  0.25500000920E-02 0.  1.
    10030    2    1    2    0    0  0.00000000000E+00  0.00000000000E+00  0.78901584754E+03  0.18748238538E+04  0.17007111675E+04 0.  0.
        5    1    3    3  502    0 -0.34682047862E+03  0.75298343815E+03  0.60312818322E+03  0.10252093435E+04  0.46999998093E+01 0. -1.
       -5    1    3    3    0  502  0.34682047862E+03 -0.75298343815E+03  0.18588766432E+03  0.84961451039E+03  0.46999998093E+01 0.  1.
</event>
<event>
 5   0  0.2911632E-05  0.1697369E+04  0.7818609E-02  0.8762866E-01
       -1   -1    0    0    0  501  0.00000000000E+00  0.00000000000E+00  0.40520638491E+03  0.40520638494E+03  0.50400001928E-02 0.  1.
        1   -1    0    0  501    0  0.00000000000E+00  0.00000000000E+00 -0.17775274391E+04  0.17775274391E+04  0.50400001928E-02 0. -1.
    10030    2    1    2    0    0  0.00000000000E+00  0.00000000000E+00 -0.13723210542E+04  0.21827338241E+04  0.16973691027E+04 0.  0.
        1    1    3    3  502    0 -0.13132960558E+03  0.67636994276E+03 -0.48943873202E+02  0.69073820477E+03  0.50400001928E-02 0.  1.
       -1    1    3    3    0  502  0.13132960558E+03 -0.67636994276E+03 -0.13233771810E+04  0.14919956193E+04  0.50400001928E-02 0. -1.
</event>
<event>
 5   0  0.5821584E-05  0.1700931E+04  0.7818609E-02  0.8760834E-01
       -2   -1    0    0    0  501  0.00000000000E+00  0.00000000000E+00  0.56272608288E+03  0.56272608289E+03  0.25500000920E-02 0. -1.
        2   -1    0    0  501    0  0.00000000000E+00  0.00000000000E+00 -0.12853346467E+04  0.12853346467E+04  0.25500000920E-02 0.  1.
    10030    2    1    2    0    0  0.00000000000E+00  0.00000000000E+00 -0.72260856377E+03  0.18480607295E+04  0.17009307228E+04 0.  0.
        1    1    3    3  502    0  0.43253328099E+03 -0.72616922717E+03 -0.25889313864E+03  0.88398667576E+03  0.50400001928E-02 0. -1.
       -1    1    3    3    0  502 -0.43253328099E+03  0.72616922717E+03 -0.46371542513E+03  0.96407405379E+03  0.50400001928E-02 0.  1.
</event>
<event>
 5   0  0.2911632E-05  0.1700055E+04  0.7818609E-02  0.8761333E-01
       -1   -1    0    0    0  501  0.00000000000E+00  0.00000000000E+00  0.24843732930E+03  0.24843732935E+03  0.50400001928E-02 0.  1.
        1   -1    0    0  501    0  0.00000000000E+00  0.00000000000E+00 -0.29083657484E+04  0.29083657484E+04  0.50400001928E-02 0. -1.
    10030    2    1    2    0    0  0.00000000000E+00  0.00000000000E+00 -0.26599284191E+04  0.31568030778E+04  0.17000548453E+04 0.  0.
        1    1    3    3  502    0 -0.96899676124E+02 -0.30680847446E+01  0.23813772069E+03  0.25711579962E+03  0.50400001928E-02 0.  1.
       -1    1    3    3    0  502  0.96899676124E+02  0.30680847446E+01 -0.28980661398E+04  0.28996872782E+04  0.50400001928E-02 0. -1.
</event>
<event>
 5   0  0.5859822E-05  0.1700127E+04  0.7818609E-02  0.8761292E-01
       -2   -1    0    0    0  501  0.00000000000E+00  0.00000000000E+00  0.27264563258E+03  0.27264563259E+03  0.25500000920E-02 0.  1.
        2   -1    0    0  501    0  0.00000000000E+00  0.00000000000E+00 -0.26503572792E+04  0.26503572792E+04  0.25500000920E-02 0. -1.
    10030    2    1    2    0    0  0.00000000000E+00  0.00000000000E+00 -0.23777116467E+04  0.29230029118E+04  0.17001274505E+04 0.  0.
        5    1    3    3  502    0  0.35370165269E+03 -0.16192727805E+03  0.11061051879E+03  0.40445281475E+03  0.46999998093E+01 0.  1.
       -5    1    3    3    0  502 -0.35370165269E+03  0.16192727805E+03 -0.24883221655E+04  0.25185500971E+04  0.46999998093E+01 0. -1.
</event>
<event>
 5   0  0.5821584E-05  0.1700891E+04  0.7818609E-02  0.8760856E-01
        2   -1    0    0  501    0  0.00000000000E+00  0.00000000000E+00  0.14326353245E+04  0.14326353245E+04  0.25500000920E-02 0. -1.
       -2   -1    0    0    0  501  0.00000000000E+00  0.00000000000E+00 -0.50484398568E+03  0.50484398569E+03  0.25500000920E-02 0.  1.
    10030    2    1    2    0    0  0.00000000000E+00  0.00000000000E+00  0.92779133881E+03  0.19374793102E+04  0.17008907399E+04 0.  0.
        1    1    3    3  502    0  0.49010945751E+03  0.60496160874E+03  0.85364577904E+03  0.11553774035E+04  0.50400001928E-02 0. -1.
       -1    1    3    3    0  502 -0.49010945751E+03 -0.60496160874E+03  0.74145559768E+02  0.78210190669E+03  0.50400001928E-02 0.  1.
</event>
<event>
 5   0  0.5859822E-05  0.1697835E+04  0.7818609E-02  0.8762600E-01
       -2   -1    0    0    0  501  0.00000000000E+00  0.00000000000E+00  0.99504841566E+03  0.99504841567E+03  0.25500000920E-02 0.  1.
        2   -1    0    0  501    0  0.00000000000E+00  0.00000000000E+00 -0.72424720563E+03  0.72424720564E+03  0.25500000920E-02 0. -1.
    10030    2    1    2    0    0  0.00000000000E+00  0.00000000000E+00  0.27080121003E+03  0.17192956213E+04  0.16978351328E+04 0.  0.
        5    1    3    3  502    0  0.11737935022E+03  0.81787476097E+03 -0.61848310733E+02  0.82857971253E+03  0.46999998093E+01 0.  1.
       -5    1    3    3    0  502 -0.11737935022E+03 -0.81787476097E+03  0.33264952076E+03  0.89071590877E+03  0.46999998093E+01 0. -1.
</event>
<event>
 5   0  0.5859822E-05  0.1698942E+04  0.7818609E-02  0.8761968E-01
       -2   -1    0    0    0  501  0.00000000000E+00  0.00000000000E+00  0.10311346097E+04  0.10311346097E+04  0.25500000920E-02 0. -1.
        2   -1    0    0  501    0  0.00000000000E+00  0.00000000000E+00 -0.69981274217E+03  0.69981274217E+03  0.25500000920E-02 0.  1.
    10030    2    1    2    0    0  0.00000000000E+00  0.00000000000E+00  0.33132186751E+03  0.17309473519E+04  0.16989421871E+04 0.  0.
        5    1    3    3  502    0  0.55257651493E+03 -0.64346588789E+03  0.21333881045E+03  0.87459973232E+03  0.46999998093E+01 0.  1.
       -5    1    3    3    0  502 -0.55257651493E+03  0.64346588789E+03  0.11798305707E+03  0.85634761954E+03  0.46999998093E+01 0. -1.
</event>
<event>
 5   0  0.2098250E-05  0.1699542E+04  0.7818609E-02  0.8761626E-01
        4   -1    0    0  501    0  0.00000000000E+00  0.00000000000E+00  0.67160076255E+03  0.67160196333E+03  0.12699999809E+01 0.  1.
       -4   -1    0    0    0  501  0.00000000000E+00  0.00000000000E+00 -0.10752055969E+04  0.10752063470E+04  0.12699999809E+01 0. -1.
    10030    2    1    2    0    0  0.00000000000E+00  0.00000000000E+00 -0.40360483440E+03  0.17468083103E+04  0.16995418237E+04 0.  0.
        5    1    3    3  502    0 -0.57030227809E+03  0.62286612075E+03 -0.10493906734E+03  0.85102361343E+03  0.46999998093E+01 0.  1.
       -5    1    3    3    0  502  0.57030227809E+03 -0.62286612075E+03 -0.29866576705E+03  0.89578469689E+03  0.46999998093E+01 0. -1.
</event>
<event>
 5   0  0.5821584E-05  0.1699725E+04  0.7818609E-02  0.8761521E-01
        2   -1    0    0  501    0  0.00000000000E+00  0.00000000000E+00  0.17908440657E+04  0.17908440657E+04  0.25500000920E-02 0.  1.
       -2   -1    0    0    0  501  0.00000000000E+00  0.00000000000E+00 -0.40331062553E+03  0.40331062554E+03  0.25500000920E-02 0. -1.
    10030    2    1    2    0    0  0.00000000000E+00  0.00000000000E+00  0.13875334401E+04  0.21941546912E+04  0.16997252017E+04 0.  0.
        1    1    3    3  502    0 -0.67811215060E+03  0.16548390099E+02  0.32816356131E+02  0.67910739302E+03  0.50400001928E-02 0. -1.
       -1    1    3    3    0  502  0.67811215060E+03 -0.16548390099E+02  0.13547170840E+04  0.15150472982E+04  0.50400001928E-02 0.  1.
</event>
<event>
 5   0  0.2967704E-05  0.1699922E+04  0.7818609E-02  0.8761409E-01
       -1   -1    0    0    0  501  0.00000000000E+00  0.00000000000E+00  0.58171926473E+03  0.58171926475E+03  0.50400001928E-02 0.  1.
        1   -1    0    0  501    0  0.00000000000E+00  0.00000000000E+00 -0.12418941900E+04  0.12418941900E+04  0.50400001928E-02 0. -1.
    10030    2    1    2    0    0  0.00000000000E+00  0.00000000000E+00 -0.66017492527E+03  0.18236134548E+04  0.16999220866E+04 0.  0.
        2    1    3    3  502    0 -0.27026777873E+03 -0.80530790658E+03 -0.36169810264E+03  0.92325024456E+03  0.25500000920E-02 0. -1.
       -2    1    3    3    0  502  0.27026777873E+03  0.80530790658E+03 -0.29847682263E+03  0.90036321020E+03  0.25500000920E-02 0.  1.
</event>
<event>
 5   0  0.5755321E-05  0.1704699E+04  0.7818609E-02  0.8758689E-01
       -2   -1    0    0    0  501  0.00000000000E+00  0.00000000000E+00  0.77736717707E+03  0.77736717707E+03  0.25500000920E-02 0.  1.
        2   -1    0    0  501    0  0.00000000000E+00  0.00000000000E+00 -0.93456409762E+03  0.93456409763E+03  0.25500000920E-02 0. -1.
    10030    2    1    2    0    0  0.00000000000E+00  0.00000000000E+00 -0.15719692056E+03  0.17119312747E+04  0.17046987468E+04 0.  0.
        4    1    3    3  502    0 -0.37170076600E+03  0.19680795684E+03  0.66589902546E+03  0.78760266400E+03  0.12699999809E+01 0.  1.
       -4    1    3    3    0  502  0.37170076600E+03 -0.19680795684E+03 -0.82309594601E+03  0.92432861071E+03  0.12699999809E+01 0. -1.
</event>
<event>
 5   0  0.2993769E-05  0.1698661E+04  0.7818609E-02  0.8762128E-01
       -1   -1    0    0    0  501  0.00000000000E+00  0.00000000000E+00  0.92833553578E+03  0.92833553579E+03  0.50400001928E-02 0. -1.
        1   -1    0    0  501    0  0.00000000000E+00  0.00000000000E+00 -0.77704933662E+03  0.77704933664E+03  0.50400001928E-02 0.  1.
    10030    2    1    2    0    0  0.00000000000E+00  0.00000000000E+00  0.15128619916E+03  0.17053848724E+04  0.16986612520E+04 0.  0.
        3    1    3    3  502    0  0.43939763303E+02 -0.82914089502E+03 -0.10383018858E+03  0.83677120222E+03  0.10100000352E+00 0. -1.
       -3    1    3    3    0  502 -0.43939763303E+02  0.82914089502E+03  0.25511638773E+03  0.86861367022E+03  0.10100000352E+00 0.  1.
</event>
<event>
 5   0  0.5671132E-05  0.1700673E+04  0.7818609E-02  0.8760981E-01
       -2   -1    0    0    0  501  0.00000000000E+00  0.00000000000E+00  0.47931327582E+03  0.47931327583E+03  0.25500000920E-02 0. -1.
        2   -1    0    0  501    0  0.00000000000E+00  0.00000000000E+00 -0.15085585064E+04  0.15085585064E+04  0.25500000920E-02 0.  1.
    10030    2    1    2    0    0  0.00000000000E+00  0.00000000000E+00 -0.10292452305E+04  0.19878717822E+04  0.17006729485E+04 0.  0.
        3    1    3    3  502    0  0.40693177336E+03 -0.72695083936E+03 -0.71374708694E+03  0.10970350520E+04  0.10100000352E+00 0.  1.
       -3    1    3    3    0  502 -0.40693177336E+03  0.72695083936E+03 -0.31549814361E+03  0.89083673019E+03  0.10100000352E+00 0. -1.
</event>
<event>
 5   0  0.2966258E-05  0.1698639E+04  0.7818609E-02  0.8762141E-01
       -1   -1    0    0    0  501  0.00000000000E+00  0.00000000000E+00  0.10028959304E+04  0.10028959304E+04  0.50400001928E-02 0.  1.
        1   -1    0    0  501    0  0.00000000000E+00  0.00000000000E+00 -0.71926088866E+03  0.71926088868E+03  0.50400001928E-02 0. -1.
    10030    2    1    2    0    0  0.00000000000E+00  0.00000000000E+00  0.28363504178E+03  0.17221568191E+04  0.16986392415E+04 0.  0.
        4    1    3    3  502    0  0.14711210378E+03  0.27703521303E+03 -0.65838283317E+03  0.72928735643E+03  0.12699999809E+01 0. -1.
       -4    1    3    3    0  502 -0.14711210378E+03 -0.27703521303E+03  0.94201787494E+03  0.99286946269E+03  0.12699999809E+01 0.  1.
</event>
<event>
 5   0  0.5821584E-05  0.1703875E+04  0.7818609E-02  0.8759157E-01
       -2   -1    0    0    0  501  0.00000000000E+00  0.00000000000E+00  0.43339226438E+03  0.43339226439E+03  0.25500000920E-02 0.  1.
        2   -1    0    0  501    0  0.00000000000E+00  0.00000000000E+00 -0.16746894158E+04  0.16746894158E+04  0.25500000920E-02 0. -1.
    10030    2    1    2    0    0  0.00000000000E+00  0.00000000000E+00 -0.12412971515E+04  0.21080816802E+04  0.17038749227E+04 0.  0.
        1    1    3    3  502    0 -0.49328066651E+03  0.22477606570E+03  0.19249105125E+03  0.57524160185E+03  0.50400001928E-02 0.  1.
       -1    1    3    3    0  502  0.49328066651E+03 -0.22477606570E+03 -0.14337882027E+04  0.15328400784E+04  0.50400001928E-02 0. -1.
</event>
<event>
 5   0  0.2987859E-05  0.1666724E+04  0.7818609E-02  0.8780574E-01
        1   -1    0    0  501    0  0.00000000000E+00  0.00000000000E+00  0.13811155155E+04  0.13811155156E+04  0.50400001928E-02 0.  1.
       -1   -1    0    0    0  501  0.00000000000E+00  0.00000000000E+00 -0.50284853116E+03  0.50284853119E+03  0.50400001928E-02 0. -1.
    10030    2    1    2    0    0  0.00000000000E+00  0.00000000000E+00  0.87826698438E+03  0.18839640467E+04  0.16667236224E+04 0.  0.
        5    1    3    3  502    0  0.49785011338E+02 -0.72878713808E+03  0.89248371426E+03  0.11533249803E+04  0.46999998093E+01 0.  1.
       -5    1    3    3    0  502 -0.49785011338E+02  0.72878713808E+03 -0.14216729881E+02  0.73063906643E+03  0.46999998093E+01 0. -1.
</event>
<event>
 5   0  0.2966258E-05  0.1699738E+04  0.7818609E-02  0.8761514E-01
        1   -1    0    0  501    0  0.00000000000E+00  0.00000000000E+00  0.86717924951E+03  0.86717924952E+03  0.50400001928E-02 0. -1.
       -1   -1    0    0    0  501  0.00000000000E+00  0.00000000000E+00 -0.83290425366E+03  0.83290425367E+03  0.50400001928E-02 0.  1.
    10030    2    1    2    0    0  0.00000000000E+00  0.00000000000E+00  0.34274995848E+02  0.17000835032E+04  0.16997379629E+04 0.  0.
        4    1    3    3  502    0 -0.73384927764E+03  0.41060695944E+03  0.14021874224E+03  0.85252316450E+03  0.12699999809E+01 0.  1.
       -4    1    3    3    0  502  0.73384927764E+03 -0.41060695944E+03 -0.10594374640E+03  0.84756033870E+03  0.12699999809E+01 0. -1.
</event>
<event>
 5   0  0.5671132E-05  0.1701886E+04  0.7818609E-02  0.8760289E-01
       -2   -1    0    0    0  501  0.00000000000E+00  0.00000000000E+00  0.68009008829E+03  0.68009008829E+03  0.25500000920E-02 0.  1.
        2   -1    0    0  501    0  0.00000000000E+00  0.00000000000E+00 -0.10647181871E+04  0.10647181871E+04  0.25500000920E-02 0. -1.
    10030    2    1    2    0    0  0.00000000000E+00  0.00000000000E+00 -0.38462809880E+03  0.17448082754E+04  0.17018863486E+04 0.  0.
        3    1    3    3  502    0  0.41975052149E+03  0.59414168863E+03 -0.64493388498E+03  0.97218031900E+03  0.10100000352E+00 0. -1.
       -3    1    3    3    0  502 -0.41975052149E+03 -0.59414168863E+03  0.26030578618E+03  0.77262795638E+03  0.10100000352E+00 0.  1.
</event>
<event>
 5   0  0.2987859E-05  0.1700150E+04  0.7818609E-02  0.8761279E-01
       -1   -1    0    0    0  501  0.00000000000E+00  0.00000000000E+00  0.10968170449E+04  0.10968170449E+04  0.50400001928E-02 0.  1.
        1   -1    0    0  501    0  0.00000000000E+00  0.00000000000E+00 -0.65884042177E+03  0.65884042179E+03  0.50400001928E-02 0. -1.
    10030    2    1    2    0    0  0.00000000000E+00  0.00000000000E+00  0.43797662315E+03  0.17556574667E+04  0.17001498810E+04 0.  0.
        5    1    3    3  502    0  0.12437840805E+03  0.51351364339E+03 -0.46866502248E+03  0.70628269385E+03  0.46999998093E+01 0. -1.
       -5    1    3    3    0  502 -0.12437840805E+03 -0.51351364339E+03  0.90664164563E+03  0.10493747729E+04  0.46999998093E+01 0.  1.
</event>
<event>
 5   0  0.2993769E-05  0.1701315E+04  0.7818609E-02  0.8760615E-01
       -1   -1    0    0    0  501  0.00000000000E+00  0.00000000000E+00  0.65789066236E+03  0.65789066238E+03  0.50400001928E-02 0. -1.
        1   -1    0    0  501    0  0.00000000000E+00  0.00000000000E+00 -0.10999063040E+04  0.10999063040E+04  0.50400001928E-02 0.  1.
    10030    2    1    2    0    0  0.00000000000E+00  0.00000000000E+00 -0.44201564161E+03  0.17577969664E+04  0.17013148878E+04 0.  0.
        3    1    3    3  502    0  0.60184072977E+03  0.28853101337E+03 -0.76592181881E+03  0.10159225622E+04  0.10100000352E+00 0.  1.
       -3    1    3    3    0  502 -0.60184072977E+03 -0.28853101337E+03  0.32390617720E+03  0.74187440414E+03  0.10100000352E+00 0. -1.
</event>
<event>
 5   0  0.2967704E-05  0.1701809E+04  0.7818609E-02  0.8760333E-01
        1   -1    0    0  501    0  0.00000000000E+00  0.00000000000E+00  0.14419538068E+04  0.14419538068E+04  0.50400001928E-02 0. -1.
       -1   -1    0    0    0  501  0.00000000000E+00  0.00000000000E+00 -0.50212345977E+03  0.50212345979E+03  0.50400001928E-02 0.  1.
    10030    2    1    2    0    0  0.00000000000E+00  0.00000000000E+00  0.93983034703E+03  0.19440772666E+04  0.17018094304E+04 0.  0.
        2    1    3    3  502    0 -0.78567195821E+03 -0.10900549837E+03  0.82178437798E+03  0.11421436812E+04  0.25500000920E-02 0. -1.
       -2    1    3    3    0  502  0.78567195821E+03  0.10900549837E+03  0.11804596905E+03  0.80193358541E+03  0.25500000920E-02 0.  1.
</event>
<event>
 5   0  0.5652631E-05  0.1700701E+04  0.7818609E-02  0.8760965E-01
        2   -1    0    0  501    0  0.00000000000E+00  0.00000000000E+00  0.46572833028E+03  0.46572833029E+03  0.25500000920E-02 0. -1.
       -2   -1    0    0    0  501  0.00000000000E+00  0.00000000000E+00 -0.15526128525E+04  0.15526128525E+04  0.25500000920E-02 0.  1.
    10030    2    1    2    0    0  0.00000000000E+00  0.00000000000E+00 -0.10868845222E+04  0.20183411828E+04  0.17007007866E+04 0.  0.
        2    1    3    3  502    0  0.32851545606E+03  0.48392866403E+03  0.18908100889E+03  0.61470398133E+03  0.25500000920E-02 0. -1.
       -2    1    3    3    0  502 -0.32851545606E+03 -0.48392866403E+03 -0.12759655311E+04  0.14036372015E+04  0.25500000920E-02 0.  1.
</event>
<event>
 5   0  0.2967704E-05  0.1701826E+04  0.7818609E-02  0.8760324E-01
        1   -1    0    0  501    0  0.00000000000E+00  0.00000000000E+00  0.12734595295E+04  0.12734595295E+04  0.50400001928E-02 0.  1.
       -1   -1    0    0    0  501  0.00000000000E+00  0.00000000000E+00 -0.56857148724E+03  0.56857148726E+03  0.50400001928E-02 0. -1.
    10030    2    1    2    0    0  0.00000000000E+00  0.00000000000E+00  0.70488804229E+03  0.18420310168E+04  0.17018258180E+04 0.  0.
        2    1    3    3  502    0  0.65617993740E+03 -0.46197093158E+03  0.46177737129E+02  0.80381691652E+03  0.25500000920E-02 0. -1.
       -2    1    3    3    0  502 -0.65617993740E+03  0.46197093158E+03  0.65871030516E+03  0.10382141003E+04  0.25500000920E-02 0.  1.
</event>
<event>
 5   0  0.2967704E-05  0.1698268E+04  0.7818609E-02  0.8762353E-01
        1   -1    0    0  501    0  0.00000000000E+00  0.00000000000E+00  0.11932926800E+04  0.11932926801E+04  0.50400001928E-02 0. -1.
       -1   -1    0    0    0  501  0.00000000000E+00  0.00000000000E+00 -0.60423460741E+03  0.60423460743E+03  0.50400001928E-02 0.  1.
    10030    2    1    2    0    0  0.00000000000E+00  0.00000000000E+00  0.58905807264E+03  0.17975272875E+04  0.16982682168E+04 0.  0.
        2    1    3    3  502    0 -0.42469228652E+03 -0.73511571759E+03  0.27713447467E+03  0.89306336479E+03  0.25500000920E-02 0.  1.
       -2    1    3    3    0  502  0.42469228652E+03  0.73511571759E+03  0.31192359797E+03  0.90446392269E+03  0.25500000920E-02 0. -1.
</event>
<event>
 5   0  0.2993769E-05  0.1708099E+04  0.7818609E-02  0.8756759E-01
        1   -1    0    0  501    0  0.00000000000E+00  0.00000000000E+00  0.11229351057E+04  0.11229351057E+04  0.50400001928E-02 0. -1.
       -1   -1    0    0    0  501  0.00000000000E+00  0.00000000000E+00 -0.64954802964E+03  0.64954802965E+03  0.50400001928E-02 0.  1.
    10030    2    1    2    0    0  0.00000000000E+00  0.00000000000E+00  0.47338707609E+03  0.17724831354E+04  0.17080986919E+04 0.  0.
        3    1    3    3  502    0  0.26570198108E+03 -0.17089173097E+03 -0.58668791417E+03  0.66633643552E+03  0.10100000352E+00 0.  1.
       -3    1    3    3    0  502 -0.26570198108E+03  0.17089173097E+03  0.10600749903E+04  0.11061466999E+04  0.10100000352E+00 0. -1.
</event>
<event>
 5   0  0.5821584E-05  0.1686255E+04  0.7818609E-02  0.8769243E-01
       -2   -1    0    0    0  501  0.00000000000E+00  0.00000000000E+00  0.50844590700E+03  0.50844590700E+03  0.25500000920E-02 0.  1.
        2   -1    0    0  501    0  0.00000000000E+00  0.00000000000E+00 -0.13981117320E+04  0.13981117320E+04  0.25500000920E-02 0. -1.
    10030    2    1    2    0    0  0.00000000000E+00  0.00000000000E+00 -0.88966582502E+03  0.19065576390E+04  0.16862552448E+04 0.  0.
        1    1    3    3  502    0 -0.43912452622E+03  0.68848705542E+03 -0.68205151751E+03  0.10639732363E+04  0.50400001928E-02 0. -1.
       -1    1    3    3    0  502  0.43912452622E+03 -0.68848705542E+03 -0.20761430751E+03  0.84258440272E+03  0.50400001928E-02 0.  1.
</event>
<event>
 5   0  0.5755321E-05  0.1697354E+04  0.7818609E-02  0.8762875E-01
        2   -1    0    0  501    0  0.00000000000E+00  0.00000000000E+00  0.11091545680E+04  0.11091545680E+04  0.25500000920E-02 0.  1.
       -2   -1    0    0    0  501  0.00000000000E+00  0.00000000000E+00 -0.64937119945E+03  0.64937119946E+03  0.25500000920E-02 0. -1.
    10030    2    1    2    0    0  0.00000000000E+00  0.00000000000E+00  0.45978336854E+03  0.17585257675E+04  0.16973544500E+04 0.  0.
        4    1    3    3  502    0 -0.17830726801E+03  0.57500506010E+03 -0.38985301164E+03  0.71722470994E+03  0.12699999809E+01 0. -1.
       -4    1    3    3    0  502  0.17830726801E+03 -0.57500506010E+03  0.84963638018E+03  0.10413010575E+04  0.12699999809E+01 0.  1.
</event>
<event>
 5   0  0.2911632E-05  0.1705618E+04  0.7818609E-02  0.8758167E-01
        1   -1    0    0  501    0  0.00000000000E+00  0.00000000000E+00  0.18515180204E+04  0.18515180204E+04  0.50400001928E-02 0.  1.
       -1   -1    0    0    0  501  0.00000000000E+00  0.00000000000E+00 -0.39280370432E+03  0.39280370436E+03  0.50400001928E-02 0. -1.
    10030    2    1    2    0    0  0.00000000000E+00  0.00000000000E+00  0.14587143160E+04  0.22443217247E+04  0.17056179374E+04 0.  0.
        1    1    3    3  502    0 -0.82049900057E+03 -0.13651280055E+03  0.48168255697E+03  0.96118283400E+03  0.50400001928E-02 0. -1.
       -1    1    3    3    0  502  0.82049900057E+03  0.13651280055E+03  0.97703175907E+03  0.12831388907E+04  0.50400001928E-02 0.  1.
</event>
<event>
 5   0  0.5821584E-05  0.1734128E+04  0.7818609E-02  0.8742136E-01
        2   -1    0    0  501    0  0.00000000000E+00  0.00000000000E+00  0.85212178454E+03  0.85212178454E+03  0.25500000920E-02 0. -1.
       -2   -1    0    0    0  501  0.00000000000E+00  0.00000000000E+00 -0.88226843963E+03  0.88226843964E+03  0.25500000920E-02 0.  1.
    10030    2    1    2    0    0  0.00000000000E+00  0.00000000000E+00 -0.30146655098E+02  0.17343902242E+04  0.17341282043E+04 0.  0.
        1    1    3    3  502    0  0.34723006959E+03 -0.13609775942E+02  0.77943087102E+03  0.85338527638E+03  0.50400001928E-02 0. -1.
       -1    1    3    3    0  502 -0.34723006959E+03  0.13609775942E+02 -0.80957752611E+03  0.88100494780E+03  0.50400001928E-02 0.  1.
</event>
<event>
 5   0  0.5755321E-05  0.1698346E+04  0.7818609E-02  0.8762308E-01
        2   -1    0    0  501    0  0.00000000000E+00  0.00000000000E+00  0.63787349537E+03  0.63787349538E+03  0.25500000920E-02 0. -1.
       -2   -1    0    0    0  501  0.00000000000E+00  0.00000000000E+00 -0.11304664943E+04  0.11304664943E+04  0.25500000920E-02 0.  1.
    10030    2    1    2    0    0  0.00000000000E+00  0.00000000000E+00 -0.49259299894E+03  0.17683399897E+04  0.16983458001E+04 0.  0.
        4    1    3    3  502    0  0.38255866554E+03 -0.53872944814E+03 -0.80167656158E+03  0.10388779876E+04  0.12699999809E+01 0.  1.
       -4    1    3    3    0  502 -0.38255866554E+03  0.53872944814E+03  0.30908356264E+03  0.72946200208E+03  0.12699999809E+01 0. -1.
</event>
<event>
 5   0  0.5859822E-05  0.1700723E+04  0.7818609E-02  0.8760952E-01
        2   -1    0    0  501    0  0.00000000000E+00  0.00000000000E+00  0.13230761450E+04  0.13230761450E+04  0.25500000920E-02 0. -1.
       -2   -1    0    0    0  501  0.00000000000E+00  0.00000000000E+00 -0.54654049287E+03  0.54654049288E+03  0.25500000920E-02 0.  1.
    10030    2    1    2    0    0  0.00000000000E+00  0.00000000000E+00  0.77653565209E+03  0.18696166378E+04  0.17007230091E+04 0.  0.
        5    1    3    3  502    0  0.53934421742E+03  0.88090762974E+02  0.11044563379E+04  0.12322735328E+04  0.46999998093E+01 0. -1.
       -5    1    3    3    0  502 -0.53934421742E+03 -0.88090762974E+02 -0.32792068578E+03  0.63734310504E+03  0.46999998093E+01 0.  1.
</event>
<event>
 5   0  0.5821584E-05  0.1700078E+04  0.7818609E-02  0.8761320E-01
       -2   -1    0    0    0  501  0.00000000000E+00  0.00000000000E+00  0.38649213413E+03  0.38649213413E+03  0.25500000920E-02 0. -1.
        2   -1    0    0  501    0  0.00000000000E+00  0.00000000000E+00 -0.18695494176E+04  0.18695494176E+04  0.25500000920E-02 0.  1.
    10030    2    1    2    0    0  0.00000000000E+00  0.00000000000E+00 -0.14830572835E+04  0.22560415517E+04  0.17000778150E+04 0.  0.
        1    1    3    3  502    0  0.60988896478E+03 -0.74229616702E+02 -0.15210813098E+04  0.16404764358E+04  0.50400001928E-02 0.  1.
       -1    1    3    3    0  502 -0.60988896478E+03  0.74229616702E+02  0.38024026327E+02  0.61556511594E+03  0.50400001928E-02 0. -1.
</event>
<event>
 5   0  0.5859822E-05  0.1687261E+04  0.7818609E-02  0.8768663E-01
       -2   -1    0    0    0  501  0.00000000000E+00  0.00000000000E+00  0.54664120193E+03  0.54664120194E+03  0.25500000920E-02 0. -1.
        2   -1    0    0  501    0  0.00000000000E+00  0.00000000000E+00 -0.13019742801E+04  0.13019742801E+04  0.25500000920E-02 0.  1.
    10030    2    1    2    0    0  0.00000000000E+00  0.00000000000E+00 -0.75533307821E+03  0.18486154821E+04  0.16872614325E+04 0.  0.
        5    1    3    3  502    0 -0.28233045775E+01  0.31335282465E+03 -0.12358278229E+04  0.12749472387E+04  0.46999998093E+01 0.  1.
       -5    1    3    3    0  502  0.28233045775E+01 -0.31335282465E+03  0.48049474467E+03  0.57366824335E+03  0.46999998093E+01 0. -1.
</event>
<event>
 5   0  0.5821584E-05  0.1699066E+04  0.7818609E-02  0.8761897E-01
       -2   -1    0    0    0  501  0.00000000000E+00  0.00000000000E+00  0.27527447885E+03  0.27527447886E+03  0.25500000920E-02 0.  1.
        2   -1    0    0  501    0  0.00000000000E+00  0.00000000000E+00 -0.26217695559E+04  0.26217695559E+04  0.25500000920E-02 0. -1.
    10030    2    1    2    0    0  0.00000000000E+00  0.00000000000E+00 -0.23464950770E+04  0.28970440347E+04  0.16990659177E+04 0.  0.
        1    1    3    3  502    0 -0.77181012493E+03  0.53277825624E+02 -0.57482296432E+03  0.96382095639E+03  0.50400001928E-02 0. -1.
       -1    1    3    3    0  502  0.77181012493E+03 -0.53277825624E+02 -0.17716721127E+04  0.19332230783E+04  0.50400001928E-02 0.  1.
</event>
<event>
 5   0  0.2966258E-05  0.1702476E+04  0.7818609E-02  0.8759954E-01
        1   -1    0    0  501    0  0.00000000000E+00  0.00000000000E+00  0.65999570081E+03  0.65999570082E+03  0.50400001928E-02 0. -1.
       -1   -1    0    0    0  501  0.00000000000E+00  0.00000000000E+00 -0.10978946557E+04  0.10978946557E+04  0.50400001928E-02 0.  1.
    10030    2    1    2    0    0  0.00000000000E+00  0.00000000000E+00 -0.43789895485E+03  0.17578903565E+04  0.17024755537E+04 0.  0.
        4    1    3    3  502    0 -0.73475214990E+03 -0.49908555305E+02  0.22185673939E+03  0.76913822645E+03  0.12699999809E+01 0. -1.
       -4    1    3    3    0  502  0.73475214990E+03  0.49908555305E+02 -0.65975569424E+03  0.98875213004E+03  0.12699999809E+01 0.  1.
</event>
<event>
 5   0  0.2993769E-05  0.1698181E+04  0.7818609E-02  0.8762403E-01
       -1   -1    0    0    0  501  0.00000000000E+00  0.00000000000E+00  0.49487276339E+03  0.49487276342E+03  0.50400001928E-02 0.  1.
        1   -1    0    0  501    0  0.00000000000E+00  0.00000000000E+00 -0.14568482001E+04  0.14568482001E+04  0.50400001928E-02 0. -1.
    10030    2    1    2    0    0  0.00000000000E+00  0.00000000000E+00 -0.96197543669E+03  0.19517209635E+04  0.16981807850E+04 0.  0.
        3    1    3    3  502    0 -0.17779857413E+03  0.82491464459E+03 -0.37281912861E+03  0.92254572607E+03  0.10100000352E+00 0. -1.
       -3    1    3    3    0  502  0.17779857413E+03 -0.82491464459E+03 -0.58915630808E+03  0.10291752374E+04  0.10100000352E+00 0.  1.
</event>
<event>
 5   0  0.5821584E-05  0.1702422E+04  0.7818609E-02  0.8759984E-01
        2   -1    0    0  501    0  0.00000000000E+00  0.00000000000E+00  0.14108345327E+04  0.14108345327E+04  0.25500000920E-02 0.  1.
       -2   -1    0    0    0  501  0.00000000000E+00  0.00000000000E+00 -0.51356866277E+03  0.51356866278E+03  0.25500000920E-02 0. -1.
    10030    2    1    2    0    0  0.00000000000E+00  0.00000000000E+00  0.89726586996E+03  0.19244031955E+04  0.17024222794E+04 0.  0.
        1    1    3    3  502    0  0.51793127155E+03  0.55553735848E+03  0.14224537232E+02  0.75965577481E+03  0.50400001928E-02 0. -1.
       -1    1    3    3    0  502 -0.51793127155E+03 -0.55553735848E+03  0.88304133273E+03  0.11647474207E+04  0.50400001928E-02 0.  1.
</event>
<event>
 5   0  0.2967704E-05  0.1699221E+04  0.7818609E-02  0.8761809E-01
       -1   -1    0    0    0  501  0.00000000000E+00  0.00000000000E+00  0.79323569572E+03  0.79323569573E+03  0.50400001928E-02 0. -1.
        1   -1    0    0  501    0  0.00000000000E+00  0.00000000000E+00 -0.90999133275E+03  0.90999133276E+03  0.50400001928E-02 0.  1.
    10030    2    1    2    0    0  0.00000000000E+00  0.00000000000E+00 -0.11675563703E+03  0.17032270285E+04  0.16992205365E+04 0.  0.
        2    1    3    3  502    0  0.25605710866E+03 -0.39635523437E+03  0.64981115236E+03  0.80306739970E+03  0.25500000920E-02 0. -1.
       -2    1    3    3    0  502 -0.25605710866E+03  0.39635523437E+03 -0.76656678939E+03  0.90015962880E+03  0.25500000920E-02 0.  1.
</event>
<event>
 5   0  0.5652631E-05  0.1699489E+04  0.7818609E-02  0.8761656E-01
        2   -1    0    0  501    0  0.00000000000E+00  0.00000000000E+00  0.14593344353E+04  0.14593344353E+04  0.25500000920E-02 0.  1.
       -2   -1    0    0    0  501  0.00000000000E+00  0.00000000000E+00 -0.49479100233E+03  0.49479100233E+03  0.25500000920E-02 0. -1.
    10030    2    1    2    0    0  0.00000000000E+00  0.00000000000E+00  0.96454343297E+03  0.19541254376E+04  0.16994888031E+04 0.  0.
        2    1    3    3  502    0 -0.10908883000E+03  0.31259687582E+03 -0.41757569462E+03  0.53290396916E+03  0.25500000920E-02 0. -1.
       -2    1    3    3    0  502  0.10908883000E+03 -0.31259687582E+03  0.13821191276E+04  0.14212214685E+04  0.25500000920E-02 0.  1.
</event>
<event>
 5   0  0.2966258E-05  0.1691163E+04  0.7818609E-02  0.8766420E-01
       -1   -1    0    0    0  501  0.00000000000E+00  0.00000000000E+00  0.10211276317E+04  0.10211276317E+04  0.50400001928E-02 0. -1.
        1   -1    0    0  501    0  0.00000000000E+00  0.00000000000E+00 -0.70021460368E+03  0.70021460370E+03  0.50400001928E-02 0.  1.
    10030    2    1    2    0    0  0.00000000000E+00  0.00000000000E+00  0.32091302799E+03  0.17213422354E+04  0.16911634811E+04 0.  0.
        4    1    3    3  502    0  0.55486216074E+03  0.59234422444E+03 -0.80974873052E+02  0.81566061607E+03  0.12699999809E+01 0.  1.
       -4    1    3    3    0  502 -0.55486216074E+03 -0.59234422444E+03  0.40188790104E+03  0.90568161931E+03  0.12699999809E+01 0. -1.
</event>
<event>
 5   0  0.5859822E-05  0.1676338E+04  0.7818609E-02  0.8774976E-01
       -2   -1    0    0    0  501  0.00000000000E+00  0.00000000000E+00  0.45157029758E+03  0.45157029759E+03  0.25500000920E-02 0. -1.
        2   -1    0    0  501    0  0.00000000000E+00  0.00000000000E+00 -0.15557437820E+04  0.15557437820E+04  0.25500000920E-02 0.  1.
    10030    2    1    2    0    0  0.00000000000E+00  0.00000000000E+00 -0.11041734844E+04  0.20073140796E+04  0.16763384892E+04 0.  0.
        5    1    3    3  502    0  0.77464622147E+03 -0.18656177107E+02 -0.93466966915E+03  0.12141063799E+04  0.46999998093E+01 0.  1.
       -5    1    3    3    0  502 -0.77464622147E+03  0.18656177107E+02 -0.16950381527E+03  0.79320769965E+03  0.46999998093E+01 0. -1.
</event>
<event>
 5   0  0.2966258E-05  0.1699534E+04  0.7818609E-02  0.8761630E-01
        1   -1    0    0  501    0  0.00000000000E+00  0.00000000000E+00  0.10539143650E+04  0.10539143651E+04  0.50400001928E-02 0.  1.
       -1   -1    0    0    0  501  0.00000000000E+00  0.00000000000E+00 -0.68516375137E+03  0.68516375139E+03  0.50400001928E-02 0. -1.
    10030    2    1    2    0    0  0.00000000000E+00  0.00000000000E+00  0.36875061368E+03  0.17390781164E+04  0.16995339597E+04 0.  0.
        4    1    3    3  502    0  0.33297350007E+03  0.27090098217E+02 -0.61514783637E+03  0.70000978469E+03  0.12699999809E+01 0. -1.
       -4    1    3    3    0  502 -0.33297350007E+03 -0.27090098217E+02  0.98389845005E+03  0.10390683318E+04  0.12699999809E+01 0.  1.
</event>
<event>
 5   0  0.5821584E-05  0.1699821E+04  0.7818609E-02  0.8761466E-01
       -2   -1    0    0    0  501  0.00000000000E+00  0.00000000000E+00  0.59764556777E+03  0.59764556778E+03  0.25500000920E-02 0.  1.
        2   -1    0    0  501    0  0.00000000000E+00  0.00000000000E+00 -0.12086564729E+04  0.12086564729E+04  0.25500000920E-02 0. -1.
    10030    2    1    2    0    0  0.00000000000E+00  0.00000000000E+00 -0.61101090516E+03  0.18063020407E+04  0.16998213836E+04 0.  0.
        1    1    3    3  502    0  0.40201061830E+03  0.52914606252E+03 -0.86854552150E+03  0.10936084380E+04  0.50400001928E-02 0. -1.
       -1    1    3    3    0  502 -0.40201061830E+03 -0.52914606252E+03  0.25753461634E+03  0.71269360272E+03  0.50400001928E-02 0.  1.
</event>
<event>
 5   0  0.2967704E-05  0.1699386E+04  0.7818609E-02  0.8761715E-01
       -1   -1    0    0    0  501  0.00000000000E+00  0.00000000000E+00  0.49004710255E+03  0.49004710258E+03  0.50400001928E-02 0.  1.
        1   -1    0    0  501    0  0.00000000000E+00  0.00000000000E+00 -0.14732825114E+04  0.14732825114E+04  0.50400001928E-02 0. -1.
    10030    2    1    2    0    0  0.00000000000E+00  0.00000000000E+00 -0.98323540881E+03  0.19633296140E+04  0.16993855666E+04 0.  0.
        2    1    3    3  502    0  0.39280900817E+03 -0.29769197426E+03 -0.12912595645E+04  0.13821254253E+04  0.25500000920E-02 0. -1.
       -2    1    3    3    0  502 -0.39280900817E+03  0.29769197426E+03  0.30802415565E+03  0.58120418865E+03  0.25500000920E-02 0.  1.
</event>
<event>
 5   0  0.2967704E-05  0.1670585E+04  0.7818609E-02  0.8778321E-01
        1   -1    0    0  501    0  0.00000000000E+00  0.00000000000E+00  0.15106305635E+04  0.15106305636E+04  0.50400001928E-02 0. -1.
       -1   -1    0    0    0  501  0.00000000000E+00  0.00000000000E+00 -0.46186920926E+03  0.46186920929E+03  0.50400001928E-02 0.  1.
    10030    2    1    2    0    0  0.00000000000E+00  0.00000000000E+00  0.10487613543E+04  0.19724997728E+04  0.16705852195E+04 0.  0.
        2    1    3    3  502    0  0.22725505820E+03  0.70584537386E+03  0.70375567907E+02  0.74485923089E+03  0.25500000920E-02 0.  1.
       -2    1    3    3    0  502 -0.22725505820E+03 -0.70584537386E+03  0.97838578638E+03  0.12276405420E+04  0.25500000920E-02 0. -1.
</event>
<event>
 5   0  0.2993769E-05  0.1696514E+04  0.7818609E-02  0.8763355E-01
       -1   -1    0    0    0  501  0.00000000000E+00  0.00000000000E+00  0.89669188662E+03  0.89669188663E+03  0.50400001928E-02 0.  1.
        1   -1    0    0  501    0  0.00000000000E+00  0.00000000000E+00 -0.80243812212E+03  0.80243812213E+03  0.50400001928E-02 0. -1.
    10030    2    1    2    0    0  0.00000000000E+00  0.00000000000E+00  0.94253764503E+02  0.16991300088E+04  0.16965137826E+04 0.  0.
        3    1    3    3  502    0 -0.22921601421E+02 -0.64254427632E+03 -0.50703570023E+03  0.81882462002E+03  0.10100000352E+00 0. -1.
       -3    1    3    3    0  502  0.22921601421E+02  0.64254427632E+03  0.60128946473E+03  0.88030538874E+03  0.10100000352E+00 0.  1.
</event>
<event>
 5   0  0.2987859E-05  0.1697444E+04  0.7818609E-02  0.8762823E-01
        1   -1    0    0  501    0  0.00000000000E+00  0.00000000000E+00  0.24723054229E+04  0.24723054229E+04  0.50400001928E-02 0. -1.
       -1   -1    0    0    0  501  0.00000000000E+00  0.00000000000E+00 -0.29135940431E+03  0.29135940435E+03  0.50400001928E-02 0.  1.
    10030    2    1    2    0    0  0.00000000000E+00  0.00000000000E+00  0.21809460185E+04  0.27636648272E+04  0.16974444737E+04 0.  0.
        5    1    3    3  502    0  0.58018514068E+03  0.61605223607E+03  0.98530785831E+03  0.12988413378E+04  0.46999998093E+01 0. -1.
       -5    1    3    3    0  502 -0.58018514068E+03 -0.61605223607E+03  0.11956381602E+04  0.14648234894E+04  0.46999998093E+01 0.  1.
</event>
<event>
 5   0  0.2966258E-05  0.1700293E+04  0.7818609E-02  0.8761197E-01
        1   -1    0    0  501    0  0.00000000000E+00  0.00000000000E+00  0.12450243363E+04  0.12450243363E+04  0.50400001928E-02 0.  1.
       -1   -1    0    0    0  501  0.00000000000E+00  0.00000000000E+00 -0.58051022657E+03  0.58051022660E+03  0.50400001928E-02 0. -1.
    10030    2    1    2    0    0  0.00000000000E+00  0.00000000000E+00  0.66451410972E+03  0.18255345629E+04  0.17002933389E+04 0.  0.
        4    1    3    3  502    0 -0.11539956328E+03  0.73811047243E+03  0.76788153529E+03  0.10713392525E+04  0.12699999809E+01 0.  1.
       -4    1    3    3    0  502  0.11539956328E+03 -0.73811047243E+03 -0.10336742557E+03  0.75419531044E+03  0.12699999809E+01 0. -1.
</event>
<event>
 5   0  0.5755321E-05  0.1699934E+04  0.7818609E-02  0.8761402E-01
       -2   -1    0    0    0  501  0.00000000000E+00  0.00000000000E+00  0.87162834727E+03  0.87162834727E+03  0.25500000920E-02 0. -1.
        2   -1    0    0  501    0  0.00000000000E+00  0.00000000000E+00 -0.82884419478E+03  0.82884419478E+03  0.25500000920E-02 0.  1.
    10030    2    1    2    0    0  0.00000000000E+00  0.00000000000E+00  0.42784152488E+02  0.17004725421E+04  0.16999342289E+04 0.  0.
        4    1    3    3  502    0  0.61361555225E+03 -0.19023822779E+03  0.57810029941E+03  0.86424313613E+03  0.12699999809E+01 0. -1.
       -4    1    3    3    0  502 -0.61361555225E+03  0.19023822779E+03 -0.53531614692E+03  0.83622940592E+03  0.12699999809E+01 0.  1.
</event>
<event>
 5   0  0.5821584E-05  0.1697450E+04  0.7818609E-02  0.8762820E-01
       -2   -1    0    0    0  501  0.00000000000E+00  0.00000000000E+00  0.32726888541E+03  0.32726888542E+03  0.25500000920E-02 0. -1.
        2   -1    0    0  501    0  0.00000000000E+00  0.00000000000E+00 -0.22010459798E+04  0.22010459798E+04  0.25500000920E-02 0.  1.
    10030    2    1    2    0    0  0.00000000000E+00  0.00000000000E+00 -0.18737770944E+04  0.25283148652E+04  0.16974496924E+04 0.  0.
        1    1    3    3  502    0  0.18187401772E+03 -0.22181824037E+03  0.25287980032E+03  0.38239990000E+03  0.50400001928E-02 0. -1.
       -1    1    3    3    0  502 -0.18187401772E+03  0.22181824037E+03 -0.21266568947E+04  0.21459149652E+04  0.50400001928E-02 0.  1.
</event>
<event>
 5   0  0.5859822E-05  0.1698710E+04  0.7818609E-02  0.8762101E-01
       -2   -1    0    0    0  501  0.00000000000E+00  0.00000000000E+00  0.67356555587E+03  0.67356555587E+03  0.25500000920E-02 0.  1.
        2   -1    0    0  501    0  0.00000000000E+00  0.00000000000E+00 -0.10710220885E+04  0.10710220885E+04  0.25500000920E-02 0. -1.
    10030    2    1    2    0    0  0.00000000000E+00  0.00000000000E+00 -0.39745653264E+03  0.17445876444E+04  0.16987096143E+04 0.  0.
        5    1    3    3  502    0 -0.37968582712E+03  0.28302393281E+02  0.58099922426E+03  0.69465426031E+03  0.46999998093E+01 0.  1.
       -5    1    3    3    0  502  0.37968582712E+03 -0.28302393281E+02 -0.97845575690E+03  0.10499333841E+04  0.46999998093E+01 0. -1.
</event>
<event>
 5   0  0.5652631E-05  0.1701021E+04  0.7818609E-02  0.8760782E-01
        2   -1    0    0  501    0  0.00000000000E+00  0.00000000000E+00  0.20665942670E+04  0.20665942670E+04  0.25500000920E-02 0.  1.
       -2   -1    0    0    0  501  0.00000000000E+00  0.00000000000E+00 -0.35002925109E+03  0.35002925110E+03  0.25500000920E-02 0. -1.
    10030    2    1    2    0    0  0.00000000000E+00  0.00000000000E+00  0.17165650159E+04  0.24166235181E+04  0.17010213915E+04 0.  0.
        2    1    3    3  502    0  0.23021353426E+02  0.20032200028E+03 -0.31557995076E+03  0.37449912128E+03  0.25500000920E-02 0. -1.
       -2    1    3    3    0  502 -0.23021353426E+02 -0.20032200028E+03  0.20321449666E+04  0.20421243968E+04  0.25500000920E-02 0.  1.
</event>
<event>
 5   0  0.2967704E-05  0.1698324E+04  0.7818609E-02  0.8762321E-01
       -1   -1    0    0    0  501  0.00000000000E+00  0.00000000000E+00  0.82763724851E+03  0.82763724852E+03  0.50400001928E-02 0. -1.
        1   -1    0    0  501    0  0.00000000000E+00  0.00000000000E+00 -0.87124618809E+03  0.87124618810E+03  0.50400001928E-02 0.  1.
    10030    2    1    2    0    0  0.00000000000E+00  0.00000000000E+00 -0.43608939580E+02  0.16988834366E+04  0.16983236416E+04 0.  0.
        2    1    3    3  502    0 -0.36246479385E+03 -0.46217565907E+03 -0.63526734727E+03  0.86518880548E+03  0.25500000920E-02 0.  1.
       -2    1    3    3    0  502  0.36246479385E+03  0.46217565907E+03  0.59165840769E+03  0.83369463115E+03  0.25500000920E-02 0. -1.
</event>
<event>
 5   0  0.2911632E-05  0.1699772E+04  0.7818609E-02  0.8761494E-01
        1   -1    0    0  501    0  0.00000000000E+00  0.00000000000E+00  0.10003313309E+04  0.10003313309E+04  0.50400001928E-02 0. -1.
       -1   -1    0    0    0  501  0.00000000000E+00  0.00000000000E+00 -0.72206735171E+03  0.72206735173E+03  0.50400001928E-02 0.  1.
    10030    2    1    2    0    0  0.00000000000E+00  0.00000000000E+00  0.27826397921E+03  0.17223986827E+04  0.16997724494E+04 0.  0.
        1    1    3    3  502    0 -0.26723419986E+03  0.21545281449E+03 -0.64869561709E+03  0.73392100155E+03  0.50400001928E-02 0.  1.
       -1    1    3    3    0  502  0.26723419986E+03 -0.21545281449E+03  0.92695959631E+03  0.98847768111E+03  0.50400001928E-02 0. -1.
</event>
<event>
 5   0  0.5859822E-05  0.1699472E+04  0.7818609E-02  0.8761665E-01
       -2   -1    0    0    0  501  0.00000000000E+00  0.00000000000E+00  0.10863013974E+04  0.10863013975E+04  0.25500000920E-02 0.  1.
        2   -1    0    0  501    0  0.00000000000E+00  0.00000000000E+00 -0.66468811810E+03  0.66468811811E+03  0.25500000920E-02 0. -1.
    10030    2    1    2    0    0  0.00000000000E+00  0.00000000000E+00  0.42161327935E+03  0.17509895156E+04  0.16994724259E+04 0.  0.
        5    1    3    3  502    0 -0.38670072038E+03 -0.70248373417E+03  0.50041218586E+03  0.94522763908E+03  0.46999998093E+01 0.  1.
       -5    1    3    3    0  502  0.38670072038E+03  0.70248373417E+03 -0.78798906518E+02  0.80576187648E+03  0.46999998093E+01 0. -1.
</event>
<event>
 5   0  0.5821584E-05  0.1709613E+04  0.7818609E-02  0.8755901E-01
        2   -1    0    0  501    0  0.00000000000E+00  0.00000000000E+00  0.11199537377E+04  0.11199537377E+04  0.25500000920E-02 0.  1.
       -2   -1    0    0    0  501  0.00000000000E+00  0.00000000000E+00 -0.65243256315E+03  0.65243256315E+03  0.25500000920E-02 0. -1.
    10030    2    1    2    0    0  0.00000000000E+00  0.00000000000E+00  0.46752117459E+03  0.17723863009E+04  0.17096131583E+04 0.  0.
        1    1    3    3  502    0  0.26619391611E+03 -0.24380105821E+03  0.10370637470E+04  0.10980889638E+04  0.50400001928E-02 0.  1.
       -1    1    3    3    0  502 -0.26619391611E+03  0.24380105821E+03 -0.56954257245E+03  0.67429733710E+03  0.50400001928E-02 0. -1.
</event>
<event>
 5   0  0.2987859E-05  0.1702160E+04  0.7818609E-02  0.8760133E-01
       -1   -1    0    0    0  501  0.00000000000E+00  0.00000000000E+00  0.10552454059E+04  0.10552454059E+04  0.50400001928E-02 0. -1.
        1   -1    0    0  501    0  0.00000000000E+00  0.00000000000E+00 -0.68641609158E+03  0.68641609160E+03  0.50400001928E-02 0.  1.
    10030    2    1    2    0    0  0.00000000000E+00  0.00000000000E+00  0.36882931433E+03  0.17416614975E+04  0.17021603065E+04 0.  0.
        5    1    3    3  502    0 -0.45370710938E+03  0.49520749270E+03  0.71926372927E+03  0.98409501786E+03  0.46999998093E+01 0.  1.
       -5    1    3    3    0  502  0.45370710938E+03 -0.49520749270E+03 -0.35043441494E+03  0.75756647966E+03  0.46999998093E+01 0. -1.
</event>
<event>
 5   0  0.2993769E-05  0.1702725E+04  0.7818609E-02  0.8759812E-01
       -1   -1    0    0    0  501  0.00000000000E+00  0.00000000000E+00  0.45384988887E+03  0.45384988890E+03  0.50400001928E-02 0.  1.
        1   -1    0    0  501    0  0.00000000000E+00  0.00000000000E+00 -0.15970429633E+04  0.15970429633E+04  0.50400001928E-02 0. -1.
    10030    2    1    2    0    0  0.00000000000E+00  0.00000000000E+00 -0.11431930745E+04  0.20508928522E+04  0.17027246066E+04 0.  0.
        3    1    3    3  502    0  0.18487663964E+03 -0.64375876874E+03 -0.12046212223E+04  0.13783022251E+04  0.10100000352E+00 0. -1.
       -3    1    3    3    0  502 -0.18487663964E+03  0.64375876874E+03  0.61428147835E+02  0.67259062717E+03  0.10100000352E+00 0.  1.
</event>
<event>
 5   0  0.5859822E-05  0.1708258E+04  0.7818609E-02  0.8756669E-01
       -2   -1    0    0    0  501  0.00000000000E+00  0.00000000000E+00  0.57546155104E+03  0.57546155105E+03  0.25500000920E-02 0. -1.
        2   -1    0    0  501    0  0.00000000000E+00  0.00000000000E+00 -0.12677411419E+04  0.12677411419E+04  0.25500000920E-02 0.  1.
    10030    2    1    2    0    0  0.00000000000E+00  0.00000000000E+00 -0.69227959081E+03  0.18432026929E+04  0.17082579241E+04 0.  0.
        5    1    3    3  502    0  0.82985321175E+03 -0.15863935953E+03 -0.48130049192E+03  0.97236569919E+03  0.46999998093E+01 0. -1.
       -5    1    3    3    0  502 -0.82985321175E+03  0.15863935953E+03 -0.21097909889E+03  0.87083699371E+03  0.46999998093E+01 0.  1.
</event>
<event>
 5   0  0.2993769E-05  0.1698358E+04  0.7818609E-02  0.8762301E-01
        1   -1    0    0  501    0  0.00000000000E+00  0.00000000000E+00  0.94516840975E+03  0.94516840977E+03  0.50400001928E-02 0. -1.
       -1   -1    0    0    0  501  0.00000000000E+00  0.00000000000E+00 -0.76293818638E+03  0.76293818639E+03  0.50400001928E-02 0.  1.
    10030    2    1    2    0    0  0.00000000000E+00  0.00000000000E+00  0.18223022338E+03  0.17081065962E+04  0.16983581158E+04 0.  0.
        3    1    3    3  502    0 -0.60066475579E+03 -0.11613677649E+03 -0.50117876318E+03  0.79086412396E+03  0.10100000352E+00 0.  1.
       -3    1    3    3    0  502  0.60066475579E+03  0.11613677649E+03  0.68340898656E+03  0.91724247220E+03  0.10100000352E+00 0. -1.
</event>
<event>
 5   0  0.5859822E-05  0.1680751E+04  0.7818609E-02  0.8772420E-01
       -2   -1    0    0    0  501  0.00000000000E+00  0.00000000000E+00  0.50347972995E+03  0.50347972996E+03  0.25500000920E-02 0. -1.
        2   -1    0    0  501    0  0.00000000000E+00  0.00000000000E+00 -0.14026997752E+04  0.14026997752E+04  0.25500000920E-02 0.  1.
    10030    2    1    2    0    0  0.00000000000E+00  0.00000000000E+00 -0.89922004528E+03  0.19061795052E+04  0.16807509084E+04 0.  0.
        5    1    3    3  502    0 -0.28899512569E+03  0.68555410119E+03 -0.89279883051E+03  0.11621593910E+04  0.46999998093E+01 0.  1.
       -5    1    3    3    0  502  0.28899512569E+03 -0.68555410119E+03 -0.64212147699E+01  0.74402011419E+03  0.46999998093E+01 0. -1.
</event>
<event>
 5   0  0.2967704E-05  0.1703586E+04  0.7818609E-02  0.8759322E-01
       -1   -1    0    0    0  501  0.00000000000E+00  0.00000000000E+00  0.41643121275E+03  0.41643121278E+03  0.50400001928E-02 0.  1.
        1   -1    0    0  501    0  0.00000000000E+00  0.00000000000E+00 -0.17423072930E+04  0.17423072930E+04  0.50400001928E-02 0. -1.
    10030    2    1    2    0    0  0.00000000000E+00  0.00000000000E+00 -0.13258760802E+04  0.21587385057E+04  0.17035857936E+04 0.  0.
        2    1    3    3  502    0  0.80104930262E+02  0.65029924925E+01 -0.17374921069E+04  0.17393498528E+04  0.25500000920E-02 0. -1.
       -2    1    3    3    0  502 -0.80104930262E+02 -0.65029924925E+01  0.41161602672E+03  0.41938865295E+03  0.25500000920E-02 0.  1.
</event>
<event>
 5   0  0.5821584E-05  0.1692561E+04  0.7818609E-02  0.8765618E-01
        2   -1    0    0  501    0  0.00000000000E+00  0.00000000000E+00  0.88657846230E+03  0.88657846231E+03  0.25500000920E-02 0.  1.
       -2   -1    0    0    0  501  0.00000000000E+00  0.00000000000E+00 -0.80781463194E+03  0.80781463195E+03  0.25500000920E-02 0. -1.
    10030    2    1    2    0    0  0.00000000000E+00  0.00000000000E+00  0.78763830359E+02  0.16943930943E+04  0.16925614367E+04 0.  0.
        1    1    3    3  502    0  0.65347229172E+03 -0.45511880057E+03  0.32610397273E+03  0.86052481645E+03  0.50400001928E-02 0.  1.
       -1    1    3    3    0  502 -0.65347229172E+03  0.45511880057E+03 -0.24734014237E+03  0.83386827780E+03  0.50400001928E-02 0. -1.
</event>
<event>
 5   0  0.2967704E-05  0.1699352E+04  0.7818609E-02  0.8761734E-01
       -1   -1    0    0    0  501  0.00000000000E+00  0.00000000000E+00  0.50330356121E+03  0.50330356123E+03  0.50400001928E-02 0. -1.
        1   -1    0    0  501    0  0.00000000000E+00  0.00000000000E+00 -0.14344214311E+04  0.14344214311E+04  0.50400001928E-02 0.  1.
    10030    2    1    2    0    0  0.00000000000E+00  0.00000000000E+00 -0.93111786987E+03  0.19377249923E+04  0.16993521290E+04 0.  0.
        2    1    3    3  502    0  0.56795085716E+03 -0.38787131548E+03 -0.10344820211E+04  0.12422420800E+04  0.25500000920E-02 0.  1.
       -2    1    3    3    0  502 -0.56795085716E+03  0.38787131548E+03  0.10336415118E+03  0.69548291228E+03  0.25500000920E-02 0. -1.
</event>
<event>
 5   0  0.5755321E-05  0.1695394E+04  0.7818609E-02  0.8763995E-01
        2   -1    0    0  501    0  0.00000000000E+00  0.00000000000E+00  0.83498398804E+03  0.83498398805E+03  0.25500000920E-02 0.  1.
       -2   -1    0    0    0  501  0.00000000000E+00  0.00000000000E+00 -0.86060395010E+03  0.86060395010E+03  0.25500000920E-02 0. -1.
    10030    2    1    2    0    0  0.00000000000E+00  0.00000000000E+00 -0.25619962055E+02  0.16955879382E+04  0.16953943711E+04 0.  0.
        4    1    3    3  502    0 -0.32742853001E+02 -0.47271138917E+03 -0.71578478580E+03  0.85841576428E+03  0.12699999809E+01 0. -1.
       -4    1    3    3    0  502  0.32742853001E+02  0.47271138917E+03  0.69016482375E+03  0.83717217387E+03  0.12699999809E+01 0.  1.
</event>
<event>
 5   0  0.2966258E-05  0.1699179E+04  0.7818609E-02  0.8761833E-01
        1   -1    0    0  501    0  0.00000000000E+00  0.00000000000E+00  0.88008792007E+03  0.88008792008E+03  0.50400001928E-02 0. -1.
       -1   -1    0    0    0  501  0.00000000000E+00  0.00000000000E+00 -0.82014819529E+03  0.82014819530E+03  0.50400001928E-02 0.  1.
    10030    2    1    2    0    0  0.00000000000E+00  0.00000000000E+00  0.59939724781E+02  0.17002361154E+04  0.16991792364E+04 0.  0.
        4    1    3    3  502    0  0.45470754706E+03 -0.71471590243E+03  0.94995911612E+02  0.85241047076E+03  0.12699999809E+01 0. -1.
       -4    1    3    3    0  502 -0.45470754706E+03  0.71471590243E+03 -0.35056186831E+02  0.84782564462E+03  0.12699999809E+01 0.  1.
</event>
<event>
 5   0  0.2967704E-05  0.1710656E+04  0.7818609E-02  0.8755310E-01
       -1   -1    0    0    0  501  0.00000000000E+00  0.00000000000E+00  0.58696168537E+03  0.58696168539E+03  0.50400001928E-02 0.  1.
        1   -1    0    0  501    0  0.00000000000E+00  0.00000000000E+00 -0.12463944046E+04  0.12463944046E+04  0.50400001928E-02 0. -1.
    10030    2    1    2    0    0  0.00000000000E+00  0.00000000000E+00 -0.65943271925E+03  0.18333560900E+04  0.17106557344E+04 0.  0.
        2    1    3    3  502    0 -0.34054475377E+03 -0.28692078077E+03 -0.11123644635E+04  0.11981856966E+04  0.25500000920E-02 0. -1.
       -2    1    3    3    0  502  0.34054475377E+03  0.28692078077E+03  0.45293174426E+03  0.63517039346E+03  0.25500000920E-02 0.  1.
</event>
<event>
 5   0  0.2987859E-05  0.1691626E+04  0.7818609E-02  0.8766155E-01
        1   -1    0    0  501    0  0.00000000000E+00  0.00000000000E+00  0.80870884273E+03  0.80870884275E+03  0.50400001928E-02 0. -1.
       -1   -1    0    0    0  501  0.00000000000E+00  0.00000000000E+00 -0.88461986632E+03  0.88461986634E+03  0.50400001928E-02 0.  1.
    10030    2    1    2    0    0  0.00000000000E+00  0.00000000000E+00 -0.75911023590E+02  0.16933287091E+04  0.16916263280E+04 0.  0.
        5    1    3    3  502    0  0.15506349452E+03  0.41397924195E+03 -0.75975975457E+03  0.87902245407E+03  0.46999998093E+01 0.  1.
       -5    1    3    3    0  502 -0.15506349452E+03 -0.41397924195E+03  0.68384873098E+03  0.81430625502E+03  0.46999998093E+01 0. -1.
</event>
<event>
 5   0  0.2967704E-05  0.1716234E+04  0.7818609E-02  0.8752159E-01
        1   -1    0    0  501    0  0.00000000000E+00  0.00000000000E+00  0.87937082410E+03  0.87937082412E+03  0.50400001928E-02 0. -1.
       -1   -1    0    0    0  501  0.00000000000E+00  0.00000000000E+00 -0.83737656394E+03  0.83737656396E+03  0.50400001928E-02 0.  1.
    10030    2    1    2    0    0  0.00000000000E+00  0.00000000000E+00  0.41994260161E+02  0.17167473881E+04  0.17162336894E+04 0.  0.
        2    1    3    3  502    0 -0.12228928110E+03 -0.34951737938E+03  0.79533958436E+03  0.87731529180E+03  0.25500000920E-02 0. -1.
       -2    1    3    3    0  502  0.12228928110E+03  0.34951737938E+03 -0.75334532420E+03  0.83943209628E+03  0.25500000920E-02 0.  1.
</event>
<event>
 5   0  0.2993769E-05  0.1710515E+04  0.7818609E-02  0.8755390E-01
       -1   -1    0    0    0  501  0.00000000000E+00  0.00000000000E+00  0.43156955000E+03  0.43156955003E+03  0.50400001928E-02 0. -1.
        1   -1    0    0  501    0  0.00000000000E+00  0.00000000000E+00 -0.16948949279E+04  0.16948949279E+04  0.50400001928E-02 0.  1.
    10030    2    1    2    0    0  0.00000000000E+00  0.00000000000E+00 -0.12633253779E+04  0.21264644779E+04  0.17105145908E+04 0.  0.
        3    1    3    3  502    0  0.68580246136E+03  0.11817044249E+03 -0.13597491295E+02  0.69604178858E+03  0.10100000352E+00 0. -1.
       -3    1    3    3    0  502 -0.68580246136E+03 -0.11817044249E+03 -0.12497278866E+04  0.14304226893E+04  0.10100000352E+00 0.  1.
</event>
<event>
 5   0  0.2987859E-05  0.1707719E+04  0.7818609E-02  0.8756974E-01
        1   -1    0    0  501    0  0.00000000000E+00  0.00000000000E+00  0.95871465288E+03  0.95871465289E+03  0.50400001928E-02 0. -1.
       -1   -1    0    0    0  501  0.00000000000E+00  0.00000000000E+00 -0.76047231118E+03  0.76047231120E+03  0.50400001928E-02 0.  1.
    10030    2    1    2    0    0  0.00000000000E+00  0.00000000000E+00  0.19824234170E+03  0.17191869641E+04  0.17077188854E+04 0.  0.
        5    1    3    3  502    0  0.76548376379E+03  0.16355784678E+03 -0.24425188291E+03  0.81999855742E+03  0.46999998093E+01 0.  1.
       -5    1    3    3    0  502 -0.76548376379E+03 -0.16355784678E+03  0.44249422461E+03  0.89918840666E+03  0.46999998093E+01 0. -1.
</event>
<event>
 5   0  0.2987859E-05  0.1698610E+04  0.7818609E-02  0.8762157E-01
        1   -1    0    0  501    0  0.00000000000E+00  0.00000000000E+00  0.11855022933E+04  0.11855022933E+04  0.50400001928E-02 0. -1.
       -1   -1    0    0    0  501  0.00000000000E+00  0.00000000000E+00 -0.60845023949E+03  0.60845023951E+03  0.50400001928E-02 0.  1.
    10030    2    1    2    0    0  0.00000000000E+00  0.00000000000E+00  0.57705205377E+03  0.17939525328E+04  0.16986102016E+04 0.  0.
        5    1    3    3  502    0  0.64904232093E+03 -0.52628913004E+03  0.44890785956E+03  0.94856551652E+03  0.46999998093E+01 0. -1.
       -5    1    3    3    0  502 -0.64904232093E+03  0.52628913004E+03  0.12814419421E+03  0.84538701626E+03  0.46999998093E+01 0.  1.
</event>
<event>
 5   0  0.2987859E-05  0.1685142E+04  0.7818609E-02  0.8769884E-01
        1   -1    0    0  501    0  0.00000000000E+00  0.00000000000E+00  0.11498267026E+04  0.11498267026E+04  0.50400001928E-02 0.  1.
       -1   -1    0    0    0  501  0.00000000000E+00  0.00000000000E+00 -0.61742017954E+03  0.61742017956E+03  0.50400001928E-02 0. -1.
    10030    2    1    2    0    0  0.00000000000E+00  0.00000000000E+00  0.53240652303E+03  0.17672468821E+04  0.16851423788E+04 0.  0.
        5    1    3    3  502    0  0.44022640652E+02 -0.19328657833E+03 -0.59260156901E+03  0.62489711460E+03  0.46999998093E+01 0. -1.
       -5    1    3    3    0  502 -0.44022640652E+02  0.19328657833E+03  0.11250080920E+04  0.11423497675E+04  0.46999998093E+01 0.  1.
</event>
<event>
 5   0  0.5755321E-05  0.1715157E+04  0.7818609E-02  0.8752767E-01
        2   -1    0    0  501    0  0.00000000000E+00  0.00000000000E+00  0.24024155341E+04  0.24024155341E+04  0.25500000920E-02 0. -1.
       -2   -1    0    0    0  501  0.00000000000E+00  0.00000000000E+00 -0.30612569210E+03  0.30612569211E+03  0.25500000920E-02 0.  1.
    10030    2    1    2    0    0  0.00000000000E+00  0.00000000000E+00  0.20962898420E+04  0.27085412262E+04  0.17151572734E+04 0.  0.
        4    1    3    3  502    0 -0.84384904353E+03  0.15204010058E+03  0.10235733369E+04  0.13352533053E+04  0.12699999809E+01 0.  1.
       -4    1    3    3    0  502  0.84384904353E+03 -0.15204010058E+03  0.10727165051E+04  0.13732879209E+04  0.12699999809E+01 0. -1.
</event>
<event>
 5   0  0.2966258E-05  0.1699572E+04  0.7818609E-02  0.8761608E-01
        1   -1    0    0  501    0  0.00000000000E+00  0.00000000000E+00  0.13563907007E+04  0.13563907007E+04  0.50400001928E-02 0.  1.
       -1   -1    0    0    0  501  0.00000000000E+00  0.00000000000E+00 -0.53239559687E+03  0.53239559690E+03  0.50400001928E-02 0. -1.
    10030    2    1    2    0    0  0.00000000000E+00  0.00000000000E+00  0.82399510383E+03  0.18887862976E+04  0.16995722247E+04 0.  0.
        4    1    3    3  502    0  0.14018808106E+03  0.13289082729E+03 -0.50767261576E+03  0.54318115555E+03  0.12699999809E+01 0. -1.
       -4    1    3    3    0  502 -0.14018808106E+03 -0.13289082729E+03  0.13316677196E+04  0.13456051421E+04  0.12699999809E+01 0.  1.
</event>
<event>
 5   0  0.5671132E-05  0.1699465E+04  0.7818609E-02  0.8761669E-01
        2   -1    0    0  501    0  0.00000000000E+00  0.00000000000E+00  0.18438058463E+04  0.18438058463E+04  0.25500000920E-02 0. -1.
       -2   -1    0    0    0  501  0.00000000000E+00  0.00000000000E+00 -0.39160598434E+03  0.39160598435E+03  0.25500000920E-02 0.  1.
    10030    2    1    2    0    0  0.00000000000E+00  0.00000000000E+00  0.14521998619E+04  0.22354118306E+04  0.16994650963E+04 0.  0.
        3    1    3    3  502    0  0.38399186409E+02 -0.73841886385E+03  0.17535976109E+03  0.75992629381E+03  0.10100000352E+00 0.  1.
       -3    1    3    3    0  502 -0.38399186409E+02  0.73841886385E+03  0.12768401008E+04  0.14754855368E+04  0.10100000352E+00 0. -1.
</event>
<event>
 5   0  0.5821584E-05  0.1712194E+04  0.7818609E-02  0.8754440E-01
       -2   -1    0    0    0  501  0.00000000000E+00  0.00000000000E+00  0.83764455194E+03  0.83764455195E+03  0.25500000920E-02 0. -1.
        2   -1    0    0  501    0  0.00000000000E+00  0.00000000000E+00 -0.87495548244E+03  0.87495548245E+03  0.25500000920E-02 0.  1.
    10030    2    1    2    0    0  0.00000000000E+00  0.00000000000E+00 -0.37310930502E+02  0.17126000344E+04  0.17121935557E+04 0.  0.
        1    1    3    3  502    0  0.14764975096E+03  0.41478264568E+03  0.71572357710E+03  0.84030073840E+03  0.50400001928E-02 0. -1.
       -1    1    3    3    0  502 -0.14764975096E+03 -0.41478264568E+03 -0.75303450760E+03  0.87229929599E+03  0.50400001928E-02 0.  1.
</event>
<event>
 5   0  0.2966258E-05  0.1674842E+04  0.7818609E-02  0.8775844E-01
        1   -1    0    0  501    0  0.00000000000E+00  0.00000000000E+00  0.69193977805E+03  0.69193977807E+03  0.50400001928E-02 0.  1.
       -1   -1    0    0    0  501  0.00000000000E+00  0.00000000000E+00 -0.10134898715E+04  0.10134898715E+04  0.50400001928E-02 0. -1.
    10030    2    1    2    0    0  0.00000000000E+00  0.00000000000E+00 -0.32155009347E+03  0.17054296496E+04  0.16748420305E+04 0.  0.
        4    1    3    3  502    0 -0.73866945002E+03 -0.39028198638E+03 -0.10210543553E+03  0.84165296777E+03  0.12699999809E+01 0.  1.
       -4    1    3    3    0  502  0.73866945002E+03  0.39028198638E+03 -0.21944465794E+03  0.86377668183E+03  0.12699999809E+01 0. -1.
</event>
<event>
 5   0  0.5821584E-05  0.1697347E+04  0.7818609E-02  0.8762879E-01
       -2   -1    0    0    0  501  0.00000000000E+00  0.00000000000E+00  0.31577764447E+03  0.31577764448E+03  0.25500000920E-02 0. -1.
        2   -1    0    0  501    0  0.00000000000E+00  0.00000000000E+00 -0.22808671484E+04  0.22808671484E+04  0.25500000920E-02 0.  1.
    10030    2    1    2    0    0  0.00000000000E+00  0.00000000000E+00 -0.19650895039E+04  0.25966447929E+04  0.16973471719E+04 0.  0.
        1    1    3    3  502    0 -0.86710589291E+02  0.47115234344E+03 -0.20542347684E+04  0.21093562385E+04  0.50400001928E-02 0.  1.
       -1    1    3    3    0  502  0.86710589291E+02 -0.47115234344E+03  0.89145264497E+02  0.48728855438E+03  0.50400001928E-02 0. -1.
</event>
<event>
 5   0  0.5671132E-05  0.1693804E+04  0.7818609E-02  0.8764906E-01
        2   -1    0    0  501    0  0.00000000000E+00  0.00000000000E+00  0.25401400328E+04  0.25401400328E+04  0.25500000920E-02 0.  1.
       -2   -1    0    0    0  501  0.00000000000E+00  0.00000000000E+00 -0.28236364590E+03  0.28236364591E+03  0.25500000920E-02 0. -1.
    10030    2    1    2    0    0  0.00000000000E+00  0.00000000000E+00  0.22577763869E+04  0.28225036787E+04  0.16938042399E+04 0.  0.
        3    1    3    3  502    0 -0.11812898962E+03 -0.83544688088E+03  0.12503988867E+04  0.15084506406E+04  0.10100000352E+00 0.  1.
       -3    1    3    3    0  502  0.11812898962E+03  0.83544688088E+03  0.10073775002E+04  0.13140530382E+04  0.10100000352E+00 0. -1.
</event>
<event>
 5   0  0.2967704E-05  0.1681818E+04  0.7818609E-02  0.8771803E-01
        1   -1    0    0  501    0  0.00000000000E+00  0.00000000000E+00  0.73238733672E+03  0.73238733674E+03  0.50400001928E-02 0. -1.
       -1   -1    0    0    0  501  0.00000000000E+00  0.00000000000E+00 -0.96551074759E+03  0.96551074760E+03  0.50400001928E-02 0.  1.
    10030    2    1    2    0    0  0.00000000000E+00  0.00000000000E+00 -0.23312341087E+03  0.16978980843E+04  0.16818178796E+04 0.  0.
        2    1    3    3  502    0 -0.49562890388E+03  0.64732627813E+03 -0.32456200074E+03  0.87750772820E+03  0.25500000920E-02 0.  1.
       -2    1    3    3    0  502  0.49562890388E+03 -0.64732627813E+03  0.91438589874E+02  0.82039035614E+03  0.25500000920E-02 0. -1.
</event>
<event>
 5   0  0.5671132E-05  0.1680125E+04  0.7818609E-02  0.8772782E-01
        2   -1    0    0  501    0  0.00000000000E+00  0.00000000000E+00  0.15449763527E+04  0.15449763527E+04  0.25500000920E-02 0. -1.
       -2   -1    0    0    0  501  0.00000000000E+00  0.00000000000E+00 -0.45677388400E+03  0.45677388400E+03  0.25500000920E-02 0.  1.
    10030    2    1    2    0    0  0.00000000000E+00  0.00000000000E+00  0.10882024687E+04  0.20017502367E+04  0.16801248160E+04 0.  0.
        3    1    3    3  502    0  0.44533858590E+03 -0.30731006322E+03  0.13097176639E+04  0.14170837309E+04  0.10100000352E+00 0. -1.
       -3    1    3    3    0  502 -0.44533858590E+03  0.30731006322E+03 -0.22151519524E+03  0.58466650577E+03  0.10100000352E+00 0.  1.
</event>
<event>
 5   0  0.2966258E-05  0.1702604E+04  0.7818609E-02  0.8759880E-01
        1   -1    0    0  501    0  0.00000000000E+00  0.00000000000E+00  0.10274079052E+04  0.10274079052E+04  0.50400001928E-02 0. -1.
       -1   -1    0    0    0  501  0.00000000000E+00  0.00000000000E+00 -0.70538222584E+03  0.70538222586E+03  0.50400001928E-02 0.  1.
    10030    2    1    2    0    0  0.00000000000E+00  0.00000000000E+00  0.32202567934E+03  0.17327901311E+04  0.17026042112E+04 0.  0.
        4    1    3    3  502    0 -0.34050372634E+03  0.14742342431E+03  0.94078024438E+03  0.10113088227E+04  0.12699999809E+01 0. -1.
       -4    1    3    3    0  502  0.34050372634E+03 -0.14742342431E+03 -0.61875456504E+03  0.72148130838E+03  0.12699999809E+01 0.  1.
</event>
<event>
 5   0  0.2967704E-05  0.1719952E+04  0.7818609E-02  0.8750066E-01
       -1   -1    0    0    0  501  0.00000000000E+00  0.00000000000E+00  0.78919492548E+03  0.78919492550E+03  0.50400001928E-02 0.  1.
        1   -1    0    0  501    0  0.00000000000E+00  0.00000000000E+00 -0.93710571868E+03  0.93710571869E+03  0.50400001928E-02 0. -1.
    10030    2    1    2    0    0  0.00000000000E+00  0.00000000000E+00 -0.14791079320E+03  0.17263006442E+04  0.17199524154E+04 0.  0.
        2    1    3    3  502    0  0.34686771053E+03 -0.76606828715E+03 -0.25456747761E+03  0.87862530686E+03  0.25500000920E-02 0. -1.
       -2    1    3    3    0  502 -0.34686771053E+03  0.76606828715E+03  0.10665668442E+03  0.84767533733E+03  0.25500000920E-02 0.  1.
</event>
<event>
 5   0  0.2911632E-05  0.1698861E+04  0.7818609E-02  0.8762014E-01
       -1   -1    0    0    0  501  0.00000000000E+00  0.00000000000E+00  0.11785544753E+04  0.11785544753E+04  0.50400001928E-02 0.  1.
        1   -1    0    0  501    0  0.00000000000E+00  0.00000000000E+00 -0.61221820365E+03  0.61221820367E+03  0.50400001928E-02 0. -1.
    10030    2    1    2    0    0  0.00000000000E+00  0.00000000000E+00  0.56633627167E+03  0.17907726790E+04  0.16988613879E+04 0.  0.
        1    1    3    3  502    0  0.12766772387E+03  0.64753072582E+03  0.84682916296E+03  0.10736455280E+04  0.50400001928E-02 0.  1.
       -1    1    3    3    0  502 -0.12766772387E+03 -0.64753072582E+03 -0.28049289128E+03  0.71712715098E+03  0.50400001928E-02 0. -1.
</event>
<event>
 5   0  0.5821584E-05  0.1672496E+04  0.7818609E-02  0.8777208E-01
       -2   -1    0    0    0  501  0.00000000000E+00  0.00000000000E+00  0.20053701704E+04  0.20053701704E+04  0.25500000920E-02 0.  1.
        2   -1    0    0  501    0  0.00000000000E+00  0.00000000000E+00 -0.34871917653E+03  0.34871917654E+03  0.25500000920E-02 0. -1.
    10030    2    1    2    0    0  0.00000000000E+00  0.00000000000E+00  0.16566509939E+04  0.23540893470E+04  0.16724963790E+04 0.  0.
        1    1    3    3  502    0 -0.81982900642E+03  0.92991412500E+02  0.10199980107E+04  0.13119309983E+04  0.50400001928E-02 0.  1.
       -1    1    3    3    0  502  0.81982900642E+03 -0.92991412500E+02  0.63665298320E+03  0.10421583486E+04  0.50400001928E-02 0. -1.
</event>
<event>
 5   0  0.2911632E-05  0.1701940E+04  0.7818609E-02  0.8760259E-01
       -1   -1    0    0    0  501  0.00000000000E+00  0.00000000000E+00  0.50451373727E+03  0.50451373730E+03  0.50400001928E-02 0.  1.
        1   -1    0    0  501    0  0.00000000000E+00  0.00000000000E+00 -0.14353415345E+04  0.14353415345E+04  0.50400001928E-02 0. -1.
    10030    2    1    2    0    0  0.00000000000E+00  0.00000000000E+00 -0.93082779723E+03  0.19398552718E+04  0.17019395076E+04 0.  0.
        1    1    3    3  502    0 -0.19515221120E+03 -0.82473594620E+03 -0.37804495956E+03  0.92800417993E+03  0.50400001928E-02 0.  1.
       -1    1    3    3    0  502  0.19515221120E+03  0.82473594620E+03 -0.55278283767E+03  0.10118510919E+04  0.50400001928E-02 0. -1.
</event>
<event>
 5   0  0.2966258E-05  0.1702493E+04  0.7818609E-02  0.8759944E-01
       -1   -1    0    0    0  501  0.00000000000E+00  0.00000000000E+00  0.40832779621E+03  0.40832779624E+03  0.50400001928E-02 0. -1.
        1   -1    0    0  501    0  0.00000000000E+00  0.00000000000E+00 -0.17746048590E+04  0.17746048591E+04  0.50400001928E-02 0.  1.
    10030    2    1    2    0    0  0.00000000000E+00  0.00000000000E+00 -0.13662770628E+04  0.21829326553E+04  0.17024928679E+04 0.  0.
        4    1    3    3  502    0  0.15975318432E+03  0.44028435338E+02 -0.17537232687E+04  0.17615352676E+04  0.12699999809E+01 0.  1.
       -4    1    3    3    0  502 -0.15975318432E+03 -0.44028435338E+02  0.38744620585E+03  0.42139738768E+03  0.12699999809E+01 0. -1.
</event>
<event>
 5   0  0.5652631E-05  0.1698459E+04  0.7818609E-02  0.8762244E-01
       -2   -1    0    0    0  501  0.00000000000E+00  0.00000000000E+00  0.42403546983E+03  0.42403546984E+03  0.25500000920E-02 0. -1.
        2   -1    0    0  501    0  0.00000000000E+00  0.00000000000E+00 -0.17007792504E+04  0.17007792504E+04  0.25500000920E-02 0.  1.
    10030    2    1    2    0    0  0.00000000000E+00  0.00000000000E+00 -0.12767437805E+04  0.21248147202E+04  0.16984589822E+04 0.  0.
        2    1    3    3  502    0  0.70138208674E+03  0.14486035105E+03 -0.12092964304E+04  0.14054604973E+04  0.25500000920E-02 0.  1.
       -2    1    3    3    0  502 -0.70138208674E+03 -0.14486035105E+03 -0.67447350084E+02  0.71935422286E+03  0.25500000920E-02 0. -1.
</event>
<event>
 5   0  0.5652631E-05  0.1699145E+04  0.7818609E-02  0.8761852E-01
       -2   -1    0    0    0  501  0.00000000000E+00  0.00000000000E+00  0.88052154369E+03  0.88052154370E+03  0.25500000920E-02 0. -1.
        2   -1    0    0  501    0  0.00000000000E+00  0.00000000000E+00 -0.81971086163E+03  0.81971086164E+03  0.25500000920E-02 0.  1.
    10030    2    1    2    0    0  0.00000000000E+00  0.00000000000E+00  0.60810682058E+02  0.17002324053E+04  0.16991445769E+04 0.  0.
        2    1    3    3  502    0  0.79245290334E+03  0.24594477548E+03  0.21301227526E+03  0.85664734052E+03  0.25500000920E-02 0.  1.
       -2    1    3    3    0  502 -0.79245290334E+03 -0.24594477548E+03 -0.15220159320E+03  0.84358506482E+03  0.25500000920E-02 0. -1.
</event>
<event>
 5   0  0.2098250E-05  0.1698785E+04  0.7818609E-02  0.8762058E-01
        4   -1    0    0  501    0  0.00000000000E+00  0.00000000000E+00  0.12750966859E+04  0.12750973183E+04  0.12699999809E+01 0. -1.
       -4   -1    0    0    0  501  0.00000000000E+00  0.00000000000E+00 -0.56581247669E+03  0.56581390198E+03  0.12699999809E+01 0.  1.
    10030    2    1    2    0    0  0.00000000000E+00  0.00000000000E+00  0.70928420919E+03  0.18409112203E+04  0.16987848692E+04 0.  0.
        4    1    3    3  502    0 -0.47453880287E+03  0.88049551821E+02 -0.40278064369E+03  0.62862839486E+03  0.12699999809E+01 0.  1.
       -4    1    3    3    0  502  0.47453880287E+03 -0.88049551821E+02  0.11120648529E+04  0.12122828255E+04  0.12699999809E+01 0. -1.
</event>
<event>
 5   0  0.5821584E-05  0.1673441E+04  0.7818609E-02  0.8776659E-01
       -2   -1    0    0    0  501  0.00000000000E+00  0.00000000000E+00  0.21916006471E+03  0.21916006473E+03  0.25500000920E-02 0.  1.
        2   -1    0    0  501    0  0.00000000000E+00  0.00000000000E+00 -0.31944725100E+04  0.31944725100E+04  0.25500000920E-02 0. -1.
    10030    2    1    2    0    0  0.00000000000E+00  0.00000000000E+00 -0.29753124453E+04  0.34136325747E+04  0.16734405302E+04 0.  0.
        1    1    3    3  502    0  0.22138320325E+03  0.22021423219E+03  0.95849374528E+02  0.32663731165E+03  0.50400001928E-02 0.  1.
       -1    1    3    3    0  502 -0.22138320325E+03 -0.22021423219E+03 -0.30711618198E+04  0.30869952631E+04  0.50400001928E-02 0. -1.
</event>
<event>
 5   0  0.2993769E-05  0.1648432E+04  0.7818609E-02  0.8791334E-01
       -1   -1    0    0    0  501  0.00000000000E+00  0.00000000000E+00  0.46870302050E+03  0.46870302053E+03  0.50400001928E-02 0.  1.
        1   -1    0    0  501    0  0.00000000000E+00  0.00000000000E+00 -0.14493873887E+04  0.14493873887E+04  0.50400001928E-02 0. -1.
    10030    2    1    2    0    0  0.00000000000E+00  0.00000000000E+00 -0.98068436821E+03  0.19180904093E+04  0.16484322819E+04 0.  0.
        3    1    3    3  502    0 -0.58794741925E+03  0.42166029648E+03 -0.30980172413E+02  0.72418185197E+03  0.10100000352E+00 0.  1.
       -3    1    3    3    0  502  0.58794741925E+03 -0.42166029648E+03 -0.94970419580E+03  0.11939085573E+04  0.10100000352E+00 0. -1.
</event>
<event>
 5   0  0.5755321E-05  0.1700208E+04  0.7818609E-02  0.8761246E-01
       -2   -1    0    0    0  501  0.00000000000E+00  0.00000000000E+00  0.66443225964E+03  0.66443225965E+03  0.25500000920E-02 0.  1.
        2   -1    0    0  501    0  0.00000000000E+00  0.00000000000E+00 -0.10876604088E+04  0.10876604088E+04  0.25500000920E-02 0. -1.
    10030    2    1    2    0    0  0.00000000000E+00  0.00000000000E+00 -0.42322814915E+03  0.17520926684E+04  0.17002078263E+04 0.  0.
        4    1    3    3  502    0  0.61390375496E+03 -0.27855117489E+03 -0.74530484077E+03  0.10049624351E+04  0.12699999809E+01 0. -1.
       -4    1    3    3    0  502 -0.61390375496E+03  0.27855117489E+03  0.32207669163E+03  0.74713023334E+03  0.12699999809E+01 0.  1.
</event>
<event>
 5   0  0.5859822E-05  0.1710353E+04  0.7818609E-02  0.8755481E-01
        2   -1    0    0  501    0  0.00000000000E+00  0.00000000000E+00  0.85319631164E+03  0.85319631164E+03  0.25500000920E-02 0.  1.
       -2   -1    0    0    0  501  0.00000000000E+00  0.00000000000E+00 -0.85716164202E+03  0.85716164203E+03  0.25500000920E-02 0. -1.
    10030    2    1    2    0    0  0.00000000000E+00  0.00000000000E+00 -0.39653303860E+01  0.17103579537E+04  0.17103533570E+04 0.  0.
        5    1    3    3  502    0  0.50968242946E+03  0.61296846889E+03 -0.31149688721E+03  0.85589656121E+03  0.46999998093E+01 0. -1.
       -5    1    3    3    0  502 -0.50968242946E+03 -0.61296846889E+03  0.30753155682E+03  0.85446139245E+03  0.46999998093E+01 0.  1.
</event>
<event>
 5   0  0.5671132E-05  0.1700993E+04  0.7818609E-02  0.8760798E-01
       -2   -1    0    0    0  501  0.00000000000E+00  0.00000000000E+00  0.38512795879E+03  0.38512795880E+03  0.25500000920E-02 0.  1.
        2   -1    0    0  501    0  0.00000000000E+00  0.00000000000E+00 -0.18781923348E+04  0.18781923348E+04  0.25500000920E-02 0. -1.
    10030    2    1    2    0    0  0.00000000000E+00  0.00000000000E+00 -0.14930643760E+04  0.22633202936E+04  0.17009930983E+04 0.  0.
        3    1    3    3  502    0  0.84257816334E+03 -0.24755751603E+01 -0.90056044631E+03  0.12332693207E+04  0.10100000352E+00 0. -1.
       -3    1    3    3    0  502 -0.84257816334E+03  0.24755751603E+01 -0.59250392973E+03  0.10300509729E+04  0.10100000352E+00 0.  1.
</event>
<event>
 5   0  0.2911632E-05  0.1701783E+04  0.7818609E-02  0.8760348E-01
        1   -1    0    0  501    0  0.00000000000E+00  0.00000000000E+00  0.61127373609E+03  0.61127373611E+03  0.50400001928E-02 0.  1.
       -1   -1    0    0    0  501  0.00000000000E+00  0.00000000000E+00 -0.11844388546E+04  0.11844388546E+04  0.50400001928E-02 0. -1.
    10030    2    1    2    0    0  0.00000000000E+00  0.00000000000E+00 -0.57316511847E+03  0.17957125907E+04  0.17017830224E+04 0.  0.
        1    1    3    3  502    0 -0.12031680192E+03 -0.31770496192E+03 -0.11097723330E+04  0.11606063961E+04  0.50400001928E-02 0. -1.
       -1    1    3    3    0  502  0.12031680192E+03  0.31770496192E+03  0.53660721452E+03  0.63510619455E+03  0.50400001928E-02 0.  1.
</event>
<event>
 5   0  0.2967704E-05  0.1700104E+04  0.7818609E-02  0.8761305E-01
       -1   -1    0    0    0  501  0.00000000000E+00  0.00000000000E+00  0.51890290852E+03  0.51890290855E+03  0.50400001928E-02 0.  1.
        1   -1    0    0  501    0  0.00000000000E+00  0.00000000000E+00 -0.13925311789E+04  0.13925311789E+04  0.50400001928E-02 0. -1.
    10030    2    1    2    0    0  0.00000000000E+00  0.00000000000E+00 -0.87362827040E+03  0.19114340875E+04  0.17001040897E+04 0.  0.
        2    1    3    3  502    0 -0.83057659434E+03 -0.40046379168E+02 -0.23845397396E+03  0.86505577233E+03  0.25500000920E-02 0.  1.
       -2    1    3    3    0  502  0.83057659434E+03  0.40046379168E+02 -0.63517429643E+03  0.10463783151E+04  0.25500000920E-02 0. -1.
</event>
<event>
 5   0  0.2967704E-05  0.1700093E+04  0.7818609E-02  0.8761311E-01
       -1   -1    0    0    0  501  0.00000000000E+00  0.00000000000E+00  0.10253250227E+04  0.10253250227E+04  0.50400001928E-02 0.  1.
        1   -1    0    0  501    0  0.00000000000E+00  0.00000000000E+00 -0.70473150051E+03  0.70473150053E+03  0.50400001928E-02 0. -1.
    10030    2    1    2    0    0  0.00000000000E+00  0.00000000000E+00  0.32059352222E+03  0.17300565233E+04  0.17000927525E+04 0.  0.
        2    1    3    3  502    0 -0.24397020483E+03  0.91132735519E+02  0.98372576717E+03  0.10176163429E+04  0.25500000920E-02 0.  1.
       -2    1    3    3    0  502  0.24397020483E+03 -0.91132735519E+02 -0.66313224495E+03  0.71244018038E+03  0.25500000920E-02 0. -1.
</event>
<event>
 5   0  0.5652631E-05  0.1698844E+04  0.7818609E-02  0.8762024E-01
        2   -1    0    0  501    0  0.00000000000E+00  0.00000000000E+00  0.14815707426E+04  0.14815707426E+04  0.25500000920E-02 0.  1.
       -2   -1    0    0    0  501  0.00000000000E+00  0.00000000000E+00 -0.48699521192E+03  0.48699521193E+03  0.25500000920E-02 0. -1.
    10030    2    1    2    0    0  0.00000000000E+00  0.00000000000E+00  0.99457553072E+03  0.19685659546E+04  0.16988441456E+04 0.  0.
        2    1    3    3  502    0  0.37838451342E+03  0.71624563456E+03  0.79347754838E+03  0.11339264830E+04  0.25500000920E-02 0.  1.
       -2    1    3    3    0  502 -0.37838451342E+03 -0.71624563456E+03  0.20109798233E+03  0.83463947158E+03  0.25500000920E-02 0. -1.
</event>
<event>
 5   0  0.5755321E-05  0.1697743E+04  0.7818609E-02  0.8762653E-01
        2   -1    0    0  501    0  0.00000000000E+00  0.00000000000E+00  0.12631788231E+04  0.12631788231E+04  0.25500000920E-02 0. -1.
       -2   -1    0    0    0  501  0.00000000000E+00  0.00000000000E+00 -0.57045210677E+03  0.57045210678E+03  0.25500000920E-02 0.  1.
    10030    2    1    2    0    0  0.00000000000E+00  0.00000000000E+00  0.69272671629E+03  0.18336309298E+04  0.16977432325E+04 0.  0.
        4    1    3    3  502    0  0.23615772647E+03 -0.80849873842E+03  0.23236550624E+03  0.87374826076E+03  0.12699999809E+01 0. -1.
       -4    1    3    3    0  502 -0.23615772647E+03  0.80849873842E+03  0.46036121005E+03  0.95988266908E+03  0.12699999809E+01 0.  1.
</event>
<event>
 5   0  0.5859822E-05  0.1701848E+04  0.7818609E-02  0.8760311E-01
        2   -1    0    0  501    0  0.00000000000E+00  0.00000000000E+00  0.12161776868E+04  0.12161776868E+04  0.25500000920E-02 0.  1.
       -2   -1    0    0    0  501  0.00000000000E+00  0.00000000000E+00 -0.59536634210E+03  0.59536634211E+03  0.25500000920E-02 0. -1.
    10030    2    1    2    0    0  0.00000000000E+00  0.00000000000E+00  0.62081134474E+03  0.18115440290E+04  0.17018475381E+04 0.  0.
        5    1    3    3  502    0  0.52226895360E+03  0.30734873460E+03  0.94625393127E+03  0.11236755301E+04  0.46999998093E+01 0.  1.
       -5    1    3    3    0  502 -0.52226895360E+03 -0.30734873460E+03 -0.32544258653E+03  0.68786849883E+03  0.46999998093E+01 0. -1.
</event>
<event>
 5   0  0.2911632E-05  0.1699986E+04  0.7818609E-02  0.8761372E-01
        1   -1    0    0  501    0  0.00000000000E+00  0.00000000000E+00  0.91111406315E+03  0.91111406316E+03  0.50400001928E-02 0. -1.
       -1   -1    0    0    0  501  0.00000000000E+00  0.00000000000E+00 -0.79297261720E+03  0.79297261722E+03  0.50400001928E-02 0.  1.
    10030    2    1    2    0    0  0.00000000000E+00  0.00000000000E+00  0.11814144594E+03  0.17040866804E+04  0.16999864744E+04 0.  0.
        1    1    3    3  502    0 -0.66493054460E+03 -0.47900097053E+03 -0.16711468704E+03  0.83636228846E+03  0.50400001928E-02 0. -1.
       -1    1    3    3    0  502  0.66493054460E+03  0.47900097053E+03  0.28525613299E+03  0.86772439192E+03  0.50400001928E-02 0.  1.
</event>
<event>
 5   0  0.2966258E-05  0.1666080E+04  0.7818609E-02  0.8780950E-01
       -1   -1    0    0    0  501  0.00000000000E+00  0.00000000000E+00  0.49721374581E+03  0.49721374583E+03  0.50400001928E-02 0. -1.
        1   -1    0    0  501    0  0.00000000000E+00  0.00000000000E+00 -0.13956890939E+04  0.13956890939E+04  0.50400001928E-02 0.  1.
    10030    2    1    2    0    0  0.00000000000E+00  0.00000000000E+00 -0.89847534805E+03  0.18929028397E+04  0.16660801930E+04 0.  0.
        4    1    3    3  502    0  0.60933823046E+03 -0.43869861770E+02 -0.10926755842E+04  0.12518622883E+04  0.12699999809E+01 0. -1.
       -4    1    3    3    0  502 -0.60933823046E+03  0.43869861770E+02  0.19420023611E+03  0.64104055135E+03  0.12699999809E+01 0.  1.
</event>
<event>
 5   0  0.5652631E-05  0.1698537E+04  0.7818609E-02  0.8762199E-01
        2   -1    0    0  501    0  0.00000000000E+00  0.00000000000E+00  0.66790383636E+03  0.66790383637E+03  0.25500000920E-02 0.  1.
       -2   -1    0    0    0  501  0.00000000000E+00  0.00000000000E+00 -0.10798811123E+04  0.10798811123E+04  0.25500000920E-02 0. -1.
    10030    2    1    2    0    0  0.00000000000E+00  0.00000000000E+00 -0.41197727598E+03  0.17477849487E+04  0.16985367088E+04 0.  0.
        2    1    3    3  502    0 -0.36754109892E+03  0.26358516912E+03 -0.94564399035E+03  0.10482395515E+04  0.25500000920E-02 0. -1.
       -2    1    3    3    0  502  0.36754109892E+03 -0.26358516912E+03  0.53366671437E+03  0.69954539724E+03  0.25500000920E-02 0.  1.
</event>
<event>
 5   0  0.5821584E-05  0.1700627E+04  0.7818609E-02  0.8761007E-01
       -2   -1    0    0    0  501  0.00000000000E+00  0.00000000000E+00  0.27238661504E+03  0.27238661505E+03  0.25500000920E-02 0. -1.
        2   -1    0    0  501    0  0.00000000000E+00  0.00000000000E+00 -0.26544368861E+04  0.26544368861E+04  0.25500000920E-02 0.  1.
    10030    2    1    2    0    0  0.00000000000E+00  0.00000000000E+00 -0.23820502711E+04  0.29268235012E+04  0.17006270353E+04 0.  0.
        1    1    3    3  502    0  0.25343345956E+03  0.20133875518E+03  0.16221721635E+03  0.36205004912E+03  0.50400001928E-02 0. -1.
       -1    1    3    3    0  502 -0.25343345956E+03 -0.20133875518E+03 -0.25442674874E+04  0.25647734521E+04  0.50400001928E-02 0.  1.
</event>
<event>
 5   0  0.5821584E-05  0.1696857E+04  0.7818609E-02  0.8763159E-01
       -2   -1    0    0    0  501  0.00000000000E+00  0.00000000000E+00  0.73491604414E+03  0.73491604414E+03  0.25500000920E-02 0. -1.
        2   -1    0    0  501    0  0.00000000000E+00  0.00000000000E+00 -0.97947402444E+03  0.97947402444E+03  0.25500000920E-02 0.  1.
    10030    2    1    2    0    0  0.00000000000E+00  0.00000000000E+00 -0.24455798030E+03  0.17143900686E+04  0.16968573015E+04 0.  0.
        1    1    3    3  502    0  0.41580905996E+03  0.15737413289E+03  0.60779889087E+03  0.75304932363E+03  0.50400001928E-02 0. -1.
       -1    1    3    3    0  502 -0.41580905996E+03 -0.15737413289E+03 -0.85235687117E+03  0.96134074495E+03  0.50400001928E-02 0.  1.
</event>
<event>
 5   0  0.2967704E-05  0.1696337E+04  0.7818609E-02  0.8763456E-01
       -1   -1    0    0    0  501  0.00000000000E+00  0.00000000000E+00  0.76110807239E+03  0.76110807241E+03  0.50400001928E-02 0.  1.
        1   -1    0    0  501    0  0.00000000000E+00  0.00000000000E+00 -0.94518706213E+03  0.94518706215E+03  0.50400001928E-02 0. -1.
    10030    2    1    2    0    0  0.00000000000E+00  0.00000000000E+00 -0.18407898974E+03  0.17062951346E+04  0.16963366446E+04 0.  0.
        2    1    3    3  502    0 -0.11750271497E+03 -0.37889135577E+03 -0.84612314057E+03  0.93449982157E+03  0.25500000920E-02 0. -1.
       -2    1    3    3    0  502  0.11750271497E+03  0.37889135577E+03  0.66204415083E+03  0.77179531299E+03  0.25500000920E-02 0.  1.
</event>
<event>
 5   0  0.5859822E-05  0.1702485E+04  0.7818609E-02  0.8759948E-01
       -2   -1    0    0    0  501  0.00000000000E+00  0.00000000000E+00  0.31727842690E+03  0.31727842691E+03  0.25500000920E-02 0. -1.
        2   -1    0    0  501    0  0.00000000000E+00  0.00000000000E+00 -0.22838429327E+04  0.22838429327E+04  0.25500000920E-02 0.  1.
    10030    2    1    2    0    0  0.00000000000E+00  0.00000000000E+00 -0.19665645058E+04  0.26011213596E+04  0.17024853515E+04 0.  0.
        5    1    3    3  502    0 -0.66426264567E+03  0.49243717746E+03 -0.12920898450E+04  0.15340330810E+04  0.46999998093E+01 0. -1.
       -5    1    3    3    0  502  0.66426264567E+03 -0.49243717746E+03 -0.67447466078E+03  0.10670882785E+04  0.46999998093E+01 0.  1.
</event>
<event>
 5   0  0.2966258E-05  0.1695615E+04  0.7818609E-02  0.8763870E-01
        1   -1    0    0  501    0  0.00000000000E+00  0.00000000000E+00  0.82008922185E+03  0.82008922187E+03  0.50400001928E-02 0. -1.
       -1   -1    0    0    0  501  0.00000000000E+00  0.00000000000E+00 -0.87646214607E+03  0.87646214608E+03  0.50400001928E-02 0.  1.
    10030    2    1    2    0    0  0.00000000000E+00  0.00000000000E+00 -0.56372924214E+02  0.16965513679E+04  0.16956145309E+04 0.  0.
        4    1    3    3  502    0  0.44091543347E+02 -0.46900145625E+03  0.67709242898E+03  0.82484071217E+03  0.12699999809E+01 0. -1.
       -4    1    3    3    0  502 -0.44091543347E+02  0.46900145625E+03 -0.73346535320E+03  0.87171065578E+03  0.12699999809E+01 0.  1.
</event>
<event>
 5   0  0.2911632E-05  0.1701299E+04  0.7818609E-02  0.8760624E-01
       -1   -1    0    0    0  501  0.00000000000E+00  0.00000000000E+00  0.56051577290E+03  0.56051577292E+03  0.50400001928E-02 0. -1.
        1   -1    0    0  501    0  0.00000000000E+00  0.00000000000E+00 -0.12909625722E+04  0.12909625722E+04  0.50400001928E-02 0.  1.
    10030    2    1    2    0    0  0.00000000000E+00  0.00000000000E+00 -0.73044679932E+03  0.18514783451E+04  0.17012993669E+04 0.  0.
        1    1    3    3  502    0 -0.77746615991E+03 -0.33570267770E+03 -0.27778848564E+03  0.89124427650E+03  0.50400001928E-02 0. -1.
       -1    1    3    3    0  502  0.77746615991E+03  0.33570267770E+03 -0.45265831368E+03  0.96023406864E+03  0.50400001928E-02 0.  1.
</event>
<event>
 5   0  0.2911632E-05  0.1700347E+04  0.7818609E-02  0.8761167E-01
       -1   -1    0    0    0  501  0.00000000000E+00  0.00000000000E+00  0.27330408725E+03  0.27330408730E+03  0.50400001928E-02 0.  1.
        1   -1    0    0  501    0  0.00000000000E+00  0.00000000000E+00 -0.26446541424E+04  0.26446541425E+04  0.50400001928E-02 0. -1.
    10030    2    1    2    0    0  0.00000000000E+00  0.00000000000E+00 -0.23713500552E+04  0.29179582298E+04  0.17003467724E+04 0.  0.
        1    1    3    3  502    0 -0.80872393430E+03  0.22884417710E+03 -0.14053804022E+04  0.16375280560E+04  0.50400001928E-02 0. -1.
       -1    1    3    3    0  502  0.80872393430E+03 -0.22884417710E+03 -0.96596965297E+03  0.12804301737E+04  0.50400001928E-02 0.  1.
</event>
<event>
 5   0  0.2967704E-05  0.1698692E+04  0.7818609E-02  0.8762111E-01
       -1   -1    0    0    0  501  0.00000000000E+00  0.00000000000E+00  0.50154480562E+03  0.50154480564E+03  0.50400001928E-02 0.  1.
        1   -1    0    0  501    0  0.00000000000E+00  0.00000000000E+00 -0.14383329070E+04  0.14383329070E+04  0.50400001928E-02 0. -1.
    10030    2    1    2    0    0  0.00000000000E+00  0.00000000000E+00 -0.93678810135E+03  0.19398777126E+04  0.16986917299E+04 0.  0.
        2    1    3    3  502    0  0.76726630571E+03 -0.25902388246E+02 -0.53459643417E+02  0.76956250628E+03  0.25500000920E-02 0.  1.
       -2    1    3    3    0  502 -0.76726630571E+03  0.25902388246E+02 -0.88332845794E+03  0.11703152063E+04  0.25500000920E-02 0. -1.
</event>
<event>
 5   0  0.2993769E-05  0.1697137E+04  0.7818609E-02  0.8762999E-01
       -1   -1    0    0    0  501  0.00000000000E+00  0.00000000000E+00  0.39129036434E+03  0.39129036437E+03  0.50400001928E-02 0.  1.
        1   -1    0    0  501    0  0.00000000000E+00  0.00000000000E+00 -0.18402418835E+04  0.18402418835E+04  0.50400001928E-02 0. -1.
    10030    2    1    2    0    0  0.00000000000E+00  0.00000000000E+00 -0.14489515192E+04  0.22315322479E+04  0.16971374925E+04 0.  0.
        3    1    3    3  502    0  0.28329774158E+03  0.12542740364E+03 -0.17632137494E+04  0.17902269075E+04  0.10100000352E+00 0. -1.
       -3    1    3    3    0  502 -0.28329774158E+03 -0.12542740364E+03  0.31426223020E+03  0.44130534044E+03  0.10100000352E+00 0.  1.
</event>
<event>
 5   0  0.5671132E-05  0.1698323E+04  0.7818609E-02  0.8762321E-01
        2   -1    0    0  501    0  0.00000000000E+00  0.00000000000E+00  0.17174489467E+04  0.17174489467E+04  0.25500000920E-02 0. -1.
       -2   -1    0    0    0  501  0.00000000000E+00  0.00000000000E+00 -0.41985274121E+03  0.41985274122E+03  0.25500000920E-02 0.  1.
    10030    2    1    2    0    0  0.00000000000E+00  0.00000000000E+00  0.12975962055E+04  0.21373016879E+04  0.16983234653E+04 0.  0.
        3    1    3    3  502    0 -0.46962029973E+03 -0.24518390395E+03  0.14839732965E+04  0.15757014716E+04  0.10100000352E+00 0. -1.
       -3    1    3    3    0  502  0.46962029973E+03  0.24518390395E+03 -0.18637709104E+03  0.56160021629E+03  0.10100000352E+00 0.  1.
</event>
<event>
 5   0  0.2993769E-05  0.1704139E+04  0.7818609E-02  0.8759007E-01
        1   -1    0    0  501    0  0.00000000000E+00  0.00000000000E+00  0.11681724269E+04  0.11681724269E+04  0.50400001928E-02 0. -1.
       -1   -1    0    0    0  501  0.00000000000E+00  0.00000000000E+00 -0.62150274465E+03  0.62150274467E+03  0.50400001928E-02 0.  1.
    10030    2    1    2    0    0  0.00000000000E+00  0.00000000000E+00  0.54666968226E+03  0.17896751716E+04  0.17041389258E+04 0.  0.
        3    1    3    3  502    0 -0.54894688518E+03 -0.64531739371E+03  0.36869526679E+03  0.92396614187E+03  0.10100000352E+00 0.  1.
       -3    1    3    3    0  502  0.54894688518E+03  0.64531739371E+03  0.17797441547E+03  0.86570902972E+03  0.10100000352E+00 0. -1.
</event>
<event>
 5   0  0.5755321E-05  0.1697851E+04  0.7818609E-02  0.8762591E-01
       -2   -1    0    0    0  501  0.00000000000E+00  0.00000000000E+00  0.45196401617E+03  0.45196401617E+03  0.25500000920E-02 0. -1.
        2   -1    0    0  501    0  0.00000000000E+00  0.00000000000E+00 -0.15945386606E+04  0.15945386606E+04  0.25500000920E-02 0.  1.
    10030    2    1    2    0    0  0.00000000000E+00  0.00000000000E+00 -0.11425746445E+04  0.20465026768E+04  0.16978505199E+04 0.  0.
        4    1    3    3  502    0 -0.72246972469E+03  0.37926297909E+03 -0.28894326052E+03  0.86561696559E+03  0.12699999809E+01 0. -1.
       -4    1    3    3    0  502  0.72246972469E+03 -0.37926297909E+03 -0.85363138393E+03  0.11808857112E+04  0.12699999809E+01 0.  1.
</event>
<event>
 5   0  0.5671132E-05  0.1698923E+04  0.7818609E-02  0.8761979E-01
        2   -1    0    0  501    0  0.00000000000E+00  0.00000000000E+00  0.13492798517E+04  0.13492798517E+04  0.25500000920E-02 0.  1.
       -2   -1    0    0    0  501  0.00000000000E+00  0.00000000000E+00 -0.53479261905E+03  0.53479261906E+03  0.25500000920E-02 0. -1.
    10030    2    1    2    0    0  0.00000000000E+00  0.00000000000E+00  0.81448723265E+03  0.18840724708E+04  0.16989230774E+04 0.  0.
        3    1    3    3  502    0  0.67006148826E+02 -0.38878260050E+03 -0.42703343283E+03  0.58137706989E+03  0.10100000352E+00 0. -1.
       -3    1    3    3    0  502 -0.67006148826E+02  0.38878260050E+03  0.12415206655E+04  0.13026954009E+04  0.10100000352E+00 0.  1.
</event>
<event>
 5   0  0.5652631E-05  0.1698178E+04  0.7818609E-02  0.8762404E-01
       -2   -1    0    0    0  501  0.00000000000E+00  0.00000000000E+00  0.70047056258E+03  0.70047056259E+03  0.25500000920E-02 0. -1.
        2   -1    0    0  501    0  0.00000000000E+00  0.00000000000E+00 -0.10292396926E+04  0.10292396926E+04  0.25500000920E-02 0.  1.
    10030    2    1    2    0    0  0.00000000000E+00  0.00000000000E+00 -0.32876913006E+03  0.17297102552E+04  0.16981779725E+04 0.  0.
        2    1    3    3  502    0  0.22276364642E+03 -0.48509223358E+03  0.50818989074E+03  0.73701769470E+03  0.25500000920E-02 0. -1.
       -2    1    3    3    0  502 -0.22276364642E+03  0.48509223358E+03 -0.83695902079E+03  0.99269256053E+03  0.25500000920E-02 0.  1.
</event>
<event>
 5   0  0.2987859E-05  0.1696643E+04  0.7818609E-02  0.8763281E-01
       -1   -1    0    0    0  501  0.00000000000E+00  0.00000000000E+00  0.68155917312E+03  0.68155917313E+03  0.50400001928E-02 0. -1.
        1   -1    0    0  501    0  0.00000000000E+00  0.00000000000E+00 -0.10558867999E+04  0.10558867999E+04  0.50400001928E-02 0.  1.
    10030    2    1    2    0    0  0.00000000000E+00  0.00000000000E+00 -0.37432762678E+03  0.17374459730E+04  0.16966429610E+04 0.  0.
        5    1    3    3  502    0  0.16923282122E+03 -0.45233568193E+03  0.52701780961E+03  0.71485465555E+03  0.46999998093E+01 0. -1.
       -5    1    3    3    0  502 -0.16923282122E+03  0.45233568193E+03 -0.90134543639E+03  0.10225913175E+04  0.46999998093E+01 0.  1.
</event>
<event>
 5   0  0.2911632E-05  0.1697662E+04  0.7818609E-02  0.8762699E-01
        1   -1    0    0  501    0  0.00000000000E+00  0.00000000000E+00  0.13718368375E+04  0.13718368375E+04  0.50400001928E-02 0. -1.
       -1   -1    0    0    0  501  0.00000000000E+00  0.00000000000E+00 -0.52521825274E+03  0.52521825277E+03  0.50400001928E-02 0.  1.
    10030    2    1    2    0    0  0.00000000000E+00  0.00000000000E+00  0.84661858479E+03  0.18970550903E+04  0.16976616234E+04 0.  0.
        1    1    3    3  502    0  0.62874184337E+02 -0.79853499820E+03  0.73719679867E+03  0.10886094003E+04  0.50400001928E-02 0.  1.
       -1    1    3    3    0  502 -0.62874184337E+02  0.79853499820E+03  0.10942178612E+03  0.80844569002E+03  0.50400001928E-02 0. -1.
</event>
<event>
 5   0  0.5755321E-05  0.1695342E+04  0.7818609E-02  0.8764026E-01
       -2   -1    0    0    0  501  0.00000000000E+00  0.00000000000E+00  0.37959391167E+03  0.37959391168E+03  0.25500000920E-02 0. -1.
        2   -1    0    0  501    0  0.00000000000E+00  0.00000000000E+00 -0.18929329567E+04  0.18929329567E+04  0.25500000920E-02 0.  1.
    10030    2    1    2    0    0  0.00000000000E+00  0.00000000000E+00 -0.15133390450E+04  0.22725268684E+04  0.16953416477E+04 0.  0.
        4    1    3    3  502    0  0.44478130716E+03 -0.48807171540E+03 -0.44208894121E+02  0.66181602413E+03  0.12699999809E+01 0. -1.
       -4    1    3    3    0  502 -0.44478130716E+03  0.48807171540E+03 -0.14691301509E+04  0.16107108442E+04  0.12699999809E+01 0.  1.
</event>
<event>
 5   0  0.5755321E-05  0.1700478E+04  0.7818609E-02  0.8761092E-01
       -2   -1    0    0    0  501  0.00000000000E+00  0.00000000000E+00  0.42256144123E+03  0.42256144124E+03  0.25500000920E-02 0.  1.
        2   -1    0    0  501    0  0.00000000000E+00  0.00000000000E+00 -0.17107722517E+04  0.17107722517E+04  0.25500000920E-02 0. -1.
    10030    2    1    2    0    0  0.00000000000E+00  0.00000000000E+00 -0.12882108104E+04  0.21333336929E+04  0.17004780367E+04 0.  0.
        4    1    3    3  502    0  0.64618743263E+03 -0.53672525639E+03 -0.47922603216E+03  0.96710464880E+03  0.12699999809E+01 0.  1.
       -4    1    3    3    0  502 -0.64618743263E+03  0.53672525639E+03 -0.80898477827E+03  0.11662290441E+04  0.12699999809E+01 0. -1.
</event>
<event>
 5   0  0.5859822E-05  0.1695489E+04  0.7818609E-02  0.8763941E-01
       -2   -1    0    0    0  501  0.00000000000E+00  0.00000000000E+00  0.84969586897E+03  0.84969586898E+03  0.25500000920E-02 0. -1.
        2   -1    0    0  501    0  0.00000000000E+00  0.00000000000E+00 -0.84579745296E+03  0.84579745296E+03  0.25500000920E-02 0.  1.
    10030    2    1    2    0    0  0.00000000000E+00  0.00000000000E+00  0.38984160162E+01  0.16954933219E+04  0.16954888402E+04 0.  0.
        5    1    3    3  502    0  0.27948452899E+03  0.24053156816E+03  0.76528698057E+03  0.84950178920E+03  0.46999998093E+01 0. -1.
       -5    1    3    3    0  502 -0.27948452899E+03 -0.24053156816E+03 -0.76138856455E+03  0.84599153274E+03  0.46999998093E+01 0.  1.
</event>
<event>
 5   0  0.5671132E-05  0.1696930E+04  0.7818609E-02  0.8763117E-01
        2   -1    0    0  501    0  0.00000000000E+00  0.00000000000E+00  0.46224090377E+03  0.46224090378E+03  0.25500000920E-02 0. -1.
       -2   -1    0    0    0  501  0.00000000000E+00  0.00000000000E+00 -0.15573973275E+04  0.15573973275E+04  0.25500000920E-02 0.  1.
    10030    2    1    2    0    0  0.00000000000E+00  0.00000000000E+00 -0.10951564237E+04  0.20196382313E+04  0.16969298727E+04 0.  0.
        3    1    3    3  502    0  0.13090770423E+03  0.83188548496E+03 -0.67081963962E+03  0.10766472432E+04  0.10100000352E+00 0. -1.
       -3    1    3    3    0  502 -0.13090770423E+03 -0.83188548496E+03 -0.42433678409E+03  0.94299098810E+03  0.10100000352E+00 0.  1.
</event>
<event>
 5   0  0.5755321E-05  0.1695808E+04  0.7818609E-02  0.8763759E-01
        2   -1    0    0  501    0  0.00000000000E+00  0.00000000000E+00  0.10143463440E+04  0.10143463440E+04  0.25500000920E-02 0. -1.
       -2   -1    0    0    0  501  0.00000000000E+00  0.00000000000E+00 -0.70877312093E+03  0.70877312093E+03  0.25500000920E-02 0.  1.
    10030    2    1    2    0    0  0.00000000000E+00  0.00000000000E+00  0.30557322309E+03  0.17231194650E+04  0.16958082721E+04 0.  0.
        4    1    3    3  502    0  0.33836199832E+03 -0.11121165397E+03  0.93464826176E+03  0.10002129073E+04  0.12699999809E+01 0. -1.
       -4    1    3    3    0  502 -0.33836199832E+03  0.11121165397E+03 -0.62907503867E+03  0.72290655763E+03  0.12699999809E+01 0.  1.
</event>
<event>
 5   0  0.2987859E-05  0.1702270E+04  0.7818609E-02  0.8760071E-01
        1   -1    0    0  501    0  0.00000000000E+00  0.00000000000E+00  0.57763764303E+03  0.57763764305E+03  0.50400001928E-02 0. -1.
       -1   -1    0    0    0  501  0.00000000000E+00  0.00000000000E+00 -0.12541270817E+04  0.12541270817E+04  0.50400001928E-02 0.  1.
    10030    2    1    2    0    0  0.00000000000E+00  0.00000000000E+00 -0.67648943869E+03  0.18317647248E+04  0.17022702624E+04 0.  0.
        5    1    3    3  502    0 -0.33462921613E+03 -0.71815628967E+03 -0.67283854983E+03  0.10394512845E+04  0.46999998093E+01 0.  1.
       -5    1    3    3    0  502  0.33462921613E+03  0.71815628967E+03 -0.36508888568E+01  0.79231344030E+03  0.46999998093E+01 0. -1.
</event>
<event>
 5   0  0.2967704E-05  0.1699494E+04  0.7818609E-02  0.8761653E-01
        1   -1    0    0  501    0  0.00000000000E+00  0.00000000000E+00  0.10893558759E+04  0.10893558759E+04  0.50400001928E-02 0. -1.
       -1   -1    0    0    0  501  0.00000000000E+00  0.00000000000E+00 -0.66284148494E+03  0.66284148496E+03  0.50400001928E-02 0.  1.
    10030    2    1    2    0    0  0.00000000000E+00  0.00000000000E+00  0.42651439093E+03  0.17521973608E+04  0.16994943559E+04 0.  0.
        2    1    3    3  502    0 -0.35140406328E+03  0.76396184910E+03  0.87204795547E+02  0.84541540023E+03  0.25500000920E-02 0. -1.
       -2    1    3    3    0  502  0.35140406328E+03 -0.76396184910E+03  0.33930959539E+03  0.90678196062E+03  0.25500000920E-02 0.  1.
</event>
<event>
 5   0  0.5755321E-05  0.1699229E+04  0.7818609E-02  0.8761804E-01
       -2   -1    0    0    0  501  0.00000000000E+00  0.00000000000E+00  0.46540947960E+03  0.46540947961E+03  0.25500000920E-02 0.  1.
        2   -1    0    0  501    0  0.00000000000E+00  0.00000000000E+00 -0.15509894677E+04  0.15509894677E+04  0.25500000920E-02 0. -1.
    10030    2    1    2    0    0  0.00000000000E+00  0.00000000000E+00 -0.10855799881E+04  0.20163989473E+04  0.16992294737E+04 0.  0.
        4    1    3    3  502    0  0.23099729270E+03  0.76444130305E+03 -0.88694718713E+03  0.11934853081E+04  0.12699999809E+01 0. -1.
       -4    1    3    3    0  502 -0.23099729270E+03 -0.76444130305E+03 -0.19863280097E+03  0.82291363919E+03  0.12699999809E+01 0.  1.
</event>
<event>
 5   0  0.5671132E-05  0.1700748E+04  0.7818609E-02  0.8760938E-01
       -2   -1    0    0    0  501  0.00000000000E+00  0.00000000000E+00  0.54590490304E+03  0.54590490305E+03  0.25500000920E-02 0.  1.
        2   -1    0    0  501    0  0.00000000000E+00  0.00000000000E+00 -0.13246560574E+04  0.13246560574E+04  0.25500000920E-02 0. -1.
    10030    2    1    2    0    0  0.00000000000E+00  0.00000000000E+00 -0.77875115435E+03  0.18705609604E+04  0.17007483489E+04 0.  0.
        3    1    3    3  502    0  0.75769988456E+03  0.26342277563E+03 -0.69974955848E+03  0.10644952459E+04  0.10100000352E+00 0. -1.
       -3    1    3    3    0  502 -0.75769988456E+03 -0.26342277563E+03 -0.79001595871E+02  0.80606571453E+03  0.10100000352E+00 0.  1.
</event>
<event>
 5   0  0.2098250E-05  0.1701094E+04  0.7818609E-02  0.8760740E-01
       -3   -1    0    0    0  501  0.00000000000E+00  0.00000000000E+00  0.91303793702E+03  0.91303794261E+03  0.10100000352E+00 0.  1.
        3   -1    0    0  501    0  0.00000000000E+00  0.00000000000E+00 -0.79233348846E+03  0.79233349489E+03  0.10100000352E+00 0. -1.
    10030    2    1    2    0    0  0.00000000000E+00  0.00000000000E+00  0.12070444856E+03  0.17053714375E+04  0.17010944054E+04 0.  0.
        1    1    3    3  502    0 -0.69744223058E+03 -0.48433638315E+03  0.10970146118E+03  0.85617860734E+03  0.50400001928E-02 0.  1.
       -1    1    3    3    0  502  0.69744223058E+03  0.48433638315E+03  0.11002987382E+02  0.84919283017E+03  0.50400001928E-02 0. -1.
</event>
<event>
 5   0  0.5652631E-05  0.1698251E+04  0.7818609E-02  0.8762363E-01
       -2   -1    0    0    0  501  0.00000000000E+00  0.00000000000E+00  0.37867446711E+03  0.37867446711E+03  0.25500000920E-02 0.  1.
        2   -1    0    0  501    0  0.00000000000E+00  0.00000000000E+00 -0.19040466149E+04  0.19040466149E+04  0.25500000920E-02 0. -1.
    10030    2    1    2    0    0  0.00000000000E+00  0.00000000000E+00 -0.15253721478E+04  0.22827210820E+04  0.16982506732E+04 0.  0.
        2    1    3    3  502    0 -0.71870127884E+03 -0.38023134536E+03 -0.43369221972E+03  0.92151849990E+03  0.25500000920E-02 0. -1.
       -2    1    3    3    0  502  0.71870127884E+03  0.38023134536E+03 -0.10916799281E+04  0.13612025821E+04  0.25500000920E-02 0.  1.
</event>
<event>
 5   0  0.5755321E-05  0.1700486E+04  0.7818609E-02  0.8761087E-01
        2   -1    0    0  501    0  0.00000000000E+00  0.00000000000E+00  0.55938160175E+03  0.55938160176E+03  0.25500000920E-02 0.  1.
       -2   -1    0    0    0  501  0.00000000000E+00  0.00000000000E+00 -0.12923428250E+04  0.12923428250E+04  0.25500000920E-02 0. -1.
    10030    2    1    2    0    0  0.00000000000E+00  0.00000000000E+00 -0.73296122324E+03  0.18517244267E+04  0.17004855771E+04 0.  0.
        4    1    3    3  502    0  0.39455281960E+03 -0.65425136162E+03  0.39788970811E+02  0.76505002890E+03  0.12699999809E+01 0.  1.
       -4    1    3    3    0  502 -0.39455281960E+03  0.65425136162E+03 -0.77275019405E+03  0.10866743978E+04  0.12699999809E+01 0. -1.
</event>
<event>
 5   0  0.2911632E-05  0.1700753E+04  0.7818609E-02  0.8760935E-01
        1   -1    0    0  501    0  0.00000000000E+00  0.00000000000E+00  0.63399279397E+03  0.63399279399E+03  0.50400001928E-02 0. -1.
       -1   -1    0    0    0  501  0.00000000000E+00  0.00000000000E+00 -0.11406125866E+04  0.11406125866E+04  0.50400001928E-02 0.  1.
    10030    2    1    2    0    0  0.00000000000E+00  0.00000000000E+00 -0.50661979267E+03  0.17746053806E+04  0.17007529634E+04 0.  0.
        1    1    3    3  502    0 -0.71790024948E+03  0.50532744714E+02  0.21935724208E+03  0.75236422440E+03  0.50400001928E-02 0. -1.
       -1    1    3    3    0  502  0.71790024948E+03 -0.50532744714E+02 -0.72597703474E+03  0.10222411562E+04  0.50400001928E-02 0.  1.
</event>
<event>
 5   0  0.5652631E-05  0.1697832E+04  0.7818609E-02  0.8762602E-01
        2   -1    0    0  501    0  0.00000000000E+00  0.00000000000E+00  0.48963938066E+03  0.48963938067E+03  0.25500000920E-02 0. -1.
       -2   -1    0    0    0  501  0.00000000000E+00  0.00000000000E+00 -0.14718147250E+04  0.14718147250E+04  0.25500000920E-02 0.  1.
    10030    2    1    2    0    0  0.00000000000E+00  0.00000000000E+00 -0.98217534436E+03  0.19614541057E+04  0.16978320888E+04 0.  0.
        2    1    3    3  502    0 -0.34763943835E+03  0.50470950540E+03 -0.11697273883E+04  0.13205480025E+04  0.25500000920E-02 0.  1.
       -2    1    3    3    0  502  0.34763943835E+03 -0.50470950540E+03  0.18755204393E+03  0.64090610320E+03  0.25500000920E-02 0. -1.
</event>
<event>
 5   0  0.2987859E-05  0.1698780E+04  0.7818609E-02  0.8762061E-01
        1   -1    0    0  501    0  0.00000000000E+00  0.00000000000E+00  0.10109354162E+04  0.10109354162E+04  0.50400001928E-02 0.  1.
       -1   -1    0    0    0  501  0.00000000000E+00  0.00000000000E+00 -0.71365892183E+03  0.71365892185E+03  0.50400001928E-02 0. -1.
    10030    2    1    2    0    0  0.00000000000E+00  0.00000000000E+00  0.29727649434E+03  0.17245943380E+04  0.16987796551E+04 0.  0.
        5    1    3    3  502    0 -0.65713129196E+03  0.37519104781E+02  0.69364986725E+03  0.95624340334E+03  0.46999998093E+01 0.  1.
       -5    1    3    3    0  502  0.65713129196E+03 -0.37519104781E+02 -0.39637337291E+03  0.76835093469E+03  0.46999998093E+01 0. -1.
</event>
<event>
 5   0  0.2993769E-05  0.1700211E+04  0.7818609E-02  0.8761244E-01
        1   -1    0    0  501    0  0.00000000000E+00  0.00000000000E+00  0.72298031109E+03  0.72298031111E+03  0.50400001928E-02 0.  1.
       -1   -1    0    0    0  501  0.00000000000E+00  0.00000000000E+00 -0.99958405304E+03  0.99958405305E+03  0.50400001928E-02 0. -1.
    10030    2    1    2    0    0  0.00000000000E+00  0.00000000000E+00 -0.27660374195E+03  0.17225643642E+04  0.17002112688E+04 0.  0.
        3    1    3    3  502    0  0.14113488157E+02  0.65902031594E+03  0.40557290784E+03  0.77394855200E+03  0.10100000352E+00 0.  1.
       -3    1    3    3    0  502 -0.14113488157E+02 -0.65902031594E+03 -0.68217664979E+03  0.94861581216E+03  0.10100000352E+00 0. -1.
</event>
<event>
 5   0  0.5859822E-05  0.1701899E+04  0.7818609E-02  0.8760282E-01
       -2   -1    0    0    0  501  0.00000000000E+00  0.00000000000E+00  0.93641779270E+03  0.93641779271E+03  0.25500000920E-02 0.  1.
        2   -1    0    0  501    0  0.00000000000E+00  0.00000000000E+00 -0.77328158230E+03  0.77328158231E+03  0.25500000920E-02 0. -1.
    10030    2    1    2    0    0  0.00000000000E+00  0.00000000000E+00  0.16313621040E+03  0.17096993750E+04  0.17018985075E+04 0.  0.
        5    1    3    3  502    0 -0.18046121982E+03  0.47792573941E+03 -0.60207543120E+03  0.78961774239E+03  0.46999998093E+01 0. -1.
       -5    1    3    3    0  502  0.18046121982E+03 -0.47792573941E+03  0.76521164160E+03  0.92008163262E+03  0.46999998093E+01 0.  1.
</event>
<event>
 5   0  0.2987859E-05  0.1719621E+04  0.7818609E-02  0.8750252E-01
        1   -1    0    0  501    0  0.00000000000E+00  0.00000000000E+00  0.67263352190E+03  0.67263352191E+03  0.50400001928E-02 0.  1.
       -1   -1    0    0    0  501  0.00000000000E+00  0.00000000000E+00 -0.10990736414E+04  0.10990736415E+04  0.50400001928E-02 0. -1.
    10030    2    1    2    0    0  0.00000000000E+00  0.00000000000E+00 -0.42644011955E+03  0.17717071634E+04  0.17196206259E+04 0.  0.
        5    1    3    3  502    0 -0.31144301893E+03  0.40892241935E+03 -0.92332607312E+03  0.10567721734E+04  0.46999998093E+01 0. -1.
       -5    1    3    3    0  502  0.31144301893E+03 -0.40892241935E+03  0.49688595357E+03  0.71493499001E+03  0.46999998093E+01 0.  1.
</event>
<event>
 5   0  0.5671132E-05  0.1699052E+04  0.7818609E-02  0.8761905E-01
        2   -1    0    0  501    0  0.00000000000E+00  0.00000000000E+00  0.30827548915E+04  0.30827548915E+04  0.25500000920E-02 0.  1.
       -2   -1    0    0    0  501  0.00000000000E+00  0.00000000000E+00 -0.23410694142E+03  0.23410694143E+03  0.25500000920E-02 0. -1.
    10030    2    1    2    0    0  0.00000000000E+00  0.00000000000E+00  0.28486479501E+04  0.33168618329E+04  0.16990518754E+04 0.  0.
        3    1    3    3  502    0  0.35127359825E+03  0.20097330511E+03 -0.33829256214E+02  0.40611308644E+03  0.10100000352E+00 0. -1.
       -3    1    3    3    0  502 -0.35127359825E+03 -0.20097330511E+03  0.28824772063E+04  0.29107487465E+04  0.10100000352E+00 0.  1.
</event>
<event>
 5   0  0.2911632E-05  0.1700726E+04  0.7818609E-02  0.8760950E-01
        1   -1    0    0  501    0  0.00000000000E+00  0.00000000000E+00  0.83605321079E+03  0.83605321081E+03  0.50400001928E-02 0.  1.
       -1   -1    0    0    0  501  0.00000000000E+00  0.00000000000E+00 -0.86491778970E+03  0.86491778971E+03  0.50400001928E-02 0. -1.
    10030    2    1    2    0    0  0.00000000000E+00  0.00000000000E+00 -0.28864578905E+02  0.17009710005E+04  0.17007260746E+04 0.  0.
        1    1    3    3  502    0  0.16104100965E+03  0.31691503842E+03  0.75817358523E+03  0.83737478690E+03  0.50400001928E-02 0.  1.
       -1    1    3    3    0  502 -0.16104100965E+03 -0.31691503842E+03 -0.78703816413E+03  0.86359621363E+03  0.50400001928E-02 0. -1.
</event>
<event>
 5   0  0.2987859E-05  0.1697857E+04  0.7818609E-02  0.8762588E-01
       -1   -1    0    0    0  501  0.00000000000E+00  0.00000000000E+00  0.12707956393E+04  0.12707956393E+04  0.50400001928E-02 0. -1.
        1   -1    0    0  501    0  0.00000000000E+00  0.00000000000E+00 -0.56710895641E+03  0.56710895643E+03  0.50400001928E-02 0.  1.
    10030    2    1    2    0    0  0.00000000000E+00  0.00000000000E+00  0.70368668290E+03  0.18379045958E+04  0.16978569891E+04 0.  0.
        5    1    3    3  502    0  0.16646570354E+03  0.59221677119E+03 -0.28141123195E+03  0.67649531115E+03  0.46999998093E+01 0.  1.
       -5    1    3    3    0  502 -0.16646570354E+03 -0.59221677119E+03  0.98509791485E+03  0.11614092846E+04  0.46999998093E+01 0. -1.
</event>
<event>
 5   0  0.5671132E-05  0.1699438E+04  0.7818609E-02  0.8761685E-01
       -2   -1    0    0    0  501  0.00000000000E+00  0.00000000000E+00  0.38121780829E+03  0.38121780830E+03  0.25500000920E-02 0. -1.
        2   -1    0    0  501    0  0.00000000000E+00  0.00000000000E+00 -0.18939895393E+04  0.18939895393E+04  0.25500000920E-02 0.  1.
    10030    2    1    2    0    0  0.00000000000E+00  0.00000000000E+00 -0.15127717310E+04  0.22752073476E+04  0.16994381908E+04 0.  0.
        3    1    3    3  502    0  0.30494772830E+03  0.77890682080E+03 -0.55630997206E+03  0.10045744112E+04  0.10100000352E+00 0. -1.
       -3    1    3    3    0  502 -0.30494772830E+03 -0.77890682080E+03 -0.95646175898E+03  0.12706329364E+04  0.10100000352E+00 0.  1.
</event>
<event>
 5   0  0.5859822E-05  0.1705334E+04  0.7818609E-02  0.8758328E-01
       -2   -1    0    0    0  501  0.00000000000E+00  0.00000000000E+00  0.12521880574E+04  0.12521880574E+04  0.25500000920E-02 0.  1.
        2   -1    0    0  501    0  0.00000000000E+00  0.00000000000E+00 -0.58061642107E+03  0.58061642108E+03  0.25500000920E-02 0. -1.
    10030    2    1    2    0    0  0.00000000000E+00  0.00000000000E+00  0.67157163632E+03  0.18328044785E+04  0.17053339244E+04 0.  0.
        5    1    3    3  502    0  0.48269276058E+03  0.67389190129E+03  0.12111509812E+03  0.83774313052E+03  0.46999998093E+01 0. -1.
       -5    1    3    3    0  502 -0.48269276058E+03 -0.67389190129E+03  0.55045653820E+03  0.99506134795E+03  0.46999998093E+01 0.  1.
</event>
<event>
 5   0  0.5859822E-05  0.1703138E+04  0.7818609E-02  0.8759577E-01
        2   -1    0    0  501    0  0.00000000000E+00  0.00000000000E+00  0.55909893501E+03  0.55909893502E+03  0.25500000920E-02 0.  1.
       -2   -1    0    0    0  501  0.00000000000E+00  0.00000000000E+00 -0.12970324382E+04  0.12970324382E+04  0.25500000920E-02 0. -1.
    10030    2    1    2    0    0  0.00000000000E+00  0.00000000000E+00 -0.73793350322E+03  0.18561313733E+04  0.17031376397E+04 0.  0.
        5    1    3    3  502    0  0.66617326760E+03  0.13342655180E+03 -0.92846274621E+03  0.11505019028E+04  0.46999998093E+01 0. -1.
       -5    1    3    3    0  502 -0.66617326760E+03 -0.13342655180E+03  0.19052924299E+03  0.70562947049E+03  0.46999998093E+01 0.  1.
</event>
<event>
 5   0  0.2966258E-05  0.1696124E+04  0.7818609E-02  0.8763578E-01
        1   -1    0    0  501    0  0.00000000000E+00  0.00000000000E+00  0.10565421520E+04  0.10565421520E+04  0.50400001928E-02 0. -1.
       -1   -1    0    0    0  501  0.00000000000E+00  0.00000000000E+00 -0.68071997384E+03  0.68071997386E+03  0.50400001928E-02 0.  1.
    10030    2    1    2    0    0  0.00000000000E+00  0.00000000000E+00  0.37582217815E+03  0.17372621259E+04  0.16961242243E+04 0.  0.
        4    1    3    3  502    0  0.71145319430E+03  0.39848645167E+03  0.42647794178E+03  0.92024026622E+03  0.12699999809E+01 0. -1.
       -4    1    3    3    0  502 -0.71145319430E+03 -0.39848645167E+03 -0.50655763627E+02  0.81702185965E+03  0.12699999809E+01 0.  1.
</event>
<event>
 5   0  0.2098250E-05  0.1699398E+04  0.7818609E-02  0.8761708E-01
       -3   -1    0    0    0  501  0.00000000000E+00  0.00000000000E+00  0.85733549153E+03  0.85733549748E+03  0.10100000352E+00 0.  1.
        3   -1    0    0  501    0  0.00000000000E+00  0.00000000000E+00 -0.84213083875E+03  0.84213084481E+03  0.10100000352E+00 0. -1.
    10030    2    1    2    0    0  0.00000000000E+00  0.00000000000E+00  0.15204652778E+02  0.16994663423E+04  0.16993983250E+04 0.  0.
        2    1    3    3  502    0  0.26783219156E+03 -0.55063603162E+02  0.81213597631E+03  0.85693110998E+03  0.25500000920E-02 0.  1.
       -2    1    3    3    0  502 -0.26783219156E+03  0.55063603162E+02 -0.79693132353E+03  0.84253523230E+03  0.25500000920E-02 0. -1.
</event>
<event>
 5   0  0.2966258E-05  0.1700025E+04  0.7818609E-02  0.8761350E-01
        1   -1    0    0  501    0  0.00000000000E+00  0.00000000000E+00  0.94627255537E+03  0.94627255539E+03  0.50400001928E-02 0. -1.
       -1   -1    0    0    0  501  0.00000000000E+00  0.00000000000E+00 -0.76354424831E+03  0.76354424832E+03  0.50400001928E-02 0.  1.
    10030    2    1    2    0    0  0.00000000000E+00  0.00000000000E+00  0.18272830707E+03  0.17098168037E+04  0.17000246669E+04 0.  0.
        4    1    3    3  502    0  0.34921131454E+02 -0.77982158542E+03  0.42972155382E+03  0.89106869388E+03  0.12699999809E+01 0. -1.
       -4    1    3    3    0  502 -0.34921131454E+02  0.77982158542E+03 -0.24699324675E+03  0.81874810983E+03  0.12699999809E+01 0.  1.
</event>
<event>
 5   0  0.2993769E-05  0.1700287E+04  0.7818609E-02  0.8761200E-01
       -1   -1    0    0    0  501  0.00000000000E+00  0.00000000000E+00  0.61158406744E+03  0.61158406746E+03  0.50400001928E-02 0.  1.
        1   -1    0    0  501    0  0.00000000000E+00  0.00000000000E+00 -0.11817579841E+04  0.11817579841E+04  0.50400001928E-02 0. -1.
    10030    2    1    2    0    0  0.00000000000E+00  0.00000000000E+00 -0.57017391666E+03  0.17933420516E+04  0.17002874518E+04 0.  0.
        3    1    3    3  502    0  0.70092898981E+03  0.31614834695E+03 -0.66755248386E+03  0.10182718473E+04  0.10100000352E+00 0. -1.
       -3    1    3    3    0  502 -0.70092898981E+03 -0.31614834695E+03  0.97378567206E+02  0.77507020430E+03  0.10100000352E+00 0.  1.
</event>
<event>
 5   0  0.2966258E-05  0.1699902E+04  0.7818609E-02  0.8761420E-01
        1   -1    0    0  501    0  0.00000000000E+00  0.00000000000E+00  0.77795272627E+03  0.77795272629E+03  0.50400001928E-02 0. -1.
       -1   -1    0    0    0  501  0.00000000000E+00  0.00000000000E+00 -0.92861293414E+03  0.92861293416E+03  0.50400001928E-02 0.  1.
    10030    2    1    2    0    0  0.00000000000E+00  0.00000000000E+00 -0.15066020787E+03  0.17065656604E+04  0.16999023075E+04 0.  0.
        4    1    3    3  502    0 -0.34300300317E+03 -0.10152695135E+03 -0.84936244018E+03  0.92161648733E+03  0.12699999809E+01 0.  1.
       -4    1    3    3    0  502  0.34300300317E+03  0.10152695135E+03  0.69870223231E+03  0.78494917311E+03  0.12699999809E+01 0. -1.
</event>
<event>
 5   0  0.5671132E-05  0.1696651E+04  0.7818609E-02  0.8763277E-01
        2   -1    0    0  501    0  0.00000000000E+00  0.00000000000E+00  0.18305042439E+04  0.18305042439E+04  0.25500000920E-02 0. -1.
       -2   -1    0    0    0  501  0.00000000000E+00  0.00000000000E+00 -0.39314617785E+03  0.39314617786E+03  0.25500000920E-02 0.  1.
    10030    2    1    2    0    0  0.00000000000E+00  0.00000000000E+00  0.14373580661E+04  0.22236504218E+04  0.16966505204E+04 0.  0.
        3    1    3    3  502    0 -0.33103135651E+03  0.40616368588E+03 -0.15571135244E+03  0.54662302751E+03  0.10100000352E+00 0.  1.
       -3    1    3    3    0  502  0.33103135651E+03 -0.40616368588E+03  0.15930694185E+04  0.16770273943E+04  0.10100000352E+00 0. -1.
</event>
<event>
 5   0  0.5859822E-05  0.1698410E+04  0.7818609E-02  0.8762272E-01
        2   -1    0    0  501    0  0.00000000000E+00  0.00000000000E+00  0.17827162114E+04  0.17827162114E+04  0.25500000920E-02 0. -1.
       -2   -1    0    0    0  501  0.00000000000E+00  0.00000000000E+00 -0.40452247958E+03  0.40452247959E+03  0.25500000920E-02 0.  1.
    10030    2    1    2    0    0  0.00000000000E+00  0.00000000000E+00  0.13781937318E+04  0.21872386910E+04  0.16984095881E+04 0.  0.
        5    1    3    3  502    0  0.54840699523E+03 -0.39824959335E+03  0.13479927129E+04  0.15087940267E+04  0.46999998093E+01 0. -1.
       -5    1    3    3    0  502 -0.54840699523E+03  0.39824959335E+03  0.30201018977E+02  0.67844466433E+03  0.46999998093E+01 0.  1.
</event>
<event>
 5   0  0.5859822E-05  0.1701963E+04  0.7818609E-02  0.8760246E-01
        2   -1    0    0  501    0  0.00000000000E+00  0.00000000000E+00  0.10277917728E+04  0.10277917728E+04  0.25500000920E-02 0.  1.
       -2   -1    0    0    0  501  0.00000000000E+00  0.00000000000E+00 -0.70458757081E+03  0.70458757081E+03  0.25500000920E-02 0. -1.
    10030    2    1    2    0    0  0.00000000000E+00  0.00000000000E+00  0.32320420198E+03  0.17323793436E+04  0.17019627593E+04 0.  0.
        5    1    3    3  502    0  0.21089512267E+02 -0.37694412580E+03 -0.61466460257E+03  0.72136419730E+03  0.46999998093E+01 0. -1.
       -5    1    3    3    0  502 -0.21089512267E+02  0.37694412580E+03  0.93786880455E+03  0.10110151463E+04  0.46999998093E+01 0.  1.
</event>
<event>
 5   0  0.2911632E-05  0.1698731E+04  0.7818609E-02  0.8762088E-01
        1   -1    0    0  501    0  0.00000000000E+00  0.00000000000E+00  0.62034363413E+03  0.62034363415E+03  0.50400001928E-02 0.  1.
       -1   -1    0    0    0  501  0.00000000000E+00  0.00000000000E+00 -0.11629395158E+04  0.11629395158E+04  0.50400001928E-02 0. -1.
    10030    2    1    2    0    0  0.00000000000E+00  0.00000000000E+00 -0.54259588164E+03  0.17832831499E+04  0.16987314391E+04 0.  0.
        1    1    3    3  502    0 -0.57807556219E+03 -0.30208215109E+03  0.29983780422E+03  0.71786328119E+03  0.50400001928E-02 0.  1.
       -1    1    3    3    0  502  0.57807556219E+03  0.30208215109E+03 -0.84243368585E+03  0.10654198687E+04  0.50400001928E-02 0. -1.
</event>
<event>
 5   0  0.5821584E-05  0.1695296E+04  0.7818609E-02  0.8764052E-01
        2   -1    0    0  501    0  0.00000000000E+00  0.00000000000E+00  0.83902179286E+03  0.83902179287E+03  0.25500000920E-02 0. -1.
       -2   -1    0    0    0  501  0.00000000000E+00  0.00000000000E+00 -0.85636296469E+03  0.85636296470E+03  0.25500000920E-02 0.  1.
    10030    2    1    2    0    0  0.00000000000E+00  0.00000000000E+00 -0.17341171832E+02  0.16953847576E+04  0.16952960685E+04 0.  0.
        1    1    3    3  502    0 -0.84497606270E+03 -0.14745030742E+01  0.58567366547E+02  0.84700463821E+03  0.50400001928E-02 0. -1.
       -1    1    3    3    0  502  0.84497606270E+03  0.14745030742E+01 -0.75908538379E+02  0.84838011936E+03  0.50400001928E-02 0.  1.
</event>
<event>
 5   0  0.5821584E-05  0.1703300E+04  0.7818609E-02  0.8759484E-01
       -2   -1    0    0    0  501  0.00000000000E+00  0.00000000000E+00  0.56744093140E+03  0.56744093141E+03  0.25500000920E-02 0. -1.
        2   -1    0    0  501    0  0.00000000000E+00  0.00000000000E+00 -0.12782087764E+04  0.12782087764E+04  0.25500000920E-02 0.  1.
    10030    2    1    2    0    0  0.00000000000E+00  0.00000000000E+00 -0.71076784498E+03  0.18456497078E+04  0.17033003007E+04 0.  0.
        1    1    3    3  502    0  0.25985018133E+02  0.31362681905E+02  0.56638503916E+03  0.56784756017E+03  0.50400001928E-02 0. -1.
       -1    1    3    3    0  502 -0.25985018133E+02 -0.31362681905E+02 -0.12771528841E+04  0.12778021476E+04  0.50400001928E-02 0.  1.
</event>
<event>
 5   0  0.2993769E-05  0.1701868E+04  0.7818609E-02  0.8760300E-01
       -1   -1    0    0    0  501  0.00000000000E+00  0.00000000000E+00  0.52018988648E+03  0.52018988651E+03  0.50400001928E-02 0.  1.
        1   -1    0    0  501    0  0.00000000000E+00  0.00000000000E+00 -0.13919696865E+04  0.13919696865E+04  0.50400001928E-02 0. -1.
    10030    2    1    2    0    0  0.00000000000E+00  0.00000000000E+00 -0.87177979999E+03  0.19121595730E+04  0.17018678600E+04 0.  0.
        3    1    3    3  502    0  0.17649154048E+03 -0.29951026236E+03  0.43676151806E+03  0.55822602500E+03  0.10100000352E+00 0.  1.
       -3    1    3    3    0  502 -0.17649154048E+03  0.29951026236E+03 -0.13085413181E+04  0.13539335480E+04  0.10100000352E+00 0. -1.
</event>
<event>
 5   0  0.5755321E-05  0.1704676E+04  0.7818609E-02  0.8758702E-01
       -2   -1    0    0    0  501  0.00000000000E+00  0.00000000000E+00  0.93879945343E+03  0.93879945344E+03  0.25500000920E-02 0. -1.
        2   -1    0    0  501    0  0.00000000000E+00  0.00000000000E+00 -0.77383984295E+03  0.77383984295E+03  0.25500000920E-02 0.  1.
    10030    2    1    2    0    0  0.00000000000E+00  0.00000000000E+00  0.16495961049E+03  0.17126392964E+04  0.17046764169E+04 0.  0.
        4    1    3    3  502    0  0.83872021678E+02 -0.65688031570E+03 -0.45663891343E+03  0.80439230189E+03  0.12699999809E+01 0.  1.
       -4    1    3    3    0  502 -0.83872021678E+02  0.65688031570E+03  0.62159852392E+03  0.90824699450E+03  0.12699999809E+01 0. -1.
</event>
<event>
 5   0  0.2967704E-05  0.1697251E+04  0.7818609E-02  0.8762934E-01
       -1   -1    0    0    0  501  0.00000000000E+00  0.00000000000E+00  0.82222693876E+03  0.82222693878E+03  0.50400001928E-02 0.  1.
        1   -1    0    0  501    0  0.00000000000E+00  0.00000000000E+00 -0.87587149466E+03  0.87587149467E+03  0.50400001928E-02 0. -1.
    10030    2    1    2    0    0  0.00000000000E+00  0.00000000000E+00 -0.53644555895E+02  0.16980984334E+04  0.16972508805E+04 0.  0.
        2    1    3    3  502    0  0.76089657117E+03  0.93917558678E+02 -0.39084601991E+03  0.86054907538E+03  0.25500000920E-02 0. -1.
       -2    1    3    3    0  502 -0.76089657117E+03 -0.93917558678E+02  0.33720146402E+03  0.83754935807E+03  0.25500000920E-02 0.  1.
</event>
<event>
 5   0  0.5652631E-05  0.1697402E+04  0.7818609E-02  0.8762847E-01
        2   -1    0    0  501    0  0.00000000000E+00  0.00000000000E+00  0.12823988165E+04  0.12823988165E+04  0.25500000920E-02 0.  1.
       -2   -1    0    0    0  501  0.00000000000E+00  0.00000000000E+00 -0.56167659104E+03  0.56167659104E+03  0.25500000920E-02 0. -1.
    10030    2    1    2    0    0  0.00000000000E+00  0.00000000000E+00  0.72072222543E+03  0.18440754075E+04  0.16974020097E+04 0.  0.
        2    1    3    3  502    0  0.33098853424E+03  0.17094956886E+03  0.11888274842E+04  0.12458282193E+04  0.25500000920E-02 0.  1.
       -2    1    3    3    0  502 -0.33098853424E+03 -0.17094956886E+03 -0.46810525876E+03  0.59824718819E+03  0.25500000920E-02 0. -1.
</event>
<event>
 5   0  0.2911632E-05  0.1698311E+04  0.7818609E-02  0.8762328E-01
       -1   -1    0    0    0  501  0.00000000000E+00  0.00000000000E+00  0.41251187576E+03  0.41251187579E+03  0.50400001928E-02 0.  1.
        1   -1    0    0  501    0  0.00000000000E+00  0.00000000000E+00 -0.17479870249E+04  0.17479870249E+04  0.50400001928E-02 0. -1.
    10030    2    1    2    0    0  0.00000000000E+00  0.00000000000E+00 -0.13354751491E+04  0.21604989007E+04  0.16983114043E+04 0.  0.
        1    1    3    3  502    0  0.13425471012E+03 -0.20422484734E+03  0.36680154230E+03  0.44076693038E+03  0.50400001928E-02 0.  1.
       -1    1    3    3    0  502 -0.13425471012E+03  0.20422484734E+03 -0.17022766914E+04  0.17197319703E+04  0.50400001928E-02 0. -1.
</event>
<event>
 5   0  0.5652631E-05  0.1700668E+04  0.7818609E-02  0.8760983E-01
       -2   -1    0    0    0  501  0.00000000000E+00  0.00000000000E+00  0.44377982609E+03  0.44377982610E+03  0.25500000920E-02 0.  1.
        2   -1    0    0  501    0  0.00000000000E+00  0.00000000000E+00 -0.16293399202E+04  0.16293399202E+04  0.25500000920E-02 0. -1.
    10030    2    1    2    0    0  0.00000000000E+00  0.00000000000E+00 -0.11855600941E+04  0.20731197463E+04  0.17006683233E+04 0.  0.
        2    1    3    3  502    0 -0.35013955774E+03  0.31238169911E+03 -0.14572312181E+04  0.15309156930E+04  0.25500000920E-02 0. -1.
       -2    1    3    3    0  502  0.35013955774E+03 -0.31238169911E+03  0.27167112403E+03  0.54220405335E+03  0.25500000920E-02 0.  1.
</event>
<event>
 5   0  0.5859822E-05  0.1700037E+04  0.7818609E-02  0.8761343E-01
        2   -1    0    0  501    0  0.00000000000E+00  0.00000000000E+00  0.18166435607E+04  0.18166435607E+04  0.25500000920E-02 0. -1.
       -2   -1    0    0    0  501  0.00000000000E+00  0.00000000000E+00 -0.39772868339E+03  0.39772868339E+03  0.25500000920E-02 0.  1.
    10030    2    1    2    0    0  0.00000000000E+00  0.00000000000E+00  0.14189148773E+04  0.22143722441E+04  0.17000367662E+04 0.  0.
        5    1    3    3  502    0 -0.59038857724E+03 -0.37220931313E+03  0.13414404880E+04  0.15121452039E+04  0.46999998093E+01 0. -1.
       -5    1    3    3    0  502  0.59038857724E+03  0.37220931313E+03  0.77474389293E+02  0.70222704015E+03  0.46999998093E+01 0.  1.
</event>
<event>
 5   0  0.5859822E-05  0.1698139E+04  0.7818609E-02  0.8762426E-01
        2   -1    0    0  501    0  0.00000000000E+00  0.00000000000E+00  0.24371963098E+04  0.24371963098E+04  0.25500000920E-02 0. -1.
       -2   -1    0    0    0  501  0.00000000000E+00  0.00000000000E+00 -0.29579854969E+03  0.29579854970E+03  0.25500000920E-02 0.  1.
    10030    2    1    2    0    0  0.00000000000E+00  0.00000000000E+00  0.21413977602E+04  0.27329948595E+04  0.16981391389E+04 0.  0.
        5    1    3    3  502    0  0.27513176365E+02  0.82853999752E+03  0.13659778673E+04  0.15978589194E+04  0.46999998093E+01 0.  1.
       -5    1    3    3    0  502 -0.27513176365E+02 -0.82853999752E+03  0.77541989282E+03  0.11351359401E+04  0.46999998093E+01 0. -1.
</event>
<event>
 5   0  0.2098250E-05  0.1697483E+04  0.7818609E-02  0.8762801E-01
        4   -1    0    0  501    0  0.00000000000E+00  0.00000000000E+00  0.39631395073E+03  0.39631598560E+03  0.12699999809E+01 0.  1.
       -4   -1    0    0    0  501  0.00000000000E+00  0.00000000000E+00 -0.18176493064E+04  0.18176497501E+04  0.12699999809E+01 0. -1.
    10030    2    1    2    0    0  0.00000000000E+00  0.00000000000E+00 -0.14213353557E+04  0.22139657357E+04  0.16974834566E+04 0.  0.
        2    1    3    3  502    0 -0.33675034448E+03  0.18126230979E+03  0.27756969747E+03  0.47254815249E+03  0.25500000920E-02 0.  1.
       -2    1    3    3    0  502  0.33675034448E+03 -0.18126230979E+03 -0.16989050531E+04  0.17414175832E+04  0.25500000920E-02 0. -1.
</event>
<event>
 5   0  0.2911632E-05  0.1698464E+04  0.7818609E-02  0.8762241E-01
       -1   -1    0    0    0  501  0.00000000000E+00  0.00000000000E+00  0.55945823799E+03  0.55945823801E+03  0.50400001928E-02 0. -1.
        1   -1    0    0  501    0  0.00000000000E+00  0.00000000000E+00 -0.12890955103E+04  0.12890955103E+04  0.50400001928E-02 0.  1.
    10030    2    1    2    0    0  0.00000000000E+00  0.00000000000E+00 -0.72963727233E+03  0.18485537483E+04  0.16984641331E+04 0.  0.
        1    1    3    3  502    0 -0.74178594342E+03 -0.41295703430E+03 -0.38699584426E+03  0.93303037546E+03  0.50400001928E-02 0.  1.
       -1    1    3    3    0  502  0.74178594342E+03  0.41295703430E+03 -0.34264142806E+03  0.91552337288E+03  0.50400001928E-02 0. -1.
</event>
<event>
 5   0  0.2993769E-05  0.1697981E+04  0.7818609E-02  0.8762517E-01
       -1   -1    0    0    0  501  0.00000000000E+00  0.00000000000E+00  0.84220297934E+03  0.84220297935E+03  0.50400001928E-02 0. -1.
        1   -1    0    0  501    0  0.00000000000E+00  0.00000000000E+00 -0.85583231367E+03  0.85583231368E+03  0.50400001928E-02 0.  1.
    10030    2    1    2    0    0  0.00000000000E+00  0.00000000000E+00 -0.13629334327E+02  0.16980352930E+04  0.16979805940E+04 0.  0.
        3    1    3    3  502    0  0.61613568232E+03  0.55411067654E+03 -0.19154390640E+03  0.85050038164E+03  0.10100000352E+00 0.  1.
       -3    1    3    3    0  502 -0.61613568232E+03 -0.55411067654E+03  0.17791457207E+03  0.84753491140E+03  0.10100000352E+00 0. -1.
</event>
<event>
 5   0  0.2993769E-05  0.1698372E+04  0.7818609E-02  0.8762293E-01
       -1   -1    0    0    0  501  0.00000000000E+00  0.00000000000E+00  0.28652860532E+03  0.28652860536E+03  0.50400001928E-02 0.  1.
        1   -1    0    0  501    0  0.00000000000E+00  0.00000000000E+00 -0.25167372229E+04  0.25167372229E+04  0.50400001928E-02 0. -1.
    10030    2    1    2    0    0  0.00000000000E+00  0.00000000000E+00 -0.22302086175E+04  0.28032658282E+04  0.16983724050E+04 0.  0.
        3    1    3    3  502    0  0.55964818504E+03 -0.45367029483E+03 -0.18571120982E+04  0.19919558687E+04  0.10100000352E+00 0. -1.
       -3    1    3    3    0  502 -0.55964818504E+03  0.45367029483E+03 -0.37309651931E+03  0.81130995948E+03  0.10100000352E+00 0.  1.
</event>
<event>
 5   0  0.5821584E-05  0.1698887E+04  0.7818609E-02  0.8761999E-01
        2   -1    0    0  501    0  0.00000000000E+00  0.00000000000E+00  0.66151370428E+03  0.66151370428E+03  0.25500000920E-02 0. -1.
       -2   -1    0    0    0  501  0.00000000000E+00  0.00000000000E+00 -0.10907626836E+04  0.10907626836E+04  0.25500000920E-02 0.  1.
    10030    2    1    2    0    0  0.00000000000E+00  0.00000000000E+00 -0.42924897932E+03  0.17522763879E+04  0.16988872397E+04 0.  0.
        1    1    3    3  502    0 -0.58637946165E+03  0.35268940243E+03 -0.73375437439E+03  0.10033076146E+04  0.50400001928E-02 0.  1.
       -1    1    3    3    0  502  0.58637946165E+03 -0.35268940243E+03  0.30450539507E+03  0.74896877324E+03  0.50400001928E-02 0. -1.
</event>
<event>
 5   0  0.2987859E-05  0.1700539E+04  0.7818609E-02  0.8761057E-01
       -1   -1    0    0    0  501  0.00000000000E+00  0.00000000000E+00  0.83465623080E+03  0.83465623081E+03  0.50400001928E-02 0. -1.
        1   -1    0    0  501    0  0.00000000000E+00  0.00000000000E+00 -0.86617490937E+03  0.86617490938E+03  0.50400001928E-02 0.  1.
    10030    2    1    2    0    0  0.00000000000E+00  0.00000000000E+00 -0.31518678571E+02  0.17008311402E+04  0.17005390735E+04 0.  0.
        5    1    3    3  502    0 -0.77179354741E+03  0.33146789657E+03  0.11617218157E+03  0.84797070235E+03  0.46999998093E+01 0. -1.
       -5    1    3    3    0  502  0.77179354741E+03 -0.33146789657E+03 -0.14769086014E+03  0.85286043785E+03  0.46999998093E+01 0.  1.
</event>
<event>
 5   0  0.5821584E-05  0.1707109E+04  0.7818609E-02  0.8757320E-01
       -2   -1    0    0    0  501  0.00000000000E+00  0.00000000000E+00  0.65410722521E+03  0.65410722521E+03  0.25500000920E-02 0.  1.
        2   -1    0    0  501    0  0.00000000000E+00  0.00000000000E+00 -0.11138162433E+04  0.11138162433E+04  0.25500000920E-02 0. -1.
    10030    2    1    2    0    0  0.00000000000E+00  0.00000000000E+00 -0.45970901810E+03  0.17679234685E+04  0.17071089623E+04 0.  0.
        1    1    3    3  502    0  0.52480046747E+03  0.19860647197E+02 -0.92668826807E+03  0.10651577921E+04  0.50400001928E-02 0. -1.
       -1    1    3    3    0  502 -0.52480046747E+03 -0.19860647197E+02  0.46697924997E+03  0.70276567638E+03  0.50400001928E-02 0.  1.
</event>
<event>
 5   0  0.5671132E-05  0.1699892E+04  0.7818609E-02  0.8761426E-01
       -2   -1    0    0    0  501  0.00000000000E+00  0.00000000000E+00  0.13830266861E+04  0.13830266861E+04  0.25500000920E-02 0. -1.
        2   -1    0    0  501    0  0.00000000000E+00  0.00000000000E+00 -0.52233857922E+03  0.52233857923E+03  0.25500000920E-02 0.  1.
    10030    2    1    2    0    0  0.00000000000E+00  0.00000000000E+00  0.86068810693E+03  0.19053652654E+04  0.16998919898E+04 0.  0.
        3    1    3    3  502    0  0.64666878080E+03  0.55138997669E+03  0.44606691264E+03  0.95978493383E+03  0.10100000352E+00 0.  1.
       -3    1    3    3    0  502 -0.64666878080E+03 -0.55138997669E+03  0.41462119429E+03  0.94558033155E+03  0.10100000352E+00 0. -1.
</event>
<event>
 5   0  0.5652631E-05  0.1700332E+04  0.7818609E-02  0.8761175E-01
        2   -1    0    0  501    0  0.00000000000E+00  0.00000000000E+00  0.21674395487E+04  0.21674395487E+04  0.25500000920E-02 0. -1.
       -2   -1    0    0    0  501  0.00000000000E+00  0.00000000000E+00 -0.33347283691E+03  0.33347283692E+03  0.25500000920E-02 0.  1.
    10030    2    1    2    0    0  0.00000000000E+00  0.00000000000E+00  0.18339667118E+04  0.25009123857E+04  0.17003319854E+04 0.  0.
        2    1    3    3  502    0  0.18551457177E+03  0.39014702645E+03 -0.15999917751E+03  0.46068437721E+03  0.25500000920E-02 0.  1.
       -2    1    3    3    0  502 -0.18551457177E+03 -0.39014702645E+03  0.19939658893E+04  0.20402280084E+04  0.25500000920E-02 0. -1.
</event>
<event>
 5   0  0.2967704E-05  0.1700127E+04  0.7818609E-02  0.8761292E-01
       -1   -1    0    0    0  501  0.00000000000E+00  0.00000000000E+00  0.87718198477E+03  0.87718198479E+03  0.50400001928E-02 0. -1.
        1   -1    0    0  501    0  0.00000000000E+00  0.00000000000E+00 -0.82378376224E+03  0.82378376226E+03  0.50400001928E-02 0.  1.
    10030    2    1    2    0    0  0.00000000000E+00  0.00000000000E+00  0.53398222533E+02  0.17009657470E+04  0.17001273783E+04 0.  0.
        2    1    3    3  502    0  0.50395138445E+02 -0.91716845723E+02 -0.81731431560E+03  0.82398685685E+03  0.25500000920E-02 0.  1.
       -2    1    3    3    0  502 -0.50395138445E+02  0.91716845723E+02  0.87071253814E+03  0.87697889019E+03  0.25500000920E-02 0. -1.
</event>
<event>
 5   0  0.5859822E-05  0.1696110E+04  0.7818609E-02  0.8763586E-01
       -2   -1    0    0    0  501  0.00000000000E+00  0.00000000000E+00  0.45448315584E+03  0.45448315585E+03  0.25500000920E-02 0.  1.
        2   -1    0    0  501    0  0.00000000000E+00  0.00000000000E+00 -0.15824504862E+04  0.15824504862E+04  0.25500000920E-02 0. -1.
    10030    2    1    2    0    0  0.00000000000E+00  0.00000000000E+00 -0.11279673303E+04  0.20369336420E+04  0.16961097735E+04 0.  0.
        5    1    3    3  502    0  0.46028969533E+03  0.14873636237E+03  0.27253763995E+03  0.55523685424E+03  0.46999998093E+01 0.  1.
       -5    1    3    3    0  502 -0.46028969533E+03 -0.14873636237E+03 -0.14005049703E+04  0.14816967878E+04  0.46999998093E+01 0. -1.
</event>
<event>
 5   0  0.2098250E-05  0.1700408E+04  0.7818609E-02  0.8761131E-01
       -3   -1    0    0    0  501  0.00000000000E+00  0.00000000000E+00  0.11559689014E+04  0.11559689059E+04  0.10100000352E+00 0. -1.
        3   -1    0    0  501    0  0.00000000000E+00  0.00000000000E+00 -0.62531720310E+03  0.62531721126E+03  0.10100000352E+00 0.  1.
    10030    2    1    2    0    0  0.00000000000E+00  0.00000000000E+00  0.53065169834E+03  0.17812861171E+04  0.17004084821E+04 0.  0.
        3    1    3    3  502    0  0.77534628106E+03 -0.12339430669E+03 -0.76474169821E+02  0.78881957336E+03  0.10100000352E+00 0. -1.
       -3    1    3    3    0  502 -0.77534628106E+03  0.12339430669E+03  0.60712586816E+03  0.99246654375E+03  0.10100000352E+00 0.  1.
</event>
<event>
 5   0  0.5859822E-05  0.1704359E+04  0.7818609E-02  0.8758882E-01
        2   -1    0    0  501    0  0.00000000000E+00  0.00000000000E+00  0.18399327588E+04  0.18399327588E+04  0.25500000920E-02 0. -1.
       -2   -1    0    0    0  501  0.00000000000E+00  0.00000000000E+00 -0.39469376559E+03  0.39469376560E+03  0.25500000920E-02 0.  1.
    10030    2    1    2    0    0  0.00000000000E+00  0.00000000000E+00  0.14452389932E+04  0.22346265244E+04  0.17043591042E+04 0.  0.
        5    1    3    3  502    0  0.26389975272E+03 -0.37950879911E+03  0.16612579881E+04  0.17243753075E+04  0.46999998093E+01 0. -1.
       -5    1    3    3    0  502 -0.26389975272E+03  0.37950879911E+03 -0.21601899497E+03  0.51025121682E+03  0.46999998093E+01 0.  1.
</event>
<event>
 5   0  0.5821584E-05  0.1696849E+04  0.7818609E-02  0.8763164E-01
        2   -1    0    0  501    0  0.00000000000E+00  0.00000000000E+00  0.91346428084E+03  0.91346428085E+03  0.25500000920E-02 0. -1.
       -2   -1    0    0    0  501  0.00000000000E+00  0.00000000000E+00 -0.78801531100E+03  0.78801531100E+03  0.25500000920E-02 0.  1.
    10030    2    1    2    0    0  0.00000000000E+00  0.00000000000E+00  0.12544896985E+03  0.17014795918E+04  0.16968486548E+04 0.  0.
        1    1    3    3  502    0  0.34618447639E+03 -0.12783244945E+03  0.82877214947E+03  0.90721998577E+03  0.50400001928E-02 0. -1.
       -1    1    3    3    0  502 -0.34618447639E+03  0.12783244945E+03 -0.70332317962E+03  0.79425960607E+03  0.50400001928E-02 0.  1.
</event>
<event>
 5   0  0.5755321E-05  0.1701197E+04  0.7818609E-02  0.8760682E-01
        2   -1    0    0  501    0  0.00000000000E+00  0.00000000000E+00  0.13117179352E+04  0.13117179352E+04  0.25500000920E-02 0.  1.
       -2   -1    0    0    0  501  0.00000000000E+00  0.00000000000E+00 -0.55158058900E+03  0.55158058900E+03  0.25500000920E-02 0. -1.
    10030    2    1    2    0    0  0.00000000000E+00  0.00000000000E+00  0.76013734623E+03  0.18632985242E+04  0.17011974034E+04 0.  0.
        4    1    3    3  502    0 -0.42429609200E+02  0.21570926424E+03  0.12800621721E+04  0.12988038866E+04  0.12699999809E+01 0.  1.
       -4    1    3    3    0  502  0.42429609200E+02 -0.21570926424E+03 -0.51992482591E+03  0.56449463763E+03  0.12699999809E+01 0. -1.
</event>
<event>
 5   0  0.2967704E-05  0.1702494E+04  0.7818609E-02  0.8759943E-01
        1   -1    0    0  501    0  0.00000000000E+00  0.00000000000E+00  0.65976646200E+03  0.65976646202E+03  0.50400001928E-02 0. -1.
       -1   -1    0    0    0  501  0.00000000000E+00  0.00000000000E+00 -0.10982993107E+04  0.10982993107E+04  0.50400001928E-02 0.  1.
    10030    2    1    2    0    0  0.00000000000E+00  0.00000000000E+00 -0.43853284868E+03  0.17580657727E+04  0.17024935248E+04 0.  0.
        2    1    3    3  502    0  0.57673173193E+03 -0.60819816410E+03 -0.65765174648E+02  0.84074345411E+03  0.25500000920E-02 0. -1.
       -2    1    3    3    0  502 -0.57673173193E+03  0.60819816410E+03 -0.37276767404E+03  0.91732231862E+03  0.25500000920E-02 0.  1.
</event>
<event>
 5   0  0.2967704E-05  0.1697914E+04  0.7818609E-02  0.8762555E-01
       -1   -1    0    0    0  501  0.00000000000E+00  0.00000000000E+00  0.70992925995E+03  0.70992925997E+03  0.50400001928E-02 0.  1.
        1   -1    0    0  501    0  0.00000000000E+00  0.00000000000E+00 -0.10152111182E+04  0.10152111182E+04  0.50400001928E-02 0. -1.
    10030    2    1    2    0    0  0.00000000000E+00  0.00000000000E+00 -0.30528185827E+03  0.17251403782E+04  0.16979141061E+04 0.  0.
        2    1    3    3  502    0 -0.19434977263E+03 -0.80032370864E+03 -0.36194960380E+03  0.89960957556E+03  0.25500000920E-02 0.  1.
       -2    1    3    3    0  502  0.19434977263E+03  0.80032370864E+03  0.56667745527E+02  0.82553080265E+03  0.25500000920E-02 0. -1.
</event>
<event>
 5   0  0.5859822E-05  0.1708085E+04  0.7818609E-02  0.8756767E-01
        2   -1    0    0  501    0  0.00000000000E+00  0.00000000000E+00  0.59251034694E+03  0.59251034694E+03  0.25500000920E-02 0.  1.
       -2   -1    0    0    0  501  0.00000000000E+00  0.00000000000E+00 -0.12310135068E+04  0.12310135068E+04  0.25500000920E-02 0. -1.
    10030    2    1    2    0    0  0.00000000000E+00  0.00000000000E+00 -0.63850315990E+03  0.18235238538E+04  0.17080845881E+04 0.  0.
        5    1    3    3  502    0  0.75698484210E+03 -0.33983058144E+03 -0.10346414999E+03  0.83620439820E+03  0.46999998093E+01 0.  1.
       -5    1    3    3    0  502 -0.75698484210E+03  0.33983058144E+03 -0.53503900991E+03  0.98731945558E+03  0.46999998093E+01 0. -1.
</event>
<event>
 5   0  0.5671132E-05  0.1702330E+04  0.7818609E-02  0.8760037E-01
       -2   -1    0    0    0  501  0.00000000000E+00  0.00000000000E+00  0.33302785819E+03  0.33302785820E+03  0.25500000920E-02 0.  1.
        2   -1    0    0  501    0  0.00000000000E+00  0.00000000000E+00 -0.21754394204E+04  0.21754394204E+04  0.25500000920E-02 0. -1.
    10030    2    1    2    0    0  0.00000000000E+00  0.00000000000E+00 -0.18424115622E+04  0.25084672786E+04  0.17023300864E+04 0.  0.
        3    1    3    3  502    0 -0.36724049215E+03 -0.76421534620E+03 -0.10313898919E+04  0.13351613363E+04  0.10100000352E+00 0.  1.
       -3    1    3    3    0  502  0.36724049215E+03  0.76421534620E+03 -0.81102167023E+03  0.11733059423E+04  0.10100000352E+00 0. -1.
</event>
<event>
 5   0  0.2967704E-05  0.1697178E+04  0.7818609E-02  0.8762975E-01
       -1   -1    0    0    0  501  0.00000000000E+00  0.00000000000E+00  0.39007887585E+03  0.39007887589E+03  0.50400001928E-02 0.  1.
        1   -1    0    0  501    0  0.00000000000E+00  0.00000000000E+00 -0.18460457055E+04  0.18460457055E+04  0.50400001928E-02 0. -1.
    10030    2    1    2    0    0  0.00000000000E+00  0.00000000000E+00 -0.14559668296E+04  0.22361245813E+04  0.16971781681E+04 0.  0.
        2    1    3    3  502    0 -0.12288086171E+03  0.50641183006E+01 -0.18342412679E+04  0.18383596983E+04  0.25500000920E-02 0. -1.
       -2    1    3    3    0  502  0.12288086171E+03 -0.50641183006E+01  0.37827443832E+03  0.39776488302E+03  0.25500000920E-02 0.  1.
</event>
<event>
 5   0  0.5755321E-05  0.1701032E+04  0.7818609E-02  0.8760776E-01
       -2   -1    0    0    0  501  0.00000000000E+00  0.00000000000E+00  0.65249592326E+03  0.65249592327E+03  0.25500000920E-02 0. -1.
        2   -1    0    0  501    0  0.00000000000E+00  0.00000000000E+00 -0.11086315376E+04  0.11086315376E+04  0.25500000920E-02 0.  1.
    10030    2    1    2    0    0  0.00000000000E+00  0.00000000000E+00 -0.45613561434E+03  0.17611274609E+04  0.17010321087E+04 0.  0.
        4    1    3    3  502    0  0.53146660652E+03 -0.48928752937E+03  0.23669784039E+03  0.76018847715E+03  0.12699999809E+01 0. -1.
       -4    1    3    3    0  502 -0.53146660652E+03  0.48928752937E+03 -0.69283345473E+03  0.10009389837E+04  0.12699999809E+01 0.  1.
</event>
<event>
 5   0  0.2966258E-05  0.1701038E+04  0.7818609E-02  0.8760772E-01
        1   -1    0    0  501    0  0.00000000000E+00  0.00000000000E+00  0.72107007438E+03  0.72107007439E+03  0.50400001928E-02 0. -1.
       -1   -1    0    0    0  501  0.00000000000E+00  0.00000000000E+00 -0.10032075060E+04  0.10032075060E+04  0.50400001928E-02 0.  1.
    10030    2    1    2    0    0  0.00000000000E+00  0.00000000000E+00 -0.28213743159E+03  0.17242775804E+04  0.17010384016E+04 0.  0.
        4    1    3    3  502    0 -0.84380002219E+02  0.48575771431E+02  0.71540151769E+03  0.72199760024E+03  0.12699999809E+01 0. -1.
       -4    1    3    3    0  502  0.84380002219E+02 -0.48575771431E+02 -0.99753894927E+03  0.10022799801E+04  0.12699999809E+01 0.  1.
</event>
<event>
 5   0  0.2993769E-05  0.1700402E+04  0.7818609E-02  0.8761135E-01
       -1   -1    0    0    0  501  0.00000000000E+00  0.00000000000E+00  0.62980652251E+03  0.62980652253E+03  0.50400001928E-02 0.  1.
        1   -1    0    0  501    0  0.00000000000E+00  0.00000000000E+00 -0.11477208506E+04  0.11477208506E+04  0.50400001928E-02 0. -1.
    10030    2    1    2    0    0  0.00000000000E+00  0.00000000000E+00 -0.51791432807E+03  0.17775273731E+04  0.17004023968E+04 0.  0.
        3    1    3    3  502    0  0.50020600443E+03 -0.49765896358E+03  0.23686782953E+03  0.74429622448E+03  0.10100000352E+00 0.  1.
       -3    1    3    3    0  502 -0.50020600443E+03  0.49765896358E+03 -0.75478215761E+03  0.10332311487E+04  0.10100000352E+00 0. -1.
</event>
<event>
 5   0  0.5821584E-05  0.1708523E+04  0.7818609E-02  0.8756518E-01
       -2   -1    0    0    0  501  0.00000000000E+00  0.00000000000E+00  0.64629000555E+03  0.64629000555E+03  0.25500000920E-02 0. -1.
        2   -1    0    0  501    0  0.00000000000E+00  0.00000000000E+00 -0.11291566123E+04  0.11291566123E+04  0.25500000920E-02 0.  1.
    10030    2    1    2    0    0  0.00000000000E+00  0.00000000000E+00 -0.48286660672E+03  0.17754466178E+04  0.17085229097E+04 0.  0.
        1    1    3    3  502    0 -0.58296657151E+03 -0.14279693278E+03  0.39026069972E+03  0.71592206369E+03  0.50400001928E-02 0. -1.
       -1    1    3    3    0  502  0.58296657151E+03  0.14279693278E+03 -0.87312730645E+03  0.10595245541E+04  0.50400001928E-02 0.  1.
</event>
<event>
 5   0  0.2967704E-05  0.1700073E+04  0.7818609E-02  0.8761323E-01
        1   -1    0    0  501    0  0.00000000000E+00  0.00000000000E+00  0.85557426886E+03  0.85557426887E+03  0.50400001928E-02 0.  1.
       -1   -1    0    0    0  501  0.00000000000E+00  0.00000000000E+00 -0.84453473575E+03  0.84453473576E+03  0.50400001928E-02 0. -1.
    10030    2    1    2    0    0  0.00000000000E+00  0.00000000000E+00  0.11039533111E+02  0.17001090046E+04  0.17000731621E+04 0.  0.
        2    1    3    3  502    0 -0.67463416651E+03  0.51620411847E+03 -0.25533078699E+02  0.84985286295E+03  0.25500000920E-02 0.  1.
       -2    1    3    3    0  502  0.67463416651E+03 -0.51620411847E+03  0.36572611810E+02  0.85025614169E+03  0.25500000920E-02 0. -1.
</event>
<event>
 5   0  0.5821584E-05  0.1700977E+04  0.7818609E-02  0.8760808E-01
        2   -1    0    0  501    0  0.00000000000E+00  0.00000000000E+00  0.10925579493E+04  0.10925579493E+04  0.25500000920E-02 0. -1.
       -2   -1    0    0    0  501  0.00000000000E+00  0.00000000000E+00 -0.66205215899E+03  0.66205215900E+03  0.25500000920E-02 0.  1.
    10030    2    1    2    0    0  0.00000000000E+00  0.00000000000E+00  0.43050579028E+03  0.17546101083E+04  0.17009766008E+04 0.  0.
        1    1    3    3  502    0 -0.66686839814E+03 -0.28639608153E+03  0.67262282530E+03  0.98952394670E+03  0.50400001928E-02 0. -1.
       -1    1    3    3    0  502  0.66686839814E+03  0.28639608153E+03 -0.24211703502E+03  0.76508616157E+03  0.50400001928E-02 0.  1.
</event>
<event>
 5   0  0.5671132E-05  0.1700443E+04  0.7818609E-02  0.8761112E-01
        2   -1    0    0  501    0  0.00000000000E+00  0.00000000000E+00  0.21057730426E+04  0.21057730426E+04  0.25500000920E-02 0.  1.
       -2   -1    0    0    0  501  0.00000000000E+00  0.00000000000E+00 -0.34328308817E+03  0.34328308818E+03  0.25500000920E-02 0. -1.
    10030    2    1    2    0    0  0.00000000000E+00  0.00000000000E+00  0.17624899544E+04  0.24490561308E+04  0.17004426166E+04 0.  0.
        3    1    3    3  502    0 -0.75804137464E+03  0.38425413728E+03  0.91647350601E+03  0.12498806603E+04  0.10100000352E+00 0. -1.
       -3    1    3    3    0  502  0.75804137464E+03 -0.38425413728E+03  0.84601644843E+03  0.11991754704E+04  0.10100000352E+00 0.  1.
</event>
<event>
 5   0  0.2911632E-05  0.1699682E+04  0.7818609E-02  0.8761546E-01
        1   -1    0    0  501    0  0.00000000000E+00  0.00000000000E+00  0.32065253203E+03  0.32065253207E+03  0.50400001928E-02 0. -1.
       -1   -1    0    0    0  501  0.00000000000E+00  0.00000000000E+00 -0.22523749104E+04  0.22523749104E+04  0.50400001928E-02 0.  1.
    10030    2    1    2    0    0  0.00000000000E+00  0.00000000000E+00 -0.19317223783E+04  0.25730274424E+04  0.16996819916E+04 0.  0.
        1    1    3    3  502    0  0.60914813621E+02  0.24340014364E+02 -0.22485366549E+04  0.22494933072E+04  0.50400001928E-02 0.  1.
       -1    1    3    3    0  502 -0.60914813621E+02 -0.24340014364E+02  0.31681427654E+03  0.32353413523E+03  0.50400001928E-02 0. -1.
</event>
<event>
 5   0  0.2911632E-05  0.1702097E+04  0.7818609E-02  0.8760169E-01
       -1   -1    0    0    0  501  0.00000000000E+00  0.00000000000E+00  0.63737486192E+03  0.63737486194E+03  0.50400001928E-02 0. -1.
        1   -1    0    0  501    0  0.00000000000E+00  0.00000000000E+00 -0.11363538688E+04  0.11363538688E+04  0.50400001928E-02 0.  1.
    10030    2    1    2    0    0  0.00000000000E+00  0.00000000000E+00 -0.49897900684E+03  0.17737287307E+04  0.17020968130E+04 0.  0.
        1    1    3    3  502    0 -0.25421075410E+03 -0.80493652215E+03 -0.36238856653E+03  0.91862472500E+03  0.50400001928E-02 0. -1.
       -1    1    3    3    0  502  0.25421075410E+03  0.80493652215E+03 -0.13659044031E+03  0.85510400573E+03  0.50400001928E-02 0.  1.
</event>
<event>
 5   0  0.5821584E-05  0.1698383E+04  0.7818609E-02  0.8762287E-01
        2   -1    0    0  501    0  0.00000000000E+00  0.00000000000E+00  0.12316280021E+04  0.12316280021E+04  0.25500000920E-02 0. -1.
       -2   -1    0    0    0  501  0.00000000000E+00  0.00000000000E+00 -0.58550634286E+03  0.58550634287E+03  0.25500000920E-02 0.  1.
    10030    2    1    2    0    0  0.00000000000E+00  0.00000000000E+00  0.64612165926E+03  0.18171343450E+04  0.16983827687E+04 0.  0.
        1    1    3    3  502    0  0.56437506332E+03  0.48961523570E+03  0.75486844418E+03  0.10621057665E+04  0.50400001928E-02 0. -1.
       -1    1    3    3    0  502 -0.56437506332E+03 -0.48961523570E+03 -0.10874678492E+03  0.75502857852E+03  0.50400001928E-02 0.  1.
</event>
<event>
 5   0  0.2967704E-05  0.1696473E+04  0.7818609E-02  0.8763378E-01
        1   -1    0    0  501    0  0.00000000000E+00  0.00000000000E+00  0.38128699031E+03  0.38128699034E+03  0.50400001928E-02 0.  1.
       -1   -1    0    0    0  501  0.00000000000E+00  0.00000000000E+00 -0.18870443449E+04  0.18870443449E+04  0.50400001928E-02 0. -1.
    10030    2    1    2    0    0  0.00000000000E+00  0.00000000000E+00 -0.15057573546E+04  0.22683313352E+04  0.16964733525E+04 0.  0.
        2    1    3    3  502    0 -0.74765868854E+03  0.70152865948E+02 -0.12802919024E+04  0.14842716377E+04  0.25500000920E-02 0. -1.
       -2    1    3    3    0  502  0.74765868854E+03 -0.70152865948E+02 -0.22546545217E+03  0.78405969752E+03  0.25500000920E-02 0.  1.
</event>
<event>
 5   0  0.2911632E-05  0.1699354E+04  0.7818609E-02  0.8761733E-01
       -1   -1    0    0    0  501  0.00000000000E+00  0.00000000000E+00  0.54127352658E+03  0.54127352661E+03  0.50400001928E-02 0. -1.
        1   -1    0    0  501    0  0.00000000000E+00  0.00000000000E+00 -0.13338003866E+04  0.13338003866E+04  0.50400001928E-02 0.  1.
    10030    2    1    2    0    0  0.00000000000E+00  0.00000000000E+00 -0.79252685997E+03  0.18750739132E+04  0.16993538054E+04 0.  0.
        1    1    3    3  502    0  0.61081332869E+03 -0.39995581873E+03 -0.87582327793E+03  0.11402297986E+04  0.50400001928E-02 0.  1.
       -1    1    3    3    0  502 -0.61081332869E+03  0.39995581873E+03  0.83296417962E+02  0.73484411456E+03  0.50400001928E-02 0. -1.
</event>
<event>
 5   0  0.5671132E-05  0.1699342E+04  0.7818609E-02  0.8761740E-01
        2   -1    0    0  501    0  0.00000000000E+00  0.00000000000E+00  0.15208596524E+04  0.15208596524E+04  0.25500000920E-02 0. -1.
       -2   -1    0    0    0  501  0.00000000000E+00  0.00000000000E+00 -0.47469258185E+03  0.47469258186E+03  0.25500000920E-02 0.  1.
    10030    2    1    2    0    0  0.00000000000E+00  0.00000000000E+00  0.10461670705E+04  0.19955522342E+04  0.16993419844E+04 0.  0.
        3    1    3    3  502    0 -0.42883144919E+03  0.69229020171E+03  0.80778658212E+03  0.11470315199E+04  0.10100000352E+00 0. -1.
       -3    1    3    3    0  502  0.42883144919E+03 -0.69229020171E+03  0.23838048840E+03  0.84852071433E+03  0.10100000352E+00 0.  1.
</event>
<event>
 5   0  0.2966258E-05  0.1696717E+04  0.7818609E-02  0.8763239E-01
        1   -1    0    0  501    0  0.00000000000E+00  0.00000000000E+00  0.61016924409E+03  0.61016924411E+03  0.50400001928E-02 0. -1.
       -1   -1    0    0    0  501  0.00000000000E+00  0.00000000000E+00 -0.11795284267E+04  0.11795284267E+04  0.50400001928E-02 0.  1.
    10030    2    1    2    0    0  0.00000000000E+00  0.00000000000E+00 -0.56935918265E+03  0.17896976708E+04  0.16967167926E+04 0.  0.
        4    1    3    3  502    0 -0.67741923431E+03  0.47266978543E+03 -0.80699586823E+02  0.82995637312E+03  0.12699999809E+01 0.  1.
       -4    1    3    3    0  502  0.67741923431E+03 -0.47266978543E+03 -0.48865959582E+03  0.95974129773E+03  0.12699999809E+01 0. -1.
</event>
<event>
 5   0  0.2911632E-05  0.1700004E+04  0.7818609E-02  0.8761362E-01
       -1   -1    0    0    0  501  0.00000000000E+00  0.00000000000E+00  0.62276496831E+03  0.62276496833E+03  0.50400001928E-02 0.  1.
        1   -1    0    0  501    0  0.00000000000E+00  0.00000000000E+00 -0.11601546917E+04  0.11601546917E+04  0.50400001928E-02 0. -1.
    10030    2    1    2    0    0  0.00000000000E+00  0.00000000000E+00 -0.53738972339E+03  0.17829196600E+04  0.17000043528E+04 0.  0.
        1    1    3    3  502    0 -0.66204879789E+02  0.77332419196E+03 -0.63213736874E+03  0.10010050175E+04  0.50400001928E-02 0.  1.
       -1    1    3    3    0  502  0.66204879789E+02 -0.77332419196E+03  0.94747645347E+02  0.78191464260E+03  0.50400001928E-02 0. -1.
</event>
<event>
 5   0  0.2911632E-05  0.1699821E+04  0.7818609E-02  0.8761466E-01
        1   -1    0    0  501    0  0.00000000000E+00  0.00000000000E+00  0.10272725182E+04  0.10272725182E+04  0.50400001928E-02 0.  1.
       -1   -1    0    0    0  501  0.00000000000E+00  0.00000000000E+00 -0.70317084991E+03  0.70317084993E+03  0.50400001928E-02 0. -1.
    10030    2    1    2    0    0  0.00000000000E+00  0.00000000000E+00  0.32410166825E+03  0.17304433681E+04  0.16998212726E+04 0.  0.
        1    1    3    3  502    0  0.23564705944E+03  0.45175847180E+03  0.85455005674E+03  0.99492263668E+03  0.50400001928E-02 0.  1.
       -1    1    3    3    0  502 -0.23564705944E+03 -0.45175847180E+03 -0.53044838849E+03  0.73552073142E+03  0.50400001928E-02 0. -1.
</event>
<event>
 5   0  0.5652631E-05  0.1694054E+04  0.7818609E-02  0.8764763E-01
       -2   -1    0    0    0  501  0.00000000000E+00  0.00000000000E+00  0.12458887280E+04  0.12458887280E+04  0.25500000920E-02 0.  1.
        2   -1    0    0  501    0  0.00000000000E+00  0.00000000000E+00 -0.57585746979E+03  0.57585746979E+03  0.25500000920E-02 0. -1.
    10030    2    1    2    0    0  0.00000000000E+00  0.00000000000E+00  0.67003125824E+03  0.18217461978E+04  0.16940535181E+04 0.  0.
        2    1    3    3  502    0  0.51339352806E+03 -0.66872551057E+03  0.24707367110E+03  0.87852838435E+03  0.25500000920E-02 0. -1.
       -2    1    3    3    0  502 -0.51339352806E+03  0.66872551057E+03  0.42295758714E+03  0.94321781348E+03  0.25500000920E-02 0.  1.
</event>
<event>
 5   0  0.5755321E-05  0.1700056E+04  0.7818609E-02  0.8761332E-01
        2   -1    0    0  501    0  0.00000000000E+00  0.00000000000E+00  0.11666537526E+04  0.11666537526E+04  0.25500000920E-02 0. -1.
       -2   -1    0    0    0  501  0.00000000000E+00  0.00000000000E+00 -0.61933349546E+03  0.61933349546E+03  0.25500000920E-02 0.  1.
    10030    2    1    2    0    0  0.00000000000E+00  0.00000000000E+00  0.54732025711E+03  0.17859872480E+04  0.17000561715E+04 0.  0.
        4    1    3    3  502    0 -0.59604147404E+03  0.36284160796E+03  0.78360977896E+03  0.10492689693E+04  0.12699999809E+01 0. -1.
       -4    1    3    3    0  502  0.59604147404E+03 -0.36284160796E+03 -0.23628952185E+03  0.73671827878E+03  0.12699999809E+01 0.  1.
</event>
<event>
 5   0  0.5671132E-05  0.1700260E+04  0.7818609E-02  0.8761216E-01
       -2   -1    0    0    0  501  0.00000000000E+00  0.00000000000E+00  0.29503852448E+03  0.29503852450E+03  0.25500000920E-02 0. -1.
        2   -1    0    0  501    0  0.00000000000E+00  0.00000000000E+00 -0.24495822880E+04  0.24495822880E+04  0.25500000920E-02 0.  1.
    10030    2    1    2    0    0  0.00000000000E+00  0.00000000000E+00 -0.21545437635E+04  0.27446208125E+04  0.17002601494E+04 0.  0.
        3    1    3    3  502    0  0.41902660818E+03 -0.25925230171E+02  0.11602481182E+03  0.43556536028E+03  0.10100000352E+00 0. -1.
       -3    1    3    3    0  502 -0.41902660818E+03  0.25925230171E+02 -0.22705685754E+04  0.23090554522E+04  0.10100000352E+00 0.  1.
</event>
<event>
 5   0  0.2993769E-05  0.1703076E+04  0.7818609E-02  0.8759612E-01
        1   -1    0    0  501    0  0.00000000000E+00  0.00000000000E+00  0.11420503770E+04  0.11420503771E+04  0.50400001928E-02 0.  1.
       -1   -1    0    0    0  501  0.00000000000E+00  0.00000000000E+00 -0.63492527516E+03  0.63492527518E+03  0.50400001928E-02 0. -1.
    10030    2    1    2    0    0  0.00000000000E+00  0.00000000000E+00  0.50712510188E+03  0.17769756522E+04  0.17030756295E+04 0.  0.
        3    1    3    3  502    0 -0.22504496476E+03 -0.29750301907E+03  0.10522608732E+04  0.11164256527E+04  0.10100000352E+00 0.  1.
       -3    1    3    3    0  502  0.22504496476E+03  0.29750301907E+03 -0.54513577132E+03  0.66054999954E+03  0.10100000352E+00 0. -1.
</event>
<event>
 5   0  0.5859822E-05  0.1701023E+04  0.7818609E-02  0.8760781E-01
       -2   -1    0    0    0  501  0.00000000000E+00  0.00000000000E+00  0.74562851239E+03  0.74562851239E+03  0.25500000920E-02 0. -1.
        2   -1    0    0  501    0  0.00000000000E+00  0.00000000000E+00 -0.97014739595E+03  0.97014739595E+03  0.25500000920E-02 0.  1.
    10030    2    1    2    0    0  0.00000000000E+00  0.00000000000E+00 -0.22451888356E+03  0.17157759083E+04  0.17010227037E+04 0.  0.
        5    1    3    3  502    0  0.53558194592E+03 -0.65301582890E+03 -0.21347804999E+03  0.87113297574E+03  0.46999998093E+01 0. -1.
       -5    1    3    3    0  502 -0.53558194592E+03  0.65301582890E+03 -0.11040833575E+02  0.84464293260E+03  0.46999998093E+01 0.  1.
</event>
<event>
 5   0  0.5652631E-05  0.1707361E+04  0.7818609E-02  0.8757177E-01
        2   -1    0    0  501    0  0.00000000000E+00  0.00000000000E+00  0.14654353280E+04  0.14654353280E+04  0.25500000920E-02 0.  1.
       -2   -1    0    0    0  501  0.00000000000E+00  0.00000000000E+00 -0.49730622872E+03  0.49730622873E+03  0.25500000920E-02 0. -1.
    10030    2    1    2    0    0  0.00000000000E+00  0.00000000000E+00  0.96812909925E+03  0.19627415567E+04  0.17073606724E+04 0.  0.
        2    1    3    3  502    0  0.23552354444E+03 -0.48696571108E+03  0.12432752856E+04  0.13558541144E+04  0.25500000920E-02 0.  1.
       -2    1    3    3    0  502 -0.23552354444E+03  0.48696571108E+03 -0.27514618635E+03  0.60688744230E+03  0.25500000920E-02 0. -1.
</event>
<event>
 5   0  0.2993769E-05  0.1701468E+04  0.7818609E-02  0.8760528E-01
       -1   -1    0    0    0  501  0.00000000000E+00  0.00000000000E+00  0.57229584730E+03  0.57229584732E+03  0.50400001928E-02 0. -1.
        1   -1    0    0  501    0  0.00000000000E+00  0.00000000000E+00 -0.12646396855E+04  0.12646396855E+04  0.50400001928E-02 0.  1.
    10030    2    1    2    0    0  0.00000000000E+00  0.00000000000E+00 -0.69234383816E+03  0.18369355328E+04  0.17014676492E+04 0.  0.
        3    1    3    3  502    0 -0.58346430053E+03 -0.61708204464E+03 -0.29189824850E+03  0.89801193617E+03  0.10100000352E+00 0.  1.
       -3    1    3    3    0  502  0.58346430053E+03  0.61708204464E+03 -0.40044558966E+03  0.93892359662E+03  0.10100000352E+00 0. -1.
</event>
<event>
 5   0  0.5859822E-05  0.1706209E+04  0.7818609E-02  0.8757831E-01
       -2   -1    0    0    0  501  0.00000000000E+00  0.00000000000E+00  0.75919745632E+03  0.75919745633E+03  0.25500000920E-02 0.  1.
        2   -1    0    0  501    0  0.00000000000E+00  0.00000000000E+00 -0.95862666782E+03  0.95862666782E+03  0.25500000920E-02 0. -1.
    10030    2    1    2    0    0  0.00000000000E+00  0.00000000000E+00 -0.19942921149E+03  0.17178241241E+04  0.17062085778E+04 0.  0.
        5    1    3    3  502    0 -0.59824822886E+01  0.48134137222E+03  0.60938087998E+03  0.77659027394E+03  0.46999998093E+01 0.  1.
       -5    1    3    3    0  502  0.59824822886E+01 -0.48134137222E+03 -0.80881009147E+03  0.94123385020E+03  0.46999998093E+01 0. -1.
</event>
<event>
 5   0  0.2098250E-05  0.1701315E+04  0.7818609E-02  0.8760614E-01
        3   -1    0    0  501    0  0.00000000000E+00  0.00000000000E+00  0.82574939581E+03  0.82574940199E+03  0.10100000352E+00 0.  1.
       -3   -1    0    0    0  501  0.00000000000E+00  0.00000000000E+00 -0.87631740843E+03  0.87631741425E+03  0.10100000352E+00 0. -1.
    10030    2    1    2    0    0  0.00000000000E+00  0.00000000000E+00 -0.50568012612E+02  0.17020668162E+04  0.17013154684E+04 0.  0.
        4    1    3    3  502    0 -0.15238183334E+03 -0.11662113698E+03 -0.85438171190E+03  0.87566570976E+03  0.12699999809E+01 0. -1.
       -4    1    3    3    0  502  0.15238183334E+03  0.11662113698E+03  0.80381369929E+03  0.82640110648E+03  0.12699999809E+01 0.  1.
</event>
<event>
 5   0  0.5859822E-05  0.1707290E+04  0.7818609E-02  0.8757218E-01
       -2   -1    0    0    0  501  0.00000000000E+00  0.00000000000E+00  0.45972571966E+03  0.45972571967E+03  0.25500000920E-02 0.  1.
        2   -1    0    0  501    0  0.00000000000E+00  0.00000000000E+00 -0.15850961365E+04  0.15850961365E+04  0.25500000920E-02 0. -1.
    10030    2    1    2    0    0  0.00000000000E+00  0.00000000000E+00 -0.11253704168E+04  0.20448218561E+04  0.17072896205E+04 0.  0.
        5    1    3    3  502    0 -0.82816140509E+03 -0.14629852487E+03 -0.38734248712E+03  0.92591082918E+03  0.46999998093E+01 0.  1.
       -5    1    3    3    0  502  0.82816140509E+03  0.14629852487E+03 -0.73802792966E+03  0.11189110269E+04  0.46999998093E+01 0. -1.
</event>
<event>
 5   0  0.5821584E-05  0.1698984E+04  0.7818609E-02  0.8761944E-01
       -2   -1    0    0    0  501  0.00000000000E+00  0.00000000000E+00  0.12018497961E+04  0.12018497961E+04  0.25500000920E-02 0. -1.
        2   -1    0    0  501    0  0.00000000000E+00  0.00000000000E+00 -0.60043803155E+03  0.60043803156E+03  0.25500000920E-02 0.  1.
    10030    2    1    2    0    0  0.00000000000E+00  0.00000000000E+00  0.60141176454E+03  0.18022878277E+04  0.16989836089E+04 0.  0.
        1    1    3    3  502    0 -0.57770954094E+03  0.12241490608E+03 -0.34708177365E+03  0.68498137241E+03  0.50400001928E-02 0.  1.
       -1    1    3    3    0  502  0.57770954094E+03 -0.12241490608E+03  0.94849353819E+03  0.11173064552E+04  0.50400001928E-02 0. -1.
</event>
<event>
 5   0  0.5755321E-05  0.1695857E+04  0.7818609E-02  0.8763731E-01
       -2   -1    0    0    0  501  0.00000000000E+00  0.00000000000E+00  0.60981950179E+03  0.60981950180E+03  0.25500000920E-02 0. -1.
        2   -1    0    0  501    0  0.00000000000E+00  0.00000000000E+00 -0.11790086781E+04  0.11790086781E+04  0.25500000920E-02 0.  1.
    10030    2    1    2    0    0  0.00000000000E+00  0.00000000000E+00 -0.56918917628E+03  0.17888281799E+04  0.16958566976E+04 0.  0.
        4    1    3    3  502    0 -0.80451268405E+03  0.11298567059E+02 -0.56687065818E+03  0.98423181843E+03  0.12699999809E+01 0.  1.
       -4    1    3    3    0  502  0.80451268405E+03 -0.11298567059E+02 -0.23185180993E+01  0.80459636144E+03  0.12699999809E+01 0. -1.
</event>
<event>
 5   0  0.2993769E-05  0.1697473E+04  0.7818609E-02  0.8762807E-01
        1   -1    0    0  501    0  0.00000000000E+00  0.00000000000E+00  0.96956230134E+03  0.96956230136E+03  0.50400001928E-02 0.  1.
       -1   -1    0    0    0  501  0.00000000000E+00  0.00000000000E+00 -0.74296744635E+03  0.74296744636E+03  0.50400001928E-02 0. -1.
    10030    2    1    2    0    0  0.00000000000E+00  0.00000000000E+00  0.22659485500E+03  0.17125297477E+04  0.16974725060E+04 0.  0.
        3    1    3    3  502    0  0.26421764619E+03  0.76213709536E+02 -0.69677820541E+03  0.74907901574E+03  0.10100000352E+00 0. -1.
       -3    1    3    3    0  502 -0.26421764619E+03 -0.76213709536E+02  0.92337306041E+03  0.96345073199E+03  0.10100000352E+00 0.  1.
</event>
<event>
 5   0  0.2966258E-05  0.1691317E+04  0.7818609E-02  0.8766332E-01
        1   -1    0    0  501    0  0.00000000000E+00  0.00000000000E+00  0.16880540897E+04  0.16880540897E+04  0.50400001928E-02 0. -1.
       -1   -1    0    0    0  501  0.00000000000E+00  0.00000000000E+00 -0.42364642923E+03  0.42364642926E+03  0.50400001928E-02 0.  1.
    10030    2    1    2    0    0  0.00000000000E+00  0.00000000000E+00  0.12644076604E+04  0.21117005189E+04  0.16913167503E+04 0.  0.
        4    1    3    3  502    0  0.69252025694E+02 -0.37725593730E+03 -0.30879406296E+03  0.49241575068E+03  0.12699999809E+01 0.  1.
       -4    1    3    3    0  502 -0.69252025694E+02  0.37725593730E+03  0.15732017234E+04  0.16192847683E+04  0.12699999809E+01 0. -1.
</event>
<event>
 5   0  0.5821584E-05  0.1700005E+04  0.7818609E-02  0.8761362E-01
        2   -1    0    0  501    0  0.00000000000E+00  0.00000000000E+00  0.77344585904E+03  0.77344585904E+03  0.25500000920E-02 0.  1.
       -2   -1    0    0    0  501  0.00000000000E+00  0.00000000000E+00 -0.93413664277E+03  0.93413664278E+03  0.25500000920E-02 0. -1.
    10030    2    1    2    0    0  0.00000000000E+00  0.00000000000E+00 -0.16069078374E+03  0.17075825018E+04  0.17000048449E+04 0.  0.
        1    1    3    3  502    0  0.39795022979E+03  0.64667824934E+03 -0.46407833536E+03  0.88990215470E+03  0.50400001928E-02 0. -1.
       -1    1    3    3    0  502 -0.39795022979E+03 -0.64667824934E+03  0.30338755163E+03  0.81768034712E+03  0.50400001928E-02 0.  1.
</event>
<event>
 5   0  0.2911632E-05  0.1699705E+04  0.7818609E-02  0.8761533E-01
        1   -1    0    0  501    0  0.00000000000E+00  0.00000000000E+00  0.68748554505E+03  0.68748554507E+03  0.50400001928E-02 0.  1.
       -1   -1    0    0    0  501  0.00000000000E+00  0.00000000000E+00 -0.10505661777E+04  0.10505661777E+04  0.50400001928E-02 0. -1.
    10030    2    1    2    0    0  0.00000000000E+00  0.00000000000E+00 -0.36308063265E+03  0.17380517228E+04  0.16997047524E+04 0.  0.
        1    1    3    3  502    0 -0.49584465045E+03 -0.54653614524E+03 -0.61257782376E+03  0.95907000038E+03  0.50400001928E-02 0. -1.
       -1    1    3    3    0  502  0.49584465045E+03  0.54653614524E+03  0.24949719111E+03  0.77898172240E+03  0.50400001928E-02 0.  1.
</event>
<event>
 5   0  0.5755321E-05  0.1705587E+04  0.7818609E-02  0.8758184E-01
        2   -1    0    0  501    0  0.00000000000E+00  0.00000000000E+00  0.17864312156E+04  0.17864312156E+04  0.25500000920E-02 0.  1.
       -2   -1    0    0    0  501  0.00000000000E+00  0.00000000000E+00 -0.40710022879E+03  0.40710022880E+03  0.25500000920E-02 0. -1.
    10030    2    1    2    0    0  0.00000000000E+00  0.00000000000E+00  0.13793309868E+04  0.21935314444E+04  0.17055867689E+04 0.  0.
        4    1    3    3  502    0  0.63936283714E+03  0.33521709365E+03  0.12735253647E+04  0.14639070342E+04  0.12699999809E+01 0.  1.
       -4    1    3    3    0  502 -0.63936283714E+03 -0.33521709365E+03  0.10580562214E+03  0.72962441020E+03  0.12699999809E+01 0. -1.
</event>
<event>
 5   0  0.5859822E-05  0.1706036E+04  0.7818609E-02  0.8757929E-01
       -2   -1    0    0    0  501  0.00000000000E+00  0.00000000000E+00  0.37777129058E+03  0.37777129059E+03  0.25500000920E-02 0. -1.
        2   -1    0    0  501    0  0.00000000000E+00  0.00000000000E+00 -0.19261378552E+04  0.19261378552E+04  0.25500000920E-02 0.  1.
    10030    2    1    2    0    0  0.00000000000E+00  0.00000000000E+00 -0.15483665647E+04  0.23039091458E+04  0.17060358536E+04 0.  0.
        5    1    3    3  502    0 -0.50603044583E+03 -0.47415691459E+03 -0.10339639055E+03  0.70114513144E+03  0.46999998093E+01 0. -1.
       -5    1    3    3    0  502  0.50603044583E+03  0.47415691459E+03 -0.14449701741E+04  0.16027640144E+04  0.46999998093E+01 0.  1.
</event>
<event>
 5   0  0.5859822E-05  0.1696321E+04  0.7818609E-02  0.8763465E-01
        2   -1    0    0  501    0  0.00000000000E+00  0.00000000000E+00  0.18286357064E+04  0.18286357064E+04  0.25500000920E-02 0. -1.
       -2   -1    0    0    0  501  0.00000000000E+00  0.00000000000E+00 -0.39339508009E+03  0.39339508010E+03  0.25500000920E-02 0.  1.
    10030    2    1    2    0    0  0.00000000000E+00  0.00000000000E+00  0.14352406263E+04  0.22220307865E+04  0.16963210665E+04 0.  0.
        5    1    3    3  502    0 -0.16287079771E+03  0.54867477462E+03 -0.10228740293E+03  0.58142558239E+03  0.46999998093E+01 0.  1.
       -5    1    3    3    0  502  0.16287079771E+03 -0.54867477462E+03  0.15375280292E+04  0.16406052041E+04  0.46999998093E+01 0. -1.
</event>
<event>
 5   0  0.2966258E-05  0.1699675E+04  0.7818609E-02  0.8761550E-01
       -1   -1    0    0    0  501  0.00000000000E+00  0.00000000000E+00  0.10521590740E+04  0.10521590741E+04  0.50400001928E-02 0. -1.
        1   -1    0    0  501    0  0.00000000000E+00  0.00000000000E+00 -0.68642101266E+03  0.68642101267E+03  0.50400001928E-02 0.  1.
    10030    2    1    2    0    0  0.00000000000E+00  0.00000000000E+00  0.36573806139E+03  0.17385800867E+04  0.16996753774E+04 0.  0.
        4    1    3    3  502    0  0.79469263600E+03 -0.28895165096E+03  0.26962213275E+03  0.88753994258E+03  0.12699999809E+01 0.  1.
       -4    1    3    3    0  502 -0.79469263600E+03  0.28895165096E+03  0.96115928639E+02  0.85104014415E+03  0.12699999809E+01 0. -1.
</event>
<event>
 5   0  0.2966258E-05  0.1700094E+04  0.7818609E-02  0.8761310E-01
       -1   -1    0    0    0  501  0.00000000000E+00  0.00000000000E+00  0.73409806550E+03  0.73409806552E+03  0.50400001928E-02 0. -1.
        1   -1    0    0  501    0  0.00000000000E+00  0.00000000000E+00 -0.98431034869E+03  0.98431034870E+03  0.50400001928E-02 0.  1.
    10030    2    1    2    0    0  0.00000000000E+00  0.00000000000E+00 -0.25021228319E+03  0.17184084142E+04  0.17000944948E+04 0.  0.
        4    1    3    3  502    0 -0.50669753876E+03  0.54822760905E+03  0.28582321103E+03  0.79937001944E+03  0.12699999809E+01 0. -1.
       -4    1    3    3    0  502  0.50669753876E+03 -0.54822760905E+03 -0.53603549422E+03  0.91903839478E+03  0.12699999809E+01 0.  1.
</event>
<event>
 5   0  0.2911632E-05  0.1699052E+04  0.7818609E-02  0.8761905E-01
        1   -1    0    0  501    0  0.00000000000E+00  0.00000000000E+00  0.14335274965E+04  0.14335274965E+04  0.50400001928E-02 0.  1.
       -1   -1    0    0    0  501  0.00000000000E+00  0.00000000000E+00 -0.50343982131E+03  0.50343982134E+03  0.50400001928E-02 0. -1.
    10030    2    1    2    0    0  0.00000000000E+00  0.00000000000E+00  0.93008767516E+03  0.19369673178E+04  0.16990524732E+04 0.  0.
        1    1    3    3  502    0  0.18587587597E+03 -0.36589922879E+03 -0.38292757795E+03  0.56130706113E+03  0.50400001928E-02 0. -1.
       -1    1    3    3    0  502 -0.18587587597E+03  0.36589922879E+03  0.13130152531E+04  0.13756602567E+04  0.50400001928E-02 0.  1.
</event>
<event>
 5   0  0.5859822E-05  0.1698618E+04  0.7818609E-02  0.8762153E-01
       -2   -1    0    0    0  501  0.00000000000E+00  0.00000000000E+00  0.27214709425E+03  0.27214709426E+03  0.25500000920E-02 0.  1.
        2   -1    0    0  501    0  0.00000000000E+00  0.00000000000E+00 -0.26504999580E+04  0.26504999580E+04  0.25500000920E-02 0. -1.
    10030    2    1    2    0    0  0.00000000000E+00  0.00000000000E+00 -0.23783528638E+04  0.29226470523E+04  0.16986180994E+04 0.  0.
        5    1    3    3  502    0 -0.19462956425E+03  0.62677545873E+03 -0.21166685288E+04  0.22160857145E+04  0.46999998093E+01 0. -1.
       -5    1    3    3    0  502  0.19462956425E+03 -0.62677545873E+03 -0.26168433496E+03  0.70656133782E+03  0.46999998093E+01 0.  1.
</event>
<event>
 5   0  0.5755321E-05  0.1691870E+04  0.7818609E-02  0.8766015E-01
        2   -1    0    0  501    0  0.00000000000E+00  0.00000000000E+00  0.89151570506E+03  0.89151570506E+03  0.25500000920E-02 0. -1.
       -2   -1    0    0    0  501  0.00000000000E+00  0.00000000000E+00 -0.80268491245E+03  0.80268491245E+03  0.25500000920E-02 0.  1.
    10030    2    1    2    0    0  0.00000000000E+00  0.00000000000E+00  0.88830792613E+02  0.16942006175E+04  0.16918702145E+04 0.  0.
        4    1    3    3  502    0  0.28917799782E+03  0.60097854191E+03 -0.47669112441E+03  0.81977750838E+03  0.12699999809E+01 0.  1.
       -4    1    3    3    0  502 -0.28917799782E+03 -0.60097854191E+03  0.56552191702E+03  0.87442310914E+03  0.12699999809E+01 0. -1.
</event>
<event>
 5   0  0.5821584E-05  0.1700489E+04  0.7818609E-02  0.8761085E-01
        2   -1    0    0  501    0  0.00000000000E+00  0.00000000000E+00  0.21390748027E+04  0.21390748027E+04  0.25500000920E-02 0. -1.
       -2   -1    0    0    0  501  0.00000000000E+00  0.00000000000E+00 -0.33795729466E+03  0.33795729467E+03  0.25500000920E-02 0.  1.
    10030    2    1    2    0    0  0.00000000000E+00  0.00000000000E+00  0.18011175081E+04  0.24770320974E+04  0.17004892630E+04 0.  0.
        1    1    3    3  502    0  0.27606982473E+03  0.53182877054E+03  0.21891127539E+02  0.59961288410E+03  0.50400001928E-02 0.  1.
       -1    1    3    3    0  502 -0.27606982473E+03 -0.53182877054E+03  0.17792263805E+04  0.18774192133E+04  0.50400001928E-02 0. -1.
</event>
<event>
 5   0  0.5821584E-05  0.1701291E+04  0.7818609E-02  0.8760629E-01
       -2   -1    0    0    0  501  0.00000000000E+00  0.00000000000E+00  0.49795117570E+03  0.49795117570E+03  0.25500000920E-02 0. -1.
        2   -1    0    0  501    0  0.00000000000E+00  0.00000000000E+00 -0.14531494217E+04  0.14531494217E+04  0.25500000920E-02 0.  1.
    10030    2    1    2    0    0  0.00000000000E+00  0.00000000000E+00 -0.95519824599E+03  0.19511005974E+04  0.17012906430E+04 0.  0.
        1    1    3    3  502    0 -0.29844277851E+03  0.25548550200E+03 -0.13428761208E+04  0.13991630390E+04  0.50400001928E-02 0.  1.
       -1    1    3    3    0  502  0.29844277851E+03 -0.25548550200E+03  0.38767787480E+03  0.55193755843E+03  0.50400001928E-02 0. -1.
</event>
<event>
 5   0  0.2967704E-05  0.1702356E+04  0.7818609E-02  0.8760022E-01
       -1   -1    0    0    0  501  0.00000000000E+00  0.00000000000E+00  0.36701198687E+03  0.36701198690E+03  0.50400001928E-02 0. -1.
        1   -1    0    0  501    0  0.00000000000E+00  0.00000000000E+00 -0.19740618649E+04  0.19740618649E+04  0.50400001928E-02 0.  1.
    10030    2    1    2    0    0  0.00000000000E+00  0.00000000000E+00 -0.16070498780E+04  0.23410738518E+04  0.17023564460E+04 0.  0.
        2    1    3    3  502    0  0.45404340439E+03 -0.48516468189E+03 -0.15350519222E+04  0.16726997894E+04  0.25500000920E-02 0.  1.
       -2    1    3    3    0  502 -0.45404340439E+03  0.48516468189E+03 -0.71997955815E+02  0.66837406239E+03  0.25500000920E-02 0. -1.
</event>
<event>
 5   0  0.2987859E-05  0.1699418E+04  0.7818609E-02  0.8761696E-01
        1   -1    0    0  501    0  0.00000000000E+00  0.00000000000E+00  0.65909217802E+03  0.65909217804E+03  0.50400001928E-02 0.  1.
       -1   -1    0    0    0  501  0.00000000000E+00  0.00000000000E+00 -0.10954544809E+04  0.10954544809E+04  0.50400001928E-02 0. -1.
    10030    2    1    2    0    0  0.00000000000E+00  0.00000000000E+00 -0.43636230285E+03  0.17545466589E+04  0.16994181119E+04 0.  0.
        5    1    3    3  502    0 -0.27200485689E+02  0.73265414727E+03 -0.66160337733E+03  0.98755409210E+03  0.46999998093E+01 0. -1.
       -5    1    3    3    0  502  0.27200485689E+02 -0.73265414727E+03  0.22524107447E+03  0.76699256682E+03  0.46999998093E+01 0.  1.
</event>
<event>
 5   0  0.5859822E-05  0.1698962E+04  0.7818609E-02  0.8761957E-01
       -2   -1    0    0    0  501  0.00000000000E+00  0.00000000000E+00  0.10779964805E+04  0.10779964805E+04  0.25500000920E-02 0. -1.
        2   -1    0    0  501    0  0.00000000000E+00  0.00000000000E+00 -0.66940665682E+03  0.66940665682E+03  0.25500000920E-02 0.  1.
    10030    2    1    2    0    0  0.00000000000E+00  0.00000000000E+00  0.40858982367E+03  0.17474031373E+04  0.16989620597E+04 0.  0.
        5    1    3    3  502    0 -0.60048356081E+03  0.55208580081E+03  0.44815575615E+03  0.93072278903E+03  0.46999998093E+01 0. -1.
       -5    1    3    3    0  502  0.60048356081E+03 -0.55208580081E+03 -0.39565932475E+02  0.81668034828E+03  0.46999998093E+01 0.  1.
</event>
<event>
 5   0  0.2966258E-05  0.1697814E+04  0.7818609E-02  0.8762612E-01
       -1   -1    0    0    0  501  0.00000000000E+00  0.00000000000E+00  0.54570448062E+03  0.54570448065E+03  0.50400001928E-02 0.  1.
        1   -1    0    0  501    0  0.00000000000E+00  0.00000000000E+00 -0.13205746117E+04  0.13205746117E+04  0.50400001928E-02 0. -1.
    10030    2    1    2    0    0  0.00000000000E+00  0.00000000000E+00 -0.77487013104E+03  0.18662790923E+04  0.16978144570E+04 0.  0.
        4    1    3    3  502    0 -0.24978906767E+03  0.16273963413E+03  0.48626726156E+03  0.57038252902E+03  0.12699999809E+01 0.  1.
       -4    1    3    3    0  502  0.24978906767E+03 -0.16273963413E+03 -0.12611373926E+04  0.12958965633E+04  0.12699999809E+01 0. -1.
</event>
<event>
 5   0  0.5652631E-05  0.1704532E+04  0.7818609E-02  0.8758784E-01
       -2   -1    0    0    0  501  0.00000000000E+00  0.00000000000E+00  0.56874539644E+03  0.56874539644E+03  0.25500000920E-02 0.  1.
        2   -1    0    0  501    0  0.00000000000E+00  0.00000000000E+00 -0.12771226826E+04  0.12771226826E+04  0.25500000920E-02 0. -1.
    10030    2    1    2    0    0  0.00000000000E+00  0.00000000000E+00 -0.70837728614E+03  0.18458680790E+04  0.17045323657E+04 0.  0.
        2    1    3    3  502    0 -0.72855451262E+03  0.34729494226E+03 -0.57713985828E+02  0.80915780843E+03  0.25500000920E-02 0.  1.
       -2    1    3    3    0  502  0.72855451262E+03 -0.34729494226E+03 -0.65066330031E+03  0.10367102706E+04  0.25500000920E-02 0. -1.
</event>
<event>
 5   0  0.2911632E-05  0.1700669E+04  0.7818609E-02  0.8760983E-01
       -1   -1    0    0    0  501  0.00000000000E+00  0.00000000000E+00  0.75072431574E+03  0.75072431576E+03  0.50400001928E-02 0.  1.
        1   -1    0    0  501    0  0.00000000000E+00  0.00000000000E+00 -0.96316171941E+03  0.96316171942E+03  0.50400001928E-02 0. -1.
    10030    2    1    2    0    0  0.00000000000E+00  0.00000000000E+00 -0.21243740367E+03  0.17138860352E+04  0.17006691892E+04 0.  0.
        1    1    3    3  502    0  0.56765777128E+03  0.58604311959E+03  0.13519894178E+03  0.82701912747E+03  0.50400001928E-02 0.  1.
       -1    1    3    3    0  502 -0.56765777128E+03 -0.58604311959E+03 -0.34763634544E+03  0.88686690772E+03  0.50400001928E-02 0. -1.
</event>
<event>
 5   0  0.5671132E-05  0.1709893E+04  0.7818609E-02  0.8755742E-01
        2   -1    0    0  501    0  0.00000000000E+00  0.00000000000E+00  0.18449517417E+04  0.18449517417E+04  0.25500000920E-02 0. -1.
       -2   -1    0    0    0  501  0.00000000000E+00  0.00000000000E+00 -0.39618037779E+03  0.39618037780E+03  0.25500000920E-02 0.  1.
    10030    2    1    2    0    0  0.00000000000E+00  0.00000000000E+00  0.14487713639E+04  0.22411321195E+04  0.17098931873E+04 0.  0.
        3    1    3    3  502    0 -0.61837241035E+03 -0.26191191506E+03  0.30896352261E+02  0.67226251116E+03  0.10100000352E+00 0.  1.
       -3    1    3    3    0  502  0.61837241035E+03  0.26191191506E+03  0.14178750116E+04  0.15688696083E+04  0.10100000352E+00 0. -1.
</event>
<event>
 5   0  0.5859822E-05  0.1701725E+04  0.7818609E-02  0.8760381E-01
       -2   -1    0    0    0  501  0.00000000000E+00  0.00000000000E+00  0.50768663861E+03  0.50768663861E+03  0.25500000920E-02 0.  1.
        2   -1    0    0  501    0  0.00000000000E+00  0.00000000000E+00 -0.14260115402E+04  0.14260115402E+04  0.25500000920E-02 0. -1.
    10030    2    1    2    0    0  0.00000000000E+00  0.00000000000E+00 -0.91832490155E+03  0.19336981788E+04  0.17017250136E+04 0.  0.
        5    1    3    3  502    0 -0.55973263260E+03 -0.34561832112E+03  0.15401930941E+03  0.67564538152E+03  0.46999998093E+01 0.  1.
       -5    1    3    3    0  502  0.55973263260E+03  0.34561832112E+03 -0.10723442110E+04  0.12580527973E+04  0.46999998093E+01 0. -1.
</event>
<event>
 5   0  0.2911632E-05  0.1699453E+04  0.7818609E-02  0.8761676E-01
       -1   -1    0    0    0  501  0.00000000000E+00  0.00000000000E+00  0.54179655079E+03  0.54179655081E+03  0.50400001928E-02 0. -1.
        1   -1    0    0  501    0  0.00000000000E+00  0.00000000000E+00 -0.13326688639E+04  0.13326688639E+04  0.50400001928E-02 0.  1.
    10030    2    1    2    0    0  0.00000000000E+00  0.00000000000E+00 -0.79087231310E+03  0.18744654147E+04  0.16994533166E+04 0.  0.
        1    1    3    3  502    0  0.68561814688E+03 -0.35941137747E+03 -0.78193099740E+03  0.11003021705E+04  0.50400001928E-02 0. -1.
       -1    1    3    3    0  502 -0.68561814688E+03  0.35941137747E+03 -0.89413156963E+01  0.77416324425E+03  0.50400001928E-02 0.  1.
</event>
<event>
 5   0  0.2966258E-05  0.1700513E+04  0.7818609E-02  0.8761072E-01
        1   -1    0    0  501    0  0.00000000000E+00  0.00000000000E+00  0.15937881714E+04  0.15937881714E+04  0.50400001928E-02 0. -1.
       -1   -1    0    0    0  501  0.00000000000E+00  0.00000000000E+00 -0.45359625565E+03  0.45359625568E+03  0.50400001928E-02 0.  1.
    10030    2    1    2    0    0  0.00000000000E+00  0.00000000000E+00  0.11401919158E+04  0.20473844271E+04  0.17005132718E+04 0.  0.
        4    1    3    3  502    0 -0.44702380418E+02 -0.12898269241E+03 -0.44031531307E+03  0.46099243549E+03  0.12699999809E+01 0.  1.
       -4    1    3    3    0  502  0.44702380418E+02  0.12898269241E+03  0.15805072289E+04  0.15863919916E+04  0.12699999809E+01 0. -1.
</event>
<event>
 5   0  0.2098250E-05  0.1699052E+04  0.7818609E-02  0.8761905E-01
        3   -1    0    0  501    0  0.00000000000E+00  0.00000000000E+00  0.64834219306E+03  0.64834220093E+03  0.10100000352E+00 0. -1.
       -3   -1    0    0    0  501  0.00000000000E+00  0.00000000000E+00 -0.11131386340E+04  0.11131386386E+04  0.10100000352E+00 0.  1.
    10030    2    1    2    0    0  0.00000000000E+00  0.00000000000E+00 -0.46479644093E+03  0.17614808395E+04  0.16990523878E+04 0.  0.
        2    1    3    3  502    0  0.13212449695E+03  0.81345415376E+03 -0.44620423739E+03  0.93715674486E+03  0.25500000920E-02 0.  1.
       -2    1    3    3    0  502 -0.13212449695E+03 -0.81345415376E+03 -0.18592203543E+02  0.82432409464E+03  0.25500000920E-02 0. -1.
</event>
<event>
 5   0  0.2987859E-05  0.1690159E+04  0.7818609E-02  0.8766997E-01
       -1   -1    0    0    0  501  0.00000000000E+00  0.00000000000E+00  0.42060362155E+03  0.42060362158E+03  0.50400001928E-02 0.  1.
        1   -1    0    0  501    0  0.00000000000E+00  0.00000000000E+00 -0.16979384540E+04  0.16979384540E+04  0.50400001928E-02 0. -1.
    10030    2    1    2    0    0  0.00000000000E+00  0.00000000000E+00 -0.12773348324E+04  0.21185420756E+04  0.16901586469E+04 0.  0.
        5    1    3    3  502    0 -0.19043383669E+03  0.82024610255E+03 -0.54943164493E+03  0.10054680191E+04  0.46999998093E+01 0.  1.
       -5    1    3    3    0  502  0.19043383669E+03 -0.82024610255E+03 -0.72790318751E+03  0.11130740565E+04  0.46999998093E+01 0. -1.
</event>
<event>
 5   0  0.5859822E-05  0.1707171E+04  0.7818609E-02  0.8757285E-01
        2   -1    0    0  501    0  0.00000000000E+00  0.00000000000E+00  0.17335492979E+04  0.17335492979E+04  0.25500000920E-02 0.  1.
       -2   -1    0    0    0  501  0.00000000000E+00  0.00000000000E+00 -0.42029857164E+03  0.42029857165E+03  0.25500000920E-02 0. -1.
    10030    2    1    2    0    0  0.00000000000E+00  0.00000000000E+00  0.13132507262E+04  0.21538478695E+04  0.17071711031E+04 0.  0.
        5    1    3    3  502    0 -0.56395840804E+03 -0.39954093891E+03  0.24662000140E+02  0.69160129562E+03  0.46999998093E+01 0. -1.
       -5    1    3    3    0  502  0.56395840804E+03  0.39954093891E+03  0.12885887261E+04  0.14622465739E+04  0.46999998093E+01 0.  1.
</event>
<event>
 5   0  0.5859822E-05  0.1701893E+04  0.7818609E-02  0.8760285E-01
       -2   -1    0    0    0  501  0.00000000000E+00  0.00000000000E+00  0.71885483040E+03  0.71885483040E+03  0.25500000920E-02 0. -1.
        2   -1    0    0  501    0  0.00000000000E+00  0.00000000000E+00 -0.10073106597E+04  0.10073106597E+04  0.25500000920E-02 0.  1.
    10030    2    1    2    0    0  0.00000000000E+00  0.00000000000E+00 -0.28845582934E+03  0.17261654901E+04  0.17018932205E+04 0.  0.
        5    1    3    3  502    0 -0.65005534247E+03  0.53455533361E+03 -0.27158420286E+03  0.88436498246E+03  0.46999998093E+01 0. -1.
       -5    1    3    3    0  502  0.65005534247E+03 -0.53455533361E+03 -0.16871626486E+02  0.84180050769E+03  0.46999998093E+01 0.  1.
</event>
<event>
 5   0  0.5671132E-05  0.1695942E+04  0.7818609E-02  0.8763682E-01
        2   -1    0    0  501    0  0.00000000000E+00  0.00000000000E+00  0.66221265007E+03  0.66221265008E+03  0.25500000920E-02 0.  1.
       -2   -1    0    0    0  501  0.00000000000E+00  0.00000000000E+00 -0.10858366178E+04  0.10858366178E+04  0.25500000920E-02 0. -1.
    10030    2    1    2    0    0  0.00000000000E+00  0.00000000000E+00 -0.42362396768E+03  0.17480492678E+04  0.16959419143E+04 0.  0.
        3    1    3    3  502    0  0.17190613224E+03  0.77893784317E+03 -0.50832920704E+03  0.94588290753E+03  0.10100000352E+00 0.  1.
       -3    1    3    3    0  502 -0.17190613224E+03 -0.77893784317E+03  0.84705239363E+02  0.80216636030E+03  0.10100000352E+00 0. -1.
</event>
<event>
 5   0  0.5859822E-05  0.1699425E+04  0.7818609E-02  0.8761692E-01
       -2   -1    0    0    0  501  0.00000000000E+00  0.00000000000E+00  0.66112786642E+03  0.66112786642E+03  0.25500000920E-02 0. -1.
        2   -1    0    0  501    0  0.00000000000E+00  0.00000000000E+00 -0.10920903053E+04  0.10920903053E+04  0.25500000920E-02 0.  1.
    10030    2    1    2    0    0  0.00000000000E+00  0.00000000000E+00 -0.43096243888E+03  0.17532181717E+04  0.16994250010E+04 0.  0.
        5    1    3    3  502    0  0.78979875553E+02 -0.83849644009E+03 -0.99333579621E+02  0.84805857747E+03  0.46999998093E+01 0. -1.
       -5    1    3    3    0  502 -0.78979875553E+02  0.83849644009E+03 -0.33162885926E+03  0.90515959425E+03  0.46999998093E+01 0.  1.
</event>
<event>
 5   0  0.2967704E-05  0.1698838E+04  0.7818609E-02  0.8762027E-01
       -1   -1    0    0    0  501  0.00000000000E+00  0.00000000000E+00  0.72622835627E+03  0.72622835629E+03  0.50400001928E-02 0.  1.
        1   -1    0    0  501    0  0.00000000000E+00  0.00000000000E+00 -0.99350633983E+03  0.99350633984E+03  0.50400001928E-02 0. -1.
    10030    2    1    2    0    0  0.00000000000E+00  0.00000000000E+00 -0.26727798355E+03  0.17197346961E+04  0.16988378100E+04 0.  0.
        2    1    3    3  502    0 -0.54195392674E+03 -0.14105679874E+03  0.51288870050E+03  0.75938521074E+03  0.25500000920E-02 0.  1.
       -2    1    3    3    0  502  0.54195392674E+03  0.14105679874E+03 -0.78016668405E+03  0.96034948539E+03  0.25500000920E-02 0. -1.
</event>
<event>
 5   0  0.5671132E-05  0.1700471E+04  0.7818609E-02  0.8761096E-01
        2   -1    0    0  501    0  0.00000000000E+00  0.00000000000E+00  0.13709568961E+04  0.13709568961E+04  0.25500000920E-02 0. -1.
       -2   -1    0    0    0  501  0.00000000000E+00  0.00000000000E+00 -0.52729647387E+03  0.52729647388E+03  0.25500000920E-02 0.  1.
    10030    2    1    2    0    0  0.00000000000E+00  0.00000000000E+00  0.84366042227E+03  0.18982533700E+04  0.17004713901E+04 0.  0.
        3    1    3    3  502    0 -0.33864076155E+03 -0.30710143059E+03  0.12220866474E+04  0.13047929483E+04  0.10100000352E+00 0. -1.
       -3    1    3    3    0  502  0.33864076155E+03  0.30710143059E+03 -0.37842622512E+03  0.59346042170E+03  0.10100000352E+00 0.  1.
</event>
<event>
 5   0  0.5652631E-05  0.1691862E+04  0.7818609E-02  0.8766019E-01
       -2   -1    0    0    0  501  0.00000000000E+00  0.00000000000E+00  0.48206644043E+03  0.48206644044E+03  0.25500000920E-02 0.  1.
        2   -1    0    0  501    0  0.00000000000E+00  0.00000000000E+00 -0.14844418807E+04  0.14844418807E+04  0.25500000920E-02 0. -1.
    10030    2    1    2    0    0  0.00000000000E+00  0.00000000000E+00 -0.10023754403E+04  0.19665083211E+04  0.16918624217E+04 0.  0.
        2    1    3    3  502    0 -0.47818370525E+01  0.29674863771E+02  0.48144555216E+03  0.48238292176E+03  0.25500000920E-02 0.  1.
       -2    1    3    3    0  502  0.47818370525E+01 -0.29674863771E+02 -0.14838209924E+04  0.14841253994E+04  0.25500000920E-02 0. -1.
</event>
<event>
 5   0  0.5671132E-05  0.1700077E+04  0.7818609E-02  0.8761320E-01
       -2   -1    0    0    0  501  0.00000000000E+00  0.00000000000E+00  0.69797353972E+03  0.69797353973E+03  0.25500000920E-02 0. -1.
        2   -1    0    0  501    0  0.00000000000E+00  0.00000000000E+00 -0.10352337765E+04  0.10352337765E+04  0.25500000920E-02 0.  1.
    10030    2    1    2    0    0  0.00000000000E+00  0.00000000000E+00 -0.33726023679E+03  0.17332073162E+04  0.17000773905E+04 0.  0.
        3    1    3    3  502    0  0.18323171521E+03 -0.81756753214E+03 -0.22394118260E+02  0.83814798085E+03  0.10100000352E+00 0.  1.
       -3    1    3    3    0  502 -0.18323171521E+03  0.81756753214E+03 -0.31486611853E+03  0.89505933539E+03  0.10100000352E+00 0. -1.
</event>
<event>
 5   0  0.2967704E-05  0.1701023E+04  0.7818609E-02  0.8760781E-01
        1   -1    0    0  501    0  0.00000000000E+00  0.00000000000E+00  0.12081211769E+04  0.12081211769E+04  0.50400001928E-02 0.  1.
       -1   -1    0    0    0  501  0.00000000000E+00  0.00000000000E+00 -0.59875629995E+03  0.59875629997E+03  0.50400001928E-02 0. -1.
    10030    2    1    2    0    0  0.00000000000E+00  0.00000000000E+00  0.60936487694E+03  0.18068774769E+04  0.17010234164E+04 0.  0.
        2    1    3    3  502    0 -0.84676183647E+03 -0.17754850457E+02  0.38729989346E+03  0.93130126699E+03  0.25500000920E-02 0. -1.
       -2    1    3    3    0  502  0.84676183647E+03  0.17754850457E+02  0.22206498348E+03  0.87557620988E+03  0.25500000920E-02 0.  1.
</event>
<event>
 5   0  0.5652631E-05  0.1701834E+04  0.7818609E-02  0.8760319E-01
        2   -1    0    0  501    0  0.00000000000E+00  0.00000000000E+00  0.11042177881E+04  0.11042177881E+04  0.25500000920E-02 0. -1.
       -2   -1    0    0    0  501  0.00000000000E+00  0.00000000000E+00 -0.65572202503E+03  0.65572202504E+03  0.25500000920E-02 0.  1.
    10030    2    1    2    0    0  0.00000000000E+00  0.00000000000E+00  0.44849576309E+03  0.17599398132E+04  0.17018342153E+04 0.  0.
        2    1    3    3  502    0 -0.38793155545E+03  0.42655223117E+01 -0.55894101959E+03  0.68038529509E+03  0.25500000920E-02 0.  1.
       -2    1    3    3    0  502  0.38793155545E+03 -0.42655223117E+01  0.10074367827E+04  0.10795545181E+04  0.25500000920E-02 0. -1.
</event>
<event>
 5   0  0.2966258E-05  0.1696715E+04  0.7818609E-02  0.8763240E-01
       -1   -1    0    0    0  501  0.00000000000E+00  0.00000000000E+00  0.57366199217E+03  0.57366199219E+03  0.50400001928E-02 0.  1.
        1   -1    0    0  501    0  0.00000000000E+00  0.00000000000E+00 -0.12545897294E+04  0.12545897294E+04  0.50400001928E-02 0. -1.
    10030    2    1    2    0    0  0.00000000000E+00  0.00000000000E+00 -0.68092773720E+03  0.18282517216E+04  0.16967149950E+04 0.  0.
        4    1    3    3  502    0 -0.57543837077E+03  0.61847279209E+03 -0.42442035588E+03  0.94539524247E+03  0.12699999809E+01 0. -1.
       -4    1    3    3    0  502  0.57543837077E+03 -0.61847279209E+03 -0.25650738132E+03  0.88285647910E+03  0.12699999809E+01 0.  1.
</event>
<event>
 5   0  0.2966258E-05  0.1697997E+04  0.7818609E-02  0.8762508E-01
       -1   -1    0    0    0  501  0.00000000000E+00  0.00000000000E+00  0.95334520341E+03  0.95334520343E+03  0.50400001928E-02 0.  1.
        1   -1    0    0  501    0  0.00000000000E+00  0.00000000000E+00 -0.75607255623E+03  0.75607255625E+03  0.50400001928E-02 0. -1.
    10030    2    1    2    0    0  0.00000000000E+00  0.00000000000E+00  0.19727264718E+03  0.17094177597E+04  0.16979966371E+04 0.  0.
        4    1    3    3  502    0 -0.31361958970E+03 -0.19695425834E+03 -0.67047109458E+03  0.76595125725E+03  0.12699999809E+01 0. -1.
       -4    1    3    3    0  502  0.31361958970E+03  0.19695425834E+03  0.86774374176E+03  0.94346650242E+03  0.12699999809E+01 0.  1.
</event>
<event>
 5   0  0.5755321E-05  0.1728801E+04  0.7818609E-02  0.8745107E-01
        2   -1    0    0  501    0  0.00000000000E+00  0.00000000000E+00  0.12255170003E+04  0.12255170003E+04  0.25500000920E-02 0.  1.
       -2   -1    0    0    0  501  0.00000000000E+00  0.00000000000E+00 -0.60969200676E+03  0.60969200677E+03  0.25500000920E-02 0. -1.
    10030    2    1    2    0    0  0.00000000000E+00  0.00000000000E+00  0.61582499353E+03  0.18352090071E+04  0.17288006470E+04 0.  0.
        4    1    3    3  502    0 -0.76080018484E+03 -0.34161239209E+03  0.54921473688E+03  0.99857618027E+03  0.12699999809E+01 0.  1.
       -4    1    3    3    0  502  0.76080018484E+03  0.34161239209E+03  0.66610256650E+02  0.83663282680E+03  0.12699999809E+01 0. -1.
</event>
<event>
 5   0  0.2993769E-05  0.1726356E+04  0.7818609E-02  0.8746474E-01
        1   -1    0    0  501    0  0.00000000000E+00  0.00000000000E+00  0.22933334410E+04  0.22933334410E+04  0.50400001928E-02 0. -1.
       -1   -1    0    0    0  501  0.00000000000E+00  0.00000000000E+00 -0.32488793041E+03  0.32488793045E+03  0.50400001928E-02 0.  1.
    10030    2    1    2    0    0  0.00000000000E+00  0.00000000000E+00  0.19684455106E+04  0.26182213715E+04  0.17263561110E+04 0.  0.
        3    1    3    3  502    0 -0.14759660449E+03 -0.83618695900E+03  0.12195817954E+04  0.14860596064E+04  0.10100000352E+00 0. -1.
       -3    1    3    3    0  502  0.14759660449E+03  0.83618695900E+03  0.74886371523E+03  0.11321617650E+04  0.10100000352E+00 0.  1.
</event>
<event>
 5   0  0.2967704E-05  0.1697086E+04  0.7818609E-02  0.8763028E-01
        1   -1    0    0  501    0  0.00000000000E+00  0.00000000000E+00  0.90255223909E+03  0.90255223910E+03  0.50400001928E-02 0. -1.
       -1   -1    0    0    0  501  0.00000000000E+00  0.00000000000E+00 -0.79776591039E+03  0.79776591041E+03  0.50400001928E-02 0.  1.
    10030    2    1    2    0    0  0.00000000000E+00  0.00000000000E+00  0.10478632869E+03  0.17003181495E+04  0.16970862190E+04 0.  0.
        2    1    3    3  502    0  0.71163797833E+03 -0.45910733536E+03  0.10557202942E+03  0.85343635438E+03  0.25500000920E-02 0.  1.
       -2    1    3    3    0  502 -0.71163797833E+03  0.45910733536E+03 -0.78570072280E+00  0.84688179513E+03  0.25500000920E-02 0. -1.
</event>
<event>
 5   0  0.5671132E-05  0.1707097E+04  0.7818609E-02  0.8757327E-01
        2   -1    0    0  501    0  0.00000000000E+00  0.00000000000E+00  0.10918152465E+04  0.10918152465E+04  0.25500000920E-02 0.  1.
       -2   -1    0    0    0  501  0.00000000000E+00  0.00000000000E+00 -0.66727860500E+03  0.66727860500E+03  0.25500000920E-02 0. -1.
    10030    2    1    2    0    0  0.00000000000E+00  0.00000000000E+00  0.42453664147E+03  0.17590938515E+04  0.17070968978E+04 0.  0.
        3    1    3    3  502    0 -0.73411458897E+03 -0.32266905309E+03 -0.89051431009E+02  0.80682694249E+03  0.10100000352E+00 0. -1.
       -3    1    3    3    0  502  0.73411458897E+03  0.32266905309E+03  0.51358807248E+03  0.95226690899E+03  0.10100000352E+00 0.  1.
</event>
<event>
 5   0  0.5671132E-05  0.1700053E+04  0.7818609E-02  0.8761334E-01
        2   -1    0    0  501    0  0.00000000000E+00  0.00000000000E+00  0.13950983550E+04  0.13950983550E+04  0.25500000920E-02 0.  1.
       -2   -1    0    0    0  501  0.00000000000E+00  0.00000000000E+00 -0.51791717451E+03  0.51791717451E+03  0.25500000920E-02 0. -1.
    10030    2    1    2    0    0  0.00000000000E+00  0.00000000000E+00  0.87718118046E+03  0.19130155295E+04  0.17000534088E+04 0.  0.
        3    1    3    3  502    0  0.45762171695E+03  0.35173384238E+03  0.11407893680E+04  0.12784892350E+04  0.10100000352E+00 0.  1.
       -3    1    3    3    0  502 -0.45762171695E+03 -0.35173384238E+03 -0.26360818750E+03  0.63452629450E+03  0.10100000352E+00 0. -1.
</event>
<event>
 5   0  0.5652631E-05  0.1698997E+04  0.7818609E-02  0.8761937E-01
       -2   -1    0    0    0  501  0.00000000000E+00  0.00000000000E+00  0.93864631257E+03  0.93864631257E+03  0.25500000920E-02 0. -1.
        2   -1    0    0  501    0  0.00000000000E+00  0.00000000000E+00 -0.76881749661E+03  0.76881749661E+03  0.25500000920E-02 0.  1.
    10030    2    1    2    0    0  0.00000000000E+00  0.00000000000E+00  0.16982881596E+03  0.17074638092E+04  0.16989970079E+04 0.  0.
        2    1    3    3  502    0 -0.75925055992E+03 -0.36432175736E+03 -0.27248010904E+02  0.84257593707E+03  0.25500000920E-02 0.  1.
       -2    1    3    3    0  502  0.75925055992E+03  0.36432175736E+03  0.19707682686E+03  0.86488787211E+03  0.25500000920E-02 0. -1.
</event>
<event>
 5   0  0.2911632E-05  0.1698829E+04  0.7818609E-02  0.8762032E-01
        1   -1    0    0  501    0  0.00000000000E+00  0.00000000000E+00  0.15351146227E+04  0.15351146228E+04  0.50400001928E-02 0.  1.
       -1   -1    0    0    0  501  0.00000000000E+00  0.00000000000E+00 -0.47000077559E+03  0.47000077562E+03  0.50400001928E-02 0. -1.
    10030    2    1    2    0    0  0.00000000000E+00  0.00000000000E+00  0.10651138472E+04  0.20051153984E+04  0.16988290830E+04 0.  0.
        1    1    3    3  502    0  0.76748997373E+02 -0.28502301751E+03 -0.40751967066E+03  0.50319063098E+03  0.50400001928E-02 0. -1.
       -1    1    3    3    0  502 -0.76748997373E+02  0.28502301751E+03  0.14726335178E+04  0.15019247674E+04  0.50400001928E-02 0.  1.
</event>
<event>
 5   0  0.5755321E-05  0.1698877E+04  0.7818609E-02  0.8762005E-01
        2   -1    0    0  501    0  0.00000000000E+00  0.00000000000E+00  0.94130233265E+03  0.94130233265E+03  0.25500000920E-02 0.  1.
       -2   -1    0    0    0  501  0.00000000000E+00  0.00000000000E+00 -0.76654025186E+03  0.76654025187E+03  0.25500000920E-02 0. -1.
    10030    2    1    2    0    0  0.00000000000E+00  0.00000000000E+00  0.17476208078E+03  0.17078425845E+04  0.16988774260E+04 0.  0.
        4    1    3    3  502    0  0.46387192025E+03  0.14154284840E+03 -0.61367486600E+03  0.78218283694E+03  0.12699999809E+01 0. -1.
       -4    1    3    3    0  502 -0.46387192025E+03 -0.14154284840E+03  0.78843694679E+03  0.92565974758E+03  0.12699999809E+01 0.  1.
</event>
<event>
 5   0  0.2993769E-05  0.1697985E+04  0.7818609E-02  0.8762514E-01
        1   -1    0    0  501    0  0.00000000000E+00  0.00000000000E+00  0.16458927380E+04  0.16458927380E+04  0.50400001928E-02 0. -1.
       -1   -1    0    0    0  501  0.00000000000E+00  0.00000000000E+00 -0.43793160576E+03  0.43793160579E+03  0.50400001928E-02 0.  1.
    10030    2    1    2    0    0  0.00000000000E+00  0.00000000000E+00  0.12079611323E+04  0.20838243438E+04  0.16979852175E+04 0.  0.
        3    1    3    3  502    0  0.30159472528E+03  0.53718611469E+03  0.13208993909E+04  0.14574990604E+04  0.10100000352E+00 0. -1.
       -3    1    3    3    0  502 -0.30159472528E+03 -0.53718611469E+03 -0.11293825862E+03  0.62632528338E+03  0.10100000352E+00 0.  1.
</event>
<event>
 5   0  0.5671132E-05  0.1703292E+04  0.7818609E-02  0.8759489E-01
       -2   -1    0    0    0  501  0.00000000000E+00  0.00000000000E+00  0.41904374912E+03  0.41904374913E+03  0.25500000920E-02 0.  1.
        2   -1    0    0  501    0  0.00000000000E+00  0.00000000000E+00 -0.17308473746E+04  0.17308473746E+04  0.25500000920E-02 0. -1.
    10030    2    1    2    0    0  0.00000000000E+00  0.00000000000E+00 -0.13118036255E+04  0.21498911237E+04  0.17032918399E+04 0.  0.
        3    1    3    3  502    0 -0.72524182944E+03 -0.29545255131E+03 -0.10783759001E+04  0.13327274715E+04  0.10100000352E+00 0. -1.
       -3    1    3    3    0  502  0.72524182944E+03  0.29545255131E+03 -0.23342772533E+03  0.81716365215E+03  0.10100000352E+00 0.  1.
</event>
<event>
 5   0  0.5671132E-05  0.1698629E+04  0.7818609E-02  0.8762146E-01
        2   -1    0    0  501    0  0.00000000000E+00  0.00000000000E+00  0.19404496686E+04  0.19404496686E+04  0.25500000920E-02 0.  1.
       -2   -1    0    0    0  501  0.00000000000E+00  0.00000000000E+00 -0.37173626725E+03  0.37173626726E+03  0.25500000920E-02 0. -1.
    10030    2    1    2    0    0  0.00000000000E+00  0.00000000000E+00  0.15687134014E+04  0.23121859359E+04  0.16986294671E+04 0.  0.
        3    1    3    3  502    0 -0.35527785070E+03 -0.68280494806E+03  0.29566534882E+03  0.82453802641E+03  0.10100000352E+00 0.  1.
       -3    1    3    3    0  502  0.35527785070E+03  0.68280494806E+03  0.12730480526E+04  0.14876479095E+04  0.10100000352E+00 0. -1.
</event>
<event>
 5   0  0.2911632E-05  0.1701555E+04  0.7818609E-02  0.8760478E-01
        1   -1    0    0  501    0  0.00000000000E+00  0.00000000000E+00  0.13750352322E+04  0.13750352322E+04  0.50400001928E-02 0. -1.
       -1   -1    0    0    0  501  0.00000000000E+00  0.00000000000E+00 -0.52640303579E+03  0.52640303581E+03  0.50400001928E-02 0.  1.
    10030    2    1    2    0    0  0.00000000000E+00  0.00000000000E+00  0.84863219637E+03  0.19014382680E+04  0.17015554302E+04 0.  0.
        1    1    3    3  502    0 -0.84126929567E+03 -0.67148872247E+02  0.54456612693E+03  0.10043880055E+04  0.50400001928E-02 0.  1.
       -1    1    3    3    0  502  0.84126929567E+03  0.67148872247E+02  0.30406606943E+03  0.89705026252E+03  0.50400001928E-02 0. -1.
</event>
<event>
 5   0  0.2911632E-05  0.1697400E+04  0.7818609E-02  0.8762849E-01
       -1   -1    0    0    0  501  0.00000000000E+00  0.00000000000E+00  0.85363102533E+03  0.85363102535E+03  0.50400001928E-02 0. -1.
        1   -1    0    0  501    0  0.00000000000E+00  0.00000000000E+00 -0.84379702661E+03  0.84379702663E+03  0.50400001928E-02 0.  1.
    10030    2    1    2    0    0  0.00000000000E+00  0.00000000000E+00  0.98339987204E+01  0.16974280520E+04  0.16973995652E+04 0.  0.
        1    1    3    3  502    0 -0.74596268648E+03 -0.34465560988E+01 -0.39983553157E+03  0.84636910429E+03  0.50400001928E-02 0.  1.
       -1    1    3    3    0  502  0.74596268648E+03  0.34465560988E+01  0.40966953029E+03  0.85105894769E+03  0.50400001928E-02 0. -1.
</event>
<event>
 5   0  0.5821584E-05  0.1703136E+04  0.7818609E-02  0.8759578E-01
        2   -1    0    0  501    0  0.00000000000E+00  0.00000000000E+00  0.13286310464E+04  0.13286310464E+04  0.25500000920E-02 0. -1.
       -2   -1    0    0    0  501  0.00000000000E+00  0.00000000000E+00 -0.54580061187E+03  0.54580061188E+03  0.25500000920E-02 0.  1.
    10030    2    1    2    0    0  0.00000000000E+00  0.00000000000E+00  0.78283043453E+03  0.18744316583E+04  0.17031355062E+04 0.  0.
        1    1    3    3  502    0  0.84149095933E+03 -0.12727141066E+03  0.35909137463E+03  0.92371622372E+03  0.50400001928E-02 0.  1.
       -1    1    3    3    0  502 -0.84149095933E+03  0.12727141066E+03  0.42373905990E+03  0.95071543456E+03  0.50400001928E-02 0. -1.
</event>
<event>
 5   0  0.2966258E-05  0.1701039E+04  0.7818609E-02  0.8760772E-01
        1   -1    0    0  501    0  0.00000000000E+00  0.00000000000E+00  0.10133422587E+04  0.10133422587E+04  0.50400001928E-02 0. -1.
       -1   -1    0    0    0  501  0.00000000000E+00  0.00000000000E+00 -0.71385919464E+03  0.71385919465E+03  0.50400001928E-02 0.  1.
    10030    2    1    2    0    0  0.00000000000E+00  0.00000000000E+00  0.29948306409E+03  0.17272014534E+04  0.17010393161E+04 0.  0.
        4    1    3    3  502    0 -0.59680444681E+02  0.12891557640E+03  0.10012096915E+04  0.10112385676E+04  0.12699999809E+01 0. -1.
       -4    1    3    3    0  502  0.59680444681E+02 -0.12891557640E+03 -0.70172662742E+03  0.71596288580E+03  0.12699999809E+01 0.  1.
</event>
<event>
 5   0  0.5859822E-05  0.1699434E+04  0.7818609E-02  0.8761687E-01
        2   -1    0    0  501    0  0.00000000000E+00  0.00000000000E+00  0.70270690130E+03  0.70270690131E+03  0.25500000920E-02 0. -1.
       -2   -1    0    0    0  501  0.00000000000E+00  0.00000000000E+00 -0.10274827337E+04  0.10274827337E+04  0.25500000920E-02 0.  1.
    10030    2    1    2    0    0  0.00000000000E+00  0.00000000000E+00 -0.32477583244E+03  0.17301896351E+04  0.16994342682E+04 0.  0.
        5    1    3    3  502    0 -0.49284840827E+03  0.51618214155E+03  0.30710134684E+03  0.77696646261E+03  0.46999998093E+01 0. -1.
       -5    1    3    3    0  502  0.49284840827E+03 -0.51618214155E+03 -0.63187717929E+03  0.95322317244E+03  0.46999998093E+01 0.  1.
</event>
<event>
 5   0  0.2967704E-05  0.1699552E+04  0.7818609E-02  0.8761620E-01
        1   -1    0    0  501    0  0.00000000000E+00  0.00000000000E+00  0.13229176014E+04  0.13229176014E+04  0.50400001928E-02 0. -1.
       -1   -1    0    0    0  501  0.00000000000E+00  0.00000000000E+00 -0.54585372838E+03  0.54585372841E+03  0.50400001928E-02 0.  1.
    10030    2    1    2    0    0  0.00000000000E+00  0.00000000000E+00  0.77706387305E+03  0.18687713299E+04  0.16995523000E+04 0.  0.
        2    1    3    3  502    0  0.57995338843E+03 -0.57271368245E+03  0.65282308871E+03  0.10442819926E+04  0.25500000920E-02 0. -1.
       -2    1    3    3    0  502 -0.57995338843E+03  0.57271368245E+03  0.12424078434E+03  0.82448933729E+03  0.25500000920E-02 0.  1.
</event>
<event>
 5   0  0.2987859E-05  0.1695501E+04  0.7818609E-02  0.8763934E-01
       -1   -1    0    0    0  501  0.00000000000E+00  0.00000000000E+00  0.60369895217E+03  0.60369895219E+03  0.50400001928E-02 0. -1.
        1   -1    0    0  501    0  0.00000000000E+00  0.00000000000E+00 -0.11904624456E+04  0.11904624457E+04  0.50400001928E-02 0.  1.
    10030    2    1    2    0    0  0.00000000000E+00  0.00000000000E+00 -0.58676349347E+03  0.17941613978E+04  0.16955010245E+04 0.  0.
        5    1    3    3  502    0  0.75937603008E+03  0.20459610739E+03 -0.62825704641E+03  0.10065984942E+04  0.46999998093E+01 0.  1.
       -5    1    3    3    0  502 -0.75937603008E+03 -0.20459610739E+03  0.41493552937E+02  0.78756290362E+03  0.46999998093E+01 0. -1.
</event>
<event>
 5   0  0.2911632E-05  0.1699951E+04  0.7818609E-02  0.8761392E-01
       -1   -1    0    0    0  501  0.00000000000E+00  0.00000000000E+00  0.13522883700E+04  0.13522883700E+04  0.50400001928E-02 0.  1.
        1   -1    0    0  501    0  0.00000000000E+00  0.00000000000E+00 -0.53424852977E+03  0.53424852979E+03  0.50400001928E-02 0. -1.
    10030    2    1    2    0    0  0.00000000000E+00  0.00000000000E+00  0.81803984023E+03  0.18865368998E+04  0.16999506740E+04 0.  0.
        1    1    3    3  502    0  0.58987218814E+03 -0.56701332075E+03  0.15352253581E+03  0.83247971343E+03  0.50400001928E-02 0. -1.
       -1    1    3    3    0  502 -0.58987218814E+03  0.56701332075E+03  0.66451730442E+03  0.10540571864E+04  0.50400001928E-02 0.  1.
</event>
<event>
 5   0  0.5859822E-05  0.1685732E+04  0.7818609E-02  0.8769544E-01
       -2   -1    0    0    0  501  0.00000000000E+00  0.00000000000E+00  0.11912728541E+04  0.11912728541E+04  0.25500000920E-02 0. -1.
        2   -1    0    0  501    0  0.00000000000E+00  0.00000000000E+00 -0.59635596528E+03  0.59635596529E+03  0.25500000920E-02 0.  1.
    10030    2    1    2    0    0  0.00000000000E+00  0.00000000000E+00  0.59491688880E+03  0.17876288194E+04  0.16857315004E+04 0.  0.
        5    1    3    3  502    0 -0.76987082063E+03  0.26818326531E+03  0.52434760103E+03  0.96932236173E+03  0.46999998093E+01 0.  1.
       -5    1    3    3    0  502  0.76987082063E+03 -0.26818326531E+03  0.70569287778E+02  0.81830645765E+03  0.46999998093E+01 0. -1.
</event>
<event>
 5   0  0.2967704E-05  0.1694538E+04  0.7818609E-02  0.8764486E-01
       -1   -1    0    0    0  501  0.00000000000E+00  0.00000000000E+00  0.95965840013E+03  0.95965840015E+03  0.50400001928E-02 0.  1.
        1   -1    0    0  501    0  0.00000000000E+00  0.00000000000E+00 -0.74804179879E+03  0.74804179881E+03  0.50400001928E-02 0. -1.
    10030    2    1    2    0    0  0.00000000000E+00  0.00000000000E+00  0.21161660134E+03  0.17077001990E+04  0.16945378082E+04 0.  0.
        2    1    3    3  502    0 -0.16521492459E+03  0.17497618816E+03  0.92449272278E+03  0.95530070251E+03  0.25500000920E-02 0.  1.
       -2    1    3    3    0  502  0.16521492459E+03 -0.17497618816E+03 -0.71287612144E+03  0.75239949645E+03  0.25500000920E-02 0. -1.
</event>
<event>
 5   0  0.2993769E-05  0.1701207E+04  0.7818609E-02  0.8760676E-01
       -1   -1    0    0    0  501  0.00000000000E+00  0.00000000000E+00  0.52718959188E+03  0.52718959191E+03  0.50400001928E-02 0.  1.
        1   -1    0    0  501    0  0.00000000000E+00  0.00000000000E+00 -0.13724219029E+04  0.13724219029E+04  0.50400001928E-02 0. -1.
    10030    2    1    2    0    0  0.00000000000E+00  0.00000000000E+00 -0.84523231104E+03  0.18996114948E+04  0.17012072689E+04 0.  0.
        3    1    3    3  502    0  0.43213401067E+03 -0.30197147252E+01  0.39548076089E+03  0.58579344849E+03  0.10100000352E+00 0.  1.
       -3    1    3    3    0  502 -0.43213401067E+03  0.30197147252E+01 -0.12407130719E+04  0.13138180463E+04  0.10100000352E+00 0. -1.
</event>
<event>
 5   0  0.5671132E-05  0.1698804E+04  0.7818609E-02  0.8762047E-01
       -2   -1    0    0    0  501  0.00000000000E+00  0.00000000000E+00  0.26825631509E+03  0.26825631510E+03  0.25500000920E-02 0.  1.
        2   -1    0    0  501    0  0.00000000000E+00  0.00000000000E+00 -0.26895301347E+04  0.26895301347E+04  0.25500000920E-02 0. -1.
    10030    2    1    2    0    0  0.00000000000E+00  0.00000000000E+00 -0.24212738197E+04  0.29577864498E+04  0.16988036299E+04 0.  0.
        3    1    3    3  502    0  0.47124019875E+03  0.66435254635E+03 -0.79113737019E+03  0.11354866708E+04  0.10100000352E+00 0.  1.
       -3    1    3    3    0  502 -0.47124019875E+03 -0.66435254635E+03 -0.16301364495E+04  0.18222997791E+04  0.10100000352E+00 0. -1.
</event>
<event>
 5   0  0.5859822E-05  0.1701311E+04  0.7818609E-02  0.8760617E-01
       -2   -1    0    0    0  501  0.00000000000E+00  0.00000000000E+00  0.10947606549E+04  0.10947606549E+04  0.25500000920E-02 0.  1.
        2   -1    0    0  501    0  0.00000000000E+00  0.00000000000E+00 -0.66098007841E+03  0.66098007841E+03  0.25500000920E-02 0. -1.
    10030    2    1    2    0    0  0.00000000000E+00  0.00000000000E+00  0.43378057652E+03  0.17557407333E+04  0.17013112397E+04 0.  0.
        5    1    3    3  502    0 -0.42497400453E+03 -0.69407243191E+03 -0.38522057049E+02  0.81476713492E+03  0.46999998093E+01 0. -1.
       -5    1    3    3    0  502  0.42497400453E+03  0.69407243191E+03  0.47230263357E+03  0.94097359843E+03  0.46999998093E+01 0.  1.
</event>
<event>
 5   0  0.5821584E-05  0.1743966E+04  0.7818609E-02  0.8736679E-01
        2   -1    0    0  501    0  0.00000000000E+00  0.00000000000E+00  0.75942559403E+03  0.75942559403E+03  0.25500000920E-02 0. -1.
       -2   -1    0    0    0  501  0.00000000000E+00  0.00000000000E+00 -0.10012226152E+04  0.10012226152E+04  0.25500000920E-02 0.  1.
    10030    2    1    2    0    0  0.00000000000E+00  0.00000000000E+00 -0.24179702117E+03  0.17606482092E+04  0.17439656869E+04 0.  0.
        1    1    3    3  502    0 -0.81042154476E+02 -0.42201569879E+03 -0.88689824413E+03  0.98552198164E+03  0.50400001928E-02 0.  1.
       -1    1    3    3    0  502  0.81042154476E+02  0.42201569879E+03  0.64510122296E+03  0.77512622760E+03  0.50400001928E-02 0. -1.
</event>
<event>
 5   0  0.2966258E-05  0.1698373E+04  0.7818609E-02  0.8762293E-01
       -1   -1    0    0    0  501  0.00000000000E+00  0.00000000000E+00  0.84784493777E+03  0.84784493778E+03  0.50400001928E-02 0. -1.
        1   -1    0    0  501    0  0.00000000000E+00  0.00000000000E+00 -0.85053064897E+03  0.85053064898E+03  0.50400001928E-02 0.  1.
    10030    2    1    2    0    0  0.00000000000E+00  0.00000000000E+00 -0.26857112046E+01  0.16983755868E+04  0.16983734633E+04 0.  0.
        4    1    3    3  502    0  0.36582724999E+03 -0.56209859025E+03 -0.52223897651E+03  0.85001150785E+03  0.12699999809E+01 0.  1.
       -4    1    3    3    0  502 -0.36582724999E+03  0.56209859025E+03  0.51955326530E+03  0.84836407891E+03  0.12699999809E+01 0. -1.
</event>
<event>
 5   0  0.2987859E-05  0.1699073E+04  0.7818609E-02  0.8761893E-01
       -1   -1    0    0    0  501  0.00000000000E+00  0.00000000000E+00  0.36940149112E+03  0.36940149115E+03  0.50400001928E-02 0. -1.
        1   -1    0    0  501    0  0.00000000000E+00  0.00000000000E+00 -0.19537345782E+04  0.19537345782E+04  0.50400001928E-02 0.  1.
    10030    2    1    2    0    0  0.00000000000E+00  0.00000000000E+00 -0.15843330871E+04  0.23231360693E+04  0.16990732374E+04 0.  0.
        5    1    3    3  502    0  0.51425865032E+02 -0.13819862406E+03 -0.19360850731E+04  0.19416979630E+04  0.46999998093E+01 0.  1.
       -5    1    3    3    0  502 -0.51425865032E+02  0.13819862406E+03  0.35175198603E+03  0.38143810633E+03  0.46999998093E+01 0. -1.
</event>
<event>
 5   0  0.2911632E-05  0.1646381E+04  0.7818609E-02  0.8792550E-01
       -1   -1    0    0    0  501  0.00000000000E+00  0.00000000000E+00  0.78966340865E+03  0.78966340867E+03  0.50400001928E-02 0.  1.
        1   -1    0    0  501    0  0.00000000000E+00  0.00000000000E+00 -0.85814082353E+03  0.85814082354E+03  0.50400001928E-02 0. -1.
    10030    2    1    2    0    0  0.00000000000E+00  0.00000000000E+00 -0.68477414876E+02  0.16478042322E+04  0.16463807674E+04 0.  0.
        1    1    3    3  502    0  0.23542450969E+03  0.21047719865E+03  0.72662713217E+03  0.79228299246E+03  0.50400001928E-02 0.  1.
       -1    1    3    3    0  502 -0.23542450969E+03 -0.21047719865E+03 -0.79510454704E+03  0.85552123975E+03  0.50400001928E-02 0. -1.
</event>
<event>
 5   0  0.5652631E-05  0.1703064E+04  0.7818609E-02  0.8759619E-01
       -2   -1    0    0    0  501  0.00000000000E+00  0.00000000000E+00  0.57716282819E+03  0.57716282820E+03  0.25500000920E-02 0. -1.
        2   -1    0    0  501    0  0.00000000000E+00  0.00000000000E+00 -0.12563294203E+04  0.12563294203E+04  0.25500000920E-02 0.  1.
    10030    2    1    2    0    0  0.00000000000E+00  0.00000000000E+00 -0.67916659211E+03  0.18334922485E+04  0.17030638759E+04 0.  0.
        2    1    3    3  502    0  0.53533904987E+03  0.30182040148E+03  0.29498378946E+03  0.68168826388E+03  0.25500000920E-02 0. -1.
       -2    1    3    3    0  502 -0.53533904987E+03 -0.30182040148E+03 -0.97415038157E+03  0.11518039846E+04  0.25500000920E-02 0.  1.
</event>
<event>
 5   0  0.2911632E-05  0.1703402E+04  0.7818609E-02  0.8759426E-01
        1   -1    0    0  501    0  0.00000000000E+00  0.00000000000E+00  0.65126050078E+03  0.65126050080E+03  0.50400001928E-02 0. -1.
       -1   -1    0    0    0  501  0.00000000000E+00  0.00000000000E+00 -0.11138321440E+04  0.11138321440E+04  0.50400001928E-02 0.  1.
    10030    2    1    2    0    0  0.00000000000E+00  0.00000000000E+00 -0.46257164321E+03  0.17650926448E+04  0.17034023364E+04 0.  0.
        1    1    3    3  502    0  0.40130978493E+03  0.23661893066E+03  0.50752728793E+03  0.68892816014E+03  0.50400001928E-02 0. -1.
       -1    1    3    3    0  502 -0.40130978493E+03 -0.23661893066E+03 -0.97009893114E+03  0.10761644847E+04  0.50400001928E-02 0.  1.
</event>
<event>
 5   0  0.2098250E-05  0.1657648E+04  0.7818609E-02  0.8785895E-01
        4   -1    0    0  501    0  0.00000000000E+00  0.00000000000E+00  0.73303195219E+03  0.73303305235E+03  0.12699999809E+01 0.  1.
       -4   -1    0    0    0  501  0.00000000000E+00  0.00000000000E+00 -0.93713129567E+03  0.93713215622E+03  0.12699999809E+01 0. -1.
    10030    2    1    2    0    0  0.00000000000E+00  0.00000000000E+00 -0.20409934348E+03  0.16701652086E+04  0.16576475144E+04 0.  0.
        5    1    3    3  502    0  0.11877820961E+03 -0.47765152851E+03 -0.77391918154E+03  0.91718713212E+03  0.46999998093E+01 0. -1.
       -5    1    3    3    0  502 -0.11877820961E+03  0.47765152851E+03  0.56981983807E+03  0.75297807645E+03  0.46999998093E+01 0.  1.
</event>
<event>
 5   0  0.2966258E-05  0.1706911E+04  0.7818609E-02  0.8757432E-01
       -1   -1    0    0    0  501  0.00000000000E+00  0.00000000000E+00  0.63045593469E+03  0.63045593471E+03  0.50400001928E-02 0. -1.
        1   -1    0    0  501    0  0.00000000000E+00  0.00000000000E+00 -0.11553329716E+04  0.11553329716E+04  0.50400001928E-02 0.  1.
    10030    2    1    2    0    0  0.00000000000E+00  0.00000000000E+00 -0.52487703691E+03  0.17857889063E+04  0.17069112789E+04 0.  0.
        4    1    3    3  502    0 -0.46628151451E+03 -0.40712657972E+03  0.35226207490E+03  0.71222235643E+03  0.12699999809E+01 0. -1.
       -4    1    3    3    0  502  0.46628151451E+03  0.40712657972E+03 -0.87713911181E+03  0.10735665499E+04  0.12699999809E+01 0.  1.
</event>
<event>
 5   0  0.5671132E-05  0.1719896E+04  0.7818609E-02  0.8750098E-01
       -2   -1    0    0    0  501  0.00000000000E+00  0.00000000000E+00  0.35451878252E+03  0.35451878253E+03  0.25500000920E-02 0. -1.
        2   -1    0    0  501    0  0.00000000000E+00  0.00000000000E+00 -0.20859558921E+04  0.20859558921E+04  0.25500000920E-02 0.  1.
    10030    2    1    2    0    0  0.00000000000E+00  0.00000000000E+00 -0.17314371096E+04  0.24404746747E+04  0.17198959774E+04 0.  0.
        3    1    3    3  502    0 -0.28235764503E+03  0.81206267174E+03 -0.89184105038E+03  0.12387703951E+04  0.10100000352E+00 0.  1.
       -3    1    3    3    0  502  0.28235764503E+03 -0.81206267174E+03 -0.83959605925E+03  0.12017042795E+04  0.10100000352E+00 0. -1.
</event>
<event>
 5   0  0.5671132E-05  0.1699816E+04  0.7818609E-02  0.8761470E-01
       -2   -1    0    0    0  501  0.00000000000E+00  0.00000000000E+00  0.70707423629E+03  0.70707423629E+03  0.25500000920E-02 0. -1.
        2   -1    0    0  501    0  0.00000000000E+00  0.00000000000E+00 -0.10215945947E+04  0.10215945947E+04  0.25500000920E-02 0.  1.
    10030    2    1    2    0    0  0.00000000000E+00  0.00000000000E+00 -0.31452035836E+03  0.17286688309E+04  0.16998155404E+04 0.  0.
        3    1    3    3  502    0  0.60676346454E+03 -0.45086670221E+03 -0.55231319168E+03  0.93621181202E+03  0.10100000352E+00 0.  1.
       -3    1    3    3    0  502 -0.60676346454E+03  0.45086670221E+03  0.23779283332E+03  0.79245701892E+03  0.10100000352E+00 0. -1.
</event>
<event>
 5   0  0.2967704E-05  0.1701684E+04  0.7818609E-02  0.8760404E-01
        1   -1    0    0  501    0  0.00000000000E+00  0.00000000000E+00  0.12154074318E+04  0.12154074318E+04  0.50400001928E-02 0. -1.
       -1   -1    0    0    0  501  0.00000000000E+00  0.00000000000E+00 -0.59562937491E+03  0.59562937494E+03  0.50400001928E-02 0.  1.
    10030    2    1    2    0    0  0.00000000000E+00  0.00000000000E+00  0.61977805690E+03  0.18110368068E+04  0.17016843055E+04 0.  0.
        2    1    3    3  502    0 -0.59300661785E+02 -0.47441109835E+03  0.10589278510E+04  0.11618565541E+04  0.25500000920E-02 0. -1.
       -2    1    3    3    0  502  0.59300661785E+02  0.47441109835E+03 -0.43914979411E+03  0.64918025263E+03  0.25500000920E-02 0.  1.
</event>
<event>
 5   0  0.2987859E-05  0.1702885E+04  0.7818609E-02  0.8759720E-01
       -1   -1    0    0    0  501  0.00000000000E+00  0.00000000000E+00  0.19318159062E+04  0.19318159062E+04  0.50400001928E-02 0.  1.
        1   -1    0    0  501    0  0.00000000000E+00  0.00000000000E+00 -0.37527113891E+03  0.37527113894E+03  0.50400001928E-02 0. -1.
    10030    2    1    2    0    0  0.00000000000E+00  0.00000000000E+00  0.15565447673E+04  0.23070870451E+04  0.17028854986E+04 0.  0.
        5    1    3    3  502    0  0.83010243478E+03 -0.18459687424E+03  0.72100688269E+03  0.11149076523E+04  0.46999998093E+01 0.  1.
       -5    1    3    3    0  502 -0.83010243478E+03  0.18459687424E+03  0.83553788459E+03  0.11921793929E+04  0.46999998093E+01 0. -1.
</event>
<event>
 5   0  0.5859822E-05  0.1699746E+04  0.7818609E-02  0.8761509E-01
       -2   -1    0    0    0  501  0.00000000000E+00  0.00000000000E+00  0.27642697908E+03  0.27642697909E+03  0.25500000920E-02 0. -1.
        2   -1    0    0  501    0  0.00000000000E+00  0.00000000000E+00 -0.26129287924E+04  0.26129287924E+04  0.25500000920E-02 0.  1.
    10030    2    1    2    0    0  0.00000000000E+00  0.00000000000E+00 -0.23365018133E+04  0.28893557715E+04  0.16997458782E+04 0.  0.
        5    1    3    3  502    0 -0.15477241190E+03 -0.23805981783E+02  0.25166966640E+03  0.29644718793E+03  0.46999998093E+01 0. -1.
       -5    1    3    3    0  502  0.15477241190E+03  0.23805981783E+02 -0.25881714797E+04  0.25929085835E+04  0.46999998093E+01 0.  1.
</event>
<event>
 5   0  0.5821584E-05  0.1698754E+04  0.7818609E-02  0.8762075E-01
        2   -1    0    0  501    0  0.00000000000E+00  0.00000000000E+00  0.16308890560E+04  0.16308890560E+04  0.25500000920E-02 0.  1.
       -2   -1    0    0    0  501  0.00000000000E+00  0.00000000000E+00 -0.44236065644E+03  0.44236065645E+03  0.25500000920E-02 0. -1.
    10030    2    1    2    0    0  0.00000000000E+00  0.00000000000E+00  0.11885283995E+04  0.20732497124E+04  0.16987538414E+04 0.  0.
        1    1    3    3  502    0 -0.77059370654E+03  0.25317103925E+03  0.28664479578E+03  0.86027639433E+03  0.50400001928E-02 0. -1.
       -1    1    3    3    0  502  0.77059370654E+03 -0.25317103925E+03  0.90188360375E+03  0.12129733181E+04  0.50400001928E-02 0.  1.
</event>
<event>
 5   0  0.2098250E-05  0.1699327E+04  0.7818609E-02  0.8761748E-01
       -3   -1    0    0    0  501  0.00000000000E+00  0.00000000000E+00  0.86254023973E+03  0.86254024565E+03  0.10100000352E+00 0. -1.
        3   -1    0    0  501    0  0.00000000000E+00  0.00000000000E+00 -0.83697884211E+03  0.83697884820E+03  0.10100000352E+00 0.  1.
    10030    2    1    2    0    0  0.00000000000E+00  0.00000000000E+00  0.25561397626E+02  0.16995190938E+04  0.16993268565E+04 0.  0.
        4    1    3    3  502    0 -0.77138068691E+03 -0.11807711519E+02 -0.34329151742E+03  0.84440408870E+03  0.12699999809E+01 0.  1.
       -4    1    3    3    0  502  0.77138068691E+03  0.11807711519E+02  0.36885291505E+03  0.85511500514E+03  0.12699999809E+01 0. -1.
</event>
<event>
 5   0  0.2966258E-05  0.1698794E+04  0.7818609E-02  0.8762053E-01
        1   -1    0    0  501    0  0.00000000000E+00  0.00000000000E+00  0.12925093024E+04  0.12925093024E+04  0.50400001928E-02 0.  1.
       -1   -1    0    0    0  501  0.00000000000E+00  0.00000000000E+00 -0.55819724309E+03  0.55819724311E+03  0.50400001928E-02 0. -1.
    10030    2    1    2    0    0  0.00000000000E+00  0.00000000000E+00  0.73431205930E+03  0.18507065455E+04  0.16987938419E+04 0.  0.
        4    1    3    3  502    0 -0.83797618656E+03  0.12869644468E+03  0.31047821249E+03  0.90286499403E+03  0.12699999809E+01 0. -1.
       -4    1    3    3    0  502  0.83797618656E+03 -0.12869644468E+03  0.42383384681E+03  0.94784155148E+03  0.12699999809E+01 0.  1.
</event>
<event>
 5   0  0.5755321E-05  0.1700813E+04  0.7818609E-02  0.8760901E-01
       -2   -1    0    0    0  501  0.00000000000E+00  0.00000000000E+00  0.79263701112E+03  0.79263701112E+03  0.25500000920E-02 0.  1.
        2   -1    0    0  501    0  0.00000000000E+00  0.00000000000E+00 -0.91238644515E+03  0.91238644516E+03  0.25500000920E-02 0. -1.
    10030    2    1    2    0    0  0.00000000000E+00  0.00000000000E+00 -0.11974943403E+03  0.17050234563E+04  0.17008130584E+04 0.  0.
        4    1    3    3  502    0 -0.68604253734E+03  0.12103926154E+03 -0.54881645314E+03  0.88685172268E+03  0.12699999809E+01 0. -1.
       -4    1    3    3    0  502  0.68604253734E+03 -0.12103926154E+03  0.42906701911E+03  0.81817173360E+03  0.12699999809E+01 0.  1.
</event>
<event>
 5   0  0.5671132E-05  0.1700786E+04  0.7818609E-02  0.8760916E-01
        2   -1    0    0  501    0  0.00000000000E+00  0.00000000000E+00  0.76826039764E+03  0.76826039764E+03  0.25500000920E-02 0. -1.
       -2   -1    0    0    0  501  0.00000000000E+00  0.00000000000E+00 -0.94130660114E+03  0.94130660114E+03  0.25500000920E-02 0.  1.
    10030    2    1    2    0    0  0.00000000000E+00  0.00000000000E+00 -0.17304620350E+03  0.17095669988E+04  0.17007863872E+04 0.  0.
        3    1    3    3  502    0 -0.32255878495E+03 -0.38387342491E+03 -0.77692104406E+03  0.92466712660E+03  0.10100000352E+00 0.  1.
       -3    1    3    3    0  502  0.32255878495E+03  0.38387342491E+03  0.60387484056E+03  0.78489987219E+03  0.10100000352E+00 0. -1.
</event>
<event>
 5   0  0.5859822E-05  0.1702801E+04  0.7818609E-02  0.8759769E-01
       -2   -1    0    0    0  501  0.00000000000E+00  0.00000000000E+00  0.47733359230E+03  0.47733359231E+03  0.25500000920E-02 0. -1.
        2   -1    0    0  501    0  0.00000000000E+00  0.00000000000E+00 -0.15186079411E+04  0.15186079411E+04  0.25500000920E-02 0.  1.
    10030    2    1    2    0    0  0.00000000000E+00  0.00000000000E+00 -0.10412743488E+04  0.19959415334E+04  0.17028007327E+04 0.  0.
        5    1    3    3  502    0  0.87743176055E+02 -0.31504263049E+03  0.40075924042E+03  0.51728211137E+03  0.46999998093E+01 0. -1.
       -5    1    3    3    0  502 -0.87743176055E+02  0.31504263049E+03 -0.14420335892E+04  0.14786594221E+04  0.46999998093E+01 0.  1.
</event>
<event>
 5   0  0.5859822E-05  0.1699109E+04  0.7818609E-02  0.8761873E-01
       -2   -1    0    0    0  501  0.00000000000E+00  0.00000000000E+00  0.85319124473E+03  0.85319124473E+03  0.25500000920E-02 0.  1.
        2   -1    0    0  501    0  0.00000000000E+00  0.00000000000E+00 -0.84593347240E+03  0.84593347240E+03  0.25500000920E-02 0. -1.
    10030    2    1    2    0    0  0.00000000000E+00  0.00000000000E+00  0.72577723318E+01  0.16991247171E+04  0.16991092164E+04 0.  0.
        5    1    3    3  502    0 -0.47685280625E+01 -0.83002953482E+03  0.18459786771E+03  0.85033536343E+03  0.46999998093E+01 0. -1.
       -5    1    3    3    0  502  0.47685280625E+01  0.83002953482E+03 -0.17734009538E+03  0.84878935370E+03  0.46999998093E+01 0.  1.
</event>
<event>
 5   0  0.5859822E-05  0.1699602E+04  0.7818609E-02  0.8761592E-01
       -2   -1    0    0    0  501  0.00000000000E+00  0.00000000000E+00  0.55650353254E+03  0.55650353255E+03  0.25500000920E-02 0.  1.
        2   -1    0    0  501    0  0.00000000000E+00  0.00000000000E+00 -0.12976764245E+04  0.12976764245E+04  0.25500000920E-02 0. -1.
    10030    2    1    2    0    0  0.00000000000E+00  0.00000000000E+00 -0.74117289193E+03  0.18541799570E+04  0.16996017349E+04 0.  0.
        5    1    3    3  502    0  0.82244573793E+03 -0.16844709988E+03 -0.22689546447E+03  0.86965226331E+03  0.46999998093E+01 0.  1.
       -5    1    3    3    0  502 -0.82244573793E+03  0.16844709988E+03 -0.51427742746E+03  0.98452769371E+03  0.46999998093E+01 0. -1.
</event>
<event>
 5   0  0.2987859E-05  0.1700309E+04  0.7818609E-02  0.8761188E-01
       -1   -1    0    0    0  501  0.00000000000E+00  0.00000000000E+00  0.58936231420E+03  0.58936231423E+03  0.50400001928E-02 0. -1.
        1   -1    0    0  501    0  0.00000000000E+00  0.00000000000E+00 -0.12263462766E+04  0.12263462766E+04  0.50400001928E-02 0.  1.
    10030    2    1    2    0    0  0.00000000000E+00  0.00000000000E+00 -0.63698396240E+03  0.18157085908E+04  0.17003085363E+04 0.  0.
        5    1    3    3  502    0  0.28122751468E+03  0.18263051559E+03 -0.11527284328E+04  0.12005197833E+04  0.46999998093E+01 0.  1.
       -5    1    3    3    0  502 -0.28122751468E+03 -0.18263051559E+03  0.51574447039E+03  0.61518880758E+03  0.46999998093E+01 0. -1.
</event>
<event>
 5   0  0.5821584E-05  0.1720780E+04  0.7818609E-02  0.8749601E-01
       -2   -1    0    0    0  501  0.00000000000E+00  0.00000000000E+00  0.63071057174E+03  0.63071057174E+03  0.25500000920E-02 0. -1.
        2   -1    0    0  501    0  0.00000000000E+00  0.00000000000E+00 -0.11737092738E+04  0.11737092738E+04  0.25500000920E-02 0.  1.
    10030    2    1    2    0    0  0.00000000000E+00  0.00000000000E+00 -0.54299870202E+03  0.18044198455E+04  0.17207798780E+04 0.  0.
        1    1    3    3  502    0  0.50613363259E+03 -0.16471428960E+03 -0.98035131764E+03  0.11155226386E+04  0.50400001928E-02 0.  1.
       -1    1    3    3    0  502 -0.50613363259E+03  0.16471428960E+03  0.43735261562E+03  0.68889720688E+03  0.50400001928E-02 0. -1.
</event>
<event>
 5   0  0.2967704E-05  0.1698762E+04  0.7818609E-02  0.8762071E-01
       -1   -1    0    0    0  501  0.00000000000E+00  0.00000000000E+00  0.86856920596E+03  0.86856920597E+03  0.50400001928E-02 0. -1.
        1   -1    0    0  501    0  0.00000000000E+00  0.00000000000E+00 -0.83061627972E+03  0.83061627973E+03  0.50400001928E-02 0.  1.
    10030    2    1    2    0    0  0.00000000000E+00  0.00000000000E+00  0.37952926241E+02  0.16991854857E+04  0.16987615754E+04 0.  0.
        2    1    3    3  502    0  0.58987714566E+03  0.56978861773E+03  0.24001487985E+03  0.85452984642E+03  0.25500000920E-02 0. -1.
       -2    1    3    3    0  502 -0.58987714566E+03 -0.56978861773E+03 -0.20206195360E+03  0.84465563928E+03  0.25500000920E-02 0.  1.
</event>
<event>
 5   0  0.2967704E-05  0.1697525E+04  0.7818609E-02  0.8762777E-01
       -1   -1    0    0    0  501  0.00000000000E+00  0.00000000000E+00  0.79780789067E+03  0.79780789069E+03  0.50400001928E-02 0. -1.
        1   -1    0    0  501    0  0.00000000000E+00  0.00000000000E+00 -0.90297099560E+03  0.90297099562E+03  0.50400001928E-02 0.  1.
    10030    2    1    2    0    0  0.00000000000E+00  0.00000000000E+00 -0.10516310493E+03  0.17007788863E+04  0.16975245334E+04 0.  0.
        2    1    3    3  502    0 -0.20658384205E+03 -0.31674484146E+03  0.70873913528E+03  0.80331521850E+03  0.25500000920E-02 0. -1.
       -2    1    3    3    0  502  0.20658384205E+03  0.31674484146E+03 -0.81390224021E+03  0.89746366780E+03  0.25500000920E-02 0.  1.
</event>
<event>
 5   0  0.2993769E-05  0.1701375E+04  0.7818609E-02  0.8760581E-01
        1   -1    0    0  501    0  0.00000000000E+00  0.00000000000E+00  0.99678850521E+03  0.99678850522E+03  0.50400001928E-02 0.  1.
       -1   -1    0    0    0  501  0.00000000000E+00  0.00000000000E+00 -0.72600072040E+03  0.72600072042E+03  0.50400001928E-02 0. -1.
    10030    2    1    2    0    0  0.00000000000E+00  0.00000000000E+00  0.27078778481E+03  0.17227892256E+04  0.17013749415E+04 0.  0.
        3    1    3    3  502    0  0.16466929470E+03 -0.53515518961E+03  0.78389374808E+03  0.96332573519E+03  0.10100000352E+00 0.  1.
       -3    1    3    3    0  502 -0.16466929470E+03  0.53515518961E+03 -0.51310596328E+03  0.75946349046E+03  0.10100000352E+00 0. -1.
</event>
<event>
 5   0  0.5821584E-05  0.1699703E+04  0.7818609E-02  0.8761534E-01
        2   -1    0    0  501    0  0.00000000000E+00  0.00000000000E+00  0.13708332282E+04  0.13708332282E+04  0.25500000920E-02 0.  1.
       -2   -1    0    0    0  501  0.00000000000E+00  0.00000000000E+00 -0.52686743684E+03  0.52686743684E+03  0.25500000920E-02 0. -1.
    10030    2    1    2    0    0  0.00000000000E+00  0.00000000000E+00  0.84396579138E+03  0.18977006651E+04  0.16997027849E+04 0.  0.
        1    1    3    3  502    0 -0.52800574381E+03 -0.47942249774E+03  0.93800336486E+03  0.11783404896E+04  0.50400001928E-02 0.  1.
       -1    1    3    3    0  502  0.52800574381E+03  0.47942249774E+03 -0.94037573483E+02  0.71936017549E+03  0.50400001928E-02 0. -1.
</event>
<event>
 5   0  0.2966258E-05  0.1704328E+04  0.7818609E-02  0.8758900E-01
       -1   -1    0    0    0  501  0.00000000000E+00  0.00000000000E+00  0.56981076478E+03  0.56981076480E+03  0.50400001928E-02 0. -1.
        1   -1    0    0  501    0  0.00000000000E+00  0.00000000000E+00 -0.12744286959E+04  0.12744286960E+04  0.50400001928E-02 0.  1.
    10030    2    1    2    0    0  0.00000000000E+00  0.00000000000E+00 -0.70461793117E+03  0.18442394608E+04  0.17043276562E+04 0.  0.
        4    1    3    3  502    0  0.59655375021E+03  0.47285128259E+03  0.62171662829E+02  0.76376150786E+03  0.12699999809E+01 0.  1.
       -4    1    3    3    0  502 -0.59655375021E+03 -0.47285128259E+03 -0.76678959400E+03  0.10804779529E+04  0.12699999809E+01 0. -1.
</event>
<event>
 5   0  0.2966258E-05  0.1697462E+04  0.7818609E-02  0.8762813E-01
       -1   -1    0    0    0  501  0.00000000000E+00  0.00000000000E+00  0.61875694746E+03  0.61875694748E+03  0.50400001928E-02 0.  1.
        1   -1    0    0  501    0  0.00000000000E+00  0.00000000000E+00 -0.11641799249E+04  0.11641799249E+04  0.50400001928E-02 0. -1.
    10030    2    1    2    0    0  0.00000000000E+00  0.00000000000E+00 -0.54542297742E+03  0.17829368724E+04  0.16974621252E+04 0.  0.
        4    1    3    3  502    0 -0.51157250516E+02  0.25340577742E+03 -0.11218184636E+04  0.11512210172E+04  0.12699999809E+01 0. -1.
       -4    1    3    3    0  502  0.51157250516E+02 -0.25340577742E+03  0.57639548617E+03  0.63171585518E+03  0.12699999809E+01 0.  1.
</event>
<event>
 5   0  0.2987859E-05  0.1698457E+04  0.7818609E-02  0.8762245E-01
        1   -1    0    0  501    0  0.00000000000E+00  0.00000000000E+00  0.42126304980E+03  0.42126304983E+03  0.50400001928E-02 0. -1.
       -1   -1    0    0    0  501  0.00000000000E+00  0.00000000000E+00 -0.17119678886E+04  0.17119678886E+04  0.50400001928E-02 0.  1.
    10030    2    1    2    0    0  0.00000000000E+00  0.00000000000E+00 -0.12907048388E+04  0.21332309384E+04  0.16984567277E+04 0.  0.
        5    1    3    3  502    0 -0.73804176893E+03 -0.36161360794E+03 -0.37686393532E+03  0.90416733511E+03  0.46999998093E+01 0. -1.
       -5    1    3    3    0  502  0.73804176893E+03  0.36161360794E+03 -0.91384090344E+03  0.12290636033E+04  0.46999998093E+01 0.  1.
</event>
<event>
 5   0  0.5652631E-05  0.1699442E+04  0.7818609E-02  0.8761683E-01
        2   -1    0    0  501    0  0.00000000000E+00  0.00000000000E+00  0.15944849853E+04  0.15944849853E+04  0.25500000920E-02 0. -1.
       -2   -1    0    0    0  501  0.00000000000E+00  0.00000000000E+00 -0.45282684108E+03  0.45282684109E+03  0.25500000920E-02 0.  1.
    10030    2    1    2    0    0  0.00000000000E+00  0.00000000000E+00  0.11416581442E+04  0.20473118264E+04  0.16994417896E+04 0.  0.
        2    1    3    3  502    0  0.38731175629E+03 -0.45405475048E+03 -0.15783763394E+03  0.61732392768E+03  0.25500000920E-02 0.  1.
       -2    1    3    3    0  502 -0.38731175629E+03  0.45405475048E+03  0.12994957781E+04  0.14299878987E+04  0.25500000920E-02 0. -1.
</event>
<event>
 5   0  0.5755321E-05  0.1700906E+04  0.7818609E-02  0.8760848E-01
        2   -1    0    0  501    0  0.00000000000E+00  0.00000000000E+00  0.16080983878E+04  0.16080983878E+04  0.25500000920E-02 0. -1.
       -2   -1    0    0    0  501  0.00000000000E+00  0.00000000000E+00 -0.44976746049E+03  0.44976746050E+03  0.25500000920E-02 0.  1.
    10030    2    1    2    0    0  0.00000000000E+00  0.00000000000E+00  0.11583309273E+04  0.20578658483E+04  0.17009060269E+04 0.  0.
        4    1    3    3  502    0 -0.76390569540E+03  0.24851023131E+03  0.24135649546E+03  0.83878711085E+03  0.12699999809E+01 0.  1.
       -4    1    3    3    0  502  0.76390569540E+03 -0.24851023131E+03  0.91697443181E+03  0.12190787374E+04  0.12699999809E+01 0. -1.
</event>
<event>
 5   0  0.5859822E-05  0.1700773E+04  0.7818609E-02  0.8760924E-01
        2   -1    0    0  501    0  0.00000000000E+00  0.00000000000E+00  0.50841192871E+03  0.50841192871E+03  0.25500000920E-02 0. -1.
       -2   -1    0    0    0  501  0.00000000000E+00  0.00000000000E+00 -0.14223837952E+04  0.14223837952E+04  0.25500000920E-02 0.  1.
    10030    2    1    2    0    0  0.00000000000E+00  0.00000000000E+00 -0.91397186651E+03  0.19307957239E+04  0.17007726347E+04 0.  0.
        5    1    3    3  502    0  0.11781049038E+03 -0.78019612436E+03 -0.97004572040E+02  0.79499514533E+03  0.46999998093E+01 0. -1.
       -5    1    3    3    0  502 -0.11781049038E+03  0.78019612436E+03 -0.81696729447E+03  0.11358005786E+04  0.46999998093E+01 0.  1.
</event>
<event>
 5   0  0.5671132E-05  0.1699429E+04  0.7818609E-02  0.8761690E-01
       -2   -1    0    0    0  501  0.00000000000E+00  0.00000000000E+00  0.64658269749E+03  0.64658269750E+03  0.25500000920E-02 0.  1.
        2   -1    0    0  501    0  0.00000000000E+00  0.00000000000E+00 -0.11166629656E+04  0.11166629656E+04  0.25500000920E-02 0. -1.
    10030    2    1    2    0    0  0.00000000000E+00  0.00000000000E+00 -0.47008026811E+03  0.17632456631E+04  0.16994292601E+04 0.  0.
        3    1    3    3  502    0 -0.37674289768E+03 -0.61044463300E+03  0.23751548268E+03  0.75563977901E+03  0.10100000352E+00 0.  1.
       -3    1    3    3    0  502  0.37674289768E+03  0.61044463300E+03 -0.70759575079E+03  0.10076058841E+04  0.10100000352E+00 0. -1.
</event>
<event>
 5   0  0.5859822E-05  0.1699723E+04  0.7818609E-02  0.8761523E-01
        2   -1    0    0  501    0  0.00000000000E+00  0.00000000000E+00  0.91208748266E+03  0.91208748266E+03  0.25500000920E-02 0.  1.
       -2   -1    0    0    0  501  0.00000000000E+00  0.00000000000E+00 -0.79188041890E+03  0.79188041890E+03  0.25500000920E-02 0. -1.
    10030    2    1    2    0    0  0.00000000000E+00  0.00000000000E+00  0.12020706376E+03  0.17039679016E+04  0.16997225866E+04 0.  0.
        5    1    3    3  502    0  0.70862034949E+03  0.45865585442E+02  0.52816975653E+03  0.88500386064E+03  0.46999998093E+01 0.  1.
       -5    1    3    3    0  502 -0.70862034949E+03 -0.45865585442E+02 -0.40796269277E+03  0.81896404092E+03  0.46999998093E+01 0. -1.
</event>
<event>
 5   0  0.5652631E-05  0.1700359E+04  0.7818609E-02  0.8761160E-01
       -2   -1    0    0    0  501  0.00000000000E+00  0.00000000000E+00  0.51227162769E+03  0.51227162770E+03  0.25500000920E-02 0.  1.
        2   -1    0    0  501    0  0.00000000000E+00  0.00000000000E+00 -0.14109799906E+04  0.14109799906E+04  0.25500000920E-02 0. -1.
    10030    2    1    2    0    0  0.00000000000E+00  0.00000000000E+00 -0.89870836291E+03  0.19232516183E+04  0.17003588050E+04 0.  0.
        2    1    3    3  502    0 -0.36425500514E+03 -0.62220576962E+03  0.60241423021E+02  0.72349896861E+03  0.25500000920E-02 0.  1.
       -2    1    3    3    0  502  0.36425500514E+03  0.62220576962E+03 -0.95894978593E+03  0.11997526497E+04  0.25500000920E-02 0. -1.
</event>
<event>
 5   0  0.2911632E-05  0.1696168E+04  0.7818609E-02  0.8763553E-01
        1   -1    0    0  501    0  0.00000000000E+00  0.00000000000E+00  0.65241443256E+03  0.65241443258E+03  0.50400001928E-02 0.  1.
       -1   -1    0    0    0  501  0.00000000000E+00  0.00000000000E+00 -0.11024379001E+04  0.11024379002E+04  0.50400001928E-02 0. -1.
    10030    2    1    2    0    0  0.00000000000E+00  0.00000000000E+00 -0.45002346758E+03  0.17548523327E+04  0.16961679128E+04 0.  0.
        1    1    3    3  502    0 -0.43840389199E+03 -0.71971510507E+03 -0.12654215373E+03  0.85217411464E+03  0.50400001928E-02 0.  1.
       -1    1    3    3    0  502  0.43840389199E+03  0.71971510507E+03 -0.32348131385E+03  0.90267821809E+03  0.50400001928E-02 0. -1.
</event>
<event>
 5   0  0.2966258E-05  0.1699095E+04  0.7818609E-02  0.8761881E-01
        1   -1    0    0  501    0  0.00000000000E+00  0.00000000000E+00  0.35042274454E+03  0.35042274458E+03  0.50400001928E-02 0. -1.
       -1   -1    0    0    0  501  0.00000000000E+00  0.00000000000E+00 -0.20596013329E+04  0.20596013329E+04  0.50400001928E-02 0.  1.
    10030    2    1    2    0    0  0.00000000000E+00  0.00000000000E+00 -0.17091785883E+04  0.24100240775E+04  0.16990952319E+04 0.  0.
        4    1    3    3  502    0  0.16754883485E+03  0.47773750978E+03 -0.18222608011E+04  0.18912804606E+04  0.12699999809E+01 0.  1.
       -4    1    3    3    0  502 -0.16754883485E+03 -0.47773750978E+03  0.11308221280E+03  0.51874361688E+03  0.12699999809E+01 0. -1.
</event>
<event>
 5   0  0.5755321E-05  0.1700414E+04  0.7818609E-02  0.8761128E-01
        2   -1    0    0  501    0  0.00000000000E+00  0.00000000000E+00  0.11684478241E+04  0.11684478241E+04  0.25500000920E-02 0. -1.
       -2   -1    0    0    0  501  0.00000000000E+00  0.00000000000E+00 -0.61864267476E+03  0.61864267477E+03  0.25500000920E-02 0.  1.
    10030    2    1    2    0    0  0.00000000000E+00  0.00000000000E+00  0.54980514929E+03  0.17870904988E+04  0.17004136993E+04 0.  0.
        4    1    3    3  502    0  0.53412102652E+03 -0.15431526452E+03  0.95092607760E+03  0.11015264363E+04  0.12699999809E+01 0. -1.
       -4    1    3    3    0  502 -0.53412102652E+03  0.15431526452E+03 -0.40112092831E+03  0.68556406255E+03  0.12699999809E+01 0.  1.
</event>
<event>
 5   0  0.5755321E-05  0.1712249E+04  0.7818609E-02  0.8754409E-01
       -2   -1    0    0    0  501  0.00000000000E+00  0.00000000000E+00  0.58820021663E+03  0.58820021663E+03  0.25500000920E-02 0. -1.
        2   -1    0    0  501    0  0.00000000000E+00  0.00000000000E+00 -0.12460882332E+04  0.12460882332E+04  0.25500000920E-02 0.  1.
    10030    2    1    2    0    0  0.00000000000E+00  0.00000000000E+00 -0.65788801659E+03  0.18342884499E+04  0.17122492444E+04 0.  0.
        4    1    3    3  502    0 -0.48188860153E+03  0.54913398803E+03 -0.80705285202E+03  0.10886232957E+04  0.12699999809E+01 0.  1.
       -4    1    3    3    0  502  0.48188860153E+03 -0.54913398803E+03  0.14916483543E+03  0.74566515415E+03  0.12699999809E+01 0. -1.
</event>
<event>
 5   0  0.2967704E-05  0.1700872E+04  0.7818609E-02  0.8760867E-01
        1   -1    0    0  501    0  0.00000000000E+00  0.00000000000E+00  0.67890165722E+03  0.67890165724E+03  0.50400001928E-02 0.  1.
       -1   -1    0    0    0  501  0.00000000000E+00  0.00000000000E+00 -0.10653110621E+04  0.10653110621E+04  0.50400001928E-02 0. -1.
    10030    2    1    2    0    0  0.00000000000E+00  0.00000000000E+00 -0.38640940486E+03  0.17442127193E+04  0.17008720652E+04 0.  0.
        2    1    3    3  502    0 -0.47028231870E+02  0.22832074731E+03 -0.10319077340E+04  0.10579109554E+04  0.25500000920E-02 0. -1.
       -2    1    3    3    0  502  0.47028231870E+02 -0.22832074731E+03  0.64549832909E+03  0.68630176389E+03  0.25500000920E-02 0.  1.
</event>
<event>
 5   0  0.2967704E-05  0.1700446E+04  0.7818609E-02  0.8761110E-01
        1   -1    0    0  501    0  0.00000000000E+00  0.00000000000E+00  0.11163388112E+04  0.11163388112E+04  0.50400001928E-02 0. -1.
       -1   -1    0    0    0  501  0.00000000000E+00  0.00000000000E+00 -0.64754421656E+03  0.64754421658E+03  0.50400001928E-02 0.  1.
    10030    2    1    2    0    0  0.00000000000E+00  0.00000000000E+00  0.46879459463E+03  0.17638830278E+04  0.17004455192E+04 0.  0.
        2    1    3    3  502    0 -0.21880008696E+03  0.38505056545E+03 -0.51844802315E+03  0.68185465367E+03  0.25500000920E-02 0.  1.
       -2    1    3    3    0  502  0.21880008696E+03 -0.38505056545E+03  0.98724261778E+03  0.10820283741E+04  0.25500000920E-02 0. -1.
</event>
<event>
 5   0  0.5652631E-05  0.1698424E+04  0.7818609E-02  0.8762264E-01
        2   -1    0    0  501    0  0.00000000000E+00  0.00000000000E+00  0.11294099591E+04  0.11294099591E+04  0.25500000920E-02 0.  1.
       -2   -1    0    0    0  501  0.00000000000E+00  0.00000000000E+00 -0.63852868769E+03  0.63852868769E+03  0.25500000920E-02 0. -1.
    10030    2    1    2    0    0  0.00000000000E+00  0.00000000000E+00  0.49088127140E+03  0.17679386468E+04  0.16984235738E+04 0.  0.
        2    1    3    3  502    0 -0.21041383104E+03  0.76464402881E+03  0.56152369062E+03  0.97173212679E+03  0.25500000920E-02 0.  1.
       -2    1    3    3    0  502  0.21041383104E+03 -0.76464402881E+03 -0.70642419221E+02  0.79620652000E+03  0.25500000920E-02 0. -1.
</event>
<event>
 5   0  0.5671132E-05  0.1699608E+04  0.7818609E-02  0.8761588E-01
        2   -1    0    0  501    0  0.00000000000E+00  0.00000000000E+00  0.12759258611E+04  0.12759258611E+04  0.25500000920E-02 0. -1.
       -2   -1    0    0    0  501  0.00000000000E+00  0.00000000000E+00 -0.56599465789E+03  0.56599465789E+03  0.25500000920E-02 0.  1.
    10030    2    1    2    0    0  0.00000000000E+00  0.00000000000E+00  0.70993120320E+03  0.18419205190E+04  0.16996084505E+04 0.  0.
        3    1    3    3  502    0 -0.49488124120E+03 -0.60046323245E+03  0.72518934660E+03  0.10636555528E+04  0.10100000352E+00 0.  1.
       -3    1    3    3    0  502  0.49488124120E+03  0.60046323245E+03 -0.15258143395E+02  0.77826496617E+03  0.10100000352E+00 0. -1.
</event>
<event>
 5   0  0.5652631E-05  0.1697982E+04  0.7818609E-02  0.8762516E-01
       -2   -1    0    0    0  501  0.00000000000E+00  0.00000000000E+00  0.49472914762E+03  0.49472914763E+03  0.25500000920E-02 0.  1.
        2   -1    0    0  501    0  0.00000000000E+00  0.00000000000E+00 -0.14569300786E+04  0.14569300786E+04  0.25500000920E-02 0. -1.
    10030    2    1    2    0    0  0.00000000000E+00  0.00000000000E+00 -0.96220093097E+03  0.19516592262E+04  0.16979820681E+04 0.  0.
        2    1    3    3  502    0 -0.77084215935E+03 -0.11938655771E+03 -0.95863088461E+02  0.78590108571E+03  0.25500000920E-02 0.  1.
       -2    1    3    3    0  502  0.77084215935E+03  0.11938655771E+03 -0.86633784251E+03  0.11657581405E+04  0.25500000920E-02 0. -1.
</event>
<event>
 5   0  0.5821584E-05  0.1698175E+04  0.7818609E-02  0.8762406E-01
       -2   -1    0    0    0  501  0.00000000000E+00  0.00000000000E+00  0.57584184349E+03  0.57584184349E+03  0.25500000920E-02 0.  1.
        2   -1    0    0  501    0  0.00000000000E+00  0.00000000000E+00 -0.12519920501E+04  0.12519920501E+04  0.25500000920E-02 0. -1.
    10030    2    1    2    0    0  0.00000000000E+00  0.00000000000E+00 -0.67615020662E+03  0.18278338936E+04  0.16981747969E+04 0.  0.
        1    1    3    3  502    0  0.17717906721E+03  0.66154311548E+03 -0.87831129070E+03  0.11137604944E+04  0.50400001928E-02 0. -1.
       -1    1    3    3    0  502 -0.17717906721E+03 -0.66154311548E+03  0.20216108408E+03  0.71407339919E+03  0.50400001928E-02 0.  1.
</event>
<event>
 5   0  0.2987859E-05  0.1698483E+04  0.7818609E-02  0.8762230E-01
        1   -1    0    0  501    0  0.00000000000E+00  0.00000000000E+00  0.13607872998E+04  0.13607872998E+04  0.50400001928E-02 0.  1.
       -1   -1    0    0    0  501  0.00000000000E+00  0.00000000000E+00 -0.52999523639E+03  0.52999523642E+03  0.50400001928E-02 0. -1.
    10030    2    1    2    0    0  0.00000000000E+00  0.00000000000E+00  0.83079206341E+03  0.18907825362E+04  0.16984826012E+04 0.  0.
        5    1    3    3  502    0 -0.48379601468E+03  0.56768551973E+02  0.11897894115E+04  0.12856524360E+04  0.46999998093E+01 0.  1.
       -5    1    3    3    0  502  0.48379601468E+03 -0.56768551973E+02 -0.35899734811E+03  0.60513010028E+03  0.46999998093E+01 0. -1.
</event>
<event>
 5   0  0.5859822E-05  0.1721591E+04  0.7818609E-02  0.8749145E-01
        2   -1    0    0  501    0  0.00000000000E+00  0.00000000000E+00  0.10066472532E+04  0.10066472532E+04  0.25500000920E-02 0. -1.
       -2   -1    0    0    0  501  0.00000000000E+00  0.00000000000E+00 -0.73607567895E+03  0.73607567895E+03  0.25500000920E-02 0.  1.
    10030    2    1    2    0    0  0.00000000000E+00  0.00000000000E+00  0.27057157425E+03  0.17427229322E+04  0.17215906138E+04 0.  0.
        5    1    3    3  502    0 -0.14297357214E+03 -0.83731971165E+03  0.27628201016E+03  0.89325224936E+03  0.46999998093E+01 0. -1.
       -5    1    3    3    0  502  0.14297357214E+03  0.83731971165E+03 -0.57104359114E+01  0.84947068279E+03  0.46999998093E+01 0.  1.
</event>
<event>
 5   0  0.5755321E-05  0.1703778E+04  0.7818609E-02  0.8759213E-01
       -2   -1    0    0    0  501  0.00000000000E+00  0.00000000000E+00  0.79482198290E+03  0.79482198290E+03  0.25500000920E-02 0.  1.
        2   -1    0    0  501    0  0.00000000000E+00  0.00000000000E+00 -0.91305293853E+03  0.91305293853E+03  0.25500000920E-02 0. -1.
    10030    2    1    2    0    0  0.00000000000E+00  0.00000000000E+00 -0.11823095562E+03  0.17078749214E+04  0.17037776229E+04 0.  0.
        4    1    3    3  502    0  0.43944535614E+03 -0.50835536434E+03 -0.58399242948E+03  0.89027308624E+03  0.12699999809E+01 0. -1.
       -4    1    3    3    0  502 -0.43944535614E+03  0.50835536434E+03  0.46576147386E+03  0.81760183520E+03  0.12699999809E+01 0.  1.
</event>
<event>
 5   0  0.5652631E-05  0.1680936E+04  0.7818609E-02  0.8772313E-01
       -2   -1    0    0    0  501  0.00000000000E+00  0.00000000000E+00  0.45690470462E+03  0.45690470462E+03  0.25500000920E-02 0. -1.
        2   -1    0    0  501    0  0.00000000000E+00  0.00000000000E+00 -0.15460258856E+04  0.15460258856E+04  0.25500000920E-02 0.  1.
    10030    2    1    2    0    0  0.00000000000E+00  0.00000000000E+00 -0.10891211810E+04  0.20029305903E+04  0.16809360495E+04 0.  0.
        2    1    3    3  502    0 -0.36127068937E+01  0.74318528455E+02  0.45297249898E+03  0.45904289577E+03  0.25500000920E-02 0. -1.
       -2    1    3    3    0  502  0.36127068937E+01 -0.74318528455E+02 -0.15420936800E+04  0.15438876945E+04  0.25500000920E-02 0.  1.
</event>
<event>
 5   0  0.2987859E-05  0.1700204E+04  0.7818609E-02  0.8761248E-01
       -1   -1    0    0    0  501  0.00000000000E+00  0.00000000000E+00  0.11982673894E+04  0.11982673894E+04  0.50400001928E-02 0. -1.
        1   -1    0    0  501    0  0.00000000000E+00  0.00000000000E+00 -0.60309844357E+03  0.60309844360E+03  0.50400001928E-02 0.  1.
    10030    2    1    2    0    0  0.00000000000E+00  0.00000000000E+00  0.59516894583E+03  0.18013658330E+04  0.17002037496E+04 0.  0.
        5    1    3    3  502    0 -0.39091927824E+03  0.57187984235E+02  0.10950739551E+04  0.11641724119E+04  0.46999998093E+01 0. -1.
       -5    1    3    3    0  502  0.39091927824E+03 -0.57187984235E+02 -0.49990500922E+03  0.63719342109E+03  0.46999998093E+01 0.  1.
</event>
<event>
 5   0  0.2987859E-05  0.1700358E+04  0.7818609E-02  0.8761160E-01
       -1   -1    0    0    0  501  0.00000000000E+00  0.00000000000E+00  0.50293619550E+03  0.50293619552E+03  0.50400001928E-02 0.  1.
        1   -1    0    0  501    0  0.00000000000E+00  0.00000000000E+00 -0.14371690848E+04  0.14371690848E+04  0.50400001928E-02 0. -1.
    10030    2    1    2    0    0  0.00000000000E+00  0.00000000000E+00 -0.93423288934E+03  0.19401052804E+04  0.17003580233E+04 0.  0.
        5    1    3    3  502    0 -0.21900513769E+03  0.77474395836E+03 -0.77873806812E+03  0.11201100482E+04  0.46999998093E+01 0. -1.
       -5    1    3    3    0  502  0.21900513769E+03 -0.77474395836E+03 -0.15549482121E+03  0.81999523216E+03  0.46999998093E+01 0.  1.
</event>
<event>
 5   0  0.5821584E-05  0.1698983E+04  0.7818609E-02  0.8761944E-01
       -2   -1    0    0    0  501  0.00000000000E+00  0.00000000000E+00  0.82569781681E+03  0.82569781682E+03  0.25500000920E-02 0. -1.
        2   -1    0    0  501    0  0.00000000000E+00  0.00000000000E+00 -0.87397104531E+03  0.87397104532E+03  0.25500000920E-02 0.  1.
    10030    2    1    2    0    0  0.00000000000E+00  0.00000000000E+00 -0.48273228500E+02  0.16996688621E+04  0.16989832066E+04 0.  0.
        1    1    3    3  502    0 -0.23316835744E+03  0.34212192117E+03 -0.76620486262E+03  0.87091031880E+03  0.50400001928E-02 0.  1.
       -1    1    3    3    0  502  0.23316835744E+03 -0.34212192117E+03  0.71793163412E+03  0.82875854334E+03  0.50400001928E-02 0. -1.
</event>
<event>
 5   0  0.5859822E-05  0.1708015E+04  0.7818609E-02  0.8756806E-01
       -2   -1    0    0    0  501  0.00000000000E+00  0.00000000000E+00  0.97423078898E+03  0.97423078898E+03  0.25500000920E-02 0.  1.
        2   -1    0    0  501    0  0.00000000000E+00  0.00000000000E+00 -0.74862005653E+03  0.74862005654E+03  0.25500000920E-02 0. -1.
    10030    2    1    2    0    0  0.00000000000E+00  0.00000000000E+00  0.22561073244E+03  0.17228508455E+04  0.17080148809E+04 0.  0.
        5    1    3    3  502    0  0.57247668391E+03 -0.61679417991E+03 -0.33860519393E+02  0.84221923438E+03  0.46999998093E+01 0.  1.
       -5    1    3    3    0  502 -0.57247668391E+03  0.61679417991E+03  0.25947125184E+03  0.88063161113E+03  0.46999998093E+01 0. -1.
</event>
<event>
 5   0  0.5859822E-05  0.1698639E+04  0.7818609E-02  0.8762141E-01
        2   -1    0    0  501    0  0.00000000000E+00  0.00000000000E+00  0.12722513721E+04  0.12722513721E+04  0.25500000920E-02 0.  1.
       -2   -1    0    0    0  501  0.00000000000E+00  0.00000000000E+00 -0.56698194091E+03  0.56698194091E+03  0.25500000920E-02 0. -1.
    10030    2    1    2    0    0  0.00000000000E+00  0.00000000000E+00  0.70526943122E+03  0.18392333130E+04  0.16986389284E+04 0.  0.
        5    1    3    3  502    0 -0.16372143990E+03 -0.17012640327E+02  0.12548010209E+04  0.12655598887E+04  0.46999998093E+01 0.  1.
       -5    1    3    3    0  502  0.16372143990E+03  0.17012640327E+02 -0.54953158965E+03  0.57367342438E+03  0.46999998093E+01 0. -1.
</event>
<event>
 5   0  0.2966258E-05  0.1699866E+04  0.7818609E-02  0.8761441E-01
       -1   -1    0    0    0  501  0.00000000000E+00  0.00000000000E+00  0.98559096972E+03  0.98559096974E+03  0.50400001928E-02 0.  1.
        1   -1    0    0  501    0  0.00000000000E+00  0.00000000000E+00 -0.73294751614E+03  0.73294751616E+03  0.50400001928E-02 0. -1.
    10030    2    1    2    0    0  0.00000000000E+00  0.00000000000E+00  0.25264345358E+03  0.17185384859E+04  0.16998664103E+04 0.  0.
        4    1    3    3  502    0  0.23901727259E+03  0.29628243611E+03 -0.64194150586E+03  0.74632636855E+03  0.12699999809E+01 0. -1.
       -4    1    3    3    0  502 -0.23901727259E+03 -0.29628243611E+03  0.89458495945E+03  0.97221211734E+03  0.12699999809E+01 0.  1.
</event>
<event>
 5   0  0.2966258E-05  0.1702808E+04  0.7818609E-02  0.8759764E-01
        1   -1    0    0  501    0  0.00000000000E+00  0.00000000000E+00  0.80756487088E+03  0.80756487089E+03  0.50400001928E-02 0.  1.
       -1   -1    0    0    0  501  0.00000000000E+00  0.00000000000E+00 -0.89762310349E+03  0.89762310350E+03  0.50400001928E-02 0. -1.
    10030    2    1    2    0    0  0.00000000000E+00  0.00000000000E+00 -0.90058232614E+02  0.17051879744E+04  0.17028081345E+04 0.  0.
        4    1    3    3  502    0  0.45508997786E+03  0.53012104036E+03 -0.53228089714E+03  0.87832782703E+03  0.12699999809E+01 0. -1.
       -4    1    3    3    0  502 -0.45508997786E+03 -0.53012104036E+03  0.44222266453E+03  0.82686014736E+03  0.12699999809E+01 0.  1.
</event>
<event>
 5   0  0.2967704E-05  0.1702850E+04  0.7818609E-02  0.8759740E-01
        1   -1    0    0  501    0  0.00000000000E+00  0.00000000000E+00  0.13293119229E+04  0.13293119229E+04  0.50400001928E-02 0.  1.
       -1   -1    0    0    0  501  0.00000000000E+00  0.00000000000E+00 -0.54533841683E+03  0.54533841685E+03  0.50400001928E-02 0. -1.
    10030    2    1    2    0    0  0.00000000000E+00  0.00000000000E+00  0.78397350605E+03  0.18746503397E+04  0.17028503863E+04 0.  0.
        2    1    3    3  502    0  0.48199641143E+03 -0.13811904067E+03 -0.36557207298E+03  0.62051619687E+03  0.25500000920E-02 0. -1.
       -2    1    3    3    0  502 -0.48199641143E+03  0.13811904067E+03  0.11495455790E+04  0.12541341429E+04  0.25500000920E-02 0.  1.
</event>
<event>
 5   0  0.5821584E-05  0.1700587E+04  0.7818609E-02  0.8761030E-01
        2   -1    0    0  501    0  0.00000000000E+00  0.00000000000E+00  0.20818430059E+04  0.20818430059E+04  0.25500000920E-02 0. -1.
       -2   -1    0    0    0  501  0.00000000000E+00  0.00000000000E+00 -0.34728787767E+03  0.34728787768E+03  0.25500000920E-02 0.  1.
    10030    2    1    2    0    0  0.00000000000E+00  0.00000000000E+00  0.17345551282E+04  0.24291308836E+04  0.17005867684E+04 0.  0.
        1    1    3    3  502    0 -0.82941518681E+03 -0.50688617454E+02  0.60976793479E+03  0.10306870633E+04  0.50400001928E-02 0. -1.
       -1    1    3    3    0  502  0.82941518681E+03  0.50688617454E+02  0.11247871934E+04  0.13984438203E+04  0.50400001928E-02 0.  1.
</event>
<event>
 5   0  0.5859822E-05  0.1694691E+04  0.7818609E-02  0.8764398E-01
        2   -1    0    0  501    0  0.00000000000E+00  0.00000000000E+00  0.16644293755E+04  0.16644293755E+04  0.25500000920E-02 0. -1.
       -2   -1    0    0    0  501  0.00000000000E+00  0.00000000000E+00 -0.43137553720E+03  0.43137553721E+03  0.25500000920E-02 0.  1.
    10030    2    1    2    0    0  0.00000000000E+00  0.00000000000E+00  0.12330538383E+04  0.20958049127E+04  0.16946906691E+04 0.  0.
        5    1    3    3  502    0  0.63429853138E+02  0.18483394630E+03 -0.40311160062E+03  0.44800444923E+03  0.46999998093E+01 0.  1.
       -5    1    3    3    0  502 -0.63429853138E+02 -0.18483394630E+03  0.16361654389E+04  0.16478004635E+04  0.46999998093E+01 0. -1.
</event>
<event>
 5   0  0.5671132E-05  0.1699728E+04  0.7818609E-02  0.8761520E-01
        2   -1    0    0  501    0  0.00000000000E+00  0.00000000000E+00  0.15587289594E+04  0.15587289594E+04  0.25500000920E-02 0. -1.
       -2   -1    0    0    0  501  0.00000000000E+00  0.00000000000E+00 -0.46337022197E+03  0.46337022198E+03  0.25500000920E-02 0.  1.
    10030    2    1    2    0    0  0.00000000000E+00  0.00000000000E+00  0.10953587375E+04  0.20220991814E+04  0.16997277240E+04 0.  0.
        3    1    3    3  502    0  0.17525035752E+02  0.69592054754E+03  0.11276386752E+04  0.13252099937E+04  0.10100000352E+00 0. -1.
       -3    1    3    3    0  502 -0.17525035752E+02 -0.69592054754E+03 -0.32279937744E+02  0.69688918771E+03  0.10100000352E+00 0.  1.
</event>
<event>
 5   0  0.2966258E-05  0.1695792E+04  0.7818609E-02  0.8763768E-01
       -1   -1    0    0    0  501  0.00000000000E+00  0.00000000000E+00  0.27450839940E+03  0.27450839944E+03  0.50400001928E-02 0. -1.
        1   -1    0    0  501    0  0.00000000000E+00  0.00000000000E+00 -0.26189633310E+04  0.26189633310E+04  0.50400001928E-02 0.  1.
    10030    2    1    2    0    0  0.00000000000E+00  0.00000000000E+00 -0.23444549316E+04  0.28934717304E+04  0.16957917704E+04 0.  0.
        4    1    3    3  502    0 -0.40109531933E+03 -0.54819080376E+03 -0.20381220522E+04  0.21483327780E+04  0.12699999809E+01 0. -1.
       -4    1    3    3    0  502  0.40109531933E+03  0.54819080376E+03 -0.30633287939E+03  0.74513895242E+03  0.12699999809E+01 0.  1.
</event>
<event>
 5   0  0.5821584E-05  0.1706377E+04  0.7818609E-02  0.8757735E-01
        2   -1    0    0  501    0  0.00000000000E+00  0.00000000000E+00  0.88365958497E+03  0.88365958497E+03  0.25500000920E-02 0. -1.
       -2   -1    0    0    0  501  0.00000000000E+00  0.00000000000E+00 -0.82376848852E+03  0.82376848852E+03  0.25500000920E-02 0.  1.
    10030    2    1    2    0    0  0.00000000000E+00  0.00000000000E+00  0.59891096448E+02  0.17074280735E+04  0.17063773565E+04 0.  0.
        1    1    3    3  502    0 -0.21333996425E+03  0.77056876540E+03 -0.26796375739E+03  0.84326433451E+03  0.50400001928E-02 0.  1.
       -1    1    3    3    0  502  0.21333996425E+03 -0.77056876540E+03  0.32785485384E+03  0.86416373898E+03  0.50400001928E-02 0. -1.
</event>
<event>
 5   0  0.2966258E-05  0.1700927E+04  0.7818609E-02  0.8760836E-01
       -1   -1    0    0    0  501  0.00000000000E+00  0.00000000000E+00  0.46763022778E+03  0.46763022781E+03  0.50400001928E-02 0. -1.
        1   -1    0    0  501    0  0.00000000000E+00  0.00000000000E+00 -0.15467088978E+04  0.15467088978E+04  0.50400001928E-02 0.  1.
    10030    2    1    2    0    0  0.00000000000E+00  0.00000000000E+00 -0.10790786700E+04  0.20143391257E+04  0.17009266113E+04 0.  0.
        4    1    3    3  502    0 -0.40465999801E+01  0.21022966484E+03 -0.15154394094E+04  0.15299578763E+04  0.12699999809E+01 0.  1.
       -4    1    3    3    0  502  0.40465999801E+01 -0.21022966484E+03  0.43636073934E+03  0.48438124931E+03  0.12699999809E+01 0. -1.
</event>
<event>
 5   0  0.5671132E-05  0.1701109E+04  0.7818609E-02  0.8760732E-01
        2   -1    0    0  501    0  0.00000000000E+00  0.00000000000E+00  0.17154331774E+04  0.17154331774E+04  0.25500000920E-02 0. -1.
       -2   -1    0    0    0  501  0.00000000000E+00  0.00000000000E+00 -0.42172617332E+03  0.42172617333E+03  0.25500000920E-02 0.  1.
    10030    2    1    2    0    0  0.00000000000E+00  0.00000000000E+00  0.12937070041E+04  0.21371593508E+04  0.17011091317E+04 0.  0.
        3    1    3    3  502    0 -0.14752797339E+03  0.48912487766E+03 -0.20748557341E+03  0.55141447410E+03  0.10100000352E+00 0.  1.
       -3    1    3    3    0  502  0.14752797339E+03 -0.48912487766E+03  0.15011925775E+04  0.15857448767E+04  0.10100000352E+00 0. -1.
</event>
<event>
 5   0  0.5755321E-05  0.1700197E+04  0.7818609E-02  0.8761252E-01
       -2   -1    0    0    0  501  0.00000000000E+00  0.00000000000E+00  0.96179568889E+03  0.96179568890E+03  0.25500000920E-02 0.  1.
        2   -1    0    0  501    0  0.00000000000E+00  0.00000000000E+00 -0.75137357906E+03  0.75137357906E+03  0.25500000920E-02 0. -1.
    10030    2    1    2    0    0  0.00000000000E+00  0.00000000000E+00  0.21042210983E+03  0.17131692680E+04  0.17001974816E+04 0.  0.
        4    1    3    3  502    0 -0.14637024291E+03  0.34885459555E+03 -0.66187403937E+03  0.76236646945E+03  0.12699999809E+01 0. -1.
       -4    1    3    3    0  502  0.14637024291E+03 -0.34885459555E+03  0.87229614920E+03  0.95080279851E+03  0.12699999809E+01 0.  1.
</event>
<event>
 5   0  0.2911632E-05  0.1711360E+04  0.7818609E-02  0.8754912E-01
        1   -1    0    0  501    0  0.00000000000E+00  0.00000000000E+00  0.12508568875E+04  0.12508568875E+04  0.50400001928E-02 0.  1.
       -1   -1    0    0    0  501  0.00000000000E+00  0.00000000000E+00 -0.58534946915E+03  0.58534946917E+03  0.50400001928E-02 0. -1.
    10030    2    1    2    0    0  0.00000000000E+00  0.00000000000E+00  0.66550741831E+03  0.18362063567E+04  0.17113601784E+04 0.  0.
        1    1    3    3  502    0  0.15556038563E+03  0.22057922040E+03 -0.53847637284E+03  0.60233797006E+03  0.50400001928E-02 0. -1.
       -1    1    3    3    0  502 -0.15556038563E+03 -0.22057922040E+03  0.12039837911E+04  0.12338683866E+04  0.50400001928E-02 0.  1.
</event>
<event>
 5   0  0.5821584E-05  0.1700000E+04  0.7818609E-02  0.8761364E-01
        2   -1    0    0  501    0  0.00000000000E+00  0.00000000000E+00  0.85087505906E+03  0.85087505906E+03  0.25500000920E-02 0. -1.
       -2   -1    0    0    0  501  0.00000000000E+00  0.00000000000E+00 -0.84912632261E+03  0.84912632261E+03  0.25500000920E-02 0.  1.
    10030    2    1    2    0    0  0.00000000000E+00  0.00000000000E+00  0.17487364511E+01  0.17000013817E+04  0.17000004822E+04 0.  0.
        1    1    3    3  502    0  0.16029604543E+02 -0.23873926586E+02 -0.84863976405E+03  0.84912682312E+03  0.50400001928E-02 0.  1.
       -1    1    3    3    0  502 -0.16029604543E+02  0.23873926586E+02  0.85038850050E+03  0.85087455855E+03  0.50400001928E-02 0. -1.
</event>
<event>
 5   0  0.2987859E-05  0.1704285E+04  0.7818609E-02  0.8758924E-01
        1   -1    0    0  501    0  0.00000000000E+00  0.00000000000E+00  0.16198831538E+04  0.16198831538E+04  0.50400001928E-02 0.  1.
       -1   -1    0    0    0  501  0.00000000000E+00  0.00000000000E+00 -0.44827127076E+03  0.44827127079E+03  0.50400001928E-02 0. -1.
    10030    2    1    2    0    0  0.00000000000E+00  0.00000000000E+00  0.11716118831E+04  0.20681544246E+04  0.17042852811E+04 0.  0.
        5    1    3    3  502    0  0.56254501474E+02  0.32993942230E+03 -0.36514992024E+03  0.49535961237E+03  0.46999998093E+01 0. -1.
       -5    1    3    3    0  502 -0.56254501474E+02 -0.32993942230E+03  0.15367618033E+04  0.15727948122E+04  0.46999998093E+01 0.  1.
</event>
<event>
 5   0  0.2987859E-05  0.1709533E+04  0.7818609E-02  0.8755946E-01
       -1   -1    0    0    0  501  0.00000000000E+00  0.00000000000E+00  0.53072275206E+03  0.53072275209E+03  0.50400001928E-02 0. -1.
        1   -1    0    0  501    0  0.00000000000E+00  0.00000000000E+00 -0.13766613120E+04  0.13766613120E+04  0.50400001928E-02 0.  1.
    10030    2    1    2    0    0  0.00000000000E+00  0.00000000000E+00 -0.84593855991E+03  0.19073840641E+04  0.17095326615E+04 0.  0.
        5    1    3    3  502    0  0.63388746637E+03  0.43761795817E+03 -0.95741841230E+01  0.77034833182E+03  0.46999998093E+01 0. -1.
       -5    1    3    3    0  502 -0.63388746637E+03 -0.43761795817E+03 -0.83636437579E+03  0.11370357323E+04  0.46999998093E+01 0.  1.
</event>
<event>
 5   0  0.2966258E-05  0.1701015E+04  0.7818609E-02  0.8760786E-01
        1   -1    0    0  501    0  0.00000000000E+00  0.00000000000E+00  0.18396238270E+04  0.18396238270E+04  0.50400001928E-02 0. -1.
       -1   -1    0    0    0  501  0.00000000000E+00  0.00000000000E+00 -0.39321227774E+03  0.39321227777E+03  0.50400001928E-02 0.  1.
    10030    2    1    2    0    0  0.00000000000E+00  0.00000000000E+00  0.14464115492E+04  0.22328361048E+04  0.17010146093E+04 0.  0.
        4    1    3    3  502    0  0.29110185985E+03 -0.48758563394E+03  0.15543120267E+04  0.16548013574E+04  0.12699999809E+01 0. -1.
       -4    1    3    3    0  502 -0.29110185985E+03  0.48758563394E+03 -0.10790047744E+03  0.57803474737E+03  0.12699999809E+01 0.  1.
</event>
<event>
 5   0  0.2993769E-05  0.1708868E+04  0.7818609E-02  0.8756323E-01
       -1   -1    0    0    0  501  0.00000000000E+00  0.00000000000E+00  0.75463880382E+03  0.75463880384E+03  0.50400001928E-02 0. -1.
        1   -1    0    0  501    0  0.00000000000E+00  0.00000000000E+00 -0.96742641265E+03  0.96742641266E+03  0.50400001928E-02 0.  1.
    10030    2    1    2    0    0  0.00000000000E+00  0.00000000000E+00 -0.21278760883E+03  0.17220652165E+04  0.17088680591E+04 0.  0.
        3    1    3    3  502    0 -0.28251158324E+03  0.20321789546E+02 -0.91874068893E+03  0.96141054367E+03  0.10100000352E+00 0.  1.
       -3    1    3    3    0  502  0.28251158324E+03 -0.20321789546E+02  0.70595308010E+03  0.76065467283E+03  0.10100000352E+00 0. -1.
</event>
<event>
 5   0  0.2993769E-05  0.1697492E+04  0.7818609E-02  0.8762796E-01
        1   -1    0    0  501    0  0.00000000000E+00  0.00000000000E+00  0.15192543613E+04  0.15192543613E+04  0.50400001928E-02 0. -1.
       -1   -1    0    0    0  501  0.00000000000E+00  0.00000000000E+00 -0.47416016102E+03  0.47416016105E+03  0.50400001928E-02 0.  1.
    10030    2    1    2    0    0  0.00000000000E+00  0.00000000000E+00  0.10450942002E+04  0.19934145223E+04  0.16974921415E+04 0.  0.
        3    1    3    3  502    0  0.72559687690E+03 -0.27043017172E+03  0.11448406154E+03  0.78277066635E+03  0.10100000352E+00 0.  1.
       -3    1    3    3    0  502 -0.72559687690E+03  0.27043017172E+03  0.93061013871E+03  0.12106438560E+04  0.10100000352E+00 0. -1.
</event>
<event>
 5   0  0.2966258E-05  0.1697683E+04  0.7818609E-02  0.8762687E-01
        1   -1    0    0  501    0  0.00000000000E+00  0.00000000000E+00  0.53069949312E+03  0.53069949315E+03  0.50400001928E-02 0.  1.
       -1   -1    0    0    0  501  0.00000000000E+00  0.00000000000E+00 -0.13577017426E+04  0.13577017426E+04  0.50400001928E-02 0. -1.
    10030    2    1    2    0    0  0.00000000000E+00  0.00000000000E+00 -0.82700224947E+03  0.18884012357E+04  0.16976826872E+04 0.  0.
        4    1    3    3  502    0  0.54644900860E+03 -0.64644035409E+03 -0.48418827138E+03  0.97515719012E+03  0.12699999809E+01 0. -1.
       -4    1    3    3    0  502 -0.54644900860E+03  0.64644035409E+03 -0.34281397809E+03  0.91324404563E+03  0.12699999809E+01 0.  1.
</event>
<event>
 5   0  0.2993769E-05  0.1690926E+04  0.7818609E-02  0.8766556E-01
        1   -1    0    0  501    0  0.00000000000E+00  0.00000000000E+00  0.18151461863E+04  0.18151461863E+04  0.50400001928E-02 0. -1.
       -1   -1    0    0    0  501  0.00000000000E+00  0.00000000000E+00 -0.39380186058E+03  0.39380186061E+03  0.50400001928E-02 0.  1.
    10030    2    1    2    0    0  0.00000000000E+00  0.00000000000E+00  0.14213443257E+04  0.22089480469E+04  0.16909263088E+04 0.  0.
        3    1    3    3  502    0  0.55907775311E+03  0.60374336106E+03  0.96443439451E+03  0.12677569529E+04  0.10100000352E+00 0. -1.
       -3    1    3    3    0  502 -0.55907775311E+03 -0.60374336106E+03  0.45690993118E+03  0.94119109402E+03  0.10100000352E+00 0.  1.
</event>
<event>
 5   0  0.2911632E-05  0.1700565E+04  0.7818609E-02  0.8761042E-01
        1   -1    0    0  501    0  0.00000000000E+00  0.00000000000E+00  0.14689915930E+04  0.14689915930E+04  0.50400001928E-02 0. -1.
       -1   -1    0    0    0  501  0.00000000000E+00  0.00000000000E+00 -0.49216122932E+03  0.49216122934E+03  0.50400001928E-02 0.  1.
    10030    2    1    2    0    0  0.00000000000E+00  0.00000000000E+00  0.97683036368E+03  0.19611528223E+04  0.17005654451E+04 0.  0.
        1    1    3    3  502    0  0.12918134806E+03  0.10389704589E+03 -0.47334351213E+03  0.50153414374E+03  0.50400001928E-02 0.  1.
       -1    1    3    3    0  502 -0.12918134806E+03 -0.10389704589E+03  0.14501738758E+04  0.14596186786E+04  0.50400001928E-02 0. -1.
</event>
<event>
 5   0  0.2987859E-05  0.1701973E+04  0.7818609E-02  0.8760240E-01
       -1   -1    0    0    0  501  0.00000000000E+00  0.00000000000E+00  0.44943810318E+03  0.44943810321E+03  0.50400001928E-02 0. -1.
        1   -1    0    0  501    0  0.00000000000E+00  0.00000000000E+00 -0.16112958649E+04  0.16112958649E+04  0.50400001928E-02 0.  1.
    10030    2    1    2    0    0  0.00000000000E+00  0.00000000000E+00 -0.11618577617E+04  0.20607339681E+04  0.17019726874E+04 0.  0.
        5    1    3    3  502    0  0.82993432336E+03 -0.12161628179E+02 -0.80814763339E+03  0.11584746754E+04  0.46999998093E+01 0.  1.
       -5    1    3    3    0  502 -0.82993432336E+03  0.12161628179E+02 -0.35371012829E+03  0.90225929263E+03  0.46999998093E+01 0. -1.
</event>
<event>
 5   0  0.5671132E-05  0.1705683E+04  0.7818609E-02  0.8758130E-01
       -2   -1    0    0    0  501  0.00000000000E+00  0.00000000000E+00  0.44906184857E+03  0.44906184858E+03  0.25500000920E-02 0.  1.
        2   -1    0    0  501    0  0.00000000000E+00  0.00000000000E+00 -0.16196839899E+04  0.16196839899E+04  0.25500000920E-02 0. -1.
    10030    2    1    2    0    0  0.00000000000E+00  0.00000000000E+00 -0.11706221413E+04  0.20687458385E+04  0.17056826043E+04 0.  0.
        3    1    3    3  502    0 -0.68324910920E+03  0.27304513689E+03 -0.62297232869E+02  0.73841989913E+03  0.10100000352E+00 0.  1.
       -3    1    3    3    0  502  0.68324910920E+03 -0.27304513689E+03 -0.11083249085E+04  0.13303259393E+04  0.10100000352E+00 0. -1.
</event>
<event>
 5   0  0.5652631E-05  0.1701142E+04  0.7818609E-02  0.8760713E-01
        2   -1    0    0  501    0  0.00000000000E+00  0.00000000000E+00  0.71512597211E+03  0.71512597212E+03  0.25500000920E-02 0. -1.
       -2   -1    0    0    0  501  0.00000000000E+00  0.00000000000E+00 -0.10116694482E+04  0.10116694482E+04  0.25500000920E-02 0.  1.
    10030    2    1    2    0    0  0.00000000000E+00  0.00000000000E+00 -0.29654347609E+03  0.17267954203E+04  0.17011420841E+04 0.  0.
        2    1    3    3  502    0  0.77763949930E+03  0.99727182215E+02  0.18655453514E+03  0.80589782003E+03  0.25500000920E-02 0. -1.
       -2    1    3    3    0  502 -0.77763949930E+03 -0.99727182215E+02 -0.48309801123E+03  0.92089760029E+03  0.25500000920E-02 0.  1.
</event>
<event>
 5   0  0.2987859E-05  0.1701681E+04  0.7818609E-02  0.8760406E-01
       -1   -1    0    0    0  501  0.00000000000E+00  0.00000000000E+00  0.79841338100E+03  0.79841338102E+03  0.50400001928E-02 0.  1.
        1   -1    0    0  501    0  0.00000000000E+00  0.00000000000E+00 -0.90670974810E+03  0.90670974812E+03  0.50400001928E-02 0. -1.
    10030    2    1    2    0    0  0.00000000000E+00  0.00000000000E+00 -0.10829636710E+03  0.17051231291E+04  0.17016805759E+04 0.  0.
        5    1    3    3  502    0 -0.11392948280E+03 -0.40267767377E+03 -0.79644226630E+03  0.89970640186E+03  0.46999998093E+01 0. -1.
       -5    1    3    3    0  502  0.11392948280E+03  0.40267767377E+03  0.68814589919E+03  0.80541672728E+03  0.46999998093E+01 0.  1.
</event>
<event>
 5   0  0.5671132E-05  0.1691727E+04  0.7818609E-02  0.8766097E-01
       -2   -1    0    0    0  501  0.00000000000E+00  0.00000000000E+00  0.86897791384E+03  0.86897791384E+03  0.25500000920E-02 0.  1.
        2   -1    0    0  501    0  0.00000000000E+00  0.00000000000E+00 -0.82336401529E+03  0.82336401529E+03  0.25500000920E-02 0. -1.
    10030    2    1    2    0    0  0.00000000000E+00  0.00000000000E+00  0.45613898555E+02  0.16923419291E+04  0.16917270990E+04 0.  0.
        3    1    3    3  502    0 -0.76068314403E+03  0.21667915859E+03 -0.27712935292E+03  0.83808674481E+03  0.10100000352E+00 0. -1.
       -3    1    3    3    0  502  0.76068314403E+03 -0.21667915859E+03  0.32274325147E+03  0.85425518433E+03  0.10100000352E+00 0.  1.
</event>
<event>
 5   0  0.5821584E-05  0.1684840E+04  0.7818609E-02  0.8770058E-01
        2   -1    0    0  501    0  0.00000000000E+00  0.00000000000E+00  0.20025646516E+04  0.20025646516E+04  0.25500000920E-02 0.  1.
       -2   -1    0    0    0  501  0.00000000000E+00  0.00000000000E+00 -0.35438116974E+03  0.35438116975E+03  0.25500000920E-02 0. -1.
    10030    2    1    2    0    0  0.00000000000E+00  0.00000000000E+00  0.16481834818E+04  0.23569458213E+04  0.16848397000E+04 0.  0.
        1    1    3    3  502    0 -0.83922339673E+03  0.28520307170E+02  0.91857682053E+03  0.12445451751E+04  0.50400001928E-02 0. -1.
       -1    1    3    3    0  502  0.83922339673E+03 -0.28520307170E+02  0.72960666130E+03  0.11124006462E+04  0.50400001928E-02 0.  1.
</event>
<event>
 5   0  0.5755321E-05  0.1701901E+04  0.7818609E-02  0.8760281E-01
       -2   -1    0    0    0  501  0.00000000000E+00  0.00000000000E+00  0.44184454778E+03  0.44184454779E+03  0.25500000920E-02 0.  1.
        2   -1    0    0  501    0  0.00000000000E+00  0.00000000000E+00 -0.16388505187E+04  0.16388505187E+04  0.25500000920E-02 0. -1.
    10030    2    1    2    0    0  0.00000000000E+00  0.00000000000E+00 -0.11970059709E+04  0.20806950665E+04  0.17019014852E+04 0.  0.
        4    1    3    3  502    0  0.68309620612E+03 -0.49885276110E+03 -0.71214979885E+03  0.11057275672E+04  0.12699999809E+01 0. -1.
       -4    1    3    3    0  502 -0.68309620612E+03  0.49885276110E+03 -0.48485617205E+03  0.97496749923E+03  0.12699999809E+01 0.  1.
</event>
<event>
 5   0  0.5652631E-05  0.1700056E+04  0.7818609E-02  0.8761332E-01
        2   -1    0    0  501    0  0.00000000000E+00  0.00000000000E+00  0.11393673982E+04  0.11393673982E+04  0.25500000920E-02 0. -1.
       -2   -1    0    0    0  501  0.00000000000E+00  0.00000000000E+00 -0.63416596388E+03  0.63416596389E+03  0.25500000920E-02 0.  1.
    10030    2    1    2    0    0  0.00000000000E+00  0.00000000000E+00  0.50520143435E+03  0.17735333621E+04  0.17000564983E+04 0.  0.
        2    1    3    3  502    0 -0.93284134960E+02 -0.76231466609E+02  0.11304163838E+04  0.11368176490E+04  0.25500000920E-02 0. -1.
       -2    1    3    3    0  502  0.93284134960E+02  0.76231466609E+02 -0.62521494944E+03  0.63671571313E+03  0.25500000920E-02 0.  1.
</event>
<event>
 5   0  0.2987859E-05  0.1703225E+04  0.7818609E-02  0.8759527E-01
       -1   -1    0    0    0  501  0.00000000000E+00  0.00000000000E+00  0.54554790430E+03  0.54554790432E+03  0.50400001928E-02 0.  1.
        1   -1    0    0  501    0  0.00000000000E+00  0.00000000000E+00 -0.13293867140E+04  0.13293867141E+04  0.50400001928E-02 0. -1.
    10030    2    1    2    0    0  0.00000000000E+00  0.00000000000E+00 -0.78383880975E+03  0.18749346184E+04  0.17032253355E+04 0.  0.
        5    1    3    3  502    0 -0.78996827106E+03  0.80453676978E+02 -0.73067587024E+03  0.10790884953E+04  0.46999998093E+01 0.  1.
       -5    1    3    3    0  502  0.78996827106E+03 -0.80453676978E+02 -0.53162939513E+02  0.79584612304E+03  0.46999998093E+01 0. -1.
</event>
<event>
 5   0  0.5652631E-05  0.1698885E+04  0.7818609E-02  0.8762001E-01
       -2   -1    0    0    0  501  0.00000000000E+00  0.00000000000E+00  0.36506705723E+03  0.36506705724E+03  0.25500000920E-02 0.  1.
        2   -1    0    0  501    0  0.00000000000E+00  0.00000000000E+00 -0.19764931645E+04  0.19764931645E+04  0.25500000920E-02 0. -1.
    10030    2    1    2    0    0  0.00000000000E+00  0.00000000000E+00 -0.16114261073E+04  0.23415602218E+04  0.16988849793E+04 0.  0.
        2    1    3    3  502    0  0.69099798504E+03  0.19831075967E+03 -0.18204957964E+03  0.74158439991E+03  0.25500000920E-02 0.  1.
       -2    1    3    3    0  502 -0.69099798504E+03 -0.19831075967E+03 -0.14293765276E+04  0.15999758219E+04  0.25500000920E-02 0. -1.
</event>
<event>
 5   0  0.2987859E-05  0.1701450E+04  0.7818609E-02  0.8760538E-01
        1   -1    0    0  501    0  0.00000000000E+00  0.00000000000E+00  0.54734965126E+03  0.54734965128E+03  0.50400001928E-02 0.  1.
       -1   -1    0    0    0  501  0.00000000000E+00  0.00000000000E+00 -0.13222497373E+04  0.13222497373E+04  0.50400001928E-02 0. -1.
    10030    2    1    2    0    0  0.00000000000E+00  0.00000000000E+00 -0.77490008604E+03  0.18695993886E+04  0.17014498907E+04 0.  0.
        5    1    3    3  502    0 -0.56344089568E+03  0.63706856077E+03 -0.36578200180E+03  0.92581885749E+03  0.46999998093E+01 0.  1.
       -5    1    3    3    0  502  0.56344089568E+03 -0.63706856077E+03 -0.40911808423E+03  0.94378053110E+03  0.46999998093E+01 0. -1.
</event>
<event>
 5   0  0.2966258E-05  0.1700121E+04  0.7818609E-02  0.8761295E-01
        1   -1    0    0  501    0  0.00000000000E+00  0.00000000000E+00  0.22671972488E+04  0.22671972488E+04  0.50400001928E-02 0. -1.
       -1   -1    0    0    0  501  0.00000000000E+00  0.00000000000E+00 -0.31872070427E+03  0.31872070431E+03  0.50400001928E-02 0.  1.
    10030    2    1    2    0    0  0.00000000000E+00  0.00000000000E+00  0.19484765445E+04  0.25859179531E+04  0.17001208238E+04 0.  0.
        4    1    3    3  502    0  0.27799889430E+03 -0.63595698880E+03  0.17207421933E+04  0.18554460341E+04  0.12699999809E+01 0. -1.
       -4    1    3    3    0  502 -0.27799889430E+03  0.63595698880E+03  0.22773435126E+03  0.73047191902E+03  0.12699999809E+01 0.  1.
</event>
<event>
 5   0  0.2967704E-05  0.1697833E+04  0.7818609E-02  0.8762601E-01
       -1   -1    0    0    0  501  0.00000000000E+00  0.00000000000E+00  0.10462698820E+04  0.10462698820E+04  0.50400001928E-02 0.  1.
        1   -1    0    0  501    0  0.00000000000E+00  0.00000000000E+00 -0.68878870892E+03  0.68878870894E+03  0.50400001928E-02 0. -1.
    10030    2    1    2    0    0  0.00000000000E+00  0.00000000000E+00  0.35748117306E+03  0.17350585909E+04  0.16978325963E+04 0.  0.
        2    1    3    3  502    0  0.11374675880E+03 -0.53350104020E+03 -0.48598034018E+03  0.73057414140E+03  0.25500000920E-02 0. -1.
       -2    1    3    3    0  502 -0.11374675880E+03  0.53350104020E+03  0.84346151325E+03  0.10044844495E+04  0.25500000920E-02 0.  1.
</event>
<event>
 5   0  0.2966258E-05  0.1703104E+04  0.7818609E-02  0.8759596E-01
        1   -1    0    0  501    0  0.00000000000E+00  0.00000000000E+00  0.63017224590E+03  0.63017224592E+03  0.50400001928E-02 0.  1.
       -1   -1    0    0    0  501  0.00000000000E+00  0.00000000000E+00 -0.11507031043E+04  0.11507031043E+04  0.50400001928E-02 0. -1.
    10030    2    1    2    0    0  0.00000000000E+00  0.00000000000E+00 -0.52053085842E+03  0.17808753503E+04  0.17031044121E+04 0.  0.
        4    1    3    3  502    0 -0.72564924717E+02  0.61068566969E+03 -0.87617576193E+03  0.10704616921E+04  0.12699999809E+01 0. -1.
       -4    1    3    3    0  502  0.72564924717E+02 -0.61068566969E+03  0.35564490351E+03  0.71041365820E+03  0.12699999809E+01 0.  1.
</event>
<event>
 5   0  0.5821584E-05  0.1701603E+04  0.7818609E-02  0.8760450E-01
       -2   -1    0    0    0  501  0.00000000000E+00  0.00000000000E+00  0.54133830623E+03  0.54133830624E+03  0.25500000920E-02 0. -1.
        2   -1    0    0  501    0  0.00000000000E+00  0.00000000000E+00 -0.13371738361E+04  0.13371738361E+04  0.25500000920E-02 0.  1.
    10030    2    1    2    0    0  0.00000000000E+00  0.00000000000E+00 -0.79583552986E+03  0.18785121423E+04  0.17016032670E+04 0.  0.
        1    1    3    3  502    0  0.42914271606E+03  0.62861598296E+03 -0.81763090658E+03  0.11170684062E+04  0.50400001928E-02 0.  1.
       -1    1    3    3    0  502 -0.42914271606E+03 -0.62861598296E+03  0.21795376718E+02  0.76144373610E+03  0.50400001928E-02 0. -1.
</event>
<event>
 5   0  0.5755321E-05  0.1702096E+04  0.7818609E-02  0.8760170E-01
       -2   -1    0    0    0  501  0.00000000000E+00  0.00000000000E+00  0.33636926034E+03  0.33636926035E+03  0.25500000920E-02 0.  1.
        2   -1    0    0  501    0  0.00000000000E+00  0.00000000000E+00 -0.21532358692E+04  0.21532358692E+04  0.25500000920E-02 0. -1.
    10030    2    1    2    0    0  0.00000000000E+00  0.00000000000E+00 -0.18168666089E+04  0.24896051296E+04  0.17020955986E+04 0.  0.
        4    1    3    3  502    0  0.63725524251E+03  0.56276671688E+03 -0.96470568485E+03  0.12858690808E+04  0.12699999809E+01 0. -1.
       -4    1    3    3    0  502 -0.63725524251E+03 -0.56276671688E+03 -0.85216092404E+03  0.12037360488E+04  0.12699999809E+01 0.  1.
</event>
<event>
 5   0  0.2993769E-05  0.1696912E+04  0.7818609E-02  0.8763128E-01
       -1   -1    0    0    0  501  0.00000000000E+00  0.00000000000E+00  0.91982295958E+03  0.91982295959E+03  0.50400001928E-02 0.  1.
        1   -1    0    0  501    0  0.00000000000E+00  0.00000000000E+00 -0.78262582870E+03  0.78262582872E+03  0.50400001928E-02 0. -1.
    10030    2    1    2    0    0  0.00000000000E+00  0.00000000000E+00  0.13719713088E+03  0.17024487883E+04  0.16969115546E+04 0.  0.
        3    1    3    3  502    0  0.97684656623E+01  0.80531804858E+03 -0.19918928388E+03  0.82964387740E+03  0.10100000352E+00 0. -1.
       -3    1    3    3    0  502 -0.97684656623E+01 -0.80531804858E+03  0.33638641476E+03  0.87280491092E+03  0.10100000352E+00 0.  1.
</event>
<event>
 5   0  0.5671132E-05  0.1699644E+04  0.7818609E-02  0.8761567E-01
        2   -1    0    0  501    0  0.00000000000E+00  0.00000000000E+00  0.11286844885E+04  0.11286844885E+04  0.25500000920E-02 0.  1.
       -2   -1    0    0    0  501  0.00000000000E+00  0.00000000000E+00 -0.63985782108E+03  0.63985782109E+03  0.25500000920E-02 0. -1.
    10030    2    1    2    0    0  0.00000000000E+00  0.00000000000E+00  0.48882666740E+03  0.17685423096E+04  0.16996441951E+04 0.  0.
        3    1    3    3  502    0  0.32424993127E+03  0.97389592799E+02  0.10554814478E+04  0.11084511029E+04  0.10100000352E+00 0.  1.
       -3    1    3    3    0  502 -0.32424993127E+03 -0.97389592799E+02 -0.56665478041E+03  0.66009120664E+03  0.10100000352E+00 0. -1.
</event>
<event>
 5   0  0.2993769E-05  0.1699968E+04  0.7818609E-02  0.8761383E-01
       -1   -1    0    0    0  501  0.00000000000E+00  0.00000000000E+00  0.53410146131E+03  0.53410146133E+03  0.50400001928E-02 0. -1.
        1   -1    0    0  501    0  0.00000000000E+00  0.00000000000E+00 -0.13526876497E+04  0.13526876497E+04  0.50400001928E-02 0.  1.
    10030    2    1    2    0    0  0.00000000000E+00  0.00000000000E+00 -0.81858618843E+03  0.18867891111E+04  0.16999675885E+04 0.  0.
        3    1    3    3  502    0  0.26218026837E+03 -0.68240192942E+03 -0.89061178871E+03  0.11522153682E+04  0.10100000352E+00 0.  1.
       -3    1    3    3    0  502 -0.26218026837E+03  0.68240192942E+03  0.72025600279E+02  0.73457374285E+03  0.10100000352E+00 0. -1.
</event>
<event>
 5   0  0.2967704E-05  0.1699146E+04  0.7818609E-02  0.8761852E-01
       -1   -1    0    0    0  501  0.00000000000E+00  0.00000000000E+00  0.15735496272E+04  0.15735496272E+04  0.50400001928E-02 0. -1.
        1   -1    0    0  501    0  0.00000000000E+00  0.00000000000E+00 -0.45869159145E+03  0.45869159147E+03  0.50400001928E-02 0.  1.
    10030    2    1    2    0    0  0.00000000000E+00  0.00000000000E+00  0.11148580358E+04  0.20322412187E+04  0.16991456474E+04 0.  0.
        2    1    3    3  502    0 -0.79142079358E+03  0.28349759897E+03  0.70418730956E+03  0.10966300781E+04  0.25500000920E-02 0.  1.
       -2    1    3    3    0  502  0.79142079358E+03 -0.28349759897E+03  0.41067072622E+03  0.93561114065E+03  0.25500000920E-02 0. -1.
</event>
<event>
 5   0  0.5652631E-05  0.1722082E+04  0.7818609E-02  0.8748870E-01
        2   -1    0    0  501    0  0.00000000000E+00  0.00000000000E+00  0.18303703792E+04  0.18303703792E+04  0.25500000920E-02 0. -1.
       -2   -1    0    0    0  501  0.00000000000E+00  0.00000000000E+00 -0.40504990581E+03  0.40504990581E+03  0.25500000920E-02 0.  1.
    10030    2    1    2    0    0  0.00000000000E+00  0.00000000000E+00  0.14253204734E+04  0.22354202850E+04  0.17220817050E+04 0.  0.
        2    1    3    3  502    0 -0.92791546054E+02  0.59160427373E+03 -0.90464776569E+02  0.60563170617E+03  0.25500000920E-02 0. -1.
       -2    1    3    3    0  502  0.92791546054E+02 -0.59160427373E+03  0.15157852500E+04  0.16297885788E+04  0.25500000920E-02 0.  1.
</event>
<event>
 5   0  0.2098250E-05  0.1698831E+04  0.7818609E-02  0.8762032E-01
        3   -1    0    0  501    0  0.00000000000E+00  0.00000000000E+00  0.10726558679E+04  0.10726558727E+04  0.10100000352E+00 0. -1.
       -3   -1    0    0    0  501  0.00000000000E+00  0.00000000000E+00 -0.67263541349E+03  0.67263542107E+03  0.10100000352E+00 0.  1.
    10030    2    1    2    0    0  0.00000000000E+00  0.00000000000E+00  0.40002045445E+03  0.17452912938E+04  0.16988305790E+04 0.  0.
        2    1    3    3  502    0 -0.53189726929E+03  0.66216943605E+03  0.21141642959E+03  0.87525994643E+03  0.25500000920E-02 0.  1.
       -2    1    3    3    0  502  0.53189726929E+03 -0.66216943605E+03  0.18860402486E+03  0.87003134732E+03  0.25500000920E-02 0. -1.
</event>
<event>
 5   0  0.2911632E-05  0.1699078E+04  0.7818609E-02  0.8761890E-01
       -1   -1    0    0    0  501  0.00000000000E+00  0.00000000000E+00  0.92514225561E+03  0.92514225563E+03  0.50400001928E-02 0.  1.
        1   -1    0    0  501    0  0.00000000000E+00  0.00000000000E+00 -0.78011406442E+03  0.78011406443E+03  0.50400001928E-02 0. -1.
    10030    2    1    2    0    0  0.00000000000E+00  0.00000000000E+00  0.14502819120E+03  0.17052563201E+04  0.16990779679E+04 0.  0.
        1    1    3    3  502    0 -0.56416359372E+02  0.68221919017E+03  0.57744456013E+03  0.89557135343E+03  0.50400001928E-02 0.  1.
       -1    1    3    3    0  502  0.56416359372E+02 -0.68221919017E+03 -0.43241636893E+03  0.80968496663E+03  0.50400001928E-02 0. -1.
</event>
<event>
 5   0  0.5755321E-05  0.1700644E+04  0.7818609E-02  0.8760997E-01
        2   -1    0    0  501    0  0.00000000000E+00  0.00000000000E+00  0.24772874236E+04  0.24772874236E+04  0.25500000920E-02 0.  1.
       -2   -1    0    0    0  501  0.00000000000E+00  0.00000000000E+00 -0.29187073389E+03  0.29187073390E+03  0.25500000920E-02 0. -1.
    10030    2    1    2    0    0  0.00000000000E+00  0.00000000000E+00  0.21854166897E+04  0.27691581575E+04  0.17006442290E+04 0.  0.
        4    1    3    3  502    0 -0.95237932891E+02 -0.74427559139E+03  0.44132816453E+03  0.87051052923E+03  0.12699999809E+01 0. -1.
       -4    1    3    3    0  502  0.95237932891E+02  0.74427559139E+03  0.17440885252E+04  0.18986476282E+04  0.12699999809E+01 0.  1.
</event>
<event>
 5   0  0.2911632E-05  0.1702513E+04  0.7818609E-02  0.8759932E-01
       -1   -1    0    0    0  501  0.00000000000E+00  0.00000000000E+00  0.56927910574E+03  0.56927910577E+03  0.50400001928E-02 0. -1.
        1   -1    0    0  501    0  0.00000000000E+00  0.00000000000E+00 -0.12729043196E+04  0.12729043196E+04  0.50400001928E-02 0.  1.
    10030    2    1    2    0    0  0.00000000000E+00  0.00000000000E+00 -0.70362521384E+03  0.18421834254E+04  0.17025132396E+04 0.  0.
        1    1    3    3  502    0  0.66639201580E+03 -0.27360836764E+03 -0.84255929909E+03  0.11085332787E+04  0.50400001928E-02 0.  1.
       -1    1    3    3    0  502 -0.66639201580E+03  0.27360836764E+03  0.13893408525E+03  0.73365014662E+03  0.50400001928E-02 0. -1.
</event>
<event>
 5   0  0.5755321E-05  0.1701235E+04  0.7818609E-02  0.8760660E-01
       -2   -1    0    0    0  501  0.00000000000E+00  0.00000000000E+00  0.80706340543E+03  0.80706340543E+03  0.25500000920E-02 0. -1.
        2   -1    0    0  501    0  0.00000000000E+00  0.00000000000E+00 -0.89652180036E+03  0.89652180036E+03  0.25500000920E-02 0.  1.
    10030    2    1    2    0    0  0.00000000000E+00  0.00000000000E+00 -0.89458394929E+02  0.17035852058E+04  0.17012347719E+04 0.  0.
        4    1    3    3  502    0 -0.86211050316E+02 -0.60762290991E+02  0.80048903441E+03  0.80740863775E+03  0.12699999809E+01 0. -1.
       -4    1    3    3    0  502  0.86211050316E+02  0.60762290991E+02 -0.88994742934E+03  0.89617656804E+03  0.12699999809E+01 0.  1.
</event>
<event>
 5   0  0.5859822E-05  0.1700308E+04  0.7818609E-02  0.8761189E-01
        2   -1    0    0  501    0  0.00000000000E+00  0.00000000000E+00  0.19095538740E+04  0.19095538740E+04  0.25500000920E-02 0.  1.
       -2   -1    0    0    0  501  0.00000000000E+00  0.00000000000E+00 -0.37849781522E+03  0.37849781523E+03  0.25500000920E-02 0. -1.
    10030    2    1    2    0    0  0.00000000000E+00  0.00000000000E+00  0.15310560588E+04  0.22880516892E+04  0.17003081713E+04 0.  0.
        5    1    3    3  502    0  0.75804895311E+02  0.30277096465E+03  0.18296477069E+04  0.18560844433E+04  0.46999998093E+01 0.  1.
       -5    1    3    3    0  502 -0.75804895311E+02 -0.30277096465E+03 -0.29859164817E+03  0.43196724591E+03  0.46999998093E+01 0. -1.
</event>
<event>
 5   0  0.2966258E-05  0.1652334E+04  0.7818609E-02  0.8789027E-01
       -1   -1    0    0    0  501  0.00000000000E+00  0.00000000000E+00  0.20185825661E+04  0.20185825661E+04  0.50400001928E-02 0. -1.
        1   -1    0    0  501    0  0.00000000000E+00  0.00000000000E+00 -0.33813423295E+03  0.33813423298E+03  0.50400001928E-02 0.  1.
    10030    2    1    2    0    0  0.00000000000E+00  0.00000000000E+00  0.16804483332E+04  0.23567167991E+04  0.16523339465E+04 0.  0.
        4    1    3    3  502    0 -0.17498490024E+03  0.56907520017E+03  0.23261767040E+02  0.59582633499E+03  0.12699999809E+01 0.  1.
       -4    1    3    3    0  502  0.17498490024E+03 -0.56907520017E+03  0.16571865661E+04  0.17608904641E+04  0.12699999809E+01 0. -1.
</event>
<event>
 5   0  0.5859822E-05  0.1709949E+04  0.7818609E-02  0.8755710E-01
       -2   -1    0    0    0  501  0.00000000000E+00  0.00000000000E+00  0.41610951754E+03  0.41610951755E+03  0.25500000920E-02 0. -1.
        2   -1    0    0  501    0  0.00000000000E+00  0.00000000000E+00 -0.17567038285E+04  0.17567038285E+04  0.25500000920E-02 0.  1.
    10030    2    1    2    0    0  0.00000000000E+00  0.00000000000E+00 -0.13405943109E+04  0.21728133460E+04  0.17099487507E+04 0.  0.
        5    1    3    3  502    0  0.76320503119E+03  0.21037182775E+03 -0.26007730991E+03  0.83330697985E+03  0.46999998093E+01 0.  1.
       -5    1    3    3    0  502 -0.76320503119E+03 -0.21037182775E+03 -0.10805170010E+04  0.13395063662E+04  0.46999998093E+01 0. -1.
</event>
<event>
 5   0  0.2967704E-05  0.1696833E+04  0.7818609E-02  0.8763172E-01
        1   -1    0    0  501    0  0.00000000000E+00  0.00000000000E+00  0.15195194085E+04  0.15195194086E+04  0.50400001928E-02 0.  1.
       -1   -1    0    0    0  501  0.00000000000E+00  0.00000000000E+00 -0.47370954286E+03  0.47370954289E+03  0.50400001928E-02 0. -1.
    10030    2    1    2    0    0  0.00000000000E+00  0.00000000000E+00  0.10458098657E+04  0.19932289514E+04  0.16968333382E+04 0.  0.
        2    1    3    3  502    0 -0.58846585388E+03 -0.32848212114E+03  0.11283112911E+04  0.13142598429E+04  0.25500000920E-02 0.  1.
       -2    1    3    3    0  502  0.58846585388E+03  0.32848212114E+03 -0.82501425429E+02  0.67896910850E+03  0.25500000920E-02 0. -1.
</event>
<event>
 5   0  0.5652631E-05  0.1701197E+04  0.7818609E-02  0.8760682E-01
       -2   -1    0    0    0  501  0.00000000000E+00  0.00000000000E+00  0.79769837154E+03  0.79769837154E+03  0.25500000920E-02 0. -1.
        2   -1    0    0  501    0  0.00000000000E+00  0.00000000000E+00 -0.90700703484E+03  0.90700703484E+03  0.25500000920E-02 0.  1.
    10030    2    1    2    0    0  0.00000000000E+00  0.00000000000E+00 -0.10930866330E+03  0.17047054064E+04  0.17011972662E+04 0.  0.
        2    1    3    3  502    0 -0.45178424663E+03 -0.19287444568E+03  0.64118998252E+03  0.80773396053E+03  0.25500000920E-02 0. -1.
       -2    1    3    3    0  502  0.45178424663E+03  0.19287444568E+03 -0.75049864582E+03  0.89697144586E+03  0.25500000920E-02 0.  1.
</event>
<event>
 5   0  0.2987859E-05  0.1701031E+04  0.7818609E-02  0.8760776E-01
        1   -1    0    0  501    0  0.00000000000E+00  0.00000000000E+00  0.72386381828E+03  0.72386381830E+03  0.50400001928E-02 0. -1.
       -1   -1    0    0    0  501  0.00000000000E+00  0.00000000000E+00 -0.99932718608E+03  0.99932718609E+03  0.50400001928E-02 0.  1.
    10030    2    1    2    0    0  0.00000000000E+00  0.00000000000E+00 -0.27546336780E+03  0.17231910044E+04  0.17010312080E+04 0.  0.
        5    1    3    3  502    0  0.60849402548E+03 -0.49398261724E+03 -0.47229288964E+03  0.91507730208E+03  0.46999998093E+01 0.  1.
       -5    1    3    3    0  502 -0.60849402548E+03  0.49398261724E+03  0.19682952184E+03  0.80811370230E+03  0.46999998093E+01 0. -1.
</event>
</LesHouchesEvents>
