<LesHouchesEvents version="3.0">
<header>
<!--
#*********************************************************************
#                                                                    *
#                        MadGraph5_aMC@NLO                           *
#                                                                    *
#                           Going Beyond                             *
#                                                                    *
#                   http://madgraph.hep.uiuc.edu                     *
#                   http://madgraph.phys.ucl.ac.be                   *
#                   http://amcatnlo.cern.ch                          *
#                                                                    *
#                     The MadGraph5_aMC@NLO team                     *
#                                                                    *
#....................................................................*
#                                                                    *
# This file contains all the information necessary to reproduce      *
# the events generated:                                              *
#                                                                    *
# 1. software version                                                *
# 2. proc_card          : code generation info including model       *
# 3. param_card         : model primary parameters in the LH format  *
# 4. run_card           : running parameters (collider and cuts)     *
# 5. pythia_card        : present only if pythia has been run        *
# 6. pgs_card           : present only if pgs has been run           *
# 7. delphes_cards      : present only if delphes has been run       *
#                                                                    *
#                                                                    *
#*********************************************************************
-->
<MGVersion>
#5.2.2.3
</MGVersion>
<MG5ProcCard>
#************************************************************
#*                     MadGraph5_aMC@NLO                    *
#*                                                          *
#*                *                       *                 *
#*                  *        * *        *                   *
#*                    * * * * 5 * * * *                     *
#*                  *        * *        *                   *
#*                *                       *                 *
#*                                                          *
#*                                                          *
#*         VERSION 2.2.3                 2015-02-10         *
#*                                                          *
#*    The MadGraph5_aMC@NLO Development Team - Find us at   *
#*    https://server06.fynu.ucl.ac.be/projects/madgraph     *
#*                                                          *
#************************************************************
#*                                                          *
#*               Command File for MadGraph5_aMC@NLO         *
#*                                                          *
#*     run as ./bin/mg5_aMC  filename                       *
#*                                                          *
#************************************************************
set group_subprocesses Auto
set ignore_six_quark_processes False
set loop_optimized_output True
set gauge unitary
set complex_mass_scheme False
import model sm
define p = g u c d s u~ c~ d~ s~
define j = g u c d s u~ c~ d~ s~
define l+ = e+ mu+
define l- = e- mu-
define vl = ve vm vt
define vl~ = ve~ vm~ vt~
import model Zprime_UFO
generate p p > zph, zph > j j
add process p p > zph, zph > b b~
output Dijet_signal
</MG5ProcCard>
<MGProcCard>
#*********************************************************************
#                        MadGraph/MadEvent                           *
#                   http://madgraph.hep.uiuc.edu                     *
#                                                                    *
#                          proc_card.dat                             *
#*********************************************************************
#                                                                    *
#            This Files is generated by MADGRAPH 5                   *
#                                                                    *
# WARNING: This Files is generated for MADEVENT (compatibility issue)*
#          This files is NOT a valid MG4 proc_card.dat               *
#          Running this in MG4 will NEVER reproduce the result of MG5*
#                                                                    *
#*********************************************************************
#*********************************************************************
# Process(es) requested : mg2 input                                  *
#*********************************************************************
# Begin PROCESS # This is TAG. Do not modify this line
p p > zph , zph > j j           #Process
# Be carefull the coupling are here in MG5 convention
          
end_coup           # End the couplings input

done               # this tells MG there are no more procs
# End PROCESS  # This is TAG. Do not modify this line
#*********************************************************************
# Model information                                                  *
#*********************************************************************
# Begin MODEL  # This is TAG. Do not modify this line
Zprime_UFO
# End   MODEL  # This is TAG. Do not modify this line
#*********************************************************************
# Start multiparticle definitions                                    *
#*********************************************************************
# Begin MULTIPARTICLES # This is TAG. Do not modify this line

# End  MULTIPARTICLES # This is TAG. Do not modify this line
</MGProcCard>
<MGRunCard>
#*********************************************************************
#                       MadGraph5_aMC@NLO                            *
#                                                                    *
#                     run_card.dat MadEvent                          *
#                                                                    *
#  This file is used to set the parameters of the run.               *
#                                                                    *
#  Some notation/conventions:                                        *
#                                                                    *
#   Lines starting with a '# ' are info or comments                  *
#                                                                    *
#   mind the format:   value    = variable     ! comment             *
#*********************************************************************
#
#*******************                                                 
# Running parameters
#*******************                                                 
#                                                                    
#*********************************************************************
# Tag name for the run (one word)                                    *
#*********************************************************************
  tag_1     = run_tag ! name of the run 
#*********************************************************************
# Run to generate the grid pack                                      *
#*********************************************************************
  .false.     = gridpack  !True = setting up the grid pack
#*********************************************************************
# Number of events and rnd seed                                      *
# Warning: Do not generate more than 1M events in a single run       *
# If you want to run Pythia, avoid more than 50k events in a run.    *
#*********************************************************************
  2000 = nevents ! Number of unweighted events requested 
 2658 = iseed   ! rnd seed (0=assigned automatically=default))
#*********************************************************************
# Collider type and energy                                           *
# lpp: 0=No PDF, 1=proton, -1=antiproton, 2=photon from proton,      *
#                                         3=photon from electron     *
#*********************************************************************
        1     = lpp1    ! beam 1 type 
        1     = lpp2    ! beam 2 type
     4000     = ebeam1  ! beam 1 total energy in GeV
     4000     = ebeam2  ! beam 2 total energy in GeV
#*********************************************************************
# Beam polarization from -100 (left-handed) to 100 (right-handed)    *
#*********************************************************************
        0     = polbeam1 ! beam polarization for beam 1
        0     = polbeam2 ! beam polarization for beam 2
#*********************************************************************
# PDF CHOICE: this automatically fixes also alpha_s and its evol.    *
#*********************************************************************
 'nn23lo1'    = pdlabel     ! PDF set                                     
 230000    = lhaid     ! if pdlabel=lhapdf, this is the lhapdf number
#*********************************************************************
# Renormalization and factorization scales                           *
#*********************************************************************
 F        = fixed_ren_scale  ! if .true. use fixed ren scale
 F        = fixed_fac_scale  ! if .true. use fixed fac scale
 91.1880  = scale            ! fixed ren scale
 91.1880  = dsqrt_q2fact1    ! fixed fact scale for pdf1
 91.1880  = dsqrt_q2fact2    ! fixed fact scale for pdf2
 1        = scalefact        ! scale factor for event-by-event scales
#*********************************************************************
# Matching - Warning! ickkw > 1 is still beta
#*********************************************************************
 0        = ickkw            ! 0 no matching, 1 MLM, 2 CKKW matching
 1        = highestmult      ! for ickkw=2, highest mult group
 1        = ktscheme         ! for ickkw=1, 1 Durham kT, 2 Pythia pTE
 1        = alpsfact         ! scale factor for QCD emission vx
 F        = chcluster        ! cluster only according to channel diag
 T        = pdfwgt           ! for ickkw=1, perform pdf reweighting
 5        = asrwgtflavor     ! highest quark flavor for a_s reweight
 T        = clusinfo         ! include clustering tag in output
 3.0      = lhe_version       ! Change the way clustering information pass to shower.        
#*********************************************************************
#**********************************************************
#
#**********************************************************
# Automatic ptj and mjj cuts if xqcut > 0
# (turn off for VBF and single top processes)
#**********************************************************
   T  = auto_ptj_mjj  ! Automatic setting of ptj and mjj
#**********************************************************
#                                                                    
#**********************************
# BW cutoff (M+/-bwcutoff*Gamma)
#**********************************
  15  = bwcutoff      ! (M+/-bwcutoff*Gamma)
#**********************************************************
# Apply pt/E/eta/dr/mij cuts on decay products or not
# (note that etmiss/ptll/ptheavy/ht/sorted cuts always apply)
#**********************************************************
   T  = cut_decays    ! Cut decay products 
#*************************************************************
# Number of helicities to sum per event (0 = all helicities)
# 0 gives more stable result, but longer run time (needed for
# long decay chains e.g.).
# Use >=2 if most helicities contribute, e.g. pure QCD.
#*************************************************************
   0  = nhel          ! Number of helicities used per event
#*******************                                                 
# Standard Cuts
#*******************                                                 
#                                                                    
#*********************************************************************
# Minimum and maximum pt's (for max, -1 means no cut)                *
#*********************************************************************
 20  = ptj       ! minimum pt for the jets 
  0  = ptb       ! minimum pt for the b 
 10  = pta       ! minimum pt for the photons 
 10  = ptl       ! minimum pt for the charged leptons 
  0  = misset    ! minimum missing Et (sum of neutrino's momenta)
  0  = ptheavy   ! minimum pt for one heavy final state
 1.0 = ptonium   ! minimum pt for the quarkonium states
 -1  = ptjmax    ! maximum pt for the jets
 -1  = ptbmax    ! maximum pt for the b
 -1  = ptamax    ! maximum pt for the photons
 -1  = ptlmax    ! maximum pt for the charged leptons
 -1  = missetmax ! maximum missing Et (sum of neutrino's momenta)
#*********************************************************************
# Minimum and maximum E's (in the center of mass frame)              *
#*********************************************************************
  0  = ej     ! minimum E for the jets 
  0  = eb     ! minimum E for the b 
  0  = ea     ! minimum E for the photons 
  0  = el     ! minimum E for the charged leptons 
 -1   = ejmax ! maximum E for the jets
 -1   = ebmax ! maximum E for the b
 -1   = eamax ! maximum E for the photons
 -1   = elmax ! maximum E for the charged leptons
#*********************************************************************
# Maximum and minimum absolute rapidity (for max, -1 means no cut)   *
#*********************************************************************
   5  = etaj    ! max rap for the jets 
  -1  = etab    ! max rap for the b
 2.5  = etaa    ! max rap for the photons 
 2.5  = etal    ! max rap for the charged leptons 
 0.6  = etaonium ! max rap for the quarkonium states
   0  = etajmin ! min rap for the jets
   0  = etabmin ! min rap for the b
   0  = etaamin ! min rap for the photons
   0  = etalmin ! main rap for the charged leptons
#*********************************************************************
# Minimum and maximum DeltaR distance                                *
#*********************************************************************
 0.4 = drjj    ! min distance between jets 
 0   = drbb    ! min distance between b's 
 0.4 = drll    ! min distance between leptons 
 0.4 = draa    ! min distance between gammas 
 0   = drbj    ! min distance between b and jet 
 0.4 = draj    ! min distance between gamma and jet 
 0.4 = drjl    ! min distance between jet and lepton 
 0   = drab    ! min distance between gamma and b 
 0   = drbl    ! min distance between b and lepton 
 0.4 = dral    ! min distance between gamma and lepton 
 -1  = drjjmax ! max distance between jets
 -1  = drbbmax ! max distance between b's
 -1  = drllmax ! max distance between leptons
 -1  = draamax ! max distance between gammas
 -1  = drbjmax ! max distance between b and jet
 -1  = drajmax ! max distance between gamma and jet
 -1  = drjlmax ! max distance between jet and lepton
 -1  = drabmax ! max distance between gamma and b
 -1  = drblmax ! max distance between b and lepton
 -1  = dralmax ! maxdistance between gamma and lepton
#*********************************************************************
# Minimum and maximum invariant mass for pairs                       *
# WARNING: for four lepton final state mmll cut require to have      *
#          different lepton masses for each flavor!                  *           
#*********************************************************************
 0   = mmjj    ! min invariant mass of a jet pair 
 0   = mmbb    ! min invariant mass of a b pair 
 0   = mmaa    ! min invariant mass of gamma gamma pair
 0   = mmll    ! min invariant mass of l+l- (same flavour) lepton pair
 -1  = mmjjmax ! max invariant mass of a jet pair
 -1  = mmbbmax ! max invariant mass of a b pair
 -1  = mmaamax ! max invariant mass of gamma gamma pair
 -1  = mmllmax ! max invariant mass of l+l- (same flavour) lepton pair
#*********************************************************************
# Minimum and maximum invariant mass for all letpons                 *
#*********************************************************************
 0   = mmnl    ! min invariant mass for all letpons (l+- and vl) 
 -1  = mmnlmax ! max invariant mass for all letpons (l+- and vl) 
#*********************************************************************
# Minimum and maximum pt for 4-momenta sum of leptons                *
#*********************************************************************
 0   = ptllmin  ! Minimum pt for 4-momenta sum of leptons(l and vl)
 -1  = ptllmax  ! Maximum pt for 4-momenta sum of leptons(l and vl)
#*********************************************************************
# Inclusive cuts                                                     *
#*********************************************************************
 0  = xptj ! minimum pt for at least one jet  
 0  = xptb ! minimum pt for at least one b 
 0  = xpta ! minimum pt for at least one photon 
 0  = xptl ! minimum pt for at least one charged lepton 
#*********************************************************************
# Control the pt's of the jets sorted by pt                          *
#*********************************************************************
 0   = ptj1min ! minimum pt for the leading jet in pt
 0   = ptj2min ! minimum pt for the second jet in pt
 0   = ptj3min ! minimum pt for the third jet in pt
 0   = ptj4min ! minimum pt for the fourth jet in pt
 -1  = ptj1max ! maximum pt for the leading jet in pt 
 -1  = ptj2max ! maximum pt for the second jet in pt
 -1  = ptj3max ! maximum pt for the third jet in pt
 -1  = ptj4max ! maximum pt for the fourth jet in pt
 0   = cutuse  ! reject event if fails any (0) / all (1) jet pt cuts
#*********************************************************************
# Control the pt's of leptons sorted by pt                           *
#*********************************************************************
 0   = ptl1min ! minimum pt for the leading lepton in pt
 0   = ptl2min ! minimum pt for the second lepton in pt
 0   = ptl3min ! minimum pt for the third lepton in pt
 0   = ptl4min ! minimum pt for the fourth lepton in pt
 -1  = ptl1max ! maximum pt for the leading lepton in pt 
 -1  = ptl2max ! maximum pt for the second lepton in pt
 -1  = ptl3max ! maximum pt for the third lepton in pt
 -1  = ptl4max ! maximum pt for the fourth lepton in pt
#*********************************************************************
# Control the Ht(k)=Sum of k leading jets                            *
#*********************************************************************
 0   = htjmin ! minimum jet HT=Sum(jet pt)
 -1  = htjmax ! maximum jet HT=Sum(jet pt)
 0   = ihtmin  !inclusive Ht for all partons (including b)
 -1  = ihtmax  !inclusive Ht for all partons (including b)
 0   = ht2min ! minimum Ht for the two leading jets
 0   = ht3min ! minimum Ht for the three leading jets
 0   = ht4min ! minimum Ht for the four leading jets
 -1  = ht2max ! maximum Ht for the two leading jets
 -1  = ht3max ! maximum Ht for the three leading jets
 -1  = ht4max ! maximum Ht for the four leading jets
#***********************************************************************
# Photon-isolation cuts, according to hep-ph/9801442                   *
# When ptgmin=0, all the other parameters are ignored                  *
# When ptgmin>0, pta and draj are not going to be used                 *
#***********************************************************************
   0 = ptgmin ! Min photon transverse momentum
 0.4 = R0gamma ! Radius of isolation code
 1.0 = xn ! n parameter of eq.(3.4) in hep-ph/9801442
 1.0 = epsgamma ! epsilon_gamma parameter of eq.(3.4) in hep-ph/9801442
 .true. = isoEM ! isolate photons from EM energy (photons and leptons)
#*********************************************************************
# WBF cuts                                                           *
#*********************************************************************
 0   = xetamin ! minimum rapidity for two jets in the WBF case  
 0   = deltaeta ! minimum rapidity for two jets in the WBF case 
#*********************************************************************
# KT DURHAM CUT                                                      *
#*********************************************************************
 -1    =  ktdurham        
 0.4  =  dparameter 
#*********************************************************************
# maximal pdg code for quark to be considered as a light jet         *
# (otherwise b cuts are applied)                                     *
#*********************************************************************
 4 = maxjetflavor    ! Maximum jet pdg code
#*********************************************************************
# Jet measure cuts                                                   *
#*********************************************************************
 0   = xqcut   ! minimum kt jet measure between partons
#*********************************************************************
#
#*********************************************************************
# Store info for systematics studies                                 *
# WARNING: If use_syst is T, matched Pythia output is                *
#          meaningful ONLY if plotted taking matchscale              *
#          reweighting into account!                                 *
#*********************************************************************
   F  = use_syst      ! Enable systematics studies
#
#**************************************
# Parameter of the systematics study
#  will be used by SysCalc (if installed)
#**************************************                                  
#
0.5 1 2 = sys_scalefact  # factorization/renormalization scale factor
0.5 1 2 = sys_alpsfact  # \alpha_s emission scale factors
30 50 = sys_matchscale # variation of merging scale
# PDF sets and number of members (0 or none for all members).
CT10nlo.LHgrid = sys_pdf # matching scales
# MSTW2008nlo68cl.LHgrid 1  = sys_pdf
</MGRunCard>
<slha>
######################################################################
## PARAM_CARD AUTOMATICALY GENERATED BY MG5 FOLLOWING UFO MODEL   ####
######################################################################
##                                                                  ##
##  Width set on Auto will be computed following the information    ##
##        present in the decay.py files of the model.               ##
##        See  arXiv:1402.1178 for more details.                    ##
##                                                                  ##
######################################################################

###################################
## INFORMATION FOR CKMBLOCK
###################################
Block ckmblock 
    1 2.277360e-01 # cabi 

###################################
## INFORMATION FOR FRBLOCK
###################################
Block frblock 
    1 1.400000e+00 # gz 

###################################
## INFORMATION FOR MASS
###################################
Block mass 
    1 5.040000e-03 # MD 
    2 2.550000e-03 # MU 
    3 1.010000e-01 # MS 
    4 1.270000e+00 # MC 
    5 4.700000e+00 # MB 
    6 1.720000e+02 # MT 
   11 5.110000e-04 # Me 
   13 1.056600e-01 # MM 
   15 1.777000e+00 # MTA 
   23 9.118760e+01 # MZ 
   25 1.200000e+02 # MH 
  10030 2.900000e+03 # MZph 
  10031 3.000000e+02 # MZpl 
## Dependent parameters, given by model restrictions.
## Those values should be edited following the 
## analytical expression. MG5 ignores those values 
## but they are important for interfacing the output of MG5
## to external program such as Pythia.
  12 0.000000 # ve : 0.0 
  14 0.000000 # vm : 0.0 
  16 0.000000 # vt : 0.0 
  21 0.000000 # g : 0.0 
  22 0.000000 # a : 0.0 
  24 79.824360 # w+ : cmath.sqrt(MZ__exp__2/2. + cmath.sqrt(MZ__exp__4/4. - (aEW*cmath.pi*MZ__exp__2)/(Gf*sqrt__2))) 

###################################
## INFORMATION FOR SMINPUTS
###################################
Block sminputs 
    1 1.279000e+02 # aEWM1 
    2 1.166370e-05 # Gf 
    3 1.184000e-01 # aS 

###################################
## INFORMATION FOR YUKAWA
###################################
Block yukawa 
    1 5.040000e-03 # ymdo 
    2 2.550000e-03 # ymup 
    3 1.010000e-01 # yms 
    4 1.270000e+00 # ymc 
    5 4.700000e+00 # ymb 
    6 1.720000e+02 # ymt 
   11 5.110000e-04 # yme 
   13 1.056600e-01 # ymm 
   15 1.777000e+00 # ymtau 

###################################
## INFORMATION FOR DECAY
###################################
DECAY   6 1.508336e+00 # WT 
DECAY  23 2.495200e+00 # WZ 
DECAY  24 2.085000e+00 # WW 
DECAY  25 5.753088e-03 # WH 
## Dependent parameters, given by model restrictions.
## Those values should be edited following the 
## analytical expression. MG5 ignores those values 
## but they are important for interfacing the output of MG5
## to external program such as Pythia.
DECAY  1 0.000000 # d : 0.0 
DECAY  2 0.000000 # u : 0.0 
DECAY  3 0.000000 # s : 0.0 
DECAY  4 0.000000 # c : 0.0 
DECAY  5 0.000000 # b : 0.0 
DECAY  11 0.000000 # e- : 0.0 
DECAY  12 0.000000 # ve : 0.0 
DECAY  13 0.000000 # mu- : 0.0 
DECAY  14 0.000000 # vm : 0.0 
DECAY  15 0.000000 # ta- : 0.0 
DECAY  16 0.000000 # vt : 0.0 
DECAY  21 0.000000 # g : 0.0 
DECAY  22 0.000000 # a : 0.0 
DECAY  10030 0.308725 # zph : (gz__exp__2*MZph*(5 + cmath.sqrt(1 - (4*MT__exp__2)/MZph__exp__2)))/(144.*cmath.pi) 
DECAY  10031 0.132629 # zpl : (5*gz__exp__2*MZpl)/(144.*cmath.pi) 
#===========================================================
# QUANTUM NUMBERS OF NEW STATE(S) (NON SM PDG CODE)
#===========================================================

Block QNUMBERS 10030  # zph 
        1 0  # 3 times electric charge
        2 3  # number of spin states (2S+1)
        3 1  # colour rep (1: singlet, 3: triplet, 8: octet)
        4 0  # Particle/Antiparticle distinction (0=own anti)
Block QNUMBERS 10031  # zpl 
        1 0  # 3 times electric charge
        2 3  # number of spin states (2S+1)
        3 1  # colour rep (1: singlet, 3: triplet, 8: octet)
        4 0  # Particle/Antiparticle distinction (0=own anti)
</slha>
## END BANNER##
<MGGenerationInfo>
#  Number of Events        :         4003
#  Integrated weight (pb)  :  0.36721E-02
#  Max wgt                 :  0.13857E-05
#  Average wgt             :  0.91734E-06
</MGGenerationInfo>
</header>
<init>
     2212     2212  0.40000000000E+04  0.40000000000E+04 0 0  247000  247000 2   1
  0.36760932075E-02  0.95294514996E-05  0.13856690000E-05   0
</init>
<event>
 5   0  0.1336899E-05  0.2912077E+04  0.7818609E-02  0.8269293E-01
       -2   -1    0    0    0  501  0.00000000000E+00  0.00000000000E+00  0.12506358077E+04  0.12506358077E+04  0.25500000920E-02 0. -1.
        2   -1    0    0  501    0  0.00000000000E+00  0.00000000000E+00 -0.16951762676E+04  0.16951762676E+04  0.25500000920E-02 0.  1.
    10030    2    1    2    0    0  0.00000000000E+00  0.00000000000E+00 -0.44454045989E+03  0.29458120753E+04  0.29120770187E+04 0.  0.
        1    1    3    3  502    0 -0.63619601893E+03 -0.12046440675E+04  0.29762462115E+03  0.13944508307E+04  0.50400001928E-02 0. -1.
       -1    1    3    3    0  502  0.63619601893E+03  0.12046440675E+04 -0.74216508104E+03  0.15513612447E+04  0.50400001928E-02 0.  1.
</event>
<event>
 5   0  0.1336899E-05  0.2923502E+04  0.7818609E-02  0.8265919E-01
        2   -1    0    0  501    0  0.00000000000E+00  0.00000000000E+00  0.17662775402E+04  0.17662775402E+04  0.25500000920E-02 0.  1.
       -2   -1    0    0    0  501  0.00000000000E+00  0.00000000000E+00 -0.12097283081E+04  0.12097283081E+04  0.25500000920E-02 0. -1.
    10030    2    1    2    0    0  0.00000000000E+00  0.00000000000E+00  0.55654923209E+03  0.29760058482E+04  0.29235019687E+04 0.  0.
        1    1    3    3  502    0  0.42445448648E+03 -0.13936615646E+04  0.15670721264E+03  0.14652683435E+04  0.50400001928E-02 0. -1.
       -1    1    3    3    0  502 -0.42445448648E+03  0.13936615646E+04  0.39984201944E+03  0.15107375048E+04  0.50400001928E-02 0.  1.
</event>
<event>
 5   0  0.1385669E-05  0.3051244E+04  0.7818609E-02  0.8229247E-01
        2   -1    0    0  501    0  0.00000000000E+00  0.00000000000E+00  0.23113248461E+04  0.23113248461E+04  0.25500000920E-02 0.  1.
       -2   -1    0    0    0  501  0.00000000000E+00  0.00000000000E+00 -0.10070080071E+04  0.10070080071E+04  0.25500000920E-02 0. -1.
    10030    2    1    2    0    0  0.00000000000E+00  0.00000000000E+00  0.13043168390E+04  0.33183328532E+04  0.30512440919E+04 0.  0.
        3    1    3    3  502    0 -0.45155272283E+02 -0.15199765080E+04  0.78604018918E+03  0.17117905166E+04  0.10100000352E+00 0.  1.
       -3    1    3    3    0  502  0.45155272283E+02  0.15199765080E+04  0.51827664978E+03  0.16065423366E+04  0.10100000352E+00 0. -1.
</event>
<event>
 5   0  0.1336899E-05  0.2927476E+04  0.7818609E-02  0.8264749E-01
        2   -1    0    0  501    0  0.00000000000E+00  0.00000000000E+00  0.21754236230E+04  0.21754236230E+04  0.25500000920E-02 0. -1.
       -2   -1    0    0    0  501  0.00000000000E+00  0.00000000000E+00 -0.98487917460E+03  0.98487917461E+03  0.25500000920E-02 0.  1.
    10030    2    1    2    0    0  0.00000000000E+00  0.00000000000E+00  0.11905444484E+04  0.31603027977E+04  0.29274763345E+04 0.  0.
        1    1    3    3  502    0 -0.14036230020E+03  0.18883829868E+03 -0.96433055572E+03  0.99262021896E+03  0.50400001928E-02 0.  1.
       -1    1    3    3    0  502  0.14036230020E+03 -0.18883829868E+03  0.21548750042E+04  0.21676825787E+04  0.50400001928E-02 0. -1.
</event>
<event>
 5   0  0.1385669E-05  0.2875144E+04  0.7818609E-02  0.8280312E-01
        2   -1    0    0  501    0  0.00000000000E+00  0.00000000000E+00  0.11248089795E+04  0.11248089795E+04  0.25500000920E-02 0.  1.
       -2   -1    0    0    0  501  0.00000000000E+00  0.00000000000E+00 -0.18373008907E+04  0.18373008907E+04  0.25500000920E-02 0. -1.
    10030    2    1    2    0    0  0.00000000000E+00  0.00000000000E+00 -0.71249191124E+03  0.29621098703E+04  0.28751435025E+04 0.  0.
        3    1    3    3  502    0 -0.87423727456E+03  0.10589194129E+04  0.82077382199E+02  0.13756227107E+04  0.10100000352E+00 0.  1.
       -3    1    3    3    0  502  0.87423727456E+03 -0.10589194129E+04 -0.79456929344E+03  0.15864871596E+04  0.10100000352E+00 0. -1.
</event>
<event>
 5   0  0.5059249E-06  0.2928699E+04  0.7818609E-02  0.8264390E-01
       -1   -1    0    0    0  501  0.00000000000E+00  0.00000000000E+00  0.15538597599E+04  0.15538597599E+04  0.50400001928E-02 0.  1.
        1   -1    0    0  501    0  0.00000000000E+00  0.00000000000E+00 -0.13799954536E+04  0.13799954536E+04  0.50400001928E-02 0. -1.
    10030    2    1    2    0    0  0.00000000000E+00  0.00000000000E+00  0.17386430627E+03  0.29338552135E+04  0.29286989631E+04 0.  0.
        1    1    3    3  502    0  0.10962047817E+04  0.56459280119E+03 -0.70432521060E+03  0.14200366041E+04  0.50400001928E-02 0. -1.
       -1    1    3    3    0  502 -0.10962047817E+04 -0.56459280119E+03  0.87818951686E+03  0.15138186094E+04  0.50400001928E-02 0.  1.
</event>
<event>
 5   0  0.5154476E-06  0.3023740E+04  0.7818609E-02  0.8236984E-01
        1   -1    0    0  501    0  0.00000000000E+00  0.00000000000E+00  0.18196976102E+04  0.18196976102E+04  0.50400001928E-02 0. -1.
       -1   -1    0    0    0  501  0.00000000000E+00  0.00000000000E+00 -0.12561156736E+04  0.12561156736E+04  0.50400001928E-02 0.  1.
    10030    2    1    2    0    0  0.00000000000E+00  0.00000000000E+00  0.56358193660E+03  0.30758132838E+04  0.30237398628E+04 0.  0.
        3    1    3    3  502    0  0.70233867220E+03  0.63778543162E+03 -0.91563942863E+03  0.13185012100E+04  0.10100000352E+00 0.  1.
       -3    1    3    3    0  502 -0.70233867220E+03 -0.63778543162E+03  0.14792213652E+04  0.17573120738E+04  0.10100000352E+00 0. -1.
</event>
<event>
 5   0  0.1336899E-05  0.2969327E+04  0.7818609E-02  0.8252544E-01
       -2   -1    0    0    0  501  0.00000000000E+00  0.00000000000E+00  0.10948392621E+04  0.10948392621E+04  0.25500000920E-02 0. -1.
        2   -1    0    0  501    0  0.00000000000E+00  0.00000000000E+00 -0.20132870249E+04  0.20132870249E+04  0.25500000920E-02 0.  1.
    10030    2    1    2    0    0  0.00000000000E+00  0.00000000000E+00 -0.91844776284E+03  0.31081262870E+04  0.29693269814E+04 0.  0.
        1    1    3    3  502    0 -0.99928390996E+03 -0.90430704892E+03  0.19269377768E+03  0.13614222209E+04  0.50400001928E-02 0. -1.
       -1    1    3    3    0  502  0.99928390996E+03  0.90430704892E+03 -0.11111415405E+04  0.17467040661E+04  0.50400001928E-02 0.  1.
</event>
<event>
 5   0  0.5352212E-06  0.2851722E+04  0.7818609E-02  0.8287388E-01
       -1   -1    0    0    0  501  0.00000000000E+00  0.00000000000E+00  0.16171932760E+04  0.16171932761E+04  0.50400001928E-02 0. -1.
        1   -1    0    0  501    0  0.00000000000E+00  0.00000000000E+00 -0.12571651654E+04  0.12571651654E+04  0.50400001928E-02 0.  1.
    10030    2    1    2    0    0  0.00000000000E+00  0.00000000000E+00  0.36002811069E+03  0.28743584414E+04  0.28517216220E+04 0.  0.
        2    1    3    3  502    0  0.27775520658E+03  0.15233704200E+02  0.15895780797E+04  0.16137343313E+04  0.25500000920E-02 0. -1.
       -2    1    3    3    0  502 -0.27775520658E+03 -0.15233704200E+02 -0.12295499691E+04  0.12606241101E+04  0.25500000920E-02 0.  1.
</event>
<event>
 5   0  0.1336899E-05  0.2696976E+04  0.7818609E-02  0.8335987E-01
        2   -1    0    0  501    0  0.00000000000E+00  0.00000000000E+00  0.13206631166E+04  0.13206631166E+04  0.25500000920E-02 0.  1.
       -2   -1    0    0    0  501  0.00000000000E+00  0.00000000000E+00 -0.13768994493E+04  0.13768994493E+04  0.25500000920E-02 0. -1.
    10030    2    1    2    0    0  0.00000000000E+00  0.00000000000E+00 -0.56236332627E+02  0.26975625659E+04  0.26969763202E+04 0.  0.
        1    1    3    3  502    0 -0.18316737158E+03 -0.44176126098E+03  0.12329957118E+04  0.13224907270E+04  0.50400001928E-02 0.  1.
       -1    1    3    3    0  502  0.18316737158E+03  0.44176126098E+03 -0.12892320444E+04  0.13750718389E+04  0.50400001928E-02 0. -1.
</event>
<event>
 5   0  0.1339837E-05  0.2924506E+04  0.7818609E-02  0.8265623E-01
        2   -1    0    0  501    0  0.00000000000E+00  0.00000000000E+00  0.17275461157E+04  0.17275461157E+04  0.25500000920E-02 0.  1.
       -2   -1    0    0    0  501  0.00000000000E+00  0.00000000000E+00 -0.12376998573E+04  0.12376998573E+04  0.25500000920E-02 0. -1.
    10030    2    1    2    0    0  0.00000000000E+00  0.00000000000E+00  0.48984625835E+03  0.29652459730E+04  0.29245058255E+04 0.  0.
        5    1    3    3  502    0  0.13531591112E+04 -0.54748797944E+03  0.15782641362E+03  0.14682349726E+04  0.46999998093E+01 0. -1.
       -5    1    3    3    0  502 -0.13531591112E+04  0.54748797944E+03  0.33201984473E+03  0.14970110004E+04  0.46999998093E+01 0.  1.
</event>
<event>
 5   0  0.1339837E-05  0.2929076E+04  0.7818609E-02  0.8264279E-01
       -2   -1    0    0    0  501  0.00000000000E+00  0.00000000000E+00  0.10303478714E+04  0.10303478714E+04  0.25500000920E-02 0. -1.
        2   -1    0    0  501    0  0.00000000000E+00  0.00000000000E+00 -0.20816967133E+04  0.20816967133E+04  0.25500000920E-02 0.  1.
    10030    2    1    2    0    0  0.00000000000E+00  0.00000000000E+00 -0.10513488419E+04  0.31120445847E+04  0.29290761530E+04 0.  0.
        5    1    3    3  502    0 -0.41979113444E+03 -0.11493273174E+04 -0.13807266511E+04  0.18448864611E+04  0.46999998093E+01 0.  1.
       -5    1    3    3    0  502  0.41979113444E+03  0.11493273174E+04  0.32937780918E+03  0.12671581236E+04  0.46999998093E+01 0. -1.
</event>
<event>
 5   0  0.5261878E-06  0.2864809E+04  0.7818609E-02  0.8283426E-01
       -1   -1    0    0    0  501  0.00000000000E+00  0.00000000000E+00  0.24315750459E+04  0.24315750459E+04  0.50400001928E-02 0.  1.
        1   -1    0    0  501    0  0.00000000000E+00  0.00000000000E+00 -0.84380787003E+03  0.84380787005E+03  0.50400001928E-02 0. -1.
    10030    2    1    2    0    0  0.00000000000E+00  0.00000000000E+00  0.15877671758E+04  0.32753829159E+04  0.28648086570E+04 0.  0.
        5    1    3    3  502    0 -0.60159166086E+03 -0.95424132871E+03  0.18031613977E+04  0.21269466745E+04  0.46999998093E+01 0.  1.
       -5    1    3    3    0  502  0.60159166086E+03  0.95424132871E+03 -0.21539422189E+03  0.11484362414E+04  0.46999998093E+01 0. -1.
</event>
<event>
 5   0  0.4590125E-06  0.2967951E+04  0.7818609E-02  0.8252942E-01
        3   -1    0    0  501    0  0.00000000000E+00  0.00000000000E+00  0.14126986806E+04  0.14126986842E+04  0.10100000352E+00 0. -1.
       -3   -1    0    0    0  501  0.00000000000E+00  0.00000000000E+00 -0.15588480372E+04  0.15588480405E+04  0.10100000352E+00 0.  1.
    10030    2    1    2    0    0  0.00000000000E+00  0.00000000000E+00 -0.14614935664E+03  0.29715467247E+04  0.29679505222E+04 0.  0.
        3    1    3    3  502    0  0.63451364400E+02  0.28135835500E+03 -0.15305149538E+04  0.15574545366E+04  0.10100000352E+00 0.  1.
       -3    1    3    3    0  502 -0.63451364400E+02 -0.28135835500E+03  0.13843655972E+04  0.14140921881E+04  0.10100000352E+00 0. -1.
</event>
<event>
 5   0  0.5059249E-06  0.2930047E+04  0.7818609E-02  0.8263993E-01
        1   -1    0    0  501    0  0.00000000000E+00  0.00000000000E+00  0.28842731982E+04  0.28842731982E+04  0.50400001928E-02 0.  1.
       -1   -1    0    0    0  501  0.00000000000E+00  0.00000000000E+00 -0.74413669362E+03  0.74413669364E+03  0.50400001928E-02 0. -1.
    10030    2    1    2    0    0  0.00000000000E+00  0.00000000000E+00  0.21401365045E+04  0.36284098918E+04  0.29300467718E+04 0.  0.
        1    1    3    3  502    0  0.22065062255E+03  0.29072284493E+03 -0.68693702921E+03  0.77787463767E+03  0.50400001928E-02 0. -1.
       -1    1    3    3    0  502 -0.22065062255E+03 -0.29072284493E+03  0.28270735338E+04  0.28505352541E+04  0.50400001928E-02 0.  1.
</event>
<event>
 5   0  0.5154476E-06  0.2900093E+04  0.7818609E-02  0.8272850E-01
        1   -1    0    0  501    0  0.00000000000E+00  0.00000000000E+00  0.18487118375E+04  0.18487118376E+04  0.50400001928E-02 0.  1.
       -1   -1    0    0    0  501  0.00000000000E+00  0.00000000000E+00 -0.11373513999E+04  0.11373513999E+04  0.50400001928E-02 0. -1.
    10030    2    1    2    0    0  0.00000000000E+00  0.00000000000E+00  0.71136043769E+03  0.29860632374E+04  0.29000930995E+04 0.  0.
        3    1    3    3  502    0 -0.38385168021E+03  0.10125663829E+04 -0.63727359300E+03  0.12564833603E+04  0.10100000352E+00 0. -1.
       -3    1    3    3    0  502  0.38385168021E+03 -0.10125663829E+04  0.13486340307E+04  0.17295798771E+04  0.10100000352E+00 0.  1.
</event>
<event>
 5   0  0.5154476E-06  0.2883276E+04  0.7818609E-02  0.8277871E-01
       -1   -1    0    0    0  501  0.00000000000E+00  0.00000000000E+00  0.20778824704E+04  0.20778824704E+04  0.50400001928E-02 0. -1.
        1   -1    0    0  501    0  0.00000000000E+00  0.00000000000E+00 -0.10002104767E+04  0.10002104767E+04  0.50400001928E-02 0.  1.
    10030    2    1    2    0    0  0.00000000000E+00  0.00000000000E+00  0.10776719937E+04  0.30780929471E+04  0.28832757872E+04 0.  0.
        3    1    3    3  502    0  0.56978263928E+03  0.13181567326E+04  0.67442292457E+03  0.15865168512E+04  0.10100000352E+00 0. -1.
       -3    1    3    3    0  502 -0.56978263928E+03 -0.13181567326E+04  0.40324906915E+03  0.14915760959E+04  0.10100000352E+00 0.  1.
</event>
<event>
 5   0  0.1336899E-05  0.2992721E+04  0.7818609E-02  0.8245812E-01
       -2   -1    0    0    0  501  0.00000000000E+00  0.00000000000E+00  0.15305092916E+04  0.15305092916E+04  0.25500000920E-02 0. -1.
        2   -1    0    0  501    0  0.00000000000E+00  0.00000000000E+00 -0.14629737306E+04  0.14629737306E+04  0.25500000920E-02 0.  1.
    10030    2    1    2    0    0  0.00000000000E+00  0.00000000000E+00  0.67535561045E+02  0.29934830222E+04  0.29927210949E+04 0.  0.
        1    1    3    3  502    0 -0.12682099968E+04  0.79056248596E+03 -0.42075318228E+02  0.14950304253E+04  0.50400001928E-02 0. -1.
       -1    1    3    3    0  502  0.12682099968E+04 -0.79056248596E+03  0.10961087927E+03  0.14984525969E+04  0.50400001928E-02 0.  1.
</event>
<event>
 5   0  0.5002240E-06  0.2827570E+04  0.7818609E-02  0.8294760E-01
        1   -1    0    0  501    0  0.00000000000E+00  0.00000000000E+00  0.22004834562E+04  0.22004834562E+04  0.50400001928E-02 0.  1.
       -1   -1    0    0    0  501  0.00000000000E+00  0.00000000000E+00 -0.90834011862E+03  0.90834011863E+03  0.50400001928E-02 0. -1.
    10030    2    1    2    0    0  0.00000000000E+00  0.00000000000E+00  0.12921433376E+04  0.31088235749E+04  0.28275695597E+04 0.  0.
        4    1    3    3  502    0 -0.60434719372E+03  0.12780829335E+04  0.63797169211E+03  0.15510451342E+04  0.12699999809E+01 0.  1.
       -4    1    3    3    0  502  0.60434719372E+03 -0.12780829335E+04  0.65417164550E+03  0.15577784407E+04  0.12699999809E+01 0. -1.
</event>
<event>
 5   0  0.5059249E-06  0.2956005E+04  0.7818609E-02  0.8256407E-01
       -1   -1    0    0    0  501  0.00000000000E+00  0.00000000000E+00  0.13198558624E+04  0.13198558624E+04  0.50400001928E-02 0. -1.
        1   -1    0    0  501    0  0.00000000000E+00  0.00000000000E+00 -0.16550981577E+04  0.16550981577E+04  0.50400001928E-02 0.  1.
    10030    2    1    2    0    0  0.00000000000E+00  0.00000000000E+00 -0.33524229527E+03  0.29749540201E+04  0.29560047404E+04 0.  0.
        1    1    3    3  502    0 -0.89080439595E+03  0.11068113815E+04 -0.57757388759E+03  0.15336738577E+04  0.50400001928E-02 0.  1.
       -1    1    3    3    0  502  0.89080439595E+03 -0.11068113815E+04  0.24233159231E+03  0.14412801625E+04  0.50400001928E-02 0. -1.
</event>
<event>
 5   0  0.1382803E-05  0.2780518E+04  0.7818609E-02  0.8309342E-01
        2   -1    0    0  501    0  0.00000000000E+00  0.00000000000E+00  0.15764676857E+04  0.15764676857E+04  0.25500000920E-02 0.  1.
       -2   -1    0    0    0  501  0.00000000000E+00  0.00000000000E+00 -0.12260446777E+04  0.12260446777E+04  0.25500000920E-02 0. -1.
    10030    2    1    2    0    0  0.00000000000E+00  0.00000000000E+00  0.35042300803E+03  0.28025123634E+04  0.27805178047E+04 0.  0.
        2    1    3    3  502    0  0.13035972815E+04  0.47586418643E+03  0.25958279815E+03  0.14118058738E+04  0.25500000920E-02 0. -1.
       -2    1    3    3    0  502 -0.13035972815E+04 -0.47586418643E+03  0.90840209873E+02  0.13907064895E+04  0.25500000920E-02 0.  1.
</event>
<event>
 5   0  0.5154476E-06  0.2260333E+04  0.7818609E-02  0.8493728E-01
       -1   -1    0    0    0  501  0.00000000000E+00  0.00000000000E+00  0.10169440234E+04  0.10169440234E+04  0.50400001928E-02 0. -1.
        1   -1    0    0  501    0  0.00000000000E+00  0.00000000000E+00 -0.12559946004E+04  0.12559946004E+04  0.50400001928E-02 0.  1.
    10030    2    1    2    0    0  0.00000000000E+00  0.00000000000E+00 -0.23905057701E+03  0.22729386238E+04  0.22603328979E+04 0.  0.
        3    1    3    3  502    0 -0.70661943871E+03  0.85703113019E+03 -0.32916529651E+03  0.11585176701E+04  0.10100000352E+00 0.  1.
       -3    1    3    3    0  502  0.70661943871E+03 -0.85703113019E+03  0.90114719498E+02  0.11144209537E+04  0.10100000352E+00 0. -1.
</event>
<event>
 5   0  0.4590125E-06  0.2912250E+04  0.7818609E-02  0.8269242E-01
       -3   -1    0    0    0  501  0.00000000000E+00  0.00000000000E+00  0.13510476203E+04  0.13510476240E+04  0.10100000352E+00 0. -1.
        3   -1    0    0  501    0  0.00000000000E+00  0.00000000000E+00 -0.15693746401E+04  0.15693746434E+04  0.10100000352E+00 0.  1.
    10030    2    1    2    0    0  0.00000000000E+00  0.00000000000E+00 -0.21832701986E+03  0.29204222674E+04  0.29122499090E+04 0.  0.
        5    1    3    3  502    0  0.33252808273E+03 -0.50290118744E+03  0.12199967239E+04  0.13608448208E+04  0.46999998093E+01 0. -1.
       -5    1    3    3    0  502 -0.33252808273E+03  0.50290118744E+03 -0.14383237437E+04  0.15595774466E+04  0.46999998093E+01 0.  1.
</event>
<event>
 5   0  0.1385669E-05  0.2922279E+04  0.7818609E-02  0.8266280E-01
       -2   -1    0    0    0  501  0.00000000000E+00  0.00000000000E+00  0.11337601147E+04  0.11337601147E+04  0.25500000920E-02 0.  1.
        2   -1    0    0  501    0  0.00000000000E+00  0.00000000000E+00 -0.18830513897E+04  0.18830513897E+04  0.25500000920E-02 0. -1.
    10030    2    1    2    0    0  0.00000000000E+00  0.00000000000E+00 -0.74929127507E+03  0.30168115044E+04  0.29222789460E+04 0.  0.
        3    1    3    3  502    0  0.87558717070E+03 -0.47144826983E+03  0.73050409781E+03  0.12339175871E+04  0.10100000352E+00 0.  1.
       -3    1    3    3    0  502 -0.87558717070E+03  0.47144826983E+03 -0.14797953729E+04  0.17828939173E+04  0.10100000352E+00 0. -1.
</event>
<event>
 5   0  0.5059249E-06  0.2901077E+04  0.7818609E-02  0.8272557E-01
        1   -1    0    0  501    0  0.00000000000E+00  0.00000000000E+00  0.13250740695E+04  0.13250740695E+04  0.50400001928E-02 0.  1.
       -1   -1    0    0    0  501  0.00000000000E+00  0.00000000000E+00 -0.15878823666E+04  0.15878823667E+04  0.50400001928E-02 0. -1.
    10030    2    1    2    0    0  0.00000000000E+00  0.00000000000E+00 -0.26280829716E+03  0.29129564362E+04  0.29010768687E+04 0.  0.
        1    1    3    3  502    0 -0.13585531433E+04  0.48234364965E+03 -0.29249711476E+03  0.14710121011E+04  0.50400001928E-02 0. -1.
       -1    1    3    3    0  502  0.13585531433E+04 -0.48234364965E+03  0.29688817597E+02  0.14419443350E+04  0.50400001928E-02 0.  1.
</event>
<event>
 5   0  0.1382803E-05  0.2222293E+04  0.7818609E-02  0.8509206E-01
       -2   -1    0    0    0  501  0.00000000000E+00  0.00000000000E+00  0.81894597366E+03  0.81894597367E+03  0.25500000920E-02 0. -1.
        2   -1    0    0  501    0  0.00000000000E+00  0.00000000000E+00 -0.15076037634E+04  0.15076037634E+04  0.25500000920E-02 0.  1.
    10030    2    1    2    0    0  0.00000000000E+00  0.00000000000E+00 -0.68865778974E+03  0.23265497371E+04  0.22222925387E+04 0.  0.
        2    1    3    3  502    0  0.44265523182E+03  0.11924921867E+03  0.71532314786E+03  0.84961828857E+03  0.25500000920E-02 0. -1.
       -2    1    3    3    0  502 -0.44265523182E+03 -0.11924921867E+03 -0.14039809376E+04  0.14769314485E+04  0.25500000920E-02 0.  1.
</event>
<event>
 5   0  0.5352212E-06  0.2900234E+04  0.7818609E-02  0.8272808E-01
       -1   -1    0    0    0  501  0.00000000000E+00  0.00000000000E+00  0.19045239663E+04  0.19045239663E+04  0.50400001928E-02 0. -1.
        1   -1    0    0  501    0  0.00000000000E+00  0.00000000000E+00 -0.11041283924E+04  0.11041283924E+04  0.50400001928E-02 0.  1.
    10030    2    1    2    0    0  0.00000000000E+00  0.00000000000E+00  0.80039557391E+03  0.30086523587E+04  0.29002337735E+04 0.  0.
        2    1    3    3  502    0  0.13449304192E+04  0.10363917777E+03  0.95231550616E+03  0.16512067511E+04  0.25500000920E-02 0. -1.
       -2    1    3    3    0  502 -0.13449304192E+04 -0.10363917777E+03 -0.15191993226E+03  0.13574456076E+04  0.25500000920E-02 0.  1.
</event>
<event>
 5   0  0.1385669E-05  0.2257019E+04  0.7818609E-02  0.8495063E-01
        2   -1    0    0  501    0  0.00000000000E+00  0.00000000000E+00  0.14271562179E+04  0.14271562179E+04  0.25500000920E-02 0. -1.
       -2   -1    0    0    0  501  0.00000000000E+00  0.00000000000E+00 -0.89235728265E+03  0.89235728265E+03  0.25500000920E-02 0.  1.
    10030    2    1    2    0    0  0.00000000000E+00  0.00000000000E+00  0.53479893526E+03  0.23195135006E+04  0.22570186038E+04 0.  0.
        3    1    3    3  502    0 -0.94340511911E+03 -0.34918768770E+03  0.79301798056E+03  0.12809460518E+04  0.10100000352E+00 0. -1.
       -3    1    3    3    0  502  0.94340511911E+03  0.34918768770E+03 -0.25821904531E+03  0.10385674487E+04  0.10100000352E+00 0.  1.
</event>
<event>
 5   0  0.1339837E-05  0.2804877E+04  0.7818609E-02  0.8301756E-01
        2   -1    0    0  501    0  0.00000000000E+00  0.00000000000E+00  0.18943434985E+04  0.18943434985E+04  0.25500000920E-02 0. -1.
       -2   -1    0    0    0  501  0.00000000000E+00  0.00000000000E+00 -0.10382667215E+04  0.10382667215E+04  0.25500000920E-02 0.  1.
    10030    2    1    2    0    0  0.00000000000E+00  0.00000000000E+00  0.85607677706E+03  0.29326102200E+04  0.28048770480E+04 0.  0.
        5    1    3    3  502    0  0.36487575817E+03 -0.67321457620E+03 -0.80039710488E+03  0.11077047441E+04  0.46999998093E+01 0.  1.
       -5    1    3    3    0  502 -0.36487575817E+03  0.67321457620E+03  0.16564738819E+04  0.18249054759E+04  0.46999998093E+01 0. -1.
</event>
<event>
 5   0  0.5352212E-06  0.2587134E+04  0.7818609E-02  0.8372585E-01
       -1   -1    0    0    0  501  0.00000000000E+00  0.00000000000E+00  0.65657698666E+03  0.65657698668E+03  0.50400001928E-02 0.  1.
        1   -1    0    0  501    0  0.00000000000E+00  0.00000000000E+00 -0.25485435957E+04  0.25485435957E+04  0.50400001928E-02 0. -1.
    10030    2    1    2    0    0  0.00000000000E+00  0.00000000000E+00 -0.18919666090E+04  0.32051205824E+04  0.25871336065E+04 0.  0.
        2    1    3    3  502    0  0.52986730290E+03 -0.14193800022E+03  0.50535061367E+03  0.74584515640E+03  0.25500000920E-02 0.  1.
       -2    1    3    3    0  502 -0.52986730290E+03  0.14193800022E+03 -0.23973172227E+04  0.24592754260E+04  0.25500000920E-02 0. -1.
</event>
<event>
 5   0  0.1385669E-05  0.2897147E+04  0.7818609E-02  0.8273727E-01
        2   -1    0    0  501    0  0.00000000000E+00  0.00000000000E+00  0.13701730594E+04  0.13701730594E+04  0.25500000920E-02 0. -1.
       -2   -1    0    0    0  501  0.00000000000E+00  0.00000000000E+00 -0.15314603159E+04  0.15314603159E+04  0.25500000920E-02 0.  1.
    10030    2    1    2    0    0  0.00000000000E+00  0.00000000000E+00 -0.16128725647E+03  0.29016333753E+04  0.28971473324E+04 0.  0.
        3    1    3    3  502    0  0.13530038556E+04  0.51711987690E+03 -0.62360062571E+02  0.14498003959E+04  0.10100000352E+00 0. -1.
       -3    1    3    3    0  502 -0.13530038556E+04 -0.51711987690E+03 -0.98927193901E+02  0.14518329794E+04  0.10100000352E+00 0.  1.
</event>
<event>
 5   0  0.1336899E-05  0.2890338E+04  0.7818609E-02  0.8275758E-01
        2   -1    0    0  501    0  0.00000000000E+00  0.00000000000E+00  0.21505237960E+04  0.21505237960E+04  0.25500000920E-02 0. -1.
       -2   -1    0    0    0  501  0.00000000000E+00  0.00000000000E+00 -0.97116519215E+03  0.97116519216E+03  0.25500000920E-02 0.  1.
    10030    2    1    2    0    0  0.00000000000E+00  0.00000000000E+00  0.11793586039E+04  0.31216889882E+04  0.28903382886E+04 0.  0.
        1    1    3    3  502    0 -0.14055314101E+04  0.18138705772E+03  0.89534103648E+03  0.16763219801E+04  0.50400001928E-02 0. -1.
       -1    1    3    3    0  502  0.14055314101E+04 -0.18138705772E+03  0.28401756739E+03  0.14453670081E+04  0.50400001928E-02 0.  1.
</event>
<event>
 5   0  0.5154476E-06  0.2976348E+04  0.7818609E-02  0.8250517E-01
        1   -1    0    0  501    0  0.00000000000E+00  0.00000000000E+00  0.10422348041E+04  0.10422348041E+04  0.50400001928E-02 0. -1.
       -1   -1    0    0    0  501  0.00000000000E+00  0.00000000000E+00 -0.21249158560E+04  0.21249158560E+04  0.50400001928E-02 0.  1.
    10030    2    1    2    0    0  0.00000000000E+00  0.00000000000E+00 -0.10826810519E+04  0.31671506602E+04  0.29763476014E+04 0.  0.
        3    1    3    3  502    0  0.14050477008E+04 -0.18844297519E+03 -0.10231251675E+04  0.17482719797E+04  0.10100000352E+00 0.  1.
       -3    1    3    3    0  502 -0.14050477008E+04  0.18844297519E+03 -0.59555884443E+02  0.14188786805E+04  0.10100000352E+00 0. -1.
</event>
<event>
 5   0  0.1385669E-05  0.2869261E+04  0.7818609E-02  0.8282082E-01
       -2   -1    0    0    0  501  0.00000000000E+00  0.00000000000E+00  0.11047511722E+04  0.11047511722E+04  0.25500000920E-02 0.  1.
        2   -1    0    0  501    0  0.00000000000E+00  0.00000000000E+00 -0.18630125025E+04  0.18630125025E+04  0.25500000920E-02 0. -1.
    10030    2    1    2    0    0  0.00000000000E+00  0.00000000000E+00 -0.75826133023E+03  0.29677636747E+04  0.28692614004E+04 0.  0.
        3    1    3    3  502    0  0.10702006374E+04 -0.50900471284E+02  0.60769024553E+03  0.12317498557E+04  0.10100000352E+00 0.  1.
       -3    1    3    3    0  502 -0.10702006374E+04  0.50900471284E+02 -0.13659515758E+04  0.17360138190E+04  0.10100000352E+00 0. -1.
</event>
<event>
 5   0  0.5002240E-06  0.2681652E+04  0.7818609E-02  0.8340983E-01
        1   -1    0    0  501    0  0.00000000000E+00  0.00000000000E+00  0.13834813169E+04  0.13834813169E+04  0.50400001928E-02 0. -1.
       -1   -1    0    0    0  501  0.00000000000E+00  0.00000000000E+00 -0.12994854110E+04  0.12994854111E+04  0.50400001928E-02 0.  1.
    10030    2    1    2    0    0  0.00000000000E+00  0.00000000000E+00  0.83995905834E+02  0.26829667279E+04  0.26816515715E+04 0.  0.
        4    1    3    3  502    0 -0.12561175395E+04  0.25245472265E+03 -0.35347746829E+03  0.13291021757E+04  0.12699999809E+01 0. -1.
       -4    1    3    3    0  502  0.12561175395E+04 -0.25245472265E+03  0.43747337413E+03  0.13538645523E+04  0.12699999809E+01 0.  1.
</event>
<event>
 5   0  0.5059249E-06  0.2899647E+04  0.7818609E-02  0.8272982E-01
       -1   -1    0    0    0  501  0.00000000000E+00  0.00000000000E+00  0.10682403758E+04  0.10682403759E+04  0.50400001928E-02 0. -1.
        1   -1    0    0  501    0  0.00000000000E+00  0.00000000000E+00 -0.19677110492E+04  0.19677110492E+04  0.50400001928E-02 0.  1.
    10030    2    1    2    0    0  0.00000000000E+00  0.00000000000E+00 -0.89947067338E+03  0.30359514251E+04  0.28996471446E+04 0.  0.
        1    1    3    3  502    0  0.15557237990E+03  0.14411696614E+04 -0.41983356460E+03  0.15091166225E+04  0.50400001928E-02 0.  1.
       -1    1    3    3    0  502 -0.15557237990E+03 -0.14411696614E+04 -0.47963710877E+03  0.15268348026E+04  0.50400001928E-02 0. -1.
</event>
<event>
 5   0  0.5154476E-06  0.2875356E+04  0.7818609E-02  0.8280248E-01
       -1   -1    0    0    0  501  0.00000000000E+00  0.00000000000E+00  0.19272287933E+04  0.19272287933E+04  0.50400001928E-02 0. -1.
        1   -1    0    0  501    0  0.00000000000E+00  0.00000000000E+00 -0.10724815459E+04  0.10724815459E+04  0.50400001928E-02 0.  1.
    10030    2    1    2    0    0  0.00000000000E+00  0.00000000000E+00  0.85474724748E+03  0.29997103392E+04  0.28753555019E+04 0.  0.
        3    1    3    3  502    0 -0.62976090278E+03  0.73959648752E+03 -0.67832980739E+03  0.11847924277E+04  0.10100000352E+00 0.  1.
       -3    1    3    3    0  502  0.62976090278E+03 -0.73959648752E+03  0.15330770549E+04  0.18149179115E+04  0.10100000352E+00 0. -1.
</event>
<event>
 5   0  0.1307832E-05  0.2894002E+04  0.7818609E-02  0.8274664E-01
        2   -1    0    0  501    0  0.00000000000E+00  0.00000000000E+00  0.15561447735E+04  0.15561447735E+04  0.25500000920E-02 0.  1.
       -2   -1    0    0    0  501  0.00000000000E+00  0.00000000000E+00 -0.13455123552E+04  0.13455123552E+04  0.25500000920E-02 0. -1.
    10030    2    1    2    0    0  0.00000000000E+00  0.00000000000E+00  0.21063241831E+03  0.29016571287E+04  0.28940020865E+04 0.  0.
        4    1    3    3  502    0 -0.75465717135E+03  0.12072714527E+04 -0.15382168887E+03  0.14320176436E+04  0.12699999809E+01 0. -1.
       -4    1    3    3    0  502  0.75465717135E+03 -0.12072714527E+04  0.36445410718E+03  0.14696394850E+04  0.12699999809E+01 0.  1.
</event>
<event>
 5   0  0.1307832E-05  0.2898227E+04  0.7818609E-02  0.8273405E-01
        2   -1    0    0  501    0  0.00000000000E+00  0.00000000000E+00  0.23005390985E+04  0.23005390985E+04  0.25500000920E-02 0. -1.
       -2   -1    0    0    0  501  0.00000000000E+00  0.00000000000E+00 -0.91279883115E+03  0.91279883116E+03  0.25500000920E-02 0.  1.
    10030    2    1    2    0    0  0.00000000000E+00  0.00000000000E+00  0.13877402673E+04  0.32133379296E+04  0.28982266303E+04 0.  0.
        4    1    3    3  502    0  0.33478334077E+03  0.82083474120E+02  0.22544226034E+04  0.22806228249E+04  0.12699999809E+01 0. -1.
       -4    1    3    3    0  502 -0.33478334077E+03 -0.82083474120E+02 -0.86668233608E+03  0.93271510471E+03  0.12699999809E+01 0.  1.
</event>
<event>
 5   0  0.4590125E-06  0.2900104E+04  0.7818609E-02  0.8272846E-01
       -4   -1    0    0    0  501  0.00000000000E+00  0.00000000000E+00  0.11487057596E+04  0.11487064617E+04  0.12699999809E+01 0. -1.
        4   -1    0    0  501    0  0.00000000000E+00  0.00000000000E+00 -0.18304507754E+04  0.18304512160E+04  0.12699999809E+01 0.  1.
    10030    2    1    2    0    0  0.00000000000E+00  0.00000000000E+00 -0.68174501578E+03  0.29791576777E+04  0.29001041709E+04 0.  0.
        3    1    3    3  502    0 -0.44968856042E+03 -0.13779238205E+04 -0.38393394159E+03  0.14994329389E+04  0.10100000352E+00 0.  1.
       -3    1    3    3    0  502  0.44968856042E+03  0.13779238205E+04 -0.29781107419E+03  0.14797247388E+04  0.10100000352E+00 0. -1.
</event>
<event>
 5   0  0.5154476E-06  0.2871036E+04  0.7818609E-02  0.8281548E-01
       -1   -1    0    0    0  501  0.00000000000E+00  0.00000000000E+00  0.13684512608E+04  0.13684512608E+04  0.50400001928E-02 0. -1.
        1   -1    0    0  501    0  0.00000000000E+00  0.00000000000E+00 -0.15058714973E+04  0.15058714973E+04  0.50400001928E-02 0.  1.
    10030    2    1    2    0    0  0.00000000000E+00  0.00000000000E+00 -0.13742023654E+03  0.28743227581E+04  0.28710358751E+04 0.  0.
        3    1    3    3  502    0  0.10058886611E+03 -0.11727548828E+04  0.75396027392E+03  0.13978298323E+04  0.10100000352E+00 0. -1.
       -3    1    3    3    0  502 -0.10058886611E+03  0.11727548828E+04 -0.89138051046E+03  0.14764929258E+04  0.10100000352E+00 0.  1.
</event>
<event>
 5   0  0.5261878E-06  0.2934767E+04  0.7818609E-02  0.8262608E-01
       -1   -1    0    0    0  501  0.00000000000E+00  0.00000000000E+00  0.13454106229E+04  0.13454106229E+04  0.50400001928E-02 0. -1.
        1   -1    0    0  501    0  0.00000000000E+00  0.00000000000E+00 -0.16004141995E+04  0.16004141995E+04  0.50400001928E-02 0.  1.
    10030    2    1    2    0    0  0.00000000000E+00  0.00000000000E+00 -0.25500357660E+03  0.29458248224E+04  0.29347669516E+04 0.  0.
        5    1    3    3  502    0  0.72131839460E+03 -0.29651113548E+03  0.11201510472E+04  0.13649100843E+04  0.46999998093E+01 0. -1.
       -5    1    3    3    0  502 -0.72131839460E+03  0.29651113548E+03 -0.13751546238E+04  0.15809147381E+04  0.46999998093E+01 0.  1.
</event>
<event>
 5   0  0.1382803E-05  0.2952654E+04  0.7818609E-02  0.8257382E-01
        2   -1    0    0  501    0  0.00000000000E+00  0.00000000000E+00  0.13211726049E+04  0.13211726049E+04  0.25500000920E-02 0.  1.
       -2   -1    0    0    0  501  0.00000000000E+00  0.00000000000E+00 -0.16497022680E+04  0.16497022680E+04  0.25500000920E-02 0. -1.
    10030    2    1    2    0    0  0.00000000000E+00  0.00000000000E+00 -0.32852966310E+03  0.29708748730E+04  0.29526540216E+04 0.  0.
        2    1    3    3  502    0  0.14485240614E+04  0.16150162791E+03 -0.40074008684E+03  0.15115876916E+04  0.25500000920E-02 0. -1.
       -2    1    3    3    0  502 -0.14485240614E+04 -0.16150162791E+03  0.72210423739E+02  0.14592871813E+04  0.25500000920E-02 0.  1.
</event>
<event>
 5   0  0.1385669E-05  0.2874126E+04  0.7818609E-02  0.8280618E-01
        2   -1    0    0  501    0  0.00000000000E+00  0.00000000000E+00  0.24638943763E+04  0.24638943763E+04  0.25500000920E-02 0. -1.
       -2   -1    0    0    0  501  0.00000000000E+00  0.00000000000E+00 -0.83816515898E+03  0.83816515898E+03  0.25500000920E-02 0.  1.
    10030    2    1    2    0    0  0.00000000000E+00  0.00000000000E+00  0.16257292173E+04  0.33020595353E+04  0.28741262475E+04 0.  0.
        3    1    3    3  502    0  0.22505751199E+03 -0.44889858421E+03 -0.73408694670E+03  0.88940681250E+03  0.10100000352E+00 0.  1.
       -3    1    3    3    0  502 -0.22505751199E+03  0.44889858421E+03  0.23598161640E+04  0.24126527228E+04  0.10100000352E+00 0. -1.
</event>
<event>
 5   0  0.1336899E-05  0.2081293E+04  0.7818609E-02  0.8569529E-01
        2   -1    0    0  501    0  0.00000000000E+00  0.00000000000E+00  0.17040198046E+04  0.17040198046E+04  0.25500000920E-02 0.  1.
       -2   -1    0    0    0  501  0.00000000000E+00  0.00000000000E+00 -0.63552397167E+03  0.63552397168E+03  0.25500000920E-02 0. -1.
    10030    2    1    2    0    0  0.00000000000E+00  0.00000000000E+00  0.10684958329E+04  0.23395437763E+04  0.20812932845E+04 0.  0.
        1    1    3    3  502    0 -0.93238732447E+03  0.44213161004E+03  0.68555679524E+03  0.12388763469E+04  0.50400001928E-02 0.  1.
       -1    1    3    3    0  502  0.93238732447E+03 -0.44213161004E+03  0.38293903768E+03  0.11006674293E+04  0.50400001928E-02 0. -1.
</event>
<event>
 5   0  0.1382803E-05  0.2895928E+04  0.7818609E-02  0.8274090E-01
        2   -1    0    0  501    0  0.00000000000E+00  0.00000000000E+00  0.88313056704E+03  0.88313056704E+03  0.25500000920E-02 0. -1.
       -2   -1    0    0    0  501  0.00000000000E+00  0.00000000000E+00 -0.23740546997E+04  0.23740546997E+04  0.25500000920E-02 0.  1.
    10030    2    1    2    0    0  0.00000000000E+00  0.00000000000E+00 -0.14909241327E+04  0.32571852668E+04  0.28959283646E+04 0.  0.
        2    1    3    3  502    0 -0.88462720430E+03  0.46668147614E+03  0.43216597754E+03  0.10895523498E+04  0.25500000920E-02 0. -1.
       -2    1    3    3    0  502  0.88462720430E+03 -0.46668147614E+03 -0.19230901102E+04  0.21676329170E+04  0.25500000920E-02 0.  1.
</event>
<event>
 5   0  0.1385669E-05  0.2884726E+04  0.7818609E-02  0.8277436E-01
       -2   -1    0    0    0  501  0.00000000000E+00  0.00000000000E+00  0.12152493720E+04  0.12152493720E+04  0.25500000920E-02 0.  1.
        2   -1    0    0  501    0  0.00000000000E+00  0.00000000000E+00 -0.17119211932E+04  0.17119211932E+04  0.25500000920E-02 0. -1.
    10030    2    1    2    0    0  0.00000000000E+00  0.00000000000E+00 -0.49667182123E+03  0.29271705652E+04  0.28847260909E+04 0.  0.
        3    1    3    3  502    0  0.65290693645E+03 -0.71376002045E+03 -0.13339704604E+04  0.16477918661E+04  0.10100000352E+00 0. -1.
       -3    1    3    3    0  502 -0.65290693645E+03  0.71376002045E+03  0.83729863916E+03  0.12793786991E+04  0.10100000352E+00 0.  1.
</event>
<event>
 5   0  0.5154476E-06  0.2890514E+04  0.7818609E-02  0.8275706E-01
        1   -1    0    0  501    0  0.00000000000E+00  0.00000000000E+00  0.16363261468E+04  0.16363261468E+04  0.50400001928E-02 0. -1.
       -1   -1    0    0    0  501  0.00000000000E+00  0.00000000000E+00 -0.12764981525E+04  0.12764981525E+04  0.50400001928E-02 0.  1.
    10030    2    1    2    0    0  0.00000000000E+00  0.00000000000E+00  0.35982799432E+03  0.29128242993E+04  0.28905136590E+04 0.  0.
        3    1    3    3  502    0  0.13128781104E+04 -0.37334076595E+03 -0.29886902881E+03  0.13972669633E+04  0.10100000352E+00 0.  1.
       -3    1    3    3    0  502 -0.13128781104E+04  0.37334076595E+03  0.65869702313E+03  0.15155573360E+04  0.10100000352E+00 0. -1.
</event>
<event>
 5   0  0.1339837E-05  0.2941438E+04  0.7818609E-02  0.8260654E-01
        2   -1    0    0  501    0  0.00000000000E+00  0.00000000000E+00  0.16419298397E+04  0.16419298397E+04  0.25500000920E-02 0. -1.
       -2   -1    0    0    0  501  0.00000000000E+00  0.00000000000E+00 -0.13173606637E+04  0.13173606637E+04  0.25500000920E-02 0.  1.
    10030    2    1    2    0    0  0.00000000000E+00  0.00000000000E+00  0.32456917601E+03  0.29592905035E+04  0.29414375965E+04 0.  0.
        5    1    3    3  502    0  0.55001637416E+03 -0.32402219310E+03  0.14952728113E+04  0.16258447846E+04  0.46999998093E+01 0. -1.
       -5    1    3    3    0  502 -0.55001637416E+03  0.32402219310E+03 -0.11707036353E+04  0.13334457189E+04  0.46999998093E+01 0.  1.
</event>
<event>
 5   0  0.5261878E-06  0.3058192E+04  0.7818609E-02  0.8227306E-01
       -1   -1    0    0    0  501  0.00000000000E+00  0.00000000000E+00  0.15265467661E+04  0.15265467661E+04  0.50400001928E-02 0.  1.
        1   -1    0    0  501    0  0.00000000000E+00  0.00000000000E+00 -0.15316491802E+04  0.15316491802E+04  0.50400001928E-02 0. -1.
    10030    2    1    2    0    0  0.00000000000E+00  0.00000000000E+00 -0.51024140617E+01  0.30581959463E+04  0.30581916897E+04 0.  0.
        5    1    3    3  502    0  0.74520653304E+03 -0.13349545850E+04  0.23439056974E+02  0.15290546100E+04  0.46999998093E+01 0.  1.
       -5    1    3    3    0  502 -0.74520653304E+03  0.13349545850E+04 -0.28541471036E+02  0.15291413363E+04  0.46999998093E+01 0. -1.
</event>
<event>
 5   0  0.5154476E-06  0.2188009E+04  0.7818609E-02  0.8523436E-01
        1   -1    0    0  501    0  0.00000000000E+00  0.00000000000E+00  0.13267356864E+04  0.13267356864E+04  0.50400001928E-02 0. -1.
       -1   -1    0    0    0  501  0.00000000000E+00  0.00000000000E+00 -0.90209814846E+03  0.90209814848E+03  0.50400001928E-02 0.  1.
    10030    2    1    2    0    0  0.00000000000E+00  0.00000000000E+00  0.42463753794E+03  0.22288338349E+04  0.21880089636E+04 0.  0.
        3    1    3    3  502    0  0.62253961194E+03 -0.53464234382E+03 -0.52467748620E+03  0.97400435264E+03  0.10100000352E+00 0.  1.
       -3    1    3    3    0  502 -0.62253961194E+03  0.53464234382E+03  0.94931502414E+03  0.12548294822E+04  0.10100000352E+00 0. -1.
</event>
<event>
 5   0  0.1385669E-05  0.2853468E+04  0.7818609E-02  0.8286858E-01
        2   -1    0    0  501    0  0.00000000000E+00  0.00000000000E+00  0.12476450209E+04  0.12476450209E+04  0.25500000920E-02 0.  1.
       -2   -1    0    0    0  501  0.00000000000E+00  0.00000000000E+00 -0.16315295480E+04  0.16315295480E+04  0.25500000920E-02 0. -1.
    10030    2    1    2    0    0  0.00000000000E+00  0.00000000000E+00 -0.38388452710E+03  0.28791745689E+04  0.28534678671E+04 0.  0.
        3    1    3    3  502    0  0.66892795756E+03 -0.24664748109E+03  0.10550189301E+04  0.12733281374E+04  0.10100000352E+00 0.  1.
       -3    1    3    3    0  502 -0.66892795756E+03  0.24664748109E+03 -0.14389034572E+04  0.16058464316E+04  0.10100000352E+00 0. -1.
</event>
<event>
 5   0  0.5059249E-06  0.2724951E+04  0.7818609E-02  0.8326954E-01
        1   -1    0    0  501    0  0.00000000000E+00  0.00000000000E+00  0.21390106461E+04  0.21390106461E+04  0.50400001928E-02 0. -1.
       -1   -1    0    0    0  501  0.00000000000E+00  0.00000000000E+00 -0.86784975656E+03  0.86784975658E+03  0.50400001928E-02 0.  1.
    10030    2    1    2    0    0  0.00000000000E+00  0.00000000000E+00  0.12711608895E+04  0.30068604026E+04  0.27249512792E+04 0.  0.
        1    1    3    3  502    0  0.73791764093E+03 -0.69247943737E+03  0.16422612128E+04  0.19290080630E+04  0.50400001928E-02 0. -1.
       -1    1    3    3    0  502 -0.73791764093E+03  0.69247943737E+03 -0.37110032335E+03  0.10778523396E+04  0.50400001928E-02 0.  1.
</event>
<event>
 5   0  0.5154476E-06  0.2973577E+04  0.7818609E-02  0.8251317E-01
       -1   -1    0    0    0  501  0.00000000000E+00  0.00000000000E+00  0.18351791657E+04  0.18351791657E+04  0.50400001928E-02 0. -1.
        1   -1    0    0  501    0  0.00000000000E+00  0.00000000000E+00 -0.12045361661E+04  0.12045361661E+04  0.50400001928E-02 0.  1.
    10030    2    1    2    0    0  0.00000000000E+00  0.00000000000E+00  0.63064299961E+03  0.30397153317E+04  0.29735767528E+04 0.  0.
        3    1    3    3  502    0  0.13874525185E+04 -0.34283694656E+03  0.73428864572E+03  0.16067798506E+04  0.10100000352E+00 0.  1.
       -3    1    3    3    0  502 -0.13874525185E+04  0.34283694656E+03 -0.10364564611E+03  0.14329354811E+04  0.10100000352E+00 0. -1.
</event>
<event>
 5   0  0.5352212E-06  0.3018265E+04  0.7818609E-02  0.8238534E-01
        1   -1    0    0  501    0  0.00000000000E+00  0.00000000000E+00  0.18731625532E+04  0.18731625533E+04  0.50400001928E-02 0. -1.
       -1   -1    0    0    0  501  0.00000000000E+00  0.00000000000E+00 -0.12158480233E+04  0.12158480233E+04  0.50400001928E-02 0.  1.
    10030    2    1    2    0    0  0.00000000000E+00  0.00000000000E+00  0.65731452992E+03  0.30890105766E+04  0.30182650565E+04 0.  0.
        2    1    3    3  502    0  0.55541417069E+03 -0.12784268790E+04 -0.26336560948E+03  0.14185279801E+04  0.25500000920E-02 0.  1.
       -2    1    3    3    0  502 -0.55541417069E+03  0.12784268790E+04  0.92068013940E+03  0.16704825965E+04  0.25500000920E-02 0. -1.
</event>
<event>
 5   0  0.5261878E-06  0.2902525E+04  0.7818609E-02  0.8272127E-01
        1   -1    0    0  501    0  0.00000000000E+00  0.00000000000E+00  0.10719496875E+04  0.10719496875E+04  0.50400001928E-02 0.  1.
       -1   -1    0    0    0  501  0.00000000000E+00  0.00000000000E+00 -0.19647966554E+04  0.19647966554E+04  0.50400001928E-02 0. -1.
    10030    2    1    2    0    0  0.00000000000E+00  0.00000000000E+00 -0.89284696791E+03  0.30367463429E+04  0.29025252183E+04 0.  0.
        5    1    3    3  502    0 -0.72766952523E+02  0.78780955093E+02 -0.19606371817E+04  0.19635737105E+04  0.46999998093E+01 0. -1.
       -5    1    3    3    0  502  0.72766952523E+02 -0.78780955093E+02  0.10677902138E+04  0.10731726324E+04  0.46999998093E+01 0.  1.
</event>
<event>
 5   0  0.1307832E-05  0.2911669E+04  0.7818609E-02  0.8269414E-01
       -2   -1    0    0    0  501  0.00000000000E+00  0.00000000000E+00  0.90353792878E+03  0.90353792879E+03  0.25500000920E-02 0.  1.
        2   -1    0    0  501    0  0.00000000000E+00  0.00000000000E+00 -0.23457277753E+04  0.23457277753E+04  0.25500000920E-02 0. -1.
    10030    2    1    2    0    0  0.00000000000E+00  0.00000000000E+00 -0.14421898465E+04  0.32492657041E+04  0.29116689479E+04 0.  0.
        4    1    3    3  502    0 -0.34443652881E+03 -0.84084309174E+03 -0.19904309298E+04  0.21880289135E+04  0.12699999809E+01 0. -1.
       -4    1    3    3    0  502  0.34443652881E+03  0.84084309174E+03  0.54824108328E+03  0.10612367905E+04  0.12699999809E+01 0.  1.
</event>
<event>
 5   0  0.1336899E-05  0.2884039E+04  0.7818609E-02  0.8277642E-01
        2   -1    0    0  501    0  0.00000000000E+00  0.00000000000E+00  0.23497167123E+04  0.23497167123E+04  0.25500000920E-02 0.  1.
       -2   -1    0    0    0  501  0.00000000000E+00  0.00000000000E+00 -0.88496605500E+03  0.88496605500E+03  0.25500000920E-02 0. -1.
    10030    2    1    2    0    0  0.00000000000E+00  0.00000000000E+00  0.14647506573E+04  0.32346827673E+04  0.28840385082E+04 0.  0.
        1    1    3    3  502    0 -0.37035007754E+02  0.14004693597E+04  0.34917275966E+03  0.14438170367E+04  0.50400001928E-02 0.  1.
       -1    1    3    3    0  502  0.37035007754E+02 -0.14004693597E+04  0.11155778976E+04  0.17908657306E+04  0.50400001928E-02 0. -1.
</event>
<event>
 5   0  0.5002240E-06  0.2320194E+04  0.7818609E-02  0.8470001E-01
       -1   -1    0    0    0  501  0.00000000000E+00  0.00000000000E+00  0.41003309071E+03  0.41003309074E+03  0.50400001928E-02 0. -1.
        1   -1    0    0  501    0  0.00000000000E+00  0.00000000000E+00 -0.32822359115E+04  0.32822359115E+04  0.50400001928E-02 0.  1.
    10030    2    1    2    0    0  0.00000000000E+00  0.00000000000E+00 -0.28722028208E+04  0.36922690022E+04  0.23201942464E+04 0.  0.
        4    1    3    3  502    0  0.45338423876E+03  0.41754049405E+03 -0.30001167369E+04  0.30627764169E+04  0.12699999809E+01 0.  1.
       -4    1    3    3    0  502 -0.45338423876E+03 -0.41754049405E+03  0.12791391611E+03  0.62949258532E+03  0.12699999809E+01 0. -1.
</event>
<event>
 5   0  0.1382803E-05  0.2889701E+04  0.7818609E-02  0.8275948E-01
        2   -1    0    0  501    0  0.00000000000E+00  0.00000000000E+00  0.11787371979E+04  0.11787371979E+04  0.25500000920E-02 0. -1.
       -2   -1    0    0    0  501  0.00000000000E+00  0.00000000000E+00 -0.17710413939E+04  0.17710413939E+04  0.25500000920E-02 0.  1.
    10030    2    1    2    0    0  0.00000000000E+00  0.00000000000E+00 -0.59230419604E+03  0.29497785918E+04  0.28897005866E+04 0.  0.
        2    1    3    3  502    0 -0.17607517481E+03 -0.10731504097E+04  0.67490777946E+03  0.12799042073E+04  0.25500000920E-02 0. -1.
       -2    1    3    3    0  502  0.17607517481E+03  0.10731504097E+04 -0.12672119755E+04  0.16698743845E+04  0.25500000920E-02 0.  1.
</event>
<event>
 5   0  0.5261878E-06  0.2882047E+04  0.7818609E-02  0.8278239E-01
        1   -1    0    0  501    0  0.00000000000E+00  0.00000000000E+00  0.11988527079E+04  0.11988527079E+04  0.50400001928E-02 0. -1.
       -1   -1    0    0    0  501  0.00000000000E+00  0.00000000000E+00 -0.17321131315E+04  0.17321131315E+04  0.50400001928E-02 0.  1.
    10030    2    1    2    0    0  0.00000000000E+00  0.00000000000E+00 -0.53326042353E+03  0.29309658394E+04  0.28820468547E+04 0.  0.
        5    1    3    3  502    0 -0.86061893631E+03 -0.43432261599E+03 -0.13558965562E+04  0.16636642237E+04  0.46999998093E+01 0.  1.
       -5    1    3    3    0  502  0.86061893631E+03  0.43432261599E+03  0.82263613265E+03  0.12673016157E+04  0.46999998093E+01 0. -1.
</event>
<event>
 5   0  0.1382803E-05  0.2987984E+04  0.7818609E-02  0.8247170E-01
       -2   -1    0    0    0  501  0.00000000000E+00  0.00000000000E+00  0.17539256586E+04  0.17539256586E+04  0.25500000920E-02 0. -1.
        2   -1    0    0  501    0  0.00000000000E+00  0.00000000000E+00 -0.12725808953E+04  0.12725808953E+04  0.25500000920E-02 0.  1.
    10030    2    1    2    0    0  0.00000000000E+00  0.00000000000E+00  0.48134476333E+03  0.30265065539E+04  0.29879841264E+04 0.  0.
        2    1    3    3  502    0  0.12966135300E+04 -0.99167672996E+02 -0.50431769857E+03  0.13947677996E+04  0.25500000920E-02 0.  1.
       -2    1    3    3    0  502 -0.12966135300E+04  0.99167672996E+02  0.98566246191E+03  0.16317387543E+04  0.25500000920E-02 0. -1.
</event>
<event>
 5   0  0.5002240E-06  0.2855355E+04  0.7818609E-02  0.8286286E-01
       -1   -1    0    0    0  501  0.00000000000E+00  0.00000000000E+00  0.12572111910E+04  0.12572111910E+04  0.50400001928E-02 0. -1.
        1   -1    0    0  501    0  0.00000000000E+00  0.00000000000E+00 -0.16212573185E+04  0.16212573185E+04  0.50400001928E-02 0.  1.
    10030    2    1    2    0    0  0.00000000000E+00  0.00000000000E+00 -0.36404612754E+03  0.28784685096E+04  0.28553548602E+04 0.  0.
        4    1    3    3  502    0  0.14745369765E+03 -0.68549025368E+03 -0.14357225556E+04  0.15977923365E+04  0.12699999809E+01 0.  1.
       -4    1    3    3    0  502 -0.14745369765E+03  0.68549025368E+03  0.10716764281E+04  0.12806761731E+04  0.12699999809E+01 0. -1.
</event>
<event>
 5   0  0.5352212E-06  0.2921932E+04  0.7818609E-02  0.8266382E-01
       -1   -1    0    0    0  501  0.00000000000E+00  0.00000000000E+00  0.11814038321E+04  0.11814038321E+04  0.50400001928E-02 0.  1.
        1   -1    0    0  501    0  0.00000000000E+00  0.00000000000E+00 -0.18066821058E+04  0.18066821058E+04  0.50400001928E-02 0. -1.
    10030    2    1    2    0    0  0.00000000000E+00  0.00000000000E+00 -0.62527827368E+03  0.29880859379E+04  0.29219316647E+04 0.  0.
        2    1    3    3  502    0  0.18986834613E+03 -0.65065957478E+02 -0.17925161886E+04  0.18037177867E+04  0.25500000920E-02 0. -1.
       -2    1    3    3    0  502 -0.18986834613E+03  0.65065957478E+02  0.11672379149E+04  0.11843681512E+04  0.25500000920E-02 0.  1.
</event>
<event>
 5   0  0.5352212E-06  0.2932681E+04  0.7818609E-02  0.8263220E-01
        1   -1    0    0  501    0  0.00000000000E+00  0.00000000000E+00  0.23341013970E+04  0.23341013970E+04  0.50400001928E-02 0.  1.
       -1   -1    0    0    0  501  0.00000000000E+00  0.00000000000E+00 -0.92119139367E+03  0.92119139368E+03  0.50400001928E-02 0. -1.
    10030    2    1    2    0    0  0.00000000000E+00  0.00000000000E+00  0.14129100033E+04  0.32552927907E+04  0.29326807661E+04 0.  0.
        2    1    3    3  502    0  0.10118612925E+04 -0.44561112967E+02 -0.47052034395E+03  0.11167982639E+04  0.25500000920E-02 0. -1.
       -2    1    3    3    0  502 -0.10118612925E+04  0.44561112967E+02  0.18834303473E+04  0.21384945268E+04  0.25500000920E-02 0.  1.
</event>
<event>
 5   0  0.1382803E-05  0.2806938E+04  0.7818609E-02  0.8301118E-01
       -2   -1    0    0    0  501  0.00000000000E+00  0.00000000000E+00  0.11177182627E+04  0.11177182627E+04  0.25500000920E-02 0. -1.
        2   -1    0    0  501    0  0.00000000000E+00  0.00000000000E+00 -0.17622736391E+04  0.17622736391E+04  0.25500000920E-02 0.  1.
    10030    2    1    2    0    0  0.00000000000E+00  0.00000000000E+00 -0.64455537643E+03  0.28799919019E+04  0.28069381400E+04 0.  0.
        2    1    3    3  502    0  0.18842655240E+03 -0.21953722261E+03  0.10867906739E+04  0.11246399987E+04  0.25500000920E-02 0. -1.
       -2    1    3    3    0  502 -0.18842655240E+03  0.21953722261E+03 -0.17313460504E+04  0.17553519031E+04  0.25500000920E-02 0.  1.
</event>
<event>
 5   0  0.5261878E-06  0.2016030E+04  0.7818609E-02  0.8599163E-01
        1   -1    0    0  501    0  0.00000000000E+00  0.00000000000E+00  0.10945622888E+04  0.10945622888E+04  0.50400001928E-02 0.  1.
       -1   -1    0    0    0  501  0.00000000000E+00  0.00000000000E+00 -0.92831106750E+03  0.92831106751E+03  0.50400001928E-02 0. -1.
    10030    2    1    2    0    0  0.00000000000E+00  0.00000000000E+00  0.16625122133E+03  0.20228733564E+04  0.20160300462E+04 0.  0.
        5    1    3    3  502    0 -0.47318513241E+02 -0.41041608087E+03  0.10056985424E+04  0.10872589615E+04  0.46999998093E+01 0.  1.
       -5    1    3    3    0  502  0.47318513241E+02  0.41041608087E+03 -0.83944732104E+03  0.93561439489E+03  0.46999998093E+01 0. -1.
</event>
<event>
 5   0  0.1339837E-05  0.2954294E+04  0.7818609E-02  0.8256904E-01
        2   -1    0    0  501    0  0.00000000000E+00  0.00000000000E+00  0.13338851535E+04  0.13338851535E+04  0.25500000920E-02 0. -1.
       -2   -1    0    0    0  501  0.00000000000E+00  0.00000000000E+00 -0.16357958349E+04  0.16357958349E+04  0.25500000920E-02 0.  1.
    10030    2    1    2    0    0  0.00000000000E+00  0.00000000000E+00 -0.30191068141E+03  0.29696809884E+04  0.29542943512E+04 0.  0.
        5    1    3    3  502    0 -0.34821877609E+03 -0.17778256292E+03  0.12809209040E+04  0.13392697294E+04  0.46999998093E+01 0. -1.
       -5    1    3    3    0  502  0.34821877609E+03  0.17778256292E+03 -0.15828315855E+04  0.16304112590E+04  0.46999998093E+01 0.  1.
</event>
<event>
 5   0  0.1339837E-05  0.2906401E+04  0.7818609E-02  0.8270976E-01
        2   -1    0    0  501    0  0.00000000000E+00  0.00000000000E+00  0.24626975965E+04  0.24626975965E+04  0.25500000920E-02 0.  1.
       -2   -1    0    0    0  501  0.00000000000E+00  0.00000000000E+00 -0.85751148114E+03  0.85751148114E+03  0.25500000920E-02 0. -1.
    10030    2    1    2    0    0  0.00000000000E+00  0.00000000000E+00  0.16051861153E+04  0.33202090776E+04  0.29064008420E+04 0.  0.
        5    1    3    3  502    0  0.10576601741E+04  0.96780879055E+03  0.10740623062E+04  0.17913488847E+04  0.46999998093E+01 0. -1.
       -5    1    3    3    0  502 -0.10576601741E+04 -0.96780879055E+03  0.53112380913E+03  0.15288601930E+04  0.46999998093E+01 0.  1.
</event>
<event>
 5   0  0.1307832E-05  0.2491891E+04  0.7818609E-02  0.8405880E-01
       -2   -1    0    0    0  501  0.00000000000E+00  0.00000000000E+00  0.81801900741E+03  0.81801900741E+03  0.25500000920E-02 0.  1.
        2   -1    0    0  501    0  0.00000000000E+00  0.00000000000E+00 -0.18977318726E+04  0.18977318726E+04  0.25500000920E-02 0. -1.
    10030    2    1    2    0    0  0.00000000000E+00  0.00000000000E+00 -0.10797128652E+04  0.27157508800E+04  0.24918914445E+04 0.  0.
        4    1    3    3  502    0  0.73762582821E+02  0.59126568615E+03  0.65267577659E+03  0.88375523336E+03  0.12699999809E+01 0.  1.
       -4    1    3    3    0  502 -0.73762582821E+02 -0.59126568615E+03 -0.17323886418E+04  0.18319956466E+04  0.12699999809E+01 0. -1.
</event>
<event>
 5   0  0.5002240E-06  0.2391086E+04  0.7818609E-02  0.8442848E-01
        1   -1    0    0  501    0  0.00000000000E+00  0.00000000000E+00  0.14261260604E+04  0.14261260604E+04  0.50400001928E-02 0.  1.
       -1   -1    0    0    0  501  0.00000000000E+00  0.00000000000E+00 -0.10022415511E+04  0.10022415511E+04  0.50400001928E-02 0. -1.
    10030    2    1    2    0    0  0.00000000000E+00  0.00000000000E+00  0.42388450932E+03  0.24283676115E+04  0.23910857742E+04 0.  0.
        4    1    3    3  502    0 -0.37477417792E+03  0.62906542599E+02  0.13631543328E+04  0.14151340098E+04  0.12699999809E+01 0.  1.
       -4    1    3    3    0  502  0.37477417792E+03 -0.62906542599E+02 -0.93926982351E+03  0.10132336018E+04  0.12699999809E+01 0. -1.
</event>
<event>
 5   0  0.5352212E-06  0.2929866E+04  0.7818609E-02  0.8264047E-01
        1   -1    0    0  501    0  0.00000000000E+00  0.00000000000E+00  0.22014176492E+04  0.22014176492E+04  0.50400001928E-02 0. -1.
       -1   -1    0    0    0  501  0.00000000000E+00  0.00000000000E+00 -0.97483913361E+03  0.97483913363E+03  0.50400001928E-02 0.  1.
    10030    2    1    2    0    0  0.00000000000E+00  0.00000000000E+00  0.12265785156E+04  0.31762567829E+04  0.29298655764E+04 0.  0.
        2    1    3    3  502    0 -0.33869256064E+03 -0.10345147162E+04 -0.44950942429E+03  0.11777062754E+04  0.25500000920E-02 0.  1.
       -2    1    3    3    0  502  0.33869256064E+03  0.10345147162E+04  0.16760879399E+04  0.19985505075E+04  0.25500000920E-02 0. -1.
</event>
<event>
 5   0  0.1382803E-05  0.2730676E+04  0.7818609E-02  0.8325120E-01
        2   -1    0    0  501    0  0.00000000000E+00  0.00000000000E+00  0.20036795074E+04  0.20036795074E+04  0.25500000920E-02 0. -1.
       -2   -1    0    0    0  501  0.00000000000E+00  0.00000000000E+00 -0.93036230749E+03  0.93036230750E+03  0.25500000920E-02 0.  1.
    10030    2    1    2    0    0  0.00000000000E+00  0.00000000000E+00  0.10733171999E+04  0.29340418149E+04  0.27306760262E+04 0.  0.
        2    1    3    3  502    0 -0.12668503604E+03 -0.25749690662E+03 -0.89759148401E+03  0.94235037404E+03  0.25500000920E-02 0.  1.
       -2    1    3    3    0  502  0.12668503604E+03  0.25749690662E+03  0.19709086839E+04  0.19916914409E+04  0.25500000920E-02 0. -1.
</event>
<event>
 5   0  0.5352212E-06  0.2719067E+04  0.7818609E-02  0.8328845E-01
       -1   -1    0    0    0  501  0.00000000000E+00  0.00000000000E+00  0.15599027910E+04  0.15599027910E+04  0.50400001928E-02 0.  1.
        1   -1    0    0  501    0  0.00000000000E+00  0.00000000000E+00 -0.11849014918E+04  0.11849014919E+04  0.50400001928E-02 0. -1.
    10030    2    1    2    0    0  0.00000000000E+00  0.00000000000E+00  0.37500129918E+03  0.27448042829E+04  0.27190668578E+04 0.  0.
        2    1    3    3  502    0 -0.44097874509E+03 -0.97763497256E+03 -0.65593106421E+03  0.12571706146E+04  0.25500000920E-02 0. -1.
       -2    1    3    3    0  502  0.44097874509E+03  0.97763497256E+03  0.10309323634E+04  0.14876336683E+04  0.25500000920E-02 0.  1.
</event>
<event>
 5   0  0.1385669E-05  0.2900656E+04  0.7818609E-02  0.8272682E-01
        2   -1    0    0  501    0  0.00000000000E+00  0.00000000000E+00  0.24458379407E+04  0.24458379407E+04  0.25500000920E-02 0.  1.
       -2   -1    0    0    0  501  0.00000000000E+00  0.00000000000E+00 -0.86001244794E+03  0.86001244794E+03  0.25500000920E-02 0. -1.
    10030    2    1    2    0    0  0.00000000000E+00  0.00000000000E+00  0.15858254927E+04  0.33058503886E+04  0.29006558394E+04 0.  0.
        3    1    3    3  502    0 -0.42589336821E+03  0.11088125579E+04 -0.15556780086E+03  0.11979364760E+04  0.10100000352E+00 0. -1.
       -3    1    3    3    0  502  0.42589336821E+03 -0.11088125579E+04  0.17413932936E+04  0.21079139126E+04  0.10100000352E+00 0.  1.
</event>
<event>
 5   0  0.1339837E-05  0.2420702E+04  0.7818609E-02  0.8431793E-01
        2   -1    0    0  501    0  0.00000000000E+00  0.00000000000E+00  0.23618914623E+04  0.23618914623E+04  0.25500000920E-02 0.  1.
       -2   -1    0    0    0  501  0.00000000000E+00  0.00000000000E+00 -0.62024439230E+03  0.62024439230E+03  0.25500000920E-02 0. -1.
    10030    2    1    2    0    0  0.00000000000E+00  0.00000000000E+00  0.17416470700E+04  0.29821358546E+04  0.24207023235E+04 0.  0.
        5    1    3    3  502    0 -0.45703394931E+02  0.89625411613E+03  0.18713203153E+04  0.20753847965E+04  0.46999998093E+01 0.  1.
       -5    1    3    3    0  502  0.45703394931E+02 -0.89625411613E+03 -0.12967324524E+03  0.90675105818E+03  0.46999998093E+01 0. -1.
</event>
<event>
 5   0  0.5261878E-06  0.2886809E+04  0.7818609E-02  0.8276813E-01
       -1   -1    0    0    0  501  0.00000000000E+00  0.00000000000E+00  0.12854114563E+04  0.12854114563E+04  0.50400001928E-02 0.  1.
        1   -1    0    0  501    0  0.00000000000E+00  0.00000000000E+00 -0.16208171530E+04  0.16208171530E+04  0.50400001928E-02 0. -1.
    10030    2    1    2    0    0  0.00000000000E+00  0.00000000000E+00 -0.33540569672E+03  0.29062286092E+04  0.28868092677E+04 0.  0.
        5    1    3    3  502    0 -0.33046680383E+03  0.12732876098E+04 -0.76577422585E+03  0.15221372805E+04  0.46999998093E+01 0. -1.
       -5    1    3    3    0  502  0.33046680383E+03 -0.12732876098E+04  0.43036852912E+03  0.13840913288E+04  0.46999998093E+01 0.  1.
</event>
<event>
 5   0  0.5154476E-06  0.2911395E+04  0.7818609E-02  0.8269495E-01
        1   -1    0    0  501    0  0.00000000000E+00  0.00000000000E+00  0.14854098016E+04  0.14854098016E+04  0.50400001928E-02 0.  1.
       -1   -1    0    0    0  501  0.00000000000E+00  0.00000000000E+00 -0.14265794740E+04  0.14265794740E+04  0.50400001928E-02 0. -1.
    10030    2    1    2    0    0  0.00000000000E+00  0.00000000000E+00  0.58830327555E+02  0.29119892756E+04  0.29113949463E+04 0.  0.
        3    1    3    3  502    0  0.11642259830E+04  0.56738181195E+03  0.69416415574E+03  0.14694244266E+04  0.10100000352E+00 0. -1.
       -3    1    3    3    0  502 -0.11642259830E+04 -0.56738181195E+03 -0.63533382819E+03  0.14425648490E+04  0.10100000352E+00 0.  1.
</event>
<event>
 5   0  0.1385669E-05  0.2923564E+04  0.7818609E-02  0.8265901E-01
       -2   -1    0    0    0  501  0.00000000000E+00  0.00000000000E+00  0.12149862715E+04  0.12149862715E+04  0.25500000920E-02 0. -1.
        2   -1    0    0  501    0  0.00000000000E+00  0.00000000000E+00 -0.17587080269E+04  0.17587080269E+04  0.25500000920E-02 0.  1.
    10030    2    1    2    0    0  0.00000000000E+00  0.00000000000E+00 -0.54372175537E+03  0.29736942985E+04  0.29235636530E+04 0.  0.
        3    1    3    3  502    0  0.52271999845E+03 -0.12763752283E+04 -0.76434936487E+03  0.15768956471E+04  0.10100000352E+00 0.  1.
       -3    1    3    3    0  502 -0.52271999845E+03  0.12763752283E+04  0.22062760950E+03  0.13967986513E+04  0.10100000352E+00 0. -1.
</event>
<event>
 5   0  0.1336899E-05  0.3263240E+04  0.7818609E-02  0.8172312E-01
       -2   -1    0    0    0  501  0.00000000000E+00  0.00000000000E+00  0.12129254289E+04  0.12129254289E+04  0.25500000920E-02 0.  1.
        2   -1    0    0  501    0  0.00000000000E+00  0.00000000000E+00 -0.21948452743E+04  0.21948452743E+04  0.25500000920E-02 0. -1.
    10030    2    1    2    0    0  0.00000000000E+00  0.00000000000E+00 -0.98191984536E+03  0.34077707032E+04  0.32632398905E+04 0.  0.
        1    1    3    3  502    0  0.12507901236E+03  0.33445634650E+03 -0.21535406718E+04  0.21829437080E+04  0.50400001928E-02 0. -1.
       -1    1    3    3    0  502 -0.12507901236E+03 -0.33445634650E+03  0.11716208265E+04  0.12248269952E+04  0.50400001928E-02 0.  1.
</event>
<event>
 5   0  0.1336899E-05  0.2897729E+04  0.7818609E-02  0.8273554E-01
       -2   -1    0    0    0  501  0.00000000000E+00  0.00000000000E+00  0.13475918251E+04  0.13475918251E+04  0.25500000920E-02 0. -1.
        2   -1    0    0  501    0  0.00000000000E+00  0.00000000000E+00 -0.15577475509E+04  0.15577475509E+04  0.25500000920E-02 0.  1.
    10030    2    1    2    0    0  0.00000000000E+00  0.00000000000E+00 -0.21015572572E+03  0.29053393760E+04  0.28977286727E+04 0.  0.
        1    1    3    3  502    0 -0.53493197523E+02 -0.78155587701E+03 -0.13270967806E+04  0.15410635860E+04  0.50400001928E-02 0.  1.
       -1    1    3    3    0  502  0.53493197523E+02  0.78155587701E+03  0.11169410549E+04  0.13642757900E+04  0.50400001928E-02 0. -1.
</event>
<event>
 5   0  0.1382803E-05  0.2857095E+04  0.7818609E-02  0.8285759E-01
       -2   -1    0    0    0  501  0.00000000000E+00  0.00000000000E+00  0.68293717538E+03  0.68293717538E+03  0.25500000920E-02 0. -1.
        2   -1    0    0  501    0  0.00000000000E+00  0.00000000000E+00 -0.29881930020E+04  0.29881930020E+04  0.25500000920E-02 0.  1.
    10030    2    1    2    0    0  0.00000000000E+00  0.00000000000E+00 -0.23052558266E+04  0.36711301774E+04  0.28570950900E+04 0.  0.
        2    1    3    3  502    0  0.10561708664E+04 -0.95370926779E+03 -0.99168046478E+03  0.17344994698E+04  0.25500000920E-02 0. -1.
       -2    1    3    3    0  502 -0.10561708664E+04  0.95370926779E+03 -0.13135753619E+04  0.19366307076E+04  0.25500000920E-02 0.  1.
</event>
<event>
 5   0  0.5059249E-06  0.2905941E+04  0.7818609E-02  0.8271112E-01
        1   -1    0    0  501    0  0.00000000000E+00  0.00000000000E+00  0.10071594898E+04  0.10071594898E+04  0.50400001928E-02 0.  1.
       -1   -1    0    0    0  501  0.00000000000E+00  0.00000000000E+00 -0.20961162785E+04  0.20961162785E+04  0.50400001928E-02 0. -1.
    10030    2    1    2    0    0  0.00000000000E+00  0.00000000000E+00 -0.10889567887E+04  0.31032757683E+04  0.29059410879E+04 0.  0.
        1    1    3    3  502    0 -0.13265319043E+04 -0.55143862656E+03 -0.77686040074E+03  0.16331820273E+04  0.50400001928E-02 0. -1.
       -1    1    3    3    0  502  0.13265319043E+04  0.55143862656E+03 -0.31209638798E+03  0.14700937410E+04  0.50400001928E-02 0.  1.
</event>
<event>
 5   0  0.1336899E-05  0.2886043E+04  0.7818609E-02  0.8277042E-01
        2   -1    0    0  501    0  0.00000000000E+00  0.00000000000E+00  0.27344862740E+04  0.27344862740E+04  0.25500000920E-02 0. -1.
       -2   -1    0    0    0  501  0.00000000000E+00  0.00000000000E+00 -0.76149982291E+03  0.76149982292E+03  0.25500000920E-02 0.  1.
    10030    2    1    2    0    0  0.00000000000E+00  0.00000000000E+00  0.19729864511E+04  0.34959860969E+04  0.28860428364E+04 0.  0.
        1    1    3    3  502    0 -0.37385223493E+03  0.36197609587E+03  0.26168712985E+04  0.26681093644E+04  0.50400001928E-02 0. -1.
       -1    1    3    3    0  502  0.37385223493E+03 -0.36197609587E+03 -0.64388484739E+03  0.82787673253E+03  0.50400001928E-02 0.  1.
</event>
<event>
 5   0  0.1307832E-05  0.1955360E+04  0.7818609E-02  0.8627781E-01
        2   -1    0    0  501    0  0.00000000000E+00  0.00000000000E+00  0.19562591123E+04  0.19562591123E+04  0.25500000920E-02 0. -1.
       -2   -1    0    0    0  501  0.00000000000E+00  0.00000000000E+00 -0.48861514033E+03  0.48861514034E+03  0.25500000920E-02 0.  1.
    10030    2    1    2    0    0  0.00000000000E+00  0.00000000000E+00  0.14676439720E+04  0.24448742527E+04  0.19553596300E+04 0.  0.
        4    1    3    3  502    0 -0.18502302905E+03  0.78143200407E+02  0.19301848650E+04  0.19406068914E+04  0.12699999809E+01 0. -1.
       -4    1    3    3    0  502  0.18502302905E+03 -0.78143200407E+02 -0.46254089299E+03  0.50426736126E+03  0.12699999809E+01 0.  1.
</event>
<event>
 5   0  0.1385669E-05  0.2921316E+04  0.7818609E-02  0.8266563E-01
        2   -1    0    0  501    0  0.00000000000E+00  0.00000000000E+00  0.19433722973E+04  0.19433722973E+04  0.25500000920E-02 0. -1.
       -2   -1    0    0    0  501  0.00000000000E+00  0.00000000000E+00 -0.10978454378E+04  0.10978454378E+04  0.25500000920E-02 0.  1.
    10030    2    1    2    0    0  0.00000000000E+00  0.00000000000E+00  0.84552685950E+03  0.30412177351E+04  0.29213164228E+04 0.  0.
        3    1    3    3  502    0  0.89196115397E+03  0.90522991655E+03  0.11723773453E+04  0.17290183782E+04  0.10100000352E+00 0. -1.
       -3    1    3    3    0  502 -0.89196115397E+03 -0.90522991655E+03 -0.32685048584E+03  0.13121993569E+04  0.10100000352E+00 0.  1.
</event>
<event>
 5   0  0.5154476E-06  0.2825451E+04  0.7818609E-02  0.8295410E-01
        1   -1    0    0  501    0  0.00000000000E+00  0.00000000000E+00  0.16870935932E+04  0.16870935932E+04  0.50400001928E-02 0. -1.
       -1   -1    0    0    0  501  0.00000000000E+00  0.00000000000E+00 -0.11829774060E+04  0.11829774060E+04  0.50400001928E-02 0.  1.
    10030    2    1    2    0    0  0.00000000000E+00  0.00000000000E+00  0.50411618719E+03  0.28700709992E+04  0.28254511870E+04 0.  0.
        3    1    3    3  502    0 -0.59856782495E+03 -0.72735418505E+03  0.13215217434E+04  0.16228823987E+04  0.10100000352E+00 0. -1.
       -3    1    3    3    0  502  0.59856782495E+03  0.72735418505E+03 -0.81740555624E+03  0.12471886005E+04  0.10100000352E+00 0.  1.
</event>
<event>
 5   0  0.5352212E-06  0.2875919E+04  0.7818609E-02  0.8280078E-01
       -1   -1    0    0    0  501  0.00000000000E+00  0.00000000000E+00  0.95684376646E+03  0.95684376648E+03  0.50400001928E-02 0. -1.
        1   -1    0    0  501    0  0.00000000000E+00  0.00000000000E+00 -0.21609877854E+04  0.21609877854E+04  0.50400001928E-02 0.  1.
    10030    2    1    2    0    0  0.00000000000E+00  0.00000000000E+00 -0.12041440189E+04  0.31178315519E+04  0.28759191170E+04 0.  0.
        2    1    3    3  502    0  0.68093870467E+03  0.88870293124E+03  0.37619363765E+03  0.11810978251E+04  0.25500000920E-02 0. -1.
       -2    1    3    3    0  502 -0.68093870467E+03 -0.88870293124E+03 -0.15803376566E+04  0.19367337267E+04  0.25500000920E-02 0.  1.
</event>
<event>
 5   0  0.1336899E-05  0.2856841E+04  0.7818609E-02  0.8285836E-01
        2   -1    0    0  501    0  0.00000000000E+00  0.00000000000E+00  0.11174030022E+04  0.11174030023E+04  0.25500000920E-02 0.  1.
       -2   -1    0    0    0  501  0.00000000000E+00  0.00000000000E+00 -0.18260065772E+04  0.18260065772E+04  0.25500000920E-02 0. -1.
    10030    2    1    2    0    0  0.00000000000E+00  0.00000000000E+00 -0.70860357496E+03  0.29434095795E+04  0.28568410747E+04 0.  0.
        1    1    3    3  502    0 -0.54418063425E+03 -0.12062634616E+03 -0.17093359842E+04  0.17979190151E+04  0.50400001928E-02 0. -1.
       -1    1    3    3    0  502  0.54418063425E+03  0.12062634616E+03  0.10007324092E+04  0.11454905643E+04  0.50400001928E-02 0.  1.
</event>
<event>
 5   0  0.1307832E-05  0.2987520E+04  0.7818609E-02  0.8247304E-01
        2   -1    0    0  501    0  0.00000000000E+00  0.00000000000E+00  0.20280105879E+04  0.20280105879E+04  0.25500000920E-02 0. -1.
       -2   -1    0    0    0  501  0.00000000000E+00  0.00000000000E+00 -0.11002500491E+04  0.11002500491E+04  0.25500000920E-02 0.  1.
    10030    2    1    2    0    0  0.00000000000E+00  0.00000000000E+00  0.92776053876E+03  0.31282606370E+04  0.29875198736E+04 0.  0.
        4    1    3    3  502    0  0.91110909478E+03 -0.55082757863E+03  0.15609924495E+04  0.18895051850E+04  0.12699999809E+01 0. -1.
       -4    1    3    3    0  502 -0.91110909478E+03  0.55082757863E+03 -0.63323191074E+03  0.12387554519E+04  0.12699999809E+01 0.  1.
</event>
<event>
 5   0  0.1385669E-05  0.2884930E+04  0.7818609E-02  0.8277375E-01
        2   -1    0    0  501    0  0.00000000000E+00  0.00000000000E+00  0.10748147675E+04  0.10748147675E+04  0.25500000920E-02 0.  1.
       -2   -1    0    0    0  501  0.00000000000E+00  0.00000000000E+00 -0.19358731884E+04  0.19358731884E+04  0.25500000920E-02 0. -1.
    10030    2    1    2    0    0  0.00000000000E+00  0.00000000000E+00 -0.86105842085E+03  0.30106879559E+04  0.28849298716E+04 0.  0.
        3    1    3    3  502    0 -0.59515583124E+03 -0.85590000222E+03 -0.14709483702E+04  0.18029044332E+04  0.10100000352E+00 0. -1.
       -3    1    3    3    0  502  0.59515583124E+03  0.85590000222E+03  0.60988994933E+03  0.12077835227E+04  0.10100000352E+00 0.  1.
</event>
<event>
 5   0  0.5059249E-06  0.2900230E+04  0.7818609E-02  0.8272809E-01
        1   -1    0    0  501    0  0.00000000000E+00  0.00000000000E+00  0.12175939053E+04  0.12175939053E+04  0.50400001928E-02 0.  1.
       -1   -1    0    0    0  501  0.00000000000E+00  0.00000000000E+00 -0.17270403649E+04  0.17270403649E+04  0.50400001928E-02 0. -1.
    10030    2    1    2    0    0  0.00000000000E+00  0.00000000000E+00 -0.50944645959E+03  0.29446342703E+04  0.29002302134E+04 0.  0.
        1    1    3    3  502    0  0.83237117263E+03  0.68310785436E+03  0.73141235714E+03  0.13017073964E+04  0.50400001928E-02 0.  1.
       -1    1    3    3    0  502 -0.83237117263E+03 -0.68310785436E+03 -0.12408588167E+04  0.16429268738E+04  0.50400001928E-02 0. -1.
</event>
<event>
 5   0  0.1382803E-05  0.2925666E+04  0.7818609E-02  0.8265282E-01
       -2   -1    0    0    0  501  0.00000000000E+00  0.00000000000E+00  0.81698209448E+03  0.81698209449E+03  0.25500000920E-02 0. -1.
        2   -1    0    0  501    0  0.00000000000E+00  0.00000000000E+00 -0.26192500303E+04  0.26192500303E+04  0.25500000920E-02 0.  1.
    10030    2    1    2    0    0  0.00000000000E+00  0.00000000000E+00 -0.18022679358E+04  0.34362321248E+04  0.29256659931E+04 0.  0.
        2    1    3    3  502    0  0.87289370860E+03 -0.10684169863E+04 -0.14722203161E+04  0.20176449000E+04  0.25500000920E-02 0.  1.
       -2    1    3    3    0  502 -0.87289370860E+03  0.10684169863E+04 -0.33004761974E+03  0.14185872248E+04  0.25500000920E-02 0. -1.
</event>
<event>
 5   0  0.5059249E-06  0.3111320E+04  0.7818609E-02  0.8212638E-01
        1   -1    0    0  501    0  0.00000000000E+00  0.00000000000E+00  0.15568122392E+04  0.15568122392E+04  0.50400001928E-02 0. -1.
       -1   -1    0    0    0  501  0.00000000000E+00  0.00000000000E+00 -0.15545086262E+04  0.15545086262E+04  0.50400001928E-02 0.  1.
    10030    2    1    2    0    0  0.00000000000E+00  0.00000000000E+00  0.23036130488E+01  0.31113208654E+04  0.31113200126E+04 0.  0.
        1    1    3    3  502    0  0.29115514527E+03 -0.14243414473E+04 -0.55252530706E+03  0.15552504918E+04  0.50400001928E-02 0.  1.
       -1    1    3    3    0  502 -0.29115514527E+03  0.14243414473E+04  0.55482892011E+03  0.15560703736E+04  0.50400001928E-02 0. -1.
</event>
<event>
 5   0  0.5352212E-06  0.2882896E+04  0.7818609E-02  0.8277985E-01
       -1   -1    0    0    0  501  0.00000000000E+00  0.00000000000E+00  0.14969540958E+04  0.14969540958E+04  0.50400001928E-02 0. -1.
        1   -1    0    0  501    0  0.00000000000E+00  0.00000000000E+00 -0.13879999055E+04  0.13879999055E+04  0.50400001928E-02 0.  1.
    10030    2    1    2    0    0  0.00000000000E+00  0.00000000000E+00  0.10895419024E+03  0.28849540013E+04  0.28828958660E+04 0.  0.
        2    1    3    3  502    0 -0.13999867353E+04 -0.24080561103E+03  0.29923695272E+03  0.14517206877E+04  0.25500000920E-02 0. -1.
       -2    1    3    3    0  502  0.13999867353E+04  0.24080561103E+03 -0.19028276248E+03  0.14332333135E+04  0.25500000920E-02 0.  1.
</event>
<event>
 5   0  0.1339837E-05  0.2905140E+04  0.7818609E-02  0.8271350E-01
        2   -1    0    0  501    0  0.00000000000E+00  0.00000000000E+00  0.28901665480E+04  0.28901665480E+04  0.25500000920E-02 0.  1.
       -2   -1    0    0    0  501  0.00000000000E+00  0.00000000000E+00 -0.73004766905E+03  0.73004766905E+03  0.25500000920E-02 0. -1.
    10030    2    1    2    0    0  0.00000000000E+00  0.00000000000E+00  0.21601188790E+04  0.36202142171E+04  0.29051398256E+04 0.  0.
        5    1    3    3  502    0  0.57495726902E+03 -0.10395722414E+04  0.21216507740E+04  0.24316065478E+04  0.46999998093E+01 0.  1.
       -5    1    3    3    0  502 -0.57495726902E+03  0.10395722414E+04  0.38468104951E+02  0.11886076693E+04  0.46999998093E+01 0. -1.
</event>
<event>
 5   0  0.5059249E-06  0.2738269E+04  0.7818609E-02  0.8322694E-01
       -1   -1    0    0    0  501  0.00000000000E+00  0.00000000000E+00  0.94829657008E+03  0.94829657009E+03  0.50400001928E-02 0. -1.
        1   -1    0    0  501    0  0.00000000000E+00  0.00000000000E+00 -0.19767336936E+04  0.19767336936E+04  0.50400001928E-02 0.  1.
    10030    2    1    2    0    0  0.00000000000E+00  0.00000000000E+00 -0.10284371235E+04  0.29250302637E+04  0.27382693670E+04 0.  0.
        1    1    3    3  502    0  0.53454212286E+03 -0.44401089472E+03  0.74592209756E+03  0.10194511913E+04  0.50400001928E-02 0. -1.
       -1    1    3    3    0  502 -0.53454212286E+03  0.44401089472E+03 -0.17743592211E+04  0.19055790724E+04  0.50400001928E-02 0.  1.
</event>
<event>
 5   0  0.1307832E-05  0.2976486E+04  0.7818609E-02  0.8250478E-01
        2   -1    0    0  501    0  0.00000000000E+00  0.00000000000E+00  0.12133277080E+04  0.12133277080E+04  0.25500000920E-02 0.  1.
       -2   -1    0    0    0  501  0.00000000000E+00  0.00000000000E+00 -0.18254480357E+04  0.18254480357E+04  0.25500000920E-02 0. -1.
    10030    2    1    2    0    0  0.00000000000E+00  0.00000000000E+00 -0.61212032769E+03  0.30387757437E+04  0.29764856332E+04 0.  0.
        4    1    3    3  502    0  0.34178220169E+03 -0.77410096623E+03  0.94382256068E+03  0.12676158796E+04  0.12699999809E+01 0.  1.
       -4    1    3    3    0  502 -0.34178220169E+03  0.77410096623E+03 -0.15559428884E+04  0.17711598641E+04  0.12699999809E+01 0. -1.
</event>
<event>
 5   0  0.5261878E-06  0.2018449E+04  0.7818609E-02  0.8598043E-01
       -1   -1    0    0    0  501  0.00000000000E+00  0.00000000000E+00  0.71075494717E+03  0.71075494719E+03  0.50400001928E-02 0.  1.
        1   -1    0    0  501    0  0.00000000000E+00  0.00000000000E+00 -0.14330314310E+04  0.14330314310E+04  0.50400001928E-02 0. -1.
    10030    2    1    2    0    0  0.00000000000E+00  0.00000000000E+00 -0.72227648385E+03  0.21437863782E+04  0.20184490869E+04 0.  0.
        5    1    3    3  502    0  0.81651971731E+02  0.17546038355E+03  0.69085077124E+03  0.71746098765E+03  0.46999998093E+01 0.  1.
       -5    1    3    3    0  502 -0.81651971731E+02 -0.17546038355E+03 -0.14131272551E+04  0.14263253906E+04  0.46999998093E+01 0. -1.
</event>
<event>
 5   0  0.1385669E-05  0.2890137E+04  0.7818609E-02  0.8275818E-01
       -2   -1    0    0    0  501  0.00000000000E+00  0.00000000000E+00  0.90532654137E+03  0.90532654137E+03  0.25500000920E-02 0. -1.
        2   -1    0    0  501    0  0.00000000000E+00  0.00000000000E+00 -0.23065962384E+04  0.23065962384E+04  0.25500000920E-02 0.  1.
    10030    2    1    2    0    0  0.00000000000E+00  0.00000000000E+00 -0.14012696970E+04  0.32119227798E+04  0.28901368790E+04 0.  0.
        3    1    3    3  502    0 -0.13948758190E+04  0.32315425438E+03 -0.91760392847E+03  0.17006187705E+04  0.10100000352E+00 0.  1.
       -3    1    3    3    0  502  0.13948758190E+04 -0.32315425438E+03 -0.48366576855E+03  0.15113040093E+04  0.10100000352E+00 0. -1.
</event>
<event>
 5   0  0.1385669E-05  0.2931121E+04  0.7818609E-02  0.8263678E-01
        2   -1    0    0  501    0  0.00000000000E+00  0.00000000000E+00  0.18747605564E+04  0.18747605564E+04  0.25500000920E-02 0. -1.
       -2   -1    0    0    0  501  0.00000000000E+00  0.00000000000E+00 -0.11456756219E+04  0.11456756219E+04  0.25500000920E-02 0.  1.
    10030    2    1    2    0    0  0.00000000000E+00  0.00000000000E+00  0.72908493446E+03  0.30204361783E+04  0.29311209231E+04 0.  0.
        3    1    3    3  502    0  0.85438598424E+03  0.67743647019E+03 -0.64456835333E+03  0.12666348935E+04  0.10100000352E+00 0.  1.
       -3    1    3    3    0  502 -0.85438598424E+03 -0.67743647019E+03  0.13736532878E+04  0.17538012848E+04  0.10100000352E+00 0. -1.
</event>
<event>
 5   0  0.5154476E-06  0.2237368E+04  0.7818609E-02  0.8503034E-01
       -1   -1    0    0    0  501  0.00000000000E+00  0.00000000000E+00  0.76296680104E+03  0.76296680106E+03  0.50400001928E-02 0. -1.
        1   -1    0    0  501    0  0.00000000000E+00  0.00000000000E+00 -0.16402469322E+04  0.16402469322E+04  0.50400001928E-02 0.  1.
    10030    2    1    2    0    0  0.00000000000E+00  0.00000000000E+00 -0.87728013114E+03  0.24032137333E+04  0.22373680563E+04 0.  0.
        3    1    3    3  502    0  0.60962930785E+03 -0.82764525297E+03 -0.91272909271E+03  0.13746704931E+04  0.10100000352E+00 0.  1.
       -3    1    3    3    0  502 -0.60962930785E+03  0.82764525297E+03  0.35448961572E+02  0.10285432401E+04  0.10100000352E+00 0. -1.
</event>
<event>
 5   0  0.1382803E-05  0.2892878E+04  0.7818609E-02  0.8275000E-01
        2   -1    0    0  501    0  0.00000000000E+00  0.00000000000E+00  0.10224380240E+04  0.10224380240E+04  0.25500000920E-02 0. -1.
       -2   -1    0    0    0  501  0.00000000000E+00  0.00000000000E+00 -0.20462716104E+04  0.20462716104E+04  0.25500000920E-02 0.  1.
    10030    2    1    2    0    0  0.00000000000E+00  0.00000000000E+00 -0.10238335864E+04  0.30687096344E+04  0.28928780838E+04 0.  0.
        2    1    3    3  502    0  0.25838215583E+03 -0.48885646567E+02  0.99686813694E+03  0.10309690720E+04  0.25500000920E-02 0. -1.
       -2    1    3    3    0  502 -0.25838215583E+03  0.48885646567E+02 -0.20207017234E+04  0.20377405624E+04  0.25500000920E-02 0.  1.
</event>
<event>
 5   0  0.1307832E-05  0.2895311E+04  0.7818609E-02  0.8274274E-01
        2   -1    0    0  501    0  0.00000000000E+00  0.00000000000E+00  0.98913214474E+03  0.98913214475E+03  0.25500000920E-02 0. -1.
       -2   -1    0    0    0  501  0.00000000000E+00  0.00000000000E+00 -0.21187330397E+04  0.21187330397E+04  0.25500000920E-02 0.  1.
    10030    2    1    2    0    0  0.00000000000E+00  0.00000000000E+00 -0.11296008950E+04  0.31078651844E+04  0.28953113516E+04 0.  0.
        4    1    3    3  502    0  0.71395232106E+03  0.15350246672E+02  0.78690833289E+03  0.10626334665E+04  0.12699999809E+01 0. -1.
       -4    1    3    3    0  502 -0.71395232106E+03 -0.15350246672E+02 -0.19165092278E+04  0.20452317180E+04  0.12699999809E+01 0.  1.
</event>
<event>
 5   0  0.1307832E-05  0.2958685E+04  0.7818609E-02  0.8255628E-01
       -2   -1    0    0    0  501  0.00000000000E+00  0.00000000000E+00  0.13412935038E+04  0.13412935038E+04  0.25500000920E-02 0.  1.
        2   -1    0    0  501    0  0.00000000000E+00  0.00000000000E+00 -0.16316000651E+04  0.16316000651E+04  0.25500000920E-02 0. -1.
    10030    2    1    2    0    0  0.00000000000E+00  0.00000000000E+00 -0.29030656129E+03  0.29728935688E+04  0.29586852269E+04 0.  0.
        4    1    3    3  502    0 -0.14208136715E+03 -0.76325401004E+03  0.11201433899E+04  0.13628890731E+04  0.12699999809E+01 0.  1.
       -4    1    3    3    0  502  0.14208136715E+03  0.76325401004E+03 -0.14104499512E+04  0.16100044958E+04  0.12699999809E+01 0. -1.
</event>
<event>
 5   0  0.5002240E-06  0.3021559E+04  0.7818609E-02  0.8237601E-01
       -1   -1    0    0    0  501  0.00000000000E+00  0.00000000000E+00  0.18320500716E+04  0.18320500716E+04  0.50400001928E-02 0. -1.
        1   -1    0    0  501    0  0.00000000000E+00  0.00000000000E+00 -0.12458469969E+04  0.12458469969E+04  0.50400001928E-02 0.  1.
    10030    2    1    2    0    0  0.00000000000E+00  0.00000000000E+00  0.58620307472E+03  0.30778970685E+04  0.30215585911E+04 0.  0.
        4    1    3    3  502    0  0.66815039982E+03  0.95258985761E+03  0.12747080446E+04  0.17259010996E+04  0.12699999809E+01 0. -1.
       -4    1    3    3    0  502 -0.66815039982E+03 -0.95258985761E+03 -0.68850496989E+03  0.13519959690E+04  0.12699999809E+01 0.  1.
</event>
<event>
 5   0  0.5154476E-06  0.2963685E+04  0.7818609E-02  0.8254178E-01
        1   -1    0    0  501    0  0.00000000000E+00  0.00000000000E+00  0.20385830168E+04  0.20385830168E+04  0.50400001928E-02 0.  1.
       -1   -1    0    0    0  501  0.00000000000E+00  0.00000000000E+00 -0.10771486760E+04  0.10771486760E+04  0.50400001928E-02 0. -1.
    10030    2    1    2    0    0  0.00000000000E+00  0.00000000000E+00  0.96143434079E+03  0.31157316929E+04  0.29636848669E+04 0.  0.
        3    1    3    3  502    0 -0.72313990940E+01  0.14667986364E+04  0.25942730323E+03  0.14895815080E+04  0.10100000352E+00 0. -1.
       -3    1    3    3    0  502  0.72313990940E+01 -0.14667986364E+04  0.70200703756E+03  0.16261501849E+04  0.10100000352E+00 0.  1.
</event>
<event>
 5   0  0.5059249E-06  0.2587389E+04  0.7818609E-02  0.8372497E-01
       -1   -1    0    0    0  501  0.00000000000E+00  0.00000000000E+00  0.17665572618E+04  0.17665572618E+04  0.50400001928E-02 0. -1.
        1   -1    0    0  501    0  0.00000000000E+00  0.00000000000E+00 -0.94740538421E+03  0.94740538422E+03  0.50400001928E-02 0.  1.
    10030    2    1    2    0    0  0.00000000000E+00  0.00000000000E+00  0.81915187756E+03  0.27139626460E+04  0.25873893107E+04 0.  0.
        1    1    3    3  502    0 -0.12114876042E+04 -0.22656842579E+03  0.82201655838E+03  0.14814677482E+04  0.50400001928E-02 0. -1.
       -1    1    3    3    0  502  0.12114876042E+04  0.22656842579E+03 -0.28646808220E+01  0.12324948978E+04  0.50400001928E-02 0.  1.
</event>
<event>
 5   0  0.5002240E-06  0.2878602E+04  0.7818609E-02  0.8279273E-01
       -1   -1    0    0    0  501  0.00000000000E+00  0.00000000000E+00  0.66307846020E+03  0.66307846022E+03  0.50400001928E-02 0. -1.
        1   -1    0    0  501    0  0.00000000000E+00  0.00000000000E+00 -0.31241960369E+04  0.31241960369E+04  0.50400001928E-02 0.  1.
    10030    2    1    2    0    0  0.00000000000E+00  0.00000000000E+00 -0.24611175767E+04  0.37872744971E+04  0.28786018117E+04 0.  0.
        4    1    3    3  502    0  0.52442290207E+03  0.11423837563E+04 -0.30816111840E+03  0.12942275359E+04  0.12699999809E+01 0. -1.
       -4    1    3    3    0  502 -0.52442290207E+03 -0.11423837563E+04 -0.21529564583E+04  0.24930469613E+04  0.12699999809E+01 0.  1.
</event>
<event>
 5   0  0.5059249E-06  0.2726287E+04  0.7818609E-02  0.8326526E-01
        1   -1    0    0  501    0  0.00000000000E+00  0.00000000000E+00  0.12843846089E+04  0.12843846089E+04  0.50400001928E-02 0. -1.
       -1   -1    0    0    0  501  0.00000000000E+00  0.00000000000E+00 -0.14467319643E+04  0.14467319643E+04  0.50400001928E-02 0.  1.
    10030    2    1    2    0    0  0.00000000000E+00  0.00000000000E+00 -0.16234735535E+03  0.27311165732E+04  0.27262870489E+04 0.  0.
        1    1    3    3  502    0  0.10456689042E+04 -0.14092662674E+03  0.78341748631E+03  0.13141638898E+04  0.50400001928E-02 0. -1.
       -1    1    3    3    0  502 -0.10456689042E+04  0.14092662674E+03 -0.94576484166E+03  0.14169526834E+04  0.50400001928E-02 0.  1.
</event>
<event>
 5   0  0.1382803E-05  0.2883829E+04  0.7818609E-02  0.8277705E-01
       -2   -1    0    0    0  501  0.00000000000E+00  0.00000000000E+00  0.75888691673E+03  0.75888691673E+03  0.25500000920E-02 0.  1.
        2   -1    0    0  501    0  0.00000000000E+00  0.00000000000E+00 -0.27396930327E+04  0.27396930327E+04  0.25500000920E-02 0. -1.
    10030    2    1    2    0    0  0.00000000000E+00  0.00000000000E+00 -0.19808061160E+04  0.34985799495E+04  0.28838288426E+04 0.  0.
        2    1    3    3  502    0  0.11372235259E+04 -0.44456132279E+03 -0.19208394906E+04  0.22760791872E+04  0.25500000920E-02 0. -1.
       -2    1    3    3    0  502 -0.11372235259E+04  0.44456132279E+03 -0.59966625377E+02  0.12225007623E+04  0.25500000920E-02 0.  1.
</event>
<event>
 5   0  0.5002240E-06  0.1859779E+04  0.7818609E-02  0.8675140E-01
        1   -1    0    0  501    0  0.00000000000E+00  0.00000000000E+00  0.14981390841E+04  0.14981390841E+04  0.50400001928E-02 0. -1.
       -1   -1    0    0    0  501  0.00000000000E+00  0.00000000000E+00 -0.57717912034E+03  0.57717912036E+03  0.50400001928E-02 0.  1.
    10030    2    1    2    0    0  0.00000000000E+00  0.00000000000E+00  0.92095996374E+03  0.20753182045E+04  0.18597791253E+04 0.  0.
        4    1    3    3  502    0 -0.68063778615E+03 -0.14647639570E+03 -0.22737660230E+03  0.73241031028E+03  0.12699999809E+01 0.  1.
       -4    1    3    3    0  502  0.68063778615E+03  0.14647639570E+03  0.11483365660E+04  0.13429078942E+04  0.12699999809E+01 0. -1.
</event>
<event>
 5   0  0.1307832E-05  0.2731479E+04  0.7818609E-02  0.8324863E-01
        2   -1    0    0  501    0  0.00000000000E+00  0.00000000000E+00  0.18096471253E+04  0.18096471253E+04  0.25500000920E-02 0.  1.
       -2   -1    0    0    0  501  0.00000000000E+00  0.00000000000E+00 -0.10307228530E+04  0.10307228530E+04  0.25500000920E-02 0. -1.
    10030    2    1    2    0    0  0.00000000000E+00  0.00000000000E+00  0.77892427230E+03  0.28403699784E+04  0.27314791949E+04 0.  0.
        4    1    3    3  502    0 -0.25224017086E+03 -0.12646928808E+04 -0.78095559637E+02  0.12919650598E+04  0.12699999809E+01 0. -1.
       -4    1    3    3    0  502  0.25224017086E+03  0.12646928808E+04  0.85701983194E+03  0.15484049185E+04  0.12699999809E+01 0.  1.
</event>
<event>
 5   0  0.5059249E-06  0.2459564E+04  0.7818609E-02  0.8417534E-01
        1   -1    0    0  501    0  0.00000000000E+00  0.00000000000E+00  0.13111466593E+04  0.13111466593E+04  0.50400001928E-02 0. -1.
       -1   -1    0    0    0  501  0.00000000000E+00  0.00000000000E+00 -0.11534664611E+04  0.11534664611E+04  0.50400001928E-02 0.  1.
    10030    2    1    2    0    0  0.00000000000E+00  0.00000000000E+00  0.15768019815E+03  0.24646131204E+04  0.24595639427E+04 0.  0.
        1    1    3    3  502    0  0.10649998359E+04  0.59375273562E+03  0.23915833637E+03  0.12425633470E+04  0.50400001928E-02 0.  1.
       -1    1    3    3    0  502 -0.10649998359E+04 -0.59375273562E+03 -0.81478138227E+02  0.12220497734E+04  0.50400001928E-02 0. -1.
</event>
<event>
 5   0  0.5154476E-06  0.1891400E+04  0.7818609E-02  0.8659149E-01
        1   -1    0    0  501    0  0.00000000000E+00  0.00000000000E+00  0.95100183956E+03  0.95100183957E+03  0.50400001928E-02 0. -1.
       -1   -1    0    0    0  501  0.00000000000E+00  0.00000000000E+00 -0.94042799603E+03  0.94042799604E+03  0.50400001928E-02 0.  1.
    10030    2    1    2    0    0  0.00000000000E+00  0.00000000000E+00  0.10573843527E+02  0.18914298356E+04  0.18914002794E+04 0.  0.
        3    1    3    3  502    0  0.69759100909E+03 -0.63842623417E+03  0.16577429562E+02  0.94577803623E+03  0.10100000352E+00 0.  1.
       -3    1    3    3    0  502 -0.69759100909E+03  0.63842623417E+03 -0.60035860345E+01  0.94565179939E+03  0.10100000352E+00 0. -1.
</event>
<event>
 5   0  0.1382803E-05  0.2863462E+04  0.7818609E-02  0.8283832E-01
       -2   -1    0    0    0  501  0.00000000000E+00  0.00000000000E+00  0.13204855670E+04  0.13204855670E+04  0.25500000920E-02 0. -1.
        2   -1    0    0  501    0  0.00000000000E+00  0.00000000000E+00 -0.15523488116E+04  0.15523488116E+04  0.25500000920E-02 0.  1.
    10030    2    1    2    0    0  0.00000000000E+00  0.00000000000E+00 -0.23186324465E+03  0.28728343786E+04  0.28634623801E+04 0.  0.
        2    1    3    3  502    0 -0.51342600875E+03  0.26993428711E+03  0.11973152853E+04  0.13304265024E+04  0.25500000920E-02 0. -1.
       -2    1    3    3    0  502  0.51342600875E+03 -0.26993428711E+03 -0.14291785300E+04  0.15424078762E+04  0.25500000920E-02 0.  1.
</event>
<event>
 5   0  0.1336899E-05  0.2864823E+04  0.7818609E-02  0.8283421E-01
        2   -1    0    0  501    0  0.00000000000E+00  0.00000000000E+00  0.20462200180E+04  0.20462200180E+04  0.25500000920E-02 0.  1.
       -2   -1    0    0    0  501  0.00000000000E+00  0.00000000000E+00 -0.10027285260E+04  0.10027285260E+04  0.25500000920E-02 0. -1.
    10030    2    1    2    0    0  0.00000000000E+00  0.00000000000E+00  0.10434914920E+04  0.30489485440E+04  0.28648233332E+04 0.  0.
        1    1    3    3  502    0 -0.14280125101E+04 -0.30084236565E+02  0.63675791126E+03  0.15638367651E+04  0.50400001928E-02 0. -1.
       -1    1    3    3    0  502  0.14280125101E+04  0.30084236565E+02  0.40673358071E+03  0.14851117789E+04  0.50400001928E-02 0.  1.
</event>
<event>
 5   0  0.1339837E-05  0.2885313E+04  0.7818609E-02  0.8277261E-01
        2   -1    0    0  501    0  0.00000000000E+00  0.00000000000E+00  0.14254098523E+04  0.14254098523E+04  0.25500000920E-02 0. -1.
       -2   -1    0    0    0  501  0.00000000000E+00  0.00000000000E+00 -0.14601113515E+04  0.14601113515E+04  0.25500000920E-02 0.  1.
    10030    2    1    2    0    0  0.00000000000E+00  0.00000000000E+00 -0.34701499201E+02  0.28855212038E+04  0.28853125348E+04 0.  0.
        5    1    3    3  502    0 -0.34351082820E+03 -0.13486528021E+04  0.36263849889E+03  0.14381908221E+04  0.46999998093E+01 0. -1.
       -5    1    3    3    0  502  0.34351082820E+03  0.13486528021E+04 -0.39733999810E+03  0.14473303817E+04  0.46999998093E+01 0.  1.
</event>
<event>
 5   0  0.5002240E-06  0.2913972E+04  0.7818609E-02  0.8268732E-01
        1   -1    0    0  501    0  0.00000000000E+00  0.00000000000E+00  0.16601357087E+04  0.16601357087E+04  0.50400001928E-02 0.  1.
       -1   -1    0    0    0  501  0.00000000000E+00  0.00000000000E+00 -0.12786959507E+04  0.12786959507E+04  0.50400001928E-02 0. -1.
    10030    2    1    2    0    0  0.00000000000E+00  0.00000000000E+00  0.38143975802E+03  0.29388316595E+04  0.29139724147E+04 0.  0.
        4    1    3    3  502    0  0.25353968189E+03 -0.11689194868E+03  0.16329055623E+04  0.16566014265E+04  0.12699999809E+01 0.  1.
       -4    1    3    3    0  502 -0.25353968189E+03  0.11689194868E+03 -0.12514658043E+04  0.12822302329E+04  0.12699999809E+01 0. -1.
</event>
<event>
 5   0  0.5059249E-06  0.2917050E+04  0.7818609E-02  0.8267823E-01
        1   -1    0    0  501    0  0.00000000000E+00  0.00000000000E+00  0.17260377809E+04  0.17260377810E+04  0.50400001928E-02 0.  1.
       -1   -1    0    0    0  501  0.00000000000E+00  0.00000000000E+00 -0.12324729090E+04  0.12324729090E+04  0.50400001928E-02 0. -1.
    10030    2    1    2    0    0  0.00000000000E+00  0.00000000000E+00  0.49356487198E+03  0.29585106899E+04  0.29170497458E+04 0.  0.
        1    1    3    3  502    0 -0.70158921964E+03 -0.12782428846E+04  0.21220237634E+03  0.14734863941E+04  0.50400001928E-02 0.  1.
       -1    1    3    3    0  502  0.70158921964E+03  0.12782428846E+04  0.28136249564E+03  0.14850242958E+04  0.50400001928E-02 0. -1.
</event>
<event>
 5   0  0.5154476E-06  0.2899863E+04  0.7818609E-02  0.8272918E-01
        1   -1    0    0  501    0  0.00000000000E+00  0.00000000000E+00  0.98714798475E+03  0.98714798476E+03  0.50400001928E-02 0. -1.
       -1   -1    0    0    0  501  0.00000000000E+00  0.00000000000E+00 -0.21296713696E+04  0.21296713696E+04  0.50400001928E-02 0.  1.
    10030    2    1    2    0    0  0.00000000000E+00  0.00000000000E+00 -0.11425233848E+04  0.31168193543E+04  0.28998626179E+04 0.  0.
        3    1    3    3  502    0 -0.41970371695E+03 -0.77861926257E+03  0.66356210387E+03  0.11057639178E+04  0.10100000352E+00 0. -1.
       -3    1    3    3    0  502  0.41970371695E+03  0.77861926257E+03 -0.18060854887E+04  0.20110554365E+04  0.10100000352E+00 0.  1.
</event>
<event>
 5   0  0.1385669E-05  0.2870967E+04  0.7818609E-02  0.8281568E-01
       -2   -1    0    0    0  501  0.00000000000E+00  0.00000000000E+00  0.92229712361E+03  0.92229712361E+03  0.25500000920E-02 0. -1.
        2   -1    0    0  501    0  0.00000000000E+00  0.00000000000E+00 -0.22342185043E+04  0.22342185043E+04  0.25500000920E-02 0.  1.
    10030    2    1    2    0    0  0.00000000000E+00  0.00000000000E+00 -0.13119213807E+04  0.31565156279E+04  0.28709672935E+04 0.  0.
        3    1    3    3  502    0 -0.16364728488E+02  0.83974386324E+03  0.62394363415E+03  0.10462997797E+04  0.10100000352E+00 0. -1.
       -3    1    3    3    0  502  0.16364728488E+02 -0.83974386324E+03 -0.19358650149E+04  0.21102158482E+04  0.10100000352E+00 0.  1.
</event>
<event>
 5   0  0.1382803E-05  0.3029425E+04  0.7818609E-02  0.8235378E-01
       -2   -1    0    0    0  501  0.00000000000E+00  0.00000000000E+00  0.87511278892E+03  0.87511278892E+03  0.25500000920E-02 0.  1.
        2   -1    0    0  501    0  0.00000000000E+00  0.00000000000E+00 -0.26217804231E+04  0.26217804231E+04  0.25500000920E-02 0. -1.
    10030    2    1    2    0    0  0.00000000000E+00  0.00000000000E+00 -0.17466676341E+04  0.34968932120E+04  0.30294247493E+04 0.  0.
        2    1    3    3  502    0  0.92890272332E+03 -0.30405544191E+03 -0.22090665214E+04  0.24156334319E+04  0.25500000920E-02 0. -1.
       -2    1    3    3    0  502 -0.92890272332E+03  0.30405544191E+03  0.46239888726E+03  0.10812597801E+04  0.25500000920E-02 0.  1.
</event>
<event>
 5   0  0.4590125E-06  0.2670508E+04  0.7818609E-02  0.8344638E-01
       -4   -1    0    0    0  501  0.00000000000E+00  0.00000000000E+00  0.17369138614E+04  0.17369143257E+04  0.12699999809E+01 0. -1.
        4   -1    0    0  501    0  0.00000000000E+00  0.00000000000E+00 -0.10264768812E+04  0.10264776669E+04  0.12699999809E+01 0.  1.
    10030    2    1    2    0    0  0.00000000000E+00  0.00000000000E+00  0.71043698014E+03  0.27633919925E+04  0.26705083040E+04 0.  0.
        5    1    3    3  502    0  0.10756600872E+04 -0.24053600140E+02  0.11734539868E+04  0.15920551335E+04  0.46999998093E+01 0. -1.
       -5    1    3    3    0  502 -0.10756600872E+04  0.24053600140E+02 -0.46301700662E+03  0.11713368591E+04  0.46999998093E+01 0.  1.
</event>
<event>
 5   0  0.5352212E-06  0.2336690E+04  0.7818609E-02  0.8463594E-01
        1   -1    0    0  501    0  0.00000000000E+00  0.00000000000E+00  0.87197308788E+03  0.87197308790E+03  0.50400001928E-02 0. -1.
       -1   -1    0    0    0  501  0.00000000000E+00  0.00000000000E+00 -0.15654500162E+04  0.15654500162E+04  0.50400001928E-02 0.  1.
    10030    2    1    2    0    0  0.00000000000E+00  0.00000000000E+00 -0.69347692833E+03  0.24374231041E+04  0.23366902102E+04 0.  0.
        2    1    3    3  502    0 -0.88692919536E+03  0.70260691999E+03 -0.65037177864E+03  0.13050989740E+04  0.25500000920E-02 0.  1.
       -2    1    3    3    0  502  0.88692919536E+03 -0.70260691999E+03 -0.43105149694E+02  0.11323241301E+04  0.25500000920E-02 0. -1.
</event>
<event>
 5   0  0.1307832E-05  0.2845601E+04  0.7818609E-02  0.8289249E-01
       -2   -1    0    0    0  501  0.00000000000E+00  0.00000000000E+00  0.18037358472E+04  0.18037358472E+04  0.25500000920E-02 0.  1.
        2   -1    0    0  501    0  0.00000000000E+00  0.00000000000E+00 -0.11223161292E+04  0.11223161292E+04  0.25500000920E-02 0. -1.
    10030    2    1    2    0    0  0.00000000000E+00  0.00000000000E+00  0.68141971800E+03  0.29260519764E+04  0.28456014015E+04 0.  0.
        4    1    3    3  502    0  0.41537928353E+03  0.10960446682E+04  0.11700520178E+04  0.16561633981E+04  0.12699999809E+01 0.  1.
       -4    1    3    3    0  502 -0.41537928353E+03 -0.10960446682E+04 -0.48863229980E+03  0.12698885783E+04  0.12699999809E+01 0. -1.
</event>
<event>
 5   0  0.5154476E-06  0.2845681E+04  0.7818609E-02  0.8289225E-01
       -1   -1    0    0    0  501  0.00000000000E+00  0.00000000000E+00  0.21960393169E+04  0.21960393169E+04  0.50400001928E-02 0.  1.
        1   -1    0    0  501    0  0.00000000000E+00  0.00000000000E+00 -0.92187567282E+03  0.92187567283E+03  0.50400001928E-02 0. -1.
    10030    2    1    2    0    0  0.00000000000E+00  0.00000000000E+00  0.12741636441E+04  0.31179149898E+04  0.28456810945E+04 0.  0.
        3    1    3    3  502    0  0.38960869891E+02  0.50451742183E+03 -0.81995551494E+03  0.96352625029E+03  0.10100000352E+00 0. -1.
       -3    1    3    3    0  502 -0.38960869891E+02 -0.50451742183E+03  0.20941191591E+04  0.21543887395E+04  0.10100000352E+00 0.  1.
</event>
<event>
 5   0  0.1336899E-05  0.2875358E+04  0.7818609E-02  0.8280247E-01
        2   -1    0    0  501    0  0.00000000000E+00  0.00000000000E+00  0.31731392807E+04  0.31731392807E+04  0.25500000920E-02 0.  1.
       -2   -1    0    0    0  501  0.00000000000E+00  0.00000000000E+00 -0.65138023996E+03  0.65138023997E+03  0.25500000920E-02 0. -1.
    10030    2    1    2    0    0  0.00000000000E+00  0.00000000000E+00  0.25217590407E+04  0.38245195207E+04  0.28753575264E+04 0.  0.
        1    1    3    3  502    0  0.66282429283E+03  0.29462793977E+03  0.29119101946E+04  0.30008936414E+04  0.50400001928E-02 0.  1.
       -1    1    3    3    0  502 -0.66282429283E+03 -0.29462793977E+03 -0.39015115382E+03  0.82362587922E+03  0.50400001928E-02 0. -1.
</event>
<event>
 5   0  0.5352212E-06  0.2908094E+04  0.7818609E-02  0.8270473E-01
        1   -1    0    0  501    0  0.00000000000E+00  0.00000000000E+00  0.12611068531E+04  0.12611068531E+04  0.50400001928E-02 0.  1.
       -1   -1    0    0    0  501  0.00000000000E+00  0.00000000000E+00 -0.16765060945E+04  0.16765060945E+04  0.50400001928E-02 0. -1.
    10030    2    1    2    0    0  0.00000000000E+00  0.00000000000E+00 -0.41539924136E+03  0.29376129476E+04  0.29080944448E+04 0.  0.
        2    1    3    3  502    0 -0.43013475290E+03 -0.12128099963E+04  0.47617249008E+03  0.13721021220E+04  0.25500000920E-02 0.  1.
       -2    1    3    3    0  502  0.43013475290E+03  0.12128099963E+04 -0.89157173144E+03  0.15655108256E+04  0.25500000920E-02 0. -1.
</event>
<event>
 5   0  0.5002240E-06  0.2914556E+04  0.7818609E-02  0.8268560E-01
        1   -1    0    0  501    0  0.00000000000E+00  0.00000000000E+00  0.20736326691E+04  0.20736326691E+04  0.50400001928E-02 0. -1.
       -1   -1    0    0    0  501  0.00000000000E+00  0.00000000000E+00 -0.10241252849E+04  0.10241252849E+04  0.50400001928E-02 0.  1.
    10030    2    1    2    0    0  0.00000000000E+00  0.00000000000E+00  0.10495073842E+04  0.30977579541E+04  0.29145563286E+04 0.  0.
        4    1    3    3  502    0 -0.32366014877E+03 -0.11179271922E+04  0.14568869228E+04  0.18646818006E+04  0.12699999809E+01 0. -1.
       -4    1    3    3    0  502  0.32366014877E+03  0.11179271922E+04 -0.40737953858E+03  0.12330761535E+04  0.12699999809E+01 0.  1.
</event>
<event>
 5   0  0.1307832E-05  0.2699313E+04  0.7818609E-02  0.8335228E-01
        2   -1    0    0  501    0  0.00000000000E+00  0.00000000000E+00  0.13759547275E+04  0.13759547275E+04  0.25500000920E-02 0. -1.
       -2   -1    0    0    0  501  0.00000000000E+00  0.00000000000E+00 -0.13238608916E+04  0.13238608916E+04  0.25500000920E-02 0.  1.
    10030    2    1    2    0    0  0.00000000000E+00  0.00000000000E+00  0.52093835893E+02  0.26998156190E+04  0.26993129883E+04 0.  0.
        4    1    3    3  502    0  0.11068129034E+04 -0.60034447688E+03 -0.45996819384E+03  0.13405299871E+04  0.12699999809E+01 0. -1.
       -4    1    3    3    0  502 -0.11068129034E+04  0.60034447688E+03  0.51206202974E+03  0.13592856319E+04  0.12699999809E+01 0.  1.
</event>
<event>
 5   0  0.1382803E-05  0.2902881E+04  0.7818609E-02  0.8272021E-01
       -2   -1    0    0    0  501  0.00000000000E+00  0.00000000000E+00  0.91030892199E+03  0.91030892199E+03  0.25500000920E-02 0.  1.
        2   -1    0    0  501    0  0.00000000000E+00  0.00000000000E+00 -0.23142473631E+04  0.23142473631E+04  0.25500000920E-02 0. -1.
    10030    2    1    2    0    0  0.00000000000E+00  0.00000000000E+00 -0.14039384411E+04  0.32245562851E+04  0.29028813426E+04 0.  0.
        2    1    3    3  502    0 -0.92407983536E+03 -0.66726521570E+03 -0.17001647118E+04  0.20468821308E+04  0.25500000920E-02 0. -1.
       -2    1    3    3    0  502  0.92407983536E+03  0.66726521570E+03  0.29622627069E+03  0.11776741543E+04  0.25500000920E-02 0.  1.
</event>
<event>
 5   0  0.5261878E-06  0.2920623E+04  0.7818609E-02  0.8266768E-01
        1   -1    0    0  501    0  0.00000000000E+00  0.00000000000E+00  0.10269448262E+04  0.10269448262E+04  0.50400001928E-02 0.  1.
       -1   -1    0    0    0  501  0.00000000000E+00  0.00000000000E+00 -0.20765568667E+04  0.20765568667E+04  0.50400001928E-02 0. -1.
    10030    2    1    2    0    0  0.00000000000E+00  0.00000000000E+00 -0.10496120405E+04  0.31035016929E+04  0.29206227628E+04 0.  0.
        5    1    3    3  502    0 -0.76636854500E+03  0.11765717247E+04 -0.95097412059E+03  0.16958819647E+04  0.46999998093E+01 0. -1.
       -5    1    3    3    0  502  0.76636854500E+03 -0.11765717247E+04 -0.98637919945E+02  0.14076197282E+04  0.46999998093E+01 0.  1.
</event>
<event>
 5   0  0.1339837E-05  0.2911370E+04  0.7818609E-02  0.8269503E-01
       -2   -1    0    0    0  501  0.00000000000E+00  0.00000000000E+00  0.10851008490E+04  0.10851008490E+04  0.25500000920E-02 0. -1.
        2   -1    0    0  501    0  0.00000000000E+00  0.00000000000E+00 -0.19528314072E+04  0.19528314072E+04  0.25500000920E-02 0.  1.
    10030    2    1    2    0    0  0.00000000000E+00  0.00000000000E+00 -0.86773055822E+03  0.30379322562E+04  0.29113701364E+04 0.  0.
        5    1    3    3  502    0  0.33618808366E+03 -0.65669267197E+03  0.87556870286E+03  0.11449499275E+04  0.46999998093E+01 0. -1.
       -5    1    3    3    0  502 -0.33618808366E+03  0.65669267197E+03 -0.17432992611E+04  0.18929823287E+04  0.46999998093E+01 0.  1.
</event>
<event>
 5   0  0.1382803E-05  0.2252821E+04  0.7818609E-02  0.8496759E-01
       -2   -1    0    0    0  501  0.00000000000E+00  0.00000000000E+00  0.56707105759E+03  0.56707105759E+03  0.25500000920E-02 0.  1.
        2   -1    0    0  501    0  0.00000000000E+00  0.00000000000E+00 -0.22374631297E+04  0.22374631297E+04  0.25500000920E-02 0. -1.
    10030    2    1    2    0    0  0.00000000000E+00  0.00000000000E+00 -0.16703920721E+04  0.28045341872E+04  0.22528209723E+04 0.  0.
        2    1    3    3  502    0  0.13283676219E+03 -0.85434888062E+03 -0.17339776145E+04  0.19375850905E+04  0.25500000920E-02 0. -1.
       -2    1    3    3    0  502 -0.13283676219E+03  0.85434888062E+03  0.63585542426E+02  0.86694909679E+03  0.25500000920E-02 0.  1.
</event>
<event>
 5   0  0.1339837E-05  0.2895605E+04  0.7818609E-02  0.8274186E-01
       -2   -1    0    0    0  501  0.00000000000E+00  0.00000000000E+00  0.11117374935E+04  0.11117374935E+04  0.25500000920E-02 0. -1.
        2   -1    0    0  501    0  0.00000000000E+00  0.00000000000E+00 -0.18854559414E+04  0.18854559414E+04  0.25500000920E-02 0.  1.
    10030    2    1    2    0    0  0.00000000000E+00  0.00000000000E+00 -0.77371844791E+03  0.29971934349E+04  0.28956049885E+04 0.  0.
        5    1    3    3  502    0 -0.13521157798E+04  0.20927564780E+03 -0.87685584363E+03  0.16250881943E+04  0.46999998093E+01 0.  1.
       -5    1    3    3    0  502  0.13521157798E+04 -0.20927564780E+03  0.10313739572E+03  0.13721052406E+04  0.46999998093E+01 0. -1.
</event>
<event>
 5   0  0.5154476E-06  0.2743575E+04  0.7818609E-02  0.8321003E-01
       -1   -1    0    0    0  501  0.00000000000E+00  0.00000000000E+00  0.13290743947E+04  0.13290743947E+04  0.50400001928E-02 0. -1.
        1   -1    0    0  501    0  0.00000000000E+00  0.00000000000E+00 -0.14158730494E+04  0.14158730494E+04  0.50400001928E-02 0.  1.
    10030    2    1    2    0    0  0.00000000000E+00  0.00000000000E+00 -0.86798654659E+02  0.27449474441E+04  0.27435747602E+04 0.  0.
        3    1    3    3  502    0  0.77572818651E+03 -0.11311860899E+04 -0.64960437374E+02  0.13731555112E+04  0.10100000352E+00 0.  1.
       -3    1    3    3    0  502 -0.77572818651E+03  0.11311860899E+04 -0.21838217285E+02  0.13717919329E+04  0.10100000352E+00 0. -1.
</event>
<event>
 5   0  0.1336899E-05  0.2933130E+04  0.7818609E-02  0.8263088E-01
        2   -1    0    0  501    0  0.00000000000E+00  0.00000000000E+00  0.23113416146E+04  0.23113416146E+04  0.25500000920E-02 0. -1.
       -2   -1    0    0    0  501  0.00000000000E+00  0.00000000000E+00 -0.93054729841E+03  0.93054729841E+03  0.25500000920E-02 0.  1.
    10030    2    1    2    0    0  0.00000000000E+00  0.00000000000E+00  0.13807943162E+04  0.32418889130E+04  0.29331298609E+04 0.  0.
        1    1    3    3  502    0  0.34353675084E+03 -0.51344418513E+03  0.21605133251E+04  0.22471004112E+04  0.50400001928E-02 0. -1.
       -1    1    3    3    0  502 -0.34353675084E+03  0.51344418513E+03 -0.77971900888E+03  0.99478850177E+03  0.50400001928E-02 0.  1.
</event>
<event>
 5   0  0.5154476E-06  0.2412888E+04  0.7818609E-02  0.8434694E-01
        1   -1    0    0  501    0  0.00000000000E+00  0.00000000000E+00  0.10508326726E+04  0.10508326726E+04  0.50400001928E-02 0.  1.
       -1   -1    0    0    0  501  0.00000000000E+00  0.00000000000E+00 -0.13850986132E+04  0.13850986132E+04  0.50400001928E-02 0. -1.
    10030    2    1    2    0    0  0.00000000000E+00  0.00000000000E+00 -0.33426594054E+03  0.24359312858E+04  0.24128877948E+04 0.  0.
        3    1    3    3  502    0 -0.66404689983E+03  0.75234013206E+03 -0.84325496264E+03  0.13107451704E+04  0.10100000352E+00 0. -1.
       -3    1    3    3    0  502  0.66404689983E+03 -0.75234013206E+03  0.50898902210E+03  0.11251861154E+04  0.10100000352E+00 0.  1.
</event>
<event>
 5   0  0.1382803E-05  0.2958993E+04  0.7818609E-02  0.8255539E-01
        2   -1    0    0  501    0  0.00000000000E+00  0.00000000000E+00  0.11592119425E+04  0.11592119425E+04  0.25500000920E-02 0. -1.
       -2   -1    0    0    0  501  0.00000000000E+00  0.00000000000E+00 -0.18882734696E+04  0.18882734696E+04  0.25500000920E-02 0.  1.
    10030    2    1    2    0    0  0.00000000000E+00  0.00000000000E+00 -0.72906152702E+03  0.30474854121E+04  0.29589925020E+04 0.  0.
        2    1    3    3  502    0  0.11950379470E+04  0.37089346683E+03 -0.11775905244E+04  0.17182540853E+04  0.25500000920E-02 0.  1.
       -2    1    3    3    0  502 -0.11950379470E+04 -0.37089346683E+03  0.44852899739E+03  0.13292313268E+04  0.25500000920E-02 0. -1.
</event>
<event>
 5   0  0.1385669E-05  0.2938057E+04  0.7818609E-02  0.8261644E-01
        2   -1    0    0  501    0  0.00000000000E+00  0.00000000000E+00  0.14343191039E+04  0.14343191039E+04  0.25500000920E-02 0.  1.
       -2   -1    0    0    0  501  0.00000000000E+00  0.00000000000E+00 -0.15045782785E+04  0.15045782785E+04  0.25500000920E-02 0. -1.
    10030    2    1    2    0    0  0.00000000000E+00  0.00000000000E+00 -0.70259174565E+02  0.29388973824E+04  0.29380574318E+04 0.  0.
        3    1    3    3  502    0  0.11837503135E+04  0.84321457700E+03 -0.24912936289E+03  0.14745647077E+04  0.10100000352E+00 0. -1.
       -3    1    3    3    0  502 -0.11837503135E+04 -0.84321457700E+03  0.17887018832E+03  0.14643326747E+04  0.10100000352E+00 0.  1.
</event>
<event>
 5   0  0.1336899E-05  0.2827995E+04  0.7818609E-02  0.8294629E-01
       -2   -1    0    0    0  501  0.00000000000E+00  0.00000000000E+00  0.92125065908E+03  0.92125065908E+03  0.25500000920E-02 0.  1.
        2   -1    0    0  501    0  0.00000000000E+00  0.00000000000E+00 -0.21702985423E+04  0.21702985423E+04  0.25500000920E-02 0. -1.
    10030    2    1    2    0    0  0.00000000000E+00  0.00000000000E+00 -0.12490478832E+04  0.30915492014E+04  0.28279950230E+04 0.  0.
        1    1    3    3  502    0  0.89797524898E+03  0.10827382606E+04 -0.46721298065E+03  0.14822178173E+04  0.50400001928E-02 0.  1.
       -1    1    3    3    0  502 -0.89797524898E+03 -0.10827382606E+04 -0.78183490255E+03  0.16093313840E+04  0.50400001928E-02 0. -1.
</event>
<event>
 5   0  0.1339837E-05  0.2720242E+04  0.7818609E-02  0.8328467E-01
       -2   -1    0    0    0  501  0.00000000000E+00  0.00000000000E+00  0.11118022832E+04  0.11118022832E+04  0.25500000920E-02 0. -1.
        2   -1    0    0  501    0  0.00000000000E+00  0.00000000000E+00 -0.16639007522E+04  0.16639007522E+04  0.25500000920E-02 0.  1.
    10030    2    1    2    0    0  0.00000000000E+00  0.00000000000E+00 -0.55209846896E+03  0.27757030354E+04  0.27202416476E+04 0.  0.
        5    1    3    3  502    0 -0.82895036536E+02 -0.75378146410E+03 -0.14281615009E+04  0.16170112694E+04  0.46999998093E+01 0.  1.
       -5    1    3    3    0  502  0.82895036536E+02  0.75378146410E+03  0.87606303196E+03  0.11586917660E+04  0.46999998093E+01 0. -1.
</event>
<event>
 5   0  0.5002240E-06  0.2329279E+04  0.7818609E-02  0.8466465E-01
       -1   -1    0    0    0  501  0.00000000000E+00  0.00000000000E+00  0.10607137819E+04  0.10607137819E+04  0.50400001928E-02 0. -1.
        1   -1    0    0  501    0  0.00000000000E+00  0.00000000000E+00 -0.12787479567E+04  0.12787479567E+04  0.50400001928E-02 0.  1.
    10030    2    1    2    0    0  0.00000000000E+00  0.00000000000E+00 -0.21803417474E+03  0.23394617386E+04  0.23292793575E+04 0.  0.
        4    1    3    3  502    0 -0.13828239519E+03 -0.89612888269E+03 -0.84311230890E+03  0.12381473957E+04  0.12699999809E+01 0.  1.
       -4    1    3    3    0  502  0.13828239519E+03  0.89612888269E+03  0.62507813415E+03  0.11013143429E+04  0.12699999809E+01 0. -1.
</event>
<event>
 5   0  0.5261878E-06  0.1810218E+04  0.7818609E-02  0.8700884E-01
       -1   -1    0    0    0  501  0.00000000000E+00  0.00000000000E+00  0.70226648770E+03  0.70226648771E+03  0.50400001928E-02 0.  1.
        1   -1    0    0  501    0  0.00000000000E+00  0.00000000000E+00 -0.11665410120E+04  0.11665410120E+04  0.50400001928E-02 0. -1.
    10030    2    1    2    0    0  0.00000000000E+00  0.00000000000E+00 -0.46427452427E+03  0.18688074997E+04  0.18102183948E+04 0.  0.
        5    1    3    3  502    0 -0.11255441129E+03  0.61305270521E+03 -0.90965434692E+03  0.11027217399E+04  0.46999998093E+01 0. -1.
       -5    1    3    3    0  502  0.11255441129E+03 -0.61305270521E+03  0.44537982265E+03  0.76608575975E+03  0.46999998093E+01 0.  1.
</event>
<event>
 5   0  0.4590125E-06  0.2947057E+04  0.7818609E-02  0.8259013E-01
       -3   -1    0    0    0  501  0.00000000000E+00  0.00000000000E+00  0.76879868380E+03  0.76879869043E+03  0.10100000352E+00 0. -1.
        3   -1    0    0  501    0  0.00000000000E+00  0.00000000000E+00 -0.28242579402E+04  0.28242579420E+04  0.10100000352E+00 0.  1.
    10030    2    1    2    0    0  0.00000000000E+00  0.00000000000E+00 -0.20554592564E+04  0.35930566324E+04  0.29470567027E+04 0.  0.
        5    1    3    3  502    0 -0.26488365418E+03  0.10903489298E+04  0.13674498415E+03  0.11303740176E+04  0.46999998093E+01 0. -1.
       -5    1    3    3    0  502  0.26488365418E+03 -0.10903489298E+04 -0.21922042405E+04  0.24626826148E+04  0.46999998093E+01 0.  1.
</event>
<event>
 5   0  0.1307832E-05  0.2798864E+04  0.7818609E-02  0.8303621E-01
       -2   -1    0    0    0  501  0.00000000000E+00  0.00000000000E+00  0.15150906809E+04  0.15150906809E+04  0.25500000920E-02 0. -1.
        2   -1    0    0  501    0  0.00000000000E+00  0.00000000000E+00 -0.12926021431E+04  0.12926021431E+04  0.25500000920E-02 0.  1.
    10030    2    1    2    0    0  0.00000000000E+00  0.00000000000E+00  0.22248853777E+03  0.28076928240E+04  0.27988636702E+04 0.  0.
        4    1    3    3  502    0 -0.63545470496E+03 -0.62528490762E+02 -0.11379531837E+04  0.13048569099E+04  0.12699999809E+01 0.  1.
       -4    1    3    3    0  502  0.63545470496E+03  0.62528490762E+02  0.13604417215E+04  0.15028359141E+04  0.12699999809E+01 0. -1.
</event>
<event>
 5   0  0.5002240E-06  0.2093811E+04  0.7818609E-02  0.8563975E-01
        1   -1    0    0  501    0  0.00000000000E+00  0.00000000000E+00  0.86977292561E+03  0.86977292562E+03  0.50400001928E-02 0. -1.
       -1   -1    0    0    0  501  0.00000000000E+00  0.00000000000E+00 -0.12601115196E+04  0.12601115196E+04  0.50400001928E-02 0.  1.
    10030    2    1    2    0    0  0.00000000000E+00  0.00000000000E+00 -0.39033859399E+03  0.21298844452E+04  0.20938107680E+04 0.  0.
        4    1    3    3  502    0 -0.89874283968E+03  0.55779138815E+02 -0.73837254356E+03  0.11644937227E+04  0.12699999809E+01 0.  1.
       -4    1    3    3    0  502  0.89874283968E+03 -0.55779138815E+02  0.34803394956E+03  0.96539072254E+03  0.12699999809E+01 0. -1.
</event>
<event>
 5   0  0.5059249E-06  0.2887619E+04  0.7818609E-02  0.8276571E-01
        1   -1    0    0  501    0  0.00000000000E+00  0.00000000000E+00  0.24192006434E+04  0.24192006434E+04  0.50400001928E-02 0. -1.
       -1   -1    0    0    0  501  0.00000000000E+00  0.00000000000E+00 -0.86168385776E+03  0.86168385777E+03  0.50400001928E-02 0.  1.
    10030    2    1    2    0    0  0.00000000000E+00  0.00000000000E+00  0.15575167856E+04  0.32808845012E+04  0.28876191876E+04 0.  0.
        1    1    3    3  502    0 -0.65523348139E+03 -0.11606135837E+04  0.14796168463E+03  0.13409874965E+04  0.50400001928E-02 0. -1.
       -1    1    3    3    0  502  0.65523348139E+03  0.11606135837E+04  0.14095551010E+04  0.19398970046E+04  0.50400001928E-02 0.  1.
</event>
<event>
 5   0  0.1336899E-05  0.2896776E+04  0.7818609E-02  0.8273837E-01
        2   -1    0    0  501    0  0.00000000000E+00  0.00000000000E+00  0.19549477771E+04  0.19549477771E+04  0.25500000920E-02 0.  1.
       -2   -1    0    0    0  501  0.00000000000E+00  0.00000000000E+00 -0.10730861494E+04  0.10730861494E+04  0.25500000920E-02 0. -1.
    10030    2    1    2    0    0  0.00000000000E+00  0.00000000000E+00  0.88186162774E+03  0.30280339265E+04  0.28967757127E+04 0.  0.
        1    1    3    3  502    0 -0.49144012805E+03  0.59307877517E+02  0.18637828309E+04  0.19283975898E+04  0.50400001928E-02 0.  1.
       -1    1    3    3    0  502  0.49144012805E+03 -0.59307877517E+02 -0.98192120311E+03  0.10996363367E+04  0.50400001928E-02 0. -1.
</event>
<event>
 5   0  0.5261878E-06  0.2791862E+04  0.7818609E-02  0.8305799E-01
        1   -1    0    0  501    0  0.00000000000E+00  0.00000000000E+00  0.12449854827E+04  0.12449854827E+04  0.50400001928E-02 0.  1.
       -1   -1    0    0    0  501  0.00000000000E+00  0.00000000000E+00 -0.15651778025E+04  0.15651778025E+04  0.50400001928E-02 0. -1.
    10030    2    1    2    0    0  0.00000000000E+00  0.00000000000E+00 -0.32019231976E+03  0.28101632852E+04  0.27918622043E+04 0.  0.
        5    1    3    3  502    0  0.45262023750E+03  0.11784232638E+04 -0.75986713338E+03  0.14734200414E+04  0.46999998093E+01 0.  1.
       -5    1    3    3    0  502 -0.45262023750E+03 -0.11784232638E+04  0.43967481362E+03  0.13367432438E+04  0.46999998093E+01 0. -1.
</event>
<event>
 5   0  0.1307832E-05  0.2886371E+04  0.7818609E-02  0.8276944E-01
        2   -1    0    0  501    0  0.00000000000E+00  0.00000000000E+00  0.22204208915E+04  0.22204208915E+04  0.25500000920E-02 0.  1.
       -2   -1    0    0    0  501  0.00000000000E+00  0.00000000000E+00 -0.93801363594E+03  0.93801363595E+03  0.25500000920E-02 0. -1.
    10030    2    1    2    0    0  0.00000000000E+00  0.00000000000E+00  0.12824072556E+04  0.31584345275E+04  0.28863714756E+04 0.  0.
        4    1    3    3  502    0 -0.71424729876E+03 -0.58399227733E+03  0.18555770441E+04  0.20722847206E+04  0.12699999809E+01 0.  1.
       -4    1    3    3    0  502  0.71424729876E+03  0.58399227733E+03 -0.57316978846E+03  0.10861498069E+04  0.12699999809E+01 0. -1.
</event>
<event>
 5   0  0.1336899E-05  0.2872698E+04  0.7818609E-02  0.8281047E-01
        2   -1    0    0  501    0  0.00000000000E+00  0.00000000000E+00  0.15974799196E+04  0.15974799196E+04  0.25500000920E-02 0. -1.
       -2   -1    0    0    0  501  0.00000000000E+00  0.00000000000E+00 -0.12914708550E+04  0.12914708550E+04  0.25500000920E-02 0.  1.
    10030    2    1    2    0    0  0.00000000000E+00  0.00000000000E+00  0.30600906457E+03  0.28889507746E+04  0.28726982143E+04 0.  0.
        1    1    3    3  502    0 -0.97261988445E+03  0.69896216574E+03 -0.64429943503E+03  0.13600218053E+04  0.50400001928E-02 0.  1.
       -1    1    3    3    0  502  0.97261988445E+03 -0.69896216574E+03  0.95030849960E+03  0.15289289693E+04  0.50400001928E-02 0. -1.
</event>
<event>
 5   0  0.1385669E-05  0.2935079E+04  0.7818609E-02  0.8262516E-01
        2   -1    0    0  501    0  0.00000000000E+00  0.00000000000E+00  0.13776719561E+04  0.13776719561E+04  0.25500000920E-02 0.  1.
       -2   -1    0    0    0  501  0.00000000000E+00  0.00000000000E+00 -0.15632692003E+04  0.15632692003E+04  0.25500000920E-02 0. -1.
    10030    2    1    2    0    0  0.00000000000E+00  0.00000000000E+00 -0.18559724422E+03  0.29409411564E+04  0.29350789680E+04 0.  0.
        3    1    3    3  502    0  0.50710846255E+03 -0.72247229165E+03  0.10819537469E+04  0.13963341740E+04  0.10100000352E+00 0.  1.
       -3    1    3    3    0  502 -0.50710846255E+03  0.72247229165E+03 -0.12675509911E+04  0.15446069824E+04  0.10100000352E+00 0. -1.
</event>
<event>
 5   0  0.1382803E-05  0.2949498E+04  0.7818609E-02  0.8258301E-01
        2   -1    0    0  501    0  0.00000000000E+00  0.00000000000E+00  0.22975142646E+04  0.22975142646E+04  0.25500000920E-02 0.  1.
       -2   -1    0    0    0  501  0.00000000000E+00  0.00000000000E+00 -0.94662481363E+03  0.94662481363E+03  0.25500000920E-02 0. -1.
    10030    2    1    2    0    0  0.00000000000E+00  0.00000000000E+00  0.13508894509E+04  0.32441390782E+04  0.29494975928E+04 0.  0.
        2    1    3    3  502    0  0.45126089438E+03 -0.53273088285E+03  0.21042277647E+04  0.22170279823E+04  0.25500000920E-02 0.  1.
       -2    1    3    3    0  502 -0.45126089438E+03  0.53273088285E+03 -0.75333831379E+03  0.10271110959E+04  0.25500000920E-02 0. -1.
</event>
<event>
 5   0  0.1336899E-05  0.2944355E+04  0.7818609E-02  0.8259801E-01
       -2   -1    0    0    0  501  0.00000000000E+00  0.00000000000E+00  0.82731467549E+03  0.82731467549E+03  0.25500000920E-02 0. -1.
        2   -1    0    0  501    0  0.00000000000E+00  0.00000000000E+00 -0.26196888686E+04  0.26196888686E+04  0.25500000920E-02 0.  1.
    10030    2    1    2    0    0  0.00000000000E+00  0.00000000000E+00 -0.17923741931E+04  0.34470035441E+04  0.29443553089E+04 0.  0.
        1    1    3    3  502    0  0.17105406355E+03  0.83291521859E+02 -0.26052358585E+04  0.26121735870E+04  0.50400001928E-02 0.  1.
       -1    1    3    3    0  502 -0.17105406355E+03 -0.83291521859E+02  0.81286166535E+03  0.83482995711E+03  0.50400001928E-02 0. -1.
</event>
<event>
 5   0  0.1385669E-05  0.2935073E+04  0.7818609E-02  0.8262518E-01
        2   -1    0    0  501    0  0.00000000000E+00  0.00000000000E+00  0.14534653721E+04  0.14534653721E+04  0.25500000920E-02 0.  1.
       -2   -1    0    0    0  501  0.00000000000E+00  0.00000000000E+00 -0.14817440329E+04  0.14817440329E+04  0.25500000920E-02 0. -1.
    10030    2    1    2    0    0  0.00000000000E+00  0.00000000000E+00 -0.28278660848E+02  0.29352094050E+04  0.29350731794E+04 0.  0.
        3    1    3    3  502    0  0.11844061622E+04 -0.61309108573E+03  0.59823294432E+03  0.14617049299E+04  0.10100000352E+00 0.  1.
       -3    1    3    3    0  502 -0.11844061622E+04  0.61309108573E+03 -0.62651160517E+03  0.14735044750E+04  0.10100000352E+00 0. -1.
</event>
<event>
 5   0  0.1382803E-05  0.2933738E+04  0.7818609E-02  0.8262910E-01
       -2   -1    0    0    0  501  0.00000000000E+00  0.00000000000E+00  0.13733338441E+04  0.13733338441E+04  0.25500000920E-02 0.  1.
        2   -1    0    0  501    0  0.00000000000E+00  0.00000000000E+00 -0.15667745829E+04  0.15667745829E+04  0.25500000920E-02 0. -1.
    10030    2    1    2    0    0  0.00000000000E+00  0.00000000000E+00 -0.19344073872E+03  0.29401084270E+04  0.29337379302E+04 0.  0.
        2    1    3    3  502    0 -0.12474457425E+04  0.25929444898E+03 -0.82517568241E+03  0.15179820153E+04  0.25500000920E-02 0. -1.
       -2    1    3    3    0  502  0.12474457425E+04 -0.25929444898E+03  0.63173494369E+03  0.14221264117E+04  0.25500000920E-02 0.  1.
</event>
<event>
 5   0  0.5154476E-06  0.2629753E+04  0.7818609E-02  0.8358165E-01
       -1   -1    0    0    0  501  0.00000000000E+00  0.00000000000E+00  0.96150940055E+03  0.96150940057E+03  0.50400001928E-02 0.  1.
        1   -1    0    0  501    0  0.00000000000E+00  0.00000000000E+00 -0.17981102110E+04  0.17981102110E+04  0.50400001928E-02 0. -1.
    10030    2    1    2    0    0  0.00000000000E+00  0.00000000000E+00 -0.83660081042E+03  0.27596196115E+04  0.26297527421E+04 0.  0.
        3    1    3    3  502    0  0.63940330667E+03 -0.27126699136E+03 -0.15898927527E+04  0.17349874191E+04  0.10100000352E+00 0. -1.
       -3    1    3    3    0  502 -0.63940330667E+03  0.27126699136E+03  0.75329194231E+03  0.10246321924E+04  0.10100000352E+00 0.  1.
</event>
<event>
 5   0  0.5059249E-06  0.2928414E+04  0.7818609E-02  0.8264473E-01
        1   -1    0    0  501    0  0.00000000000E+00  0.00000000000E+00  0.10394142197E+04  0.10394142197E+04  0.50400001928E-02 0. -1.
       -1   -1    0    0    0  501  0.00000000000E+00  0.00000000000E+00 -0.20626068256E+04  0.20626068256E+04  0.50400001928E-02 0.  1.
    10030    2    1    2    0    0  0.00000000000E+00  0.00000000000E+00 -0.10231926059E+04  0.31020210453E+04  0.29284144953E+04 0.  0.
        1    1    3    3  502    0  0.10056381090E+04  0.62017010333E+03 -0.14277288601E+04  0.18531941780E+04  0.50400001928E-02 0. -1.
       -1    1    3    3    0  502 -0.10056381090E+04 -0.62017010333E+03  0.40453625423E+03  0.12488268672E+04  0.50400001928E-02 0.  1.
</event>
<event>
 5   0  0.1382803E-05  0.2893426E+04  0.7818609E-02  0.8274836E-01
        2   -1    0    0  501    0  0.00000000000E+00  0.00000000000E+00  0.11863924852E+04  0.11863924852E+04  0.25500000920E-02 0.  1.
       -2   -1    0    0    0  501  0.00000000000E+00  0.00000000000E+00 -0.17641539625E+04  0.17641539625E+04  0.25500000920E-02 0. -1.
    10030    2    1    2    0    0  0.00000000000E+00  0.00000000000E+00 -0.57776147722E+03  0.29505464477E+04  0.28934263453E+04 0.  0.
        2    1    3    3  502    0 -0.13489098232E+04  0.50375626037E+03 -0.43182986319E+03  0.15032648176E+04  0.25500000920E-02 0.  1.
       -2    1    3    3    0  502  0.13489098232E+04 -0.50375626037E+03 -0.14593161402E+03  0.14472816301E+04  0.25500000920E-02 0. -1.
</event>
<event>
 5   0  0.1339837E-05  0.2937568E+04  0.7818609E-02  0.8261787E-01
        2   -1    0    0  501    0  0.00000000000E+00  0.00000000000E+00  0.98513507153E+03  0.98513507153E+03  0.25500000920E-02 0.  1.
       -2   -1    0    0    0  501  0.00000000000E+00  0.00000000000E+00 -0.21898785918E+04  0.21898785918E+04  0.25500000920E-02 0. -1.
    10030    2    1    2    0    0  0.00000000000E+00  0.00000000000E+00 -0.12047435203E+04  0.31750136633E+04  0.29375678397E+04 0.  0.
        5    1    3    3  502    0  0.25740042190E+03 -0.68001536158E+02  0.95883015374E+03  0.99511634488E+03  0.46999998093E+01 0.  1.
       -5    1    3    3    0  502 -0.25740042190E+03  0.68001536158E+02 -0.21635736740E+04  0.21798973185E+04  0.46999998093E+01 0. -1.
</event>
<event>
 5   0  0.1339837E-05  0.2868993E+04  0.7818609E-02  0.8282163E-01
        2   -1    0    0  501    0  0.00000000000E+00  0.00000000000E+00  0.67994001729E+03  0.67994001730E+03  0.25500000920E-02 0. -1.
       -2   -1    0    0    0  501  0.00000000000E+00  0.00000000000E+00 -0.30264141521E+04  0.30264141521E+04  0.25500000920E-02 0.  1.
    10030    2    1    2    0    0  0.00000000000E+00  0.00000000000E+00 -0.23464741348E+04  0.37063541694E+04  0.28689929180E+04 0.  0.
        5    1    3    3  502    0 -0.35826415930E+03  0.12955767178E+04 -0.18203132996E+04  0.22628377843E+04  0.46999998093E+01 0.  1.
       -5    1    3    3    0  502  0.35826415930E+03 -0.12955767178E+04 -0.52616083521E+03  0.14435163851E+04  0.46999998093E+01 0. -1.
</event>
<event>
 5   0  0.5002240E-06  0.2825835E+04  0.7818609E-02  0.8295292E-01
        1   -1    0    0  501    0  0.00000000000E+00  0.00000000000E+00  0.16682985152E+04  0.16682985152E+04  0.50400001928E-02 0. -1.
       -1   -1    0    0    0  501  0.00000000000E+00  0.00000000000E+00 -0.11966295209E+04  0.11966295209E+04  0.50400001928E-02 0.  1.
    10030    2    1    2    0    0  0.00000000000E+00  0.00000000000E+00  0.47166899430E+03  0.28649280360E+04  0.28258345690E+04 0.  0.
        4    1    3    3  502    0 -0.11824030571E+04  0.76263530265E+03  0.10503790317E+03  0.14109302492E+04  0.12699999809E+01 0.  1.
       -4    1    3    3    0  502  0.11824030571E+04 -0.76263530265E+03  0.36663109113E+03  0.14539977868E+04  0.12699999809E+01 0. -1.
</event>
<event>
 5   0  0.5261878E-06  0.2917768E+04  0.7818609E-02  0.8267611E-01
       -1   -1    0    0    0  501  0.00000000000E+00  0.00000000000E+00  0.16848997463E+04  0.16848997463E+04  0.50400001928E-02 0. -1.
        1   -1    0    0  501    0  0.00000000000E+00  0.00000000000E+00 -0.12631862627E+04  0.12631862627E+04  0.50400001928E-02 0.  1.
    10030    2    1    2    0    0  0.00000000000E+00  0.00000000000E+00  0.42171348360E+03  0.29480860090E+04  0.29177677862E+04 0.  0.
        5    1    3    3  502    0 -0.56386120612E+03  0.55837436427E+03 -0.10260361826E+04  0.12971097596E+04  0.46999998093E+01 0.  1.
       -5    1    3    3    0  502  0.56386120612E+03 -0.55837436427E+03  0.14477496662E+04  0.16509762495E+04  0.46999998093E+01 0. -1.
</event>
<event>
 5   0  0.1336899E-05  0.2905827E+04  0.7818609E-02  0.8271146E-01
       -2   -1    0    0    0  501  0.00000000000E+00  0.00000000000E+00  0.90539206982E+03  0.90539206983E+03  0.25500000920E-02 0.  1.
        2   -1    0    0  501    0  0.00000000000E+00  0.00000000000E+00 -0.23315395133E+04  0.23315395133E+04  0.25500000920E-02 0. -1.
    10030    2    1    2    0    0  0.00000000000E+00  0.00000000000E+00 -0.14261474435E+04  0.32369315832E+04  0.29058268261E+04 0.  0.
        1    1    3    3  502    0 -0.10034965116E+04  0.87622183535E+03 -0.67189718467E+02  0.13338982014E+04  0.50400001928E-02 0.  1.
       -1    1    3    3    0  502  0.10034965116E+04 -0.87622183535E+03 -0.13589577250E+04  0.19030333817E+04  0.50400001928E-02 0. -1.
</event>
<event>
 5   0  0.1307832E-05  0.2918589E+04  0.7818609E-02  0.8267368E-01
       -2   -1    0    0    0  501  0.00000000000E+00  0.00000000000E+00  0.13590551638E+04  0.13590551638E+04  0.25500000920E-02 0. -1.
        2   -1    0    0  501    0  0.00000000000E+00  0.00000000000E+00 -0.15669276239E+04  0.15669276239E+04  0.25500000920E-02 0.  1.
    10030    2    1    2    0    0  0.00000000000E+00  0.00000000000E+00 -0.20787246004E+03  0.29259827877E+04  0.29185894391E+04 0.  0.
        4    1    3    3  502    0 -0.51181453400E+02  0.14484392072E+04 -0.27449593658E+03  0.14751085758E+04  0.12699999809E+01 0. -1.
       -4    1    3    3    0  502  0.51181453400E+02 -0.14484392072E+04  0.66623476533E+02  0.14508742119E+04  0.12699999809E+01 0.  1.
</event>
<event>
 5   0  0.1382803E-05  0.2886421E+04  0.7818609E-02  0.8276929E-01
       -2   -1    0    0    0  501  0.00000000000E+00  0.00000000000E+00  0.14310827006E+04  0.14310827006E+04  0.25500000920E-02 0. -1.
        2   -1    0    0  501    0  0.00000000000E+00  0.00000000000E+00 -0.14554410203E+04  0.14554410203E+04  0.25500000920E-02 0.  1.
    10030    2    1    2    0    0  0.00000000000E+00  0.00000000000E+00 -0.24358319667E+02  0.28865237209E+04  0.28864209436E+04 0.  0.
        2    1    3    3  502    0  0.86931763106E+03  0.11393894514E+04 -0.18228812769E+03  0.14446973479E+04  0.25500000920E-02 0.  1.
       -2    1    3    3    0  502 -0.86931763106E+03 -0.11393894514E+04  0.15792980802E+03  0.14418263730E+04  0.25500000920E-02 0. -1.
</event>
<event>
 5   0  0.1382803E-05  0.2755361E+04  0.7818609E-02  0.8317263E-01
        2   -1    0    0  501    0  0.00000000000E+00  0.00000000000E+00  0.18671384324E+04  0.18671384324E+04  0.25500000920E-02 0. -1.
       -2   -1    0    0    0  501  0.00000000000E+00  0.00000000000E+00 -0.10165305727E+04  0.10165305727E+04  0.25500000920E-02 0.  1.
    10030    2    1    2    0    0  0.00000000000E+00  0.00000000000E+00  0.85060785967E+03  0.28836690051E+04  0.27553608113E+04 0.  0.
        2    1    3    3  502    0 -0.89456201159E+03  0.86411568253E+03 -0.19479565151E+03  0.12589211458E+04  0.25500000920E-02 0.  1.
       -2    1    3    3    0  502  0.89456201159E+03 -0.86411568253E+03  0.10454035112E+04  0.16247478594E+04  0.25500000920E-02 0. -1.
</event>
<event>
 5   0  0.4590125E-06  0.2971638E+04  0.7818609E-02  0.8251877E-01
       -4   -1    0    0    0  501  0.00000000000E+00  0.00000000000E+00  0.18411894772E+04  0.18411899152E+04  0.12699999809E+01 0. -1.
        4   -1    0    0  501    0  0.00000000000E+00  0.00000000000E+00 -0.11990378552E+04  0.11990385278E+04  0.12699999809E+01 0.  1.
    10030    2    1    2    0    0  0.00000000000E+00  0.00000000000E+00  0.64215162196E+03  0.30402284430E+04  0.29716376428E+04 0.  0.
        3    1    3    3  502    0 -0.71448671685E+03  0.34116302624E+03  0.16073846971E+04  0.17918060871E+04  0.10100000352E+00 0. -1.
       -3    1    3    3    0  502  0.71448671685E+03 -0.34116302624E+03 -0.96523307517E+03  0.12484223559E+04  0.10100000352E+00 0.  1.
</event>
<event>
 5   0  0.5059249E-06  0.2421879E+04  0.7818609E-02  0.8431358E-01
       -1   -1    0    0    0  501  0.00000000000E+00  0.00000000000E+00  0.72166440561E+03  0.72166440563E+03  0.50400001928E-02 0.  1.
        1   -1    0    0  501    0  0.00000000000E+00  0.00000000000E+00 -0.20319334724E+04  0.20319334724E+04  0.50400001928E-02 0. -1.
    10030    2    1    2    0    0  0.00000000000E+00  0.00000000000E+00 -0.13102690667E+04  0.27535978780E+04  0.24218786605E+04 0.  0.
        1    1    3    3  502    0  0.63711758204E+03  0.64401504943E+03 -0.15687500886E+04  0.18115327869E+04  0.50400001928E-02 0. -1.
       -1    1    3    3    0  502 -0.63711758204E+03 -0.64401504943E+03  0.25848102190E+03  0.94206509113E+03  0.50400001928E-02 0.  1.
</event>
<event>
 5   0  0.1339837E-05  0.2869977E+04  0.7818609E-02  0.8281867E-01
        2   -1    0    0  501    0  0.00000000000E+00  0.00000000000E+00  0.14779619728E+04  0.14779619728E+04  0.25500000920E-02 0. -1.
       -2   -1    0    0    0  501  0.00000000000E+00  0.00000000000E+00 -0.13932642959E+04  0.13932642959E+04  0.25500000920E-02 0.  1.
    10030    2    1    2    0    0  0.00000000000E+00  0.00000000000E+00  0.84697676905E+02  0.28712262687E+04  0.28699767577E+04 0.  0.
        5    1    3    3  502    0 -0.36260421415E+03  0.12615377339E+04  0.62243771522E+03  0.14527250495E+04  0.46999998093E+01 0. -1.
       -5    1    3    3    0  502  0.36260421415E+03 -0.12615377339E+04 -0.53774003832E+03  0.14185012192E+04  0.46999998093E+01 0.  1.
</event>
<event>
 5   0  0.1336899E-05  0.2898729E+04  0.7818609E-02  0.8273256E-01
       -2   -1    0    0    0  501  0.00000000000E+00  0.00000000000E+00  0.12269386293E+04  0.12269386293E+04  0.25500000920E-02 0. -1.
        2   -1    0    0  501    0  0.00000000000E+00  0.00000000000E+00 -0.17121126898E+04  0.17121126898E+04  0.25500000920E-02 0.  1.
    10030    2    1    2    0    0  0.00000000000E+00  0.00000000000E+00 -0.48517406052E+03  0.29390513190E+04  0.28987288226E+04 0.  0.
        1    1    3    3  502    0  0.84721557677E+03 -0.10651018081E+04 -0.74795917850E+03  0.15529517146E+04  0.50400001928E-02 0.  1.
       -1    1    3    3    0  502 -0.84721557677E+03  0.10651018081E+04  0.26278511798E+03  0.13860996044E+04  0.50400001928E-02 0. -1.
</event>
<event>
 5   0  0.5002240E-06  0.2906296E+04  0.7818609E-02  0.8271007E-01
        1   -1    0    0  501    0  0.00000000000E+00  0.00000000000E+00  0.13057210305E+04  0.13057210305E+04  0.50400001928E-02 0.  1.
       -1   -1    0    0    0  501  0.00000000000E+00  0.00000000000E+00 -0.16172208800E+04  0.16172208800E+04  0.50400001928E-02 0. -1.
    10030    2    1    2    0    0  0.00000000000E+00  0.00000000000E+00 -0.31149984952E+03  0.29229419105E+04  0.29062961404E+04 0.  0.
        4    1    3    3  502    0  0.22338235501E+03 -0.71855351918E+03  0.10945189624E+04  0.13282289744E+04  0.12699999809E+01 0.  1.
       -4    1    3    3    0  502 -0.22338235501E+03  0.71855351918E+03 -0.14060188119E+04  0.15947129361E+04  0.12699999809E+01 0. -1.
</event>
<event>
 5   0  0.5154476E-06  0.3113229E+04  0.7818609E-02  0.8212117E-01
        1   -1    0    0  501    0  0.00000000000E+00  0.00000000000E+00  0.19745412565E+04  0.19745412565E+04  0.50400001928E-02 0. -1.
       -1   -1    0    0    0  501  0.00000000000E+00  0.00000000000E+00 -0.12271450138E+04  0.12271450138E+04  0.50400001928E-02 0.  1.
    10030    2    1    2    0    0  0.00000000000E+00  0.00000000000E+00  0.74739624271E+03  0.32016862703E+04  0.31132288431E+04 0.  0.
        3    1    3    3  502    0 -0.73309193481E+03 -0.99692486632E+03 -0.59746695163E+03  0.13741359985E+04  0.10100000352E+00 0.  1.
       -3    1    3    3    0  502  0.73309193481E+03  0.99692486632E+03  0.13448631943E+04  0.18275502717E+04  0.10100000352E+00 0. -1.
</event>
<event>
 5   0  0.1339837E-05  0.2952562E+04  0.7818609E-02  0.8257408E-01
        2   -1    0    0  501    0  0.00000000000E+00  0.00000000000E+00  0.18606241642E+04  0.18606241642E+04  0.25500000920E-02 0. -1.
       -2   -1    0    0    0  501  0.00000000000E+00  0.00000000000E+00 -0.11713301398E+04  0.11713301398E+04  0.25500000920E-02 0.  1.
    10030    2    1    2    0    0  0.00000000000E+00  0.00000000000E+00  0.68929402441E+03  0.30319543041E+04  0.29525617098E+04 0.  0.
        5    1    3    3  502    0  0.11514105116E+04 -0.47573999030E+03  0.11579721747E+04  0.17008810517E+04  0.46999998093E+01 0. -1.
       -5    1    3    3    0  502 -0.11514105116E+04  0.47573999030E+03 -0.46867815031E+03  0.13310732524E+04  0.46999998093E+01 0.  1.
</event>
<event>
 5   0  0.1339837E-05  0.2267705E+04  0.7818609E-02  0.8490764E-01
        2   -1    0    0  501    0  0.00000000000E+00  0.00000000000E+00  0.17235979334E+04  0.17235979334E+04  0.25500000920E-02 0. -1.
       -2   -1    0    0    0  501  0.00000000000E+00  0.00000000000E+00 -0.74589431795E+03  0.74589431795E+03  0.25500000920E-02 0.  1.
    10030    2    1    2    0    0  0.00000000000E+00  0.00000000000E+00  0.97770361548E+03  0.24694922514E+04  0.22677053644E+04 0.  0.
        5    1    3    3  502    0 -0.10087630329E+04 -0.32250297934E+03  0.47862441970E+02  0.10601527869E+04  0.46999998093E+01 0.  1.
       -5    1    3    3    0  502  0.10087630329E+04  0.32250297934E+03  0.92984117351E+03  0.14093394645E+04  0.46999998093E+01 0. -1.
</event>
<event>
 5   0  0.1382803E-05  0.2946737E+04  0.7818609E-02  0.8259106E-01
       -2   -1    0    0    0  501  0.00000000000E+00  0.00000000000E+00  0.12327251968E+04  0.12327251968E+04  0.25500000920E-02 0.  1.
        2   -1    0    0  501    0  0.00000000000E+00  0.00000000000E+00 -0.17609877962E+04  0.17609877962E+04  0.25500000920E-02 0. -1.
    10030    2    1    2    0    0  0.00000000000E+00  0.00000000000E+00 -0.52826259945E+03  0.29937129930E+04  0.29467365187E+04 0.  0.
        2    1    3    3  502    0  0.31608217188E+03 -0.81706633611E+03  0.93936695361E+03  0.12844904089E+04  0.25500000920E-02 0.  1.
       -2    1    3    3    0  502 -0.31608217188E+03  0.81706633611E+03 -0.14676295531E+04  0.17092225841E+04  0.25500000920E-02 0. -1.
</event>
<event>
 5   0  0.1307832E-05  0.2833540E+04  0.7818609E-02  0.8292931E-01
       -2   -1    0    0    0  501  0.00000000000E+00  0.00000000000E+00  0.10904826972E+04  0.10904826972E+04  0.25500000920E-02 0.  1.
        2   -1    0    0  501    0  0.00000000000E+00  0.00000000000E+00 -0.18406869077E+04  0.18406869077E+04  0.25500000920E-02 0. -1.
    10030    2    1    2    0    0  0.00000000000E+00  0.00000000000E+00 -0.75020421043E+03  0.29311696049E+04  0.28335399936E+04 0.  0.
        4    1    3    3  502    0 -0.12870853840E+04  0.46068602104E+03 -0.75996276298E+03  0.15640861261E+04  0.12699999809E+01 0. -1.
       -4    1    3    3    0  502  0.12870853840E+04 -0.46068602104E+03  0.97585525480E+01  0.13670834788E+04  0.12699999809E+01 0.  1.
</event>
<event>
 5   0  0.5059249E-06  0.2866325E+04  0.7818609E-02  0.8282968E-01
       -1   -1    0    0    0  501  0.00000000000E+00  0.00000000000E+00  0.25574403049E+04  0.25574403049E+04  0.50400001928E-02 0. -1.
        1   -1    0    0  501    0  0.00000000000E+00  0.00000000000E+00 -0.80312925855E+03  0.80312925857E+03  0.50400001928E-02 0.  1.
    10030    2    1    2    0    0  0.00000000000E+00  0.00000000000E+00  0.17543110464E+04  0.33605695635E+04  0.28663252683E+04 0.  0.
        1    1    3    3  502    0  0.10595482282E+04 -0.90755322723E+03  0.49246254609E+03  0.14794643177E+04  0.50400001928E-02 0. -1.
       -1    1    3    3    0  502 -0.10595482282E+04  0.90755322723E+03  0.12618485003E+04  0.18811052458E+04  0.50400001928E-02 0.  1.
</event>
<event>
 5   0  0.5059249E-06  0.2843055E+04  0.7818609E-02  0.8290025E-01
       -1   -1    0    0    0  501  0.00000000000E+00  0.00000000000E+00  0.11804558648E+04  0.11804558648E+04  0.50400001928E-02 0. -1.
        1   -1    0    0  501    0  0.00000000000E+00  0.00000000000E+00 -0.17118300550E+04  0.17118300551E+04  0.50400001928E-02 0.  1.
    10030    2    1    2    0    0  0.00000000000E+00  0.00000000000E+00 -0.53137419024E+03  0.28922859199E+04  0.28430545743E+04 0.  0.
        1    1    3    3  502    0  0.10361595583E+04 -0.87327506542E+03 -0.70266427029E+03  0.15264249234E+04  0.50400001928E-02 0.  1.
       -1    1    3    3    0  502 -0.10361595583E+04  0.87327506542E+03  0.17129008005E+03  0.13658609965E+04  0.50400001928E-02 0. -1.
</event>
<event>
 5   0  0.5154476E-06  0.3170221E+04  0.7818609E-02  0.8196726E-01
        1   -1    0    0  501    0  0.00000000000E+00  0.00000000000E+00  0.14039860814E+04  0.14039860814E+04  0.50400001928E-02 0. -1.
       -1   -1    0    0    0  501  0.00000000000E+00  0.00000000000E+00 -0.17896011152E+04  0.17896011153E+04  0.50400001928E-02 0.  1.
    10030    2    1    2    0    0  0.00000000000E+00  0.00000000000E+00 -0.38561503387E+03  0.31935871966E+04  0.31702208485E+04 0.  0.
        3    1    3    3  502    0 -0.10970344331E+04  0.10474379562E+03  0.95494050677E+03  0.14582068412E+04  0.10100000352E+00 0. -1.
       -3    1    3    3    0  502  0.10970344331E+04 -0.10474379562E+03 -0.13405555406E+04  0.17353803554E+04  0.10100000352E+00 0.  1.
</event>
<event>
 5   0  0.1336899E-05  0.2899425E+04  0.7818609E-02  0.8273048E-01
       -2   -1    0    0    0  501  0.00000000000E+00  0.00000000000E+00  0.11873915811E+04  0.11873915811E+04  0.25500000920E-02 0.  1.
        2   -1    0    0  501    0  0.00000000000E+00  0.00000000000E+00 -0.17699863612E+04  0.17699863612E+04  0.25500000920E-02 0. -1.
    10030    2    1    2    0    0  0.00000000000E+00  0.00000000000E+00 -0.58259478004E+03  0.29573779423E+04  0.28994253941E+04 0.  0.
        1    1    3    3  502    0 -0.12251873561E+04  0.52632350314E+03  0.28890112200E+03  0.13643915661E+04  0.50400001928E-02 0.  1.
       -1    1    3    3    0  502  0.12251873561E+04 -0.52632350314E+03 -0.87149590205E+03  0.15929863762E+04  0.50400001928E-02 0. -1.
</event>
<event>
 5   0  0.4590125E-06  0.2484964E+04  0.7818609E-02  0.8408362E-01
       -3   -1    0    0    0  501  0.00000000000E+00  0.00000000000E+00  0.12369187913E+04  0.12369187954E+04  0.10100000352E+00 0. -1.
        3   -1    0    0  501    0  0.00000000000E+00  0.00000000000E+00 -0.12480702305E+04  0.12480702346E+04  0.10100000352E+00 0.  1.
    10030    2    1    2    0    0  0.00000000000E+00  0.00000000000E+00 -0.11151439265E+02  0.24849890300E+04  0.24849640087E+04 0.  0.
        4    1    3    3  502    0  0.54168398647E+03  0.19166377351E+02  0.11124565694E+04  0.12374773222E+04  0.12699999809E+01 0. -1.
       -4    1    3    3    0  502 -0.54168398647E+03 -0.19166377351E+02 -0.11236080086E+04  0.12475117078E+04  0.12699999809E+01 0.  1.
</event>
<event>
 5   0  0.1307832E-05  0.2901089E+04  0.7818609E-02  0.8272554E-01
       -2   -1    0    0    0  501  0.00000000000E+00  0.00000000000E+00  0.11463616288E+04  0.11463616288E+04  0.25500000920E-02 0. -1.
        2   -1    0    0  501    0  0.00000000000E+00  0.00000000000E+00 -0.18354410336E+04  0.18354410336E+04  0.25500000920E-02 0.  1.
    10030    2    1    2    0    0  0.00000000000E+00  0.00000000000E+00 -0.68907940485E+03  0.29818026624E+04  0.29010888802E+04 0.  0.
        4    1    3    3  502    0  0.63973340276E+03  0.67327817533E+03  0.80069339272E+03  0.12262437971E+04  0.12699999809E+01 0. -1.
       -4    1    3    3    0  502 -0.63973340276E+03 -0.67327817533E+03 -0.14897727976E+04  0.17555588652E+04  0.12699999809E+01 0.  1.
</event>
<event>
 5   0  0.5002240E-06  0.2834183E+04  0.7818609E-02  0.8292734E-01
        1   -1    0    0  501    0  0.00000000000E+00  0.00000000000E+00  0.16451903452E+04  0.16451903452E+04  0.50400001928E-02 0. -1.
       -1   -1    0    0    0  501  0.00000000000E+00  0.00000000000E+00 -0.12206180422E+04  0.12206180422E+04  0.50400001928E-02 0.  1.
    10030    2    1    2    0    0  0.00000000000E+00  0.00000000000E+00  0.42457230295E+03  0.28658083874E+04  0.28341834932E+04 0.  0.
        4    1    3    3  502    0  0.13077802643E+04  0.20565188908E+03 -0.29888964974E+03  0.13571730010E+04  0.12699999809E+01 0. -1.
       -4    1    3    3    0  502 -0.13077802643E+04 -0.20565188908E+03  0.72346195269E+03  0.15086353864E+04  0.12699999809E+01 0.  1.
</event>
<event>
 5   0  0.5261878E-06  0.2627124E+04  0.7818609E-02  0.8359046E-01
       -1   -1    0    0    0  501  0.00000000000E+00  0.00000000000E+00  0.66716974762E+03  0.66716974764E+03  0.50400001928E-02 0. -1.
        1   -1    0    0  501    0  0.00000000000E+00  0.00000000000E+00 -0.25862161242E+04  0.25862161242E+04  0.50400001928E-02 0.  1.
    10030    2    1    2    0    0  0.00000000000E+00  0.00000000000E+00 -0.19190463766E+04  0.32533858719E+04  0.26271240237E+04 0.  0.
        5    1    3    3  502    0  0.42546204759E+03 -0.12405102401E+04 -0.10516929967E+04  0.16810603377E+04  0.46999998093E+01 0. -1.
       -5    1    3    3    0  502 -0.42546204759E+03  0.12405102401E+04 -0.86735337990E+03  0.15723255342E+04  0.46999998093E+01 0.  1.
</event>
<event>
 5   0  0.1336899E-05  0.2925700E+04  0.7818609E-02  0.8265272E-01
        2   -1    0    0  501    0  0.00000000000E+00  0.00000000000E+00  0.23034652573E+04  0.23034652573E+04  0.25500000920E-02 0. -1.
       -2   -1    0    0    0  501  0.00000000000E+00  0.00000000000E+00 -0.92900454330E+03  0.92900454331E+03  0.25500000920E-02 0.  1.
    10030    2    1    2    0    0  0.00000000000E+00  0.00000000000E+00  0.13744607140E+04  0.32324698006E+04  0.29256997039E+04 0.  0.
        1    1    3    3  502    0 -0.19805017002E+03  0.14426986812E+04  0.53363450812E+03  0.15509252538E+04  0.50400001928E-02 0.  1.
       -1    1    3    3    0  502  0.19805017002E+03 -0.14426986812E+04  0.84082620585E+03  0.16815445468E+04  0.50400001928E-02 0. -1.
</event>
<event>
 5   0  0.5154476E-06  0.2901561E+04  0.7818609E-02  0.8272413E-01
       -1   -1    0    0    0  501  0.00000000000E+00  0.00000000000E+00  0.11251201019E+04  0.11251201019E+04  0.50400001928E-02 0. -1.
        1   -1    0    0  501    0  0.00000000000E+00  0.00000000000E+00 -0.18707010926E+04  0.18707010926E+04  0.50400001928E-02 0.  1.
    10030    2    1    2    0    0  0.00000000000E+00  0.00000000000E+00 -0.74558099067E+03  0.29958211946E+04  0.29015605484E+04 0.  0.
        3    1    3    3  502    0 -0.48086567700E+03 -0.29460197478E+03  0.10073239000E+04  0.11544364741E+04  0.10100000352E+00 0. -1.
       -3    1    3    3    0  502  0.48086567700E+03  0.29460197478E+03 -0.17529048907E+04  0.18413847205E+04  0.10100000352E+00 0.  1.
</event>
<event>
 5   0  0.1382803E-05  0.3119997E+04  0.7818609E-02  0.8210271E-01
       -2   -1    0    0    0  501  0.00000000000E+00  0.00000000000E+00  0.14052315254E+04  0.14052315254E+04  0.25500000920E-02 0.  1.
        2   -1    0    0  501    0  0.00000000000E+00  0.00000000000E+00 -0.17318107230E+04  0.17318107230E+04  0.25500000920E-02 0. -1.
    10030    2    1    2    0    0  0.00000000000E+00  0.00000000000E+00 -0.32657919757E+03  0.31370422485E+04  0.31199968103E+04 0.  0.
        2    1    3    3  502    0 -0.10276806695E+04 -0.18037254602E+03  0.10027587988E+04  0.14471306169E+04  0.25500000920E-02 0.  1.
       -2    1    3    3    0  502  0.10276806695E+04  0.18037254602E+03 -0.13293379964E+04  0.16899116315E+04  0.25500000920E-02 0. -1.
</event>
<event>
 5   0  0.1382803E-05  0.3019572E+04  0.7818609E-02  0.8238164E-01
        2   -1    0    0  501    0  0.00000000000E+00  0.00000000000E+00  0.12083562947E+04  0.12083562947E+04  0.25500000920E-02 0.  1.
       -2   -1    0    0    0  501  0.00000000000E+00  0.00000000000E+00 -0.18864083095E+04  0.18864083095E+04  0.25500000920E-02 0. -1.
    10030    2    1    2    0    0  0.00000000000E+00  0.00000000000E+00 -0.67805201478E+03  0.30947646042E+04  0.30195717281E+04 0.  0.
        2    1    3    3  502    0  0.72367572820E+03 -0.94606450630E+03  0.61182041876E+03  0.13390552022E+04  0.25500000920E-02 0. -1.
       -2    1    3    3    0  502 -0.72367572820E+03  0.94606450630E+03 -0.12898724335E+04  0.17557094021E+04  0.25500000920E-02 0.  1.
</event>
<event>
 5   0  0.1307832E-05  0.2717563E+04  0.7818609E-02  0.8329329E-01
        2   -1    0    0  501    0  0.00000000000E+00  0.00000000000E+00  0.20511458598E+04  0.20511458598E+04  0.25500000920E-02 0. -1.
       -2   -1    0    0    0  501  0.00000000000E+00  0.00000000000E+00 -0.90012485340E+03  0.90012485340E+03  0.25500000920E-02 0.  1.
    10030    2    1    2    0    0  0.00000000000E+00  0.00000000000E+00  0.11510210064E+04  0.29512707132E+04  0.27175631484E+04 0.  0.
        4    1    3    3  502    0  0.64793954931E+03 -0.11942221827E+04  0.59411478510E+03  0.14828911868E+04  0.12699999809E+01 0.  1.
       -4    1    3    3    0  502 -0.64793954931E+03  0.11942221827E+04  0.55690622132E+03  0.14683795264E+04  0.12699999809E+01 0. -1.
</event>
<event>
 5   0  0.1385669E-05  0.2880199E+04  0.7818609E-02  0.8278793E-01
        2   -1    0    0  501    0  0.00000000000E+00  0.00000000000E+00  0.17750094888E+04  0.17750094888E+04  0.25500000920E-02 0. -1.
       -2   -1    0    0    0  501  0.00000000000E+00  0.00000000000E+00 -0.11683804428E+04  0.11683804428E+04  0.25500000920E-02 0.  1.
    10030    2    1    2    0    0  0.00000000000E+00  0.00000000000E+00  0.60662904603E+03  0.29433899316E+04  0.28801988630E+04 0.  0.
        3    1    3    3  502    0 -0.13020065032E+04 -0.49850888044E+03  0.67199880748E+03  0.15476803436E+04  0.10100000352E+00 0. -1.
       -3    1    3    3    0  502  0.13020065032E+04  0.49850888044E+03 -0.65369761458E+02  0.13957095881E+04  0.10100000352E+00 0.  1.
</event>
<event>
 5   0  0.1336899E-05  0.2699302E+04  0.7818609E-02  0.8335231E-01
        2   -1    0    0  501    0  0.00000000000E+00  0.00000000000E+00  0.25144815848E+04  0.25144815848E+04  0.25500000920E-02 0. -1.
       -2   -1    0    0    0  501  0.00000000000E+00  0.00000000000E+00 -0.72442698701E+03  0.72442698701E+03  0.25500000920E-02 0.  1.
    10030    2    1    2    0    0  0.00000000000E+00  0.00000000000E+00  0.17900545978E+04  0.32389085718E+04  0.26993023679E+04 0.  0.
        1    1    3    3  502    0  0.10587650451E+04  0.76378534913E+03  0.13058208607E+04  0.18464884512E+04  0.50400001928E-02 0. -1.
       -1    1    3    3    0  502 -0.10587650451E+04 -0.76378534913E+03  0.48423373715E+03  0.13924201207E+04  0.50400001928E-02 0.  1.
</event>
<event>
 5   0  0.1339837E-05  0.2803167E+04  0.7818609E-02  0.8302286E-01
       -2   -1    0    0    0  501  0.00000000000E+00  0.00000000000E+00  0.18977327005E+04  0.18977327005E+04  0.25500000920E-02 0. -1.
        2   -1    0    0  501    0  0.00000000000E+00  0.00000000000E+00 -0.10351487502E+04  0.10351487502E+04  0.25500000920E-02 0.  1.
    10030    2    1    2    0    0  0.00000000000E+00  0.00000000000E+00  0.86258395035E+03  0.29328814507E+04  0.28031665189E+04 0.  0.
        5    1    3    3  502    0  0.54774816380E+03  0.19648853857E+03 -0.90277059355E+03  0.10740822274E+04  0.46999998093E+01 0.  1.
       -5    1    3    3    0  502 -0.54774816380E+03 -0.19648853857E+03  0.17653545439E+04  0.18587992233E+04  0.46999998093E+01 0. -1.
</event>
<event>
 5   0  0.5002240E-06  0.2796661E+04  0.7818609E-02  0.8304306E-01
       -1   -1    0    0    0  501  0.00000000000E+00  0.00000000000E+00  0.15649505418E+04  0.15649505418E+04  0.50400001928E-02 0. -1.
        1   -1    0    0  501    0  0.00000000000E+00  0.00000000000E+00 -0.12494502045E+04  0.12494502046E+04  0.50400001928E-02 0.  1.
    10030    2    1    2    0    0  0.00000000000E+00  0.00000000000E+00  0.31550033722E+03  0.28144007463E+04  0.27966607049E+04 0.  0.
        4    1    3    3  502    0 -0.70058004764E+02 -0.20112408943E+03 -0.12330319700E+04  0.12512907237E+04  0.12699999809E+01 0.  1.
       -4    1    3    3    0  502  0.70058004764E+02  0.20112408943E+03  0.15485323072E+04  0.15631100226E+04  0.12699999809E+01 0. -1.
</event>
<event>
 5   0  0.5261878E-06  0.2965350E+04  0.7818609E-02  0.8253695E-01
       -1   -1    0    0    0  501  0.00000000000E+00  0.00000000000E+00  0.13121709045E+04  0.13121709045E+04  0.50400001928E-02 0.  1.
        1   -1    0    0  501    0  0.00000000000E+00  0.00000000000E+00 -0.16753350248E+04  0.16753350248E+04  0.50400001928E-02 0. -1.
    10030    2    1    2    0    0  0.00000000000E+00  0.00000000000E+00 -0.36316412024E+03  0.29875059293E+04  0.29653504851E+04 0.  0.
        5    1    3    3  502    0  0.56838783348E+03  0.13654765832E+04 -0.77306301191E+02  0.14810771022E+04  0.46999998093E+01 0. -1.
       -5    1    3    3    0  502 -0.56838783348E+03 -0.13654765832E+04 -0.28585781905E+03  0.15064288271E+04  0.46999998093E+01 0.  1.
</event>
<event>
 5   0  0.1307832E-05  0.2135157E+04  0.7818609E-02  0.8545913E-01
        2   -1    0    0  501    0  0.00000000000E+00  0.00000000000E+00  0.12197352710E+04  0.12197352710E+04  0.25500000920E-02 0. -1.
       -2   -1    0    0    0  501  0.00000000000E+00  0.00000000000E+00 -0.93440234933E+03  0.93440234933E+03  0.25500000920E-02 0.  1.
    10030    2    1    2    0    0  0.00000000000E+00  0.00000000000E+00  0.28533292171E+03  0.21541376204E+04  0.21351566714E+04 0.  0.
        4    1    3    3  502    0 -0.61650329237E+03 -0.64365165723E+03  0.73556248259E+03  0.11556026757E+04  0.12699999809E+01 0. -1.
       -4    1    3    3    0  502  0.61650329237E+03  0.64365165723E+03 -0.45022956088E+03  0.99853494468E+03  0.12699999809E+01 0.  1.
</event>
<event>
 5   0  0.1382803E-05  0.2862774E+04  0.7818609E-02  0.8284040E-01
       -2   -1    0    0    0  501  0.00000000000E+00  0.00000000000E+00  0.12900645175E+04  0.12900645175E+04  0.25500000920E-02 0. -1.
        2   -1    0    0  501    0  0.00000000000E+00  0.00000000000E+00 -0.15881904396E+04  0.15881904396E+04  0.25500000920E-02 0.  1.
    10030    2    1    2    0    0  0.00000000000E+00  0.00000000000E+00 -0.29812592207E+03  0.28782549571E+04  0.28627735734E+04 0.  0.
        2    1    3    3  502    0  0.11736494971E+04  0.25038979978E+03 -0.93348723717E+03  0.15203771295E+04  0.25500000920E-02 0.  1.
       -2    1    3    3    0  502 -0.11736494971E+04 -0.25038979978E+03  0.63536131510E+03  0.13578778276E+04  0.25500000920E-02 0. -1.
</event>
<event>
 5   0  0.5261878E-06  0.2948825E+04  0.7818609E-02  0.8258497E-01
       -1   -1    0    0    0  501  0.00000000000E+00  0.00000000000E+00  0.10603426140E+04  0.10603426140E+04  0.50400001928E-02 0.  1.
        1   -1    0    0  501    0  0.00000000000E+00  0.00000000000E+00 -0.20501796298E+04  0.20501796298E+04  0.50400001928E-02 0. -1.
    10030    2    1    2    0    0  0.00000000000E+00  0.00000000000E+00 -0.98983701576E+03  0.31105222438E+04  0.29488254122E+04 0.  0.
        5    1    3    3  502    0  0.78149723734E+03 -0.99118913104E+03  0.30888802270E+03  0.12994720951E+04  0.46999998093E+01 0.  1.
       -5    1    3    3    0  502 -0.78149723734E+03  0.99118913104E+03 -0.12987250385E+04  0.18110501487E+04  0.46999998093E+01 0. -1.
</event>
<event>
 5   0  0.5352212E-06  0.2874725E+04  0.7818609E-02  0.8280438E-01
        1   -1    0    0  501    0  0.00000000000E+00  0.00000000000E+00  0.21598047427E+04  0.21598047427E+04  0.50400001928E-02 0.  1.
       -1   -1    0    0    0  501  0.00000000000E+00  0.00000000000E+00 -0.95657270181E+03  0.95657270183E+03  0.50400001928E-02 0. -1.
    10030    2    1    2    0    0  0.00000000000E+00  0.00000000000E+00  0.12032320408E+04  0.31163774445E+04  0.28747245142E+04 0.  0.
        2    1    3    3  502    0 -0.76998980164E+03  0.11154862589E+04  0.83057988508E+02  0.13579736809E+04  0.25500000920E-02 0. -1.
       -2    1    3    3    0  502  0.76998980164E+03 -0.11154862589E+04  0.11201740523E+04  0.17584037636E+04  0.25500000920E-02 0.  1.
</event>
<event>
 5   0  0.1339837E-05  0.2881610E+04  0.7818609E-02  0.8278370E-01
        2   -1    0    0  501    0  0.00000000000E+00  0.00000000000E+00  0.23547266036E+04  0.23547266036E+04  0.25500000920E-02 0. -1.
       -2   -1    0    0    0  501  0.00000000000E+00  0.00000000000E+00 -0.88159653347E+03  0.88159653347E+03  0.25500000920E-02 0.  1.
    10030    2    1    2    0    0  0.00000000000E+00  0.00000000000E+00  0.14731300701E+04  0.32363231371E+04  0.28816098355E+04 0.  0.
        5    1    3    3  502    0  0.85784153408E+03  0.39679038397E+03 -0.48475269729E+03  0.10622344251E+04  0.46999998093E+01 0.  1.
       -5    1    3    3    0  502 -0.85784153408E+03 -0.39679038397E+03  0.19578827674E+04  0.21740887119E+04  0.46999998093E+01 0. -1.
</event>
<event>
 5   0  0.5352212E-06  0.2930671E+04  0.7818609E-02  0.8263810E-01
        1   -1    0    0  501    0  0.00000000000E+00  0.00000000000E+00  0.25025450262E+04  0.25025450262E+04  0.50400001928E-02 0. -1.
       -1   -1    0    0    0  501  0.00000000000E+00  0.00000000000E+00 -0.85800970834E+03  0.85800970836E+03  0.50400001928E-02 0.  1.
    10030    2    1    2    0    0  0.00000000000E+00  0.00000000000E+00  0.16445353179E+04  0.33605547346E+04  0.29306708639E+04 0.  0.
        2    1    3    3  502    0  0.73322806417E+03  0.10147430386E+04  0.16954670084E+04  0.21075899044E+04  0.25500000920E-02 0. -1.
       -2    1    3    3    0  502 -0.73322806417E+03 -0.10147430386E+04 -0.50931690551E+02  0.12529648302E+04  0.25500000920E-02 0.  1.
</event>
<event>
 5   0  0.5154476E-06  0.1912181E+04  0.7818609E-02  0.8648817E-01
        1   -1    0    0  501    0  0.00000000000E+00  0.00000000000E+00  0.60465442105E+03  0.60465442107E+03  0.50400001928E-02 0. -1.
       -1   -1    0    0    0  501  0.00000000000E+00  0.00000000000E+00 -0.15117877885E+04  0.15117877885E+04  0.50400001928E-02 0.  1.
    10030    2    1    2    0    0  0.00000000000E+00  0.00000000000E+00 -0.90713336740E+03  0.21164422095E+04  0.19121811316E+04 0.  0.
        3    1    3    3  502    0 -0.36610386997E+03  0.51398290709E+03  0.34141952990E+03  0.71748015860E+03  0.10100000352E+00 0. -1.
       -3    1    3    3    0  502  0.36610386997E+03 -0.51398290709E+03 -0.12485528973E+04  0.13989620509E+04  0.10100000352E+00 0.  1.
</event>
<event>
 5   0  0.5059249E-06  0.2865874E+04  0.7818609E-02  0.8283104E-01
        1   -1    0    0  501    0  0.00000000000E+00  0.00000000000E+00  0.13089922311E+04  0.13089922311E+04  0.50400001928E-02 0. -1.
       -1   -1    0    0    0  501  0.00000000000E+00  0.00000000000E+00 -0.15686177720E+04  0.15686177720E+04  0.50400001928E-02 0.  1.
    10030    2    1    2    0    0  0.00000000000E+00  0.00000000000E+00 -0.25962554093E+03  0.28776100031E+04  0.28658740217E+04 0.  0.
        1    1    3    3  502    0 -0.10287362050E+04  0.62187442047E+03  0.65330576058E+03  0.13681499885E+04  0.50400001928E-02 0. -1.
       -1    1    3    3    0  502  0.10287362050E+04 -0.62187442047E+03 -0.91293130150E+03  0.15094600146E+04  0.50400001928E-02 0.  1.
</event>
<event>
 5   0  0.1336899E-05  0.2928742E+04  0.7818609E-02  0.8264377E-01
       -2   -1    0    0    0  501  0.00000000000E+00  0.00000000000E+00  0.15881387059E+04  0.15881387059E+04  0.25500000920E-02 0. -1.
        2   -1    0    0  501    0  0.00000000000E+00  0.00000000000E+00 -0.13502490763E+04  0.13502490763E+04  0.25500000920E-02 0.  1.
    10030    2    1    2    0    0  0.00000000000E+00  0.00000000000E+00  0.23788962961E+03  0.29383877823E+04  0.29287422698E+04 0.  0.
        1    1    3    3  502    0 -0.11671184247E+04  0.81085472707E+03  0.47328215723E+03  0.14978807716E+04  0.50400001928E-02 0. -1.
       -1    1    3    3    0  502  0.11671184247E+04 -0.81085472707E+03 -0.23539252762E+03  0.14405070107E+04  0.50400001928E-02 0.  1.
</event>
<event>
 5   0  0.4590125E-06  0.2857067E+04  0.7818609E-02  0.8285767E-01
        3   -1    0    0  501    0  0.00000000000E+00  0.00000000000E+00  0.10557965138E+04  0.10557965186E+04  0.10100000352E+00 0.  1.
       -3   -1    0    0    0  501  0.00000000000E+00  0.00000000000E+00 -0.19328610605E+04  0.19328610632E+04  0.10100000352E+00 0. -1.
    10030    2    1    2    0    0  0.00000000000E+00  0.00000000000E+00 -0.87706454677E+03  0.29886575818E+04  0.28570670139E+04 0.  0.
        1    1    3    3  502    0  0.11552056823E+04  0.74027462752E+03 -0.22467698528E+02  0.13722286580E+04  0.50400001928E-02 0.  1.
       -1    1    3    3    0  502 -0.11552056823E+04 -0.74027462752E+03 -0.85459684825E+03  0.16164289237E+04  0.50400001928E-02 0. -1.
</event>
<event>
 5   0  0.1385669E-05  0.2888275E+04  0.7818609E-02  0.8276374E-01
        2   -1    0    0  501    0  0.00000000000E+00  0.00000000000E+00  0.18015778367E+04  0.18015778367E+04  0.25500000920E-02 0. -1.
       -2   -1    0    0    0  501  0.00000000000E+00  0.00000000000E+00 -0.11576150894E+04  0.11576150894E+04  0.25500000920E-02 0.  1.
    10030    2    1    2    0    0  0.00000000000E+00  0.00000000000E+00  0.64396274727E+03  0.29591929261E+04  0.28882753944E+04 0.  0.
        3    1    3    3  502    0 -0.12313843498E+04 -0.12698896680E+03 -0.43998627736E+03  0.13137813931E+04  0.10100000352E+00 0.  1.
       -3    1    3    3    0  502  0.12313843498E+04  0.12698896680E+03  0.10839490246E+04  0.16454115329E+04  0.10100000352E+00 0. -1.
</event>
<event>
 5   0  0.1339837E-05  0.2904514E+04  0.7818609E-02  0.8271536E-01
        2   -1    0    0  501    0  0.00000000000E+00  0.00000000000E+00  0.16508654764E+04  0.16508654764E+04  0.25500000920E-02 0.  1.
       -2   -1    0    0    0  501  0.00000000000E+00  0.00000000000E+00 -0.12775420252E+04  0.12775420252E+04  0.25500000920E-02 0. -1.
    10030    2    1    2    0    0  0.00000000000E+00  0.00000000000E+00  0.37332345127E+03  0.29284075016E+04  0.29045137452E+04 0.  0.
        5    1    3    3  502    0 -0.61589910426E+03  0.93279105257E+02  0.15093207782E+04  0.16328208719E+04  0.46999998093E+01 0.  1.
       -5    1    3    3    0  502  0.61589910426E+03 -0.93279105257E+02 -0.11359973270E+04  0.12955866297E+04  0.46999998093E+01 0. -1.
</event>
<event>
 5   0  0.1307832E-05  0.2873208E+04  0.7818609E-02  0.8280894E-01
        2   -1    0    0  501    0  0.00000000000E+00  0.00000000000E+00  0.15245771388E+04  0.15245771388E+04  0.25500000920E-02 0.  1.
       -2   -1    0    0    0  501  0.00000000000E+00  0.00000000000E+00 -0.13537075213E+04  0.13537075213E+04  0.25500000920E-02 0. -1.
    10030    2    1    2    0    0  0.00000000000E+00  0.00000000000E+00  0.17086961743E+03  0.28782846601E+04  0.28732083388E+04 0.  0.
        4    1    3    3  502    0 -0.29457921831E+03  0.13874572321E+04  0.31390669244E+03  0.14527055832E+04  0.12699999809E+01 0.  1.
       -4    1    3    3    0  502  0.29457921831E+03 -0.13874572321E+04 -0.14303707502E+03  0.14255790769E+04  0.12699999809E+01 0. -1.
</event>
<event>
 5   0  0.1336899E-05  0.2944251E+04  0.7818609E-02  0.8259832E-01
       -2   -1    0    0    0  501  0.00000000000E+00  0.00000000000E+00  0.80975117012E+03  0.80975117013E+03  0.25500000920E-02 0.  1.
        2   -1    0    0  501    0  0.00000000000E+00  0.00000000000E+00 -0.26763211163E+04  0.26763211163E+04  0.25500000920E-02 0. -1.
    10030    2    1    2    0    0  0.00000000000E+00  0.00000000000E+00 -0.18665699462E+04  0.34860722864E+04  0.29442514536E+04 0.  0.
        1    1    3    3  502    0 -0.88253924643E+03  0.11602645230E+04 -0.69044438848E+03  0.16130104582E+04  0.50400001928E-02 0.  1.
       -1    1    3    3    0  502  0.88253924643E+03 -0.11602645230E+04 -0.11761255577E+04  0.18730618282E+04  0.50400001928E-02 0. -1.
</event>
<event>
 5   0  0.5352212E-06  0.2483421E+04  0.7818609E-02  0.8408916E-01
       -1   -1    0    0    0  501  0.00000000000E+00  0.00000000000E+00  0.66525208313E+03  0.66525208315E+03  0.50400001928E-02 0.  1.
        1   -1    0    0  501    0  0.00000000000E+00  0.00000000000E+00 -0.23176854343E+04  0.23176854343E+04  0.50400001928E-02 0. -1.
    10030    2    1    2    0    0  0.00000000000E+00  0.00000000000E+00 -0.16524333512E+04  0.29829375174E+04  0.24834210784E+04 0.  0.
        2    1    3    3  502    0 -0.85271189134E+03 -0.53929312601E+03  0.43172084381E+02  0.10098606212E+04  0.25500000920E-02 0.  1.
       -2    1    3    3    0  502  0.85271189134E+03  0.53929312601E+03 -0.16956054355E+04  0.19730768962E+04  0.25500000920E-02 0. -1.
</event>
<event>
 5   0  0.5154476E-06  0.1771156E+04  0.7818609E-02  0.8721791E-01
        1   -1    0    0  501    0  0.00000000000E+00  0.00000000000E+00  0.12830569585E+04  0.12830569585E+04  0.50400001928E-02 0. -1.
       -1   -1    0    0    0  501  0.00000000000E+00  0.00000000000E+00 -0.61123420951E+03  0.61123420953E+03  0.50400001928E-02 0.  1.
    10030    2    1    2    0    0  0.00000000000E+00  0.00000000000E+00  0.67182274900E+03  0.18942911680E+04  0.17711559003E+04 0.  0.
        3    1    3    3  502    0 -0.35853441915E+03 -0.67927597272E+03  0.80733371514E+03  0.11143385996E+04  0.10100000352E+00 0. -1.
       -3    1    3    3    0  502  0.35853441915E+03  0.67927597272E+03 -0.13551096614E+03  0.77995256842E+03  0.10100000352E+00 0.  1.
</event>
<event>
 5   0  0.1385669E-05  0.3101450E+04  0.7818609E-02  0.8215340E-01
       -2   -1    0    0    0  501  0.00000000000E+00  0.00000000000E+00  0.26863137896E+04  0.26863137896E+04  0.25500000920E-02 0.  1.
        2   -1    0    0  501    0  0.00000000000E+00  0.00000000000E+00 -0.89518530592E+03  0.89518530592E+03  0.25500000920E-02 0. -1.
    10030    2    1    2    0    0  0.00000000000E+00  0.00000000000E+00  0.17911284837E+04  0.35814990955E+04  0.31014503907E+04 0.  0.
        3    1    3    3  502    0 -0.14963821007E+04 -0.40323294314E+03  0.95873433932E+03  0.18223412801E+04  0.10100000352E+00 0.  1.
       -3    1    3    3    0  502  0.14963821007E+04  0.40323294314E+03  0.83239414436E+03  0.17591578154E+04  0.10100000352E+00 0. -1.
</event>
<event>
 5   0  0.1385669E-05  0.2867299E+04  0.7818609E-02  0.8282674E-01
       -2   -1    0    0    0  501  0.00000000000E+00  0.00000000000E+00  0.15330584581E+04  0.15330584581E+04  0.25500000920E-02 0. -1.
        2   -1    0    0  501    0  0.00000000000E+00  0.00000000000E+00 -0.13406865780E+04  0.13406865780E+04  0.25500000920E-02 0.  1.
    10030    2    1    2    0    0  0.00000000000E+00  0.00000000000E+00  0.19237188011E+03  0.28737450361E+04  0.28672990064E+04 0.  0.
        3    1    3    3  502    0  0.10576237217E+04 -0.72128331738E+03 -0.55065891419E+03  0.13935719610E+04  0.10100000352E+00 0. -1.
       -3    1    3    3    0  502 -0.10576237217E+04  0.72128331738E+03  0.74303079430E+03  0.14801730750E+04  0.10100000352E+00 0.  1.
</event>
<event>
 5   0  0.5352212E-06  0.2782575E+04  0.7818609E-02  0.8308698E-01
       -1   -1    0    0    0  501  0.00000000000E+00  0.00000000000E+00  0.92897216033E+03  0.92897216034E+03  0.50400001928E-02 0. -1.
        1   -1    0    0  501    0  0.00000000000E+00  0.00000000000E+00 -0.20836807478E+04  0.20836807478E+04  0.50400001928E-02 0.  1.
    10030    2    1    2    0    0  0.00000000000E+00  0.00000000000E+00 -0.11547085874E+04  0.30126529081E+04  0.27825753580E+04 0.  0.
        2    1    3    3  502    0 -0.40786048904E+03  0.47539042568E+03 -0.19223852837E+04  0.20218584061E+04  0.25500000920E-02 0.  1.
       -2    1    3    3    0  502  0.40786048904E+03 -0.47539042568E+03  0.76767669623E+03  0.99079450205E+03  0.25500000920E-02 0. -1.
</event>
<event>
 5   0  0.5059249E-06  0.2664054E+04  0.7818609E-02  0.8346763E-01
        1   -1    0    0  501    0  0.00000000000E+00  0.00000000000E+00  0.13026330893E+04  0.13026330894E+04  0.50400001928E-02 0. -1.
       -1   -1    0    0    0  501  0.00000000000E+00  0.00000000000E+00 -0.13620839156E+04  0.13620839157E+04  0.50400001928E-02 0.  1.
    10030    2    1    2    0    0  0.00000000000E+00  0.00000000000E+00 -0.59450826302E+02  0.26647170050E+04  0.26640537375E+04 0.  0.
        1    1    3    3  502    0 -0.59832589246E+03  0.59830168050E+02 -0.12186011816E+04  0.13588827626E+04  0.50400001928E-02 0.  1.
       -1    1    3    3    0  502  0.59832589246E+03 -0.59830168050E+02  0.11591503553E+04  0.13058342425E+04  0.50400001928E-02 0. -1.
</event>
<event>
 5   0  0.1339837E-05  0.2920378E+04  0.7818609E-02  0.8266840E-01
        2   -1    0    0  501    0  0.00000000000E+00  0.00000000000E+00  0.13142337318E+04  0.13142337319E+04  0.25500000920E-02 0. -1.
       -2   -1    0    0    0  501  0.00000000000E+00  0.00000000000E+00 -0.16223535824E+04  0.16223535824E+04  0.25500000920E-02 0.  1.
    10030    2    1    2    0    0  0.00000000000E+00  0.00000000000E+00 -0.30811985056E+03  0.29365873143E+04  0.29203779228E+04 0.  0.
        5    1    3    3  502    0  0.36501279757E+03 -0.12870668758E+04  0.43429813769E+03  0.14065605026E+04  0.46999998093E+01 0. -1.
       -5    1    3    3    0  502 -0.36501279757E+03  0.12870668758E+04 -0.74241798825E+03  0.15300268117E+04  0.46999998093E+01 0.  1.
</event>
<event>
 5   0  0.5002240E-06  0.2926921E+04  0.7818609E-02  0.8264913E-01
        1   -1    0    0  501    0  0.00000000000E+00  0.00000000000E+00  0.12449068557E+04  0.12449068557E+04  0.50400001928E-02 0. -1.
       -1   -1    0    0    0  501  0.00000000000E+00  0.00000000000E+00 -0.17203827895E+04  0.17203827895E+04  0.50400001928E-02 0.  1.
    10030    2    1    2    0    0  0.00000000000E+00  0.00000000000E+00 -0.47547593381E+03  0.29652896451E+04  0.29269207908E+04 0.  0.
        4    1    3    3  502    0 -0.48984763015E+03 -0.18826367939E+03 -0.16217800639E+04  0.17045721171E+04  0.12699999809E+01 0.  1.
       -4    1    3    3    0  502  0.48984763015E+03  0.18826367939E+03  0.11463041301E+04  0.12607175280E+04  0.12699999809E+01 0. -1.
</event>
<event>
 5   0  0.5059249E-06  0.2901190E+04  0.7818609E-02  0.8272524E-01
        1   -1    0    0  501    0  0.00000000000E+00  0.00000000000E+00  0.21974921894E+04  0.21974921894E+04  0.50400001928E-02 0.  1.
       -1   -1    0    0    0  501  0.00000000000E+00  0.00000000000E+00 -0.95755764840E+03  0.95755764842E+03  0.50400001928E-02 0. -1.
    10030    2    1    2    0    0  0.00000000000E+00  0.00000000000E+00  0.12399345409E+04  0.31550498378E+04  0.29011897237E+04 0.  0.
        1    1    3    3  502    0  0.10185365652E+04 -0.99083341788E+03  0.93713377114E+03  0.17021713491E+04  0.50400001928E-02 0.  1.
       -1    1    3    3    0  502 -0.10185365652E+04  0.99083341788E+03  0.30280076981E+03  0.14528784887E+04  0.50400001928E-02 0. -1.
</event>
<event>
 5   0  0.1307832E-05  0.2113681E+04  0.7818609E-02  0.8555240E-01
        2   -1    0    0  501    0  0.00000000000E+00  0.00000000000E+00  0.95673059904E+03  0.95673059904E+03  0.25500000920E-02 0. -1.
       -2   -1    0    0    0  501  0.00000000000E+00  0.00000000000E+00 -0.11674261574E+04  0.11674261574E+04  0.25500000920E-02 0.  1.
    10030    2    1    2    0    0  0.00000000000E+00  0.00000000000E+00 -0.21069555833E+03  0.21241567564E+04  0.21136814584E+04 0.  0.
        4    1    3    3  502    0  0.85544110770E+03  0.58649832036E+03  0.98514527735E+02  0.10418572328E+04  0.12699999809E+01 0. -1.
       -4    1    3    3    0  502 -0.85544110770E+03 -0.58649832036E+03 -0.30921008607E+03  0.10822995236E+04  0.12699999809E+01 0.  1.
</event>
<event>
 5   0  0.5059249E-06  0.2101633E+04  0.7818609E-02  0.8560524E-01
       -1   -1    0    0    0  501  0.00000000000E+00  0.00000000000E+00  0.46595650000E+03  0.46595650002E+03  0.50400001928E-02 0.  1.
        1   -1    0    0  501    0  0.00000000000E+00  0.00000000000E+00 -0.23697820650E+04  0.23697820650E+04  0.50400001928E-02 0. -1.
    10030    2    1    2    0    0  0.00000000000E+00  0.00000000000E+00 -0.19038255650E+04  0.28357385650E+04  0.21016330382E+04 0.  0.
        1    1    3    3  502    0  0.75894425318E+03  0.11466742951E+03  0.16460014597E+02  0.76773428407E+03  0.50400001928E-02 0.  1.
       -1    1    3    3    0  502 -0.75894425318E+03 -0.11466742951E+03 -0.19202855796E+04  0.20680042809E+04  0.50400001928E-02 0. -1.
</event>
<event>
 5   0  0.5059249E-06  0.2698020E+04  0.7818609E-02  0.8335648E-01
        1   -1    0    0  501    0  0.00000000000E+00  0.00000000000E+00  0.21409581600E+04  0.21409581600E+04  0.50400001928E-02 0. -1.
       -1   -1    0    0    0  501  0.00000000000E+00  0.00000000000E+00 -0.85000644742E+03  0.85000644743E+03  0.50400001928E-02 0.  1.
    10030    2    1    2    0    0  0.00000000000E+00  0.00000000000E+00  0.12909517126E+04  0.29909646074E+04  0.26980201924E+04 0.  0.
        1    1    3    3  502    0  0.12961328407E+04 -0.16944374257E+03  0.27587417863E+03  0.13359558695E+04  0.50400001928E-02 0. -1.
       -1    1    3    3    0  502 -0.12961328407E+04  0.16944374257E+03  0.10150775339E+04  0.16550087380E+04  0.50400001928E-02 0.  1.
</event>
<event>
 5   0  0.5059249E-06  0.2909334E+04  0.7818609E-02  0.8270106E-01
       -1   -1    0    0    0  501  0.00000000000E+00  0.00000000000E+00  0.82711259593E+03  0.82711259595E+03  0.50400001928E-02 0.  1.
        1   -1    0    0  501    0  0.00000000000E+00  0.00000000000E+00 -0.25583654896E+04  0.25583654896E+04  0.50400001928E-02 0. -1.
    10030    2    1    2    0    0  0.00000000000E+00  0.00000000000E+00 -0.17312528936E+04  0.33854780855E+04  0.29093341654E+04 0.  0.
        1    1    3    3  502    0  0.56347581614E+03  0.10605835684E+04  0.89507164273E+02  0.12043064533E+04  0.50400001928E-02 0.  1.
       -1    1    3    3    0  502 -0.56347581614E+03 -0.10605835684E+04 -0.18207600579E+04  0.21811716323E+04  0.50400001928E-02 0. -1.
</event>
<event>
 5   0  0.5261878E-06  0.2898545E+04  0.7818609E-02  0.8273311E-01
       -1   -1    0    0    0  501  0.00000000000E+00  0.00000000000E+00  0.12189287730E+04  0.12189287730E+04  0.50400001928E-02 0.  1.
        1   -1    0    0  501    0  0.00000000000E+00  0.00000000000E+00 -0.17231445182E+04  0.17231445182E+04  0.50400001928E-02 0. -1.
    10030    2    1    2    0    0  0.00000000000E+00  0.00000000000E+00 -0.50421574522E+03  0.29420732912E+04  0.28985447612E+04 0.  0.
        5    1    3    3  502    0  0.13910015427E+04  0.40001649281E+03 -0.17703872902E+03  0.14581712135E+04  0.46999998093E+01 0.  1.
       -5    1    3    3    0  502 -0.13910015427E+04 -0.40001649281E+03 -0.32717701620E+03  0.14839020777E+04  0.46999998093E+01 0. -1.
</event>
<event>
 5   0  0.5261878E-06  0.2984778E+04  0.7818609E-02  0.8248091E-01
       -1   -1    0    0    0  501  0.00000000000E+00  0.00000000000E+00  0.12227849157E+04  0.12227849158E+04  0.50400001928E-02 0.  1.
        1   -1    0    0  501    0  0.00000000000E+00  0.00000000000E+00 -0.18214368260E+04  0.18214368261E+04  0.50400001928E-02 0. -1.
    10030    2    1    2    0    0  0.00000000000E+00  0.00000000000E+00 -0.59865191030E+03  0.30442217418E+04  0.29847783676E+04 0.  0.
        5    1    3    3  502    0  0.13210078953E+03 -0.12522219277E+04 -0.11163368530E+04  0.16827775950E+04  0.46999998093E+01 0. -1.
       -5    1    3    3    0  502 -0.13210078953E+03  0.12522219277E+04  0.51768494272E+03  0.13614441468E+04  0.46999998093E+01 0.  1.
</event>
<event>
 5   0  0.5352212E-06  0.2729177E+04  0.7818609E-02  0.8325600E-01
       -1   -1    0    0    0  501  0.00000000000E+00  0.00000000000E+00  0.12382851107E+04  0.12382851107E+04  0.50400001928E-02 0. -1.
        1   -1    0    0  501    0  0.00000000000E+00  0.00000000000E+00 -0.15037752031E+04  0.15037752031E+04  0.50400001928E-02 0.  1.
    10030    2    1    2    0    0  0.00000000000E+00  0.00000000000E+00 -0.26549009235E+03  0.27420603138E+04  0.27291774907E+04 0.  0.
        2    1    3    3  502    0  0.10317927789E+04  0.26305377843E+03 -0.99018359696E+03  0.14540485496E+04  0.25500000920E-02 0.  1.
       -2    1    3    3    0  502 -0.10317927789E+04 -0.26305377843E+03  0.72469350461E+03  0.12880117642E+04  0.25500000920E-02 0. -1.
</event>
<event>
 5   0  0.5352212E-06  0.1816439E+04  0.7818609E-02  0.8697606E-01
        1   -1    0    0  501    0  0.00000000000E+00  0.00000000000E+00  0.39207728370E+03  0.39207728373E+03  0.50400001928E-02 0.  1.
       -1   -1    0    0    0  501  0.00000000000E+00  0.00000000000E+00 -0.21038267143E+04  0.21038267143E+04  0.50400001928E-02 0. -1.
    10030    2    1    2    0    0  0.00000000000E+00  0.00000000000E+00 -0.17117494306E+04  0.24959039980E+04  0.18164390037E+04 0.  0.
        2    1    3    3  502    0  0.50225548638E+03 -0.12760625028E+03 -0.18807449988E+04  0.19508320479E+04  0.25500000920E-02 0. -1.
       -2    1    3    3    0  502 -0.50225548638E+03  0.12760625028E+03  0.16899556820E+03  0.54507195010E+03  0.25500000920E-02 0.  1.
</event>
<event>
 5   0  0.5352212E-06  0.1814101E+04  0.7818609E-02  0.8698837E-01
       -1   -1    0    0    0  501  0.00000000000E+00  0.00000000000E+00  0.31585015117E+03  0.31585015121E+03  0.50400001928E-02 0. -1.
        1   -1    0    0  501    0  0.00000000000E+00  0.00000000000E+00 -0.26048439185E+04  0.26048439185E+04  0.50400001928E-02 0.  1.
    10030    2    1    2    0    0  0.00000000000E+00  0.00000000000E+00 -0.22889937673E+04  0.29206940697E+04  0.18141007089E+04 0.  0.
        2    1    3    3  502    0  0.79833704995E+02  0.13676275597E+03  0.29342192720E+03  0.33342750223E+03  0.25500000920E-02 0. -1.
       -2    1    3    3    0  502 -0.79833704995E+02 -0.13676275597E+03 -0.25824156945E+04  0.25872665674E+04  0.25500000920E-02 0.  1.
</event>
<event>
 5   0  0.1339837E-05  0.2916809E+04  0.7818609E-02  0.8267894E-01
        2   -1    0    0  501    0  0.00000000000E+00  0.00000000000E+00  0.28957395927E+04  0.28957395927E+04  0.25500000920E-02 0. -1.
       -2   -1    0    0    0  501  0.00000000000E+00  0.00000000000E+00 -0.73450783915E+03  0.73450783915E+03  0.25500000920E-02 0.  1.
    10030    2    1    2    0    0  0.00000000000E+00  0.00000000000E+00  0.21612317536E+04  0.36302474319E+04  0.29168088254E+04 0.  0.
        5    1    3    3  502    0 -0.82642059884E+03 -0.68244874482E+03  0.23115794704E+04  0.25479656657E+04  0.46999998093E+01 0. -1.
       -5    1    3    3    0  502  0.82642059884E+03  0.68244874482E+03 -0.15034771684E+03  0.10822817662E+04  0.46999998093E+01 0.  1.
</event>
<event>
 5   0  0.5059249E-06  0.2451197E+04  0.7818609E-02  0.8420581E-01
        1   -1    0    0  501    0  0.00000000000E+00  0.00000000000E+00  0.12187107880E+04  0.12187107880E+04  0.50400001928E-02 0.  1.
       -1   -1    0    0    0  501  0.00000000000E+00  0.00000000000E+00 -0.12325246813E+04  0.12325246813E+04  0.50400001928E-02 0. -1.
    10030    2    1    2    0    0  0.00000000000E+00  0.00000000000E+00 -0.13813893344E+02  0.24512354693E+04  0.24511965451E+04 0.  0.
        1    1    3    3  502    0 -0.14931781473E+03 -0.12041821058E+04 -0.17936481500E+03  0.12265896179E+04  0.50400001928E-02 0.  1.
       -1    1    3    3    0  502  0.14931781473E+03  0.12041821058E+04  0.16555092166E+03  0.12246458515E+04  0.50400001928E-02 0. -1.
</event>
<event>
 5   0  0.5261878E-06  0.3055534E+04  0.7818609E-02  0.8228048E-01
        1   -1    0    0  501    0  0.00000000000E+00  0.00000000000E+00  0.18851634573E+04  0.18851634573E+04  0.50400001928E-02 0.  1.
       -1   -1    0    0    0  501  0.00000000000E+00  0.00000000000E+00 -0.12381273246E+04  0.12381273246E+04  0.50400001928E-02 0. -1.
    10030    2    1    2    0    0  0.00000000000E+00  0.00000000000E+00  0.64703613273E+03  0.31232907820E+04  0.30555342498E+04 0.  0.
        5    1    3    3  502    0  0.10432531583E+03  0.10327006699E+04 -0.82236513897E+03  0.13242586443E+04  0.46999998093E+01 0. -1.
       -5    1    3    3    0  502 -0.10432531583E+03 -0.10327006699E+04  0.14694012717E+04  0.17990321377E+04  0.46999998093E+01 0.  1.
</event>
<event>
 5   0  0.1385669E-05  0.2901068E+04  0.7818609E-02  0.8272560E-01
        2   -1    0    0  501    0  0.00000000000E+00  0.00000000000E+00  0.10093287268E+04  0.10093287268E+04  0.25500000920E-02 0.  1.
       -2   -1    0    0    0  501  0.00000000000E+00  0.00000000000E+00 -0.20846023398E+04  0.20846023398E+04  0.25500000920E-02 0. -1.
    10030    2    1    2    0    0  0.00000000000E+00  0.00000000000E+00 -0.10752736130E+04  0.30939310666E+04  0.29010680968E+04 0.  0.
        3    1    3    3  502    0 -0.74368256784E+03 -0.72426075694E+03  0.54284564851E+03  0.11714515842E+04  0.10100000352E+00 0.  1.
       -3    1    3    3    0  502  0.74368256784E+03  0.72426075694E+03 -0.16181192615E+04  0.19224794825E+04  0.10100000352E+00 0. -1.
</event>
<event>
 5   0  0.5002240E-06  0.2872486E+04  0.7818609E-02  0.8281111E-01
       -1   -1    0    0    0  501  0.00000000000E+00  0.00000000000E+00  0.14199977469E+04  0.14199977469E+04  0.50400001928E-02 0. -1.
        1   -1    0    0  501    0  0.00000000000E+00  0.00000000000E+00 -0.14526736224E+04  0.14526736224E+04  0.50400001928E-02 0.  1.
    10030    2    1    2    0    0  0.00000000000E+00  0.00000000000E+00 -0.32675875460E+02  0.28726713693E+04  0.28724855235E+04 0.  0.
        4    1    3    3  502    0 -0.39216431685E+03  0.13654499017E+04 -0.22740933961E+03  0.14387365659E+04  0.12699999809E+01 0.  1.
       -4    1    3    3    0  502  0.39216431685E+03 -0.13654499017E+04  0.19473346415E+03  0.14339348034E+04  0.12699999809E+01 0. -1.
</event>
<event>
 5   0  0.1307832E-05  0.2881946E+04  0.7818609E-02  0.8278269E-01
       -2   -1    0    0    0  501  0.00000000000E+00  0.00000000000E+00  0.14392981829E+04  0.14392981829E+04  0.25500000920E-02 0.  1.
        2   -1    0    0  501    0  0.00000000000E+00  0.00000000000E+00 -0.14426501404E+04  0.14426501404E+04  0.25500000920E-02 0. -1.
    10030    2    1    2    0    0  0.00000000000E+00  0.00000000000E+00 -0.33519575129E+01  0.28819483233E+04  0.28819463740E+04 0.  0.
        4    1    3    3  502    0  0.67704232582E+02  0.11383432678E+04 -0.88258114049E+03  0.14419987313E+04  0.12699999809E+01 0. -1.
       -4    1    3    3    0  502 -0.67704232582E+02 -0.11383432678E+04  0.87922918298E+03  0.14399495921E+04  0.12699999809E+01 0.  1.
</event>
<event>
 5   0  0.1336899E-05  0.2748507E+04  0.7818609E-02  0.8319436E-01
        2   -1    0    0  501    0  0.00000000000E+00  0.00000000000E+00  0.12358669144E+04  0.12358669144E+04  0.25500000920E-02 0. -1.
       -2   -1    0    0    0  501  0.00000000000E+00  0.00000000000E+00 -0.15281359190E+04  0.15281359190E+04  0.25500000920E-02 0.  1.
    10030    2    1    2    0    0  0.00000000000E+00  0.00000000000E+00 -0.29226900463E+03  0.27640028334E+04  0.27485069569E+04 0.  0.
        1    1    3    3  502    0  0.10189686603E+04  0.75796295071E+03 -0.67423102580E+03  0.14378429822E+04  0.50400001928E-02 0.  1.
       -1    1    3    3    0  502 -0.10189686603E+04 -0.75796295071E+03  0.38196202116E+03  0.13261598512E+04  0.50400001928E-02 0. -1.
</event>
<event>
 5   0  0.5154476E-06  0.2684683E+04  0.7818609E-02  0.8339992E-01
        1   -1    0    0  501    0  0.00000000000E+00  0.00000000000E+00  0.96294093915E+03  0.96294093916E+03  0.50400001928E-02 0. -1.
       -1   -1    0    0    0  501  0.00000000000E+00  0.00000000000E+00 -0.18712268285E+04  0.18712268285E+04  0.50400001928E-02 0.  1.
    10030    2    1    2    0    0  0.00000000000E+00  0.00000000000E+00 -0.90828588933E+03  0.28341677677E+04  0.26846831617E+04 0.  0.
        3    1    3    3  502    0 -0.40894261310E+03  0.11951107443E+04  0.25416318449E+02  0.12633961181E+04  0.10100000352E+00 0. -1.
       -3    1    3    3    0  502  0.40894261310E+03 -0.11951107443E+04 -0.93370220778E+03  0.15707716495E+04  0.10100000352E+00 0.  1.
</event>
<event>
 5   0  0.1385669E-05  0.2863231E+04  0.7818609E-02  0.8283902E-01
       -2   -1    0    0    0  501  0.00000000000E+00  0.00000000000E+00  0.15181758872E+04  0.15181758872E+04  0.25500000920E-02 0. -1.
        2   -1    0    0  501    0  0.00000000000E+00  0.00000000000E+00 -0.13499903416E+04  0.13499903416E+04  0.25500000920E-02 0.  1.
    10030    2    1    2    0    0  0.00000000000E+00  0.00000000000E+00  0.16818554564E+03  0.28681662288E+04  0.28632308915E+04 0.  0.
        3    1    3    3  502    0  0.11166400475E+04  0.34510193718E+03  0.91228411545E+03  0.14826471800E+04  0.10100000352E+00 0. -1.
       -3    1    3    3    0  502 -0.11166400475E+04 -0.34510193718E+03 -0.74409856981E+03  0.13855190488E+04  0.10100000352E+00 0.  1.
</event>
<event>
 5   0  0.5002240E-06  0.2894218E+04  0.7818609E-02  0.8274600E-01
       -1   -1    0    0    0  501  0.00000000000E+00  0.00000000000E+00  0.23302235370E+04  0.23302235370E+04  0.50400001928E-02 0. -1.
        1   -1    0    0  501    0  0.00000000000E+00  0.00000000000E+00 -0.89867942273E+03  0.89867942274E+03  0.50400001928E-02 0.  1.
    10030    2    1    2    0    0  0.00000000000E+00  0.00000000000E+00  0.14315441143E+04  0.32289029598E+04  0.28942176443E+04 0.  0.
        4    1    3    3  502    0 -0.89964388498E+03  0.11378429562E+03  0.19739324438E+04  0.21722607788E+04  0.12699999809E+01 0. -1.
       -4    1    3    3    0  502  0.89964388498E+03 -0.11378429562E+03 -0.54238832948E+03  0.10566421810E+04  0.12699999809E+01 0.  1.
</event>
<event>
 5   0  0.1382803E-05  0.2940299E+04  0.7818609E-02  0.8260987E-01
        2   -1    0    0  501    0  0.00000000000E+00  0.00000000000E+00  0.12075288600E+04  0.12075288600E+04  0.25500000920E-02 0.  1.
       -2   -1    0    0    0  501  0.00000000000E+00  0.00000000000E+00 -0.17898867962E+04  0.17898867962E+04  0.25500000920E-02 0. -1.
    10030    2    1    2    0    0  0.00000000000E+00  0.00000000000E+00 -0.58235793617E+03  0.29974156562E+04  0.29402992790E+04 0.  0.
        2    1    3    3  502    0  0.12748541125E+04  0.47188047824E+03 -0.86188945842E+03  0.16095892744E+04  0.25500000920E-02 0. -1.
       -2    1    3    3    0  502 -0.12748541125E+04 -0.47188047824E+03  0.27953152225E+03  0.13878263817E+04  0.25500000920E-02 0.  1.
</event>
<event>
 5   0  0.5002240E-06  0.1847856E+04  0.7818609E-02  0.8681256E-01
       -1   -1    0    0    0  501  0.00000000000E+00  0.00000000000E+00  0.18932435142E+04  0.18932435142E+04  0.50400001928E-02 0.  1.
        1   -1    0    0  501    0  0.00000000000E+00  0.00000000000E+00 -0.45088916491E+03  0.45088916494E+03  0.50400001928E-02 0. -1.
    10030    2    1    2    0    0  0.00000000000E+00  0.00000000000E+00  0.14423543493E+04  0.23441326792E+04  0.18478560411E+04 0.  0.
        4    1    3    3  502    0  0.41546080975E+03  0.40030004611E+03 -0.19429860546E+03  0.60877037734E+03  0.12699999809E+01 0. -1.
       -4    1    3    3    0  502 -0.41546080975E+03 -0.40030004611E+03  0.16366529548E+04  0.17353623018E+04  0.12699999809E+01 0.  1.
</event>
<event>
 5   0  0.5002240E-06  0.2968078E+04  0.7818609E-02  0.8252906E-01
       -1   -1    0    0    0  501  0.00000000000E+00  0.00000000000E+00  0.12388468102E+04  0.12388468103E+04  0.50400001928E-02 0. -1.
        1   -1    0    0  501    0  0.00000000000E+00  0.00000000000E+00 -0.17777598263E+04  0.17777598264E+04  0.50400001928E-02 0.  1.
    10030    2    1    2    0    0  0.00000000000E+00  0.00000000000E+00 -0.53891301610E+03  0.30166066366E+04  0.29680782269E+04 0.  0.
        4    1    3    3  502    0  0.14629986331E+04 -0.10583675392E+03 -0.40373676332E+02  0.14673779559E+04  0.12699999809E+01 0.  1.
       -4    1    3    3    0  502 -0.14629986331E+04  0.10583675392E+03 -0.49853933977E+03  0.15492286807E+04  0.12699999809E+01 0. -1.
</event>
<event>
 5   0  0.5352212E-06  0.2899003E+04  0.7818609E-02  0.8273174E-01
        1   -1    0    0  501    0  0.00000000000E+00  0.00000000000E+00  0.16545912463E+04  0.16545912464E+04  0.50400001928E-02 0. -1.
       -1   -1    0    0    0  501  0.00000000000E+00  0.00000000000E+00 -0.12698328408E+04  0.12698328408E+04  0.50400001928E-02 0.  1.
    10030    2    1    2    0    0  0.00000000000E+00  0.00000000000E+00  0.38475840551E+03  0.29244240872E+04  0.28990027960E+04 0.  0.
        2    1    3    3  502    0  0.47009194839E+03  0.37062037636E+03  0.15240720906E+04  0.16374192013E+04  0.25500000920E-02 0. -1.
       -2    1    3    3    0  502 -0.47009194839E+03 -0.37062037636E+03 -0.11393136851E+04  0.12870048859E+04  0.25500000920E-02 0.  1.
</event>
<event>
 5   0  0.1382803E-05  0.2895051E+04  0.7818609E-02  0.8274352E-01
       -2   -1    0    0    0  501  0.00000000000E+00  0.00000000000E+00  0.77614395709E+03  0.77614395710E+03  0.25500000920E-02 0.  1.
        2   -1    0    0  501    0  0.00000000000E+00  0.00000000000E+00 -0.26996663468E+04  0.26996663468E+04  0.25500000920E-02 0. -1.
    10030    2    1    2    0    0  0.00000000000E+00  0.00000000000E+00 -0.19235223897E+04  0.34758103039E+04  0.28950507569E+04 0.  0.
        2    1    3    3  502    0 -0.75433072463E+03  0.11782930389E+04 -0.51585283508E+03  0.14911383152E+04  0.25500000920E-02 0.  1.
       -2    1    3    3    0  502  0.75433072463E+03 -0.11782930389E+04 -0.14076695546E+04  0.19846719887E+04  0.25500000920E-02 0. -1.
</event>
<event>
 5   0  0.1336899E-05  0.2803507E+04  0.7818609E-02  0.8302180E-01
       -2   -1    0    0    0  501  0.00000000000E+00  0.00000000000E+00  0.10019181390E+04  0.10019181390E+04  0.25500000920E-02 0.  1.
        2   -1    0    0  501    0  0.00000000000E+00  0.00000000000E+00 -0.19611510547E+04  0.19611510547E+04  0.25500000920E-02 0. -1.
    10030    2    1    2    0    0  0.00000000000E+00  0.00000000000E+00 -0.95923291569E+03  0.29630691938E+04  0.28035069575E+04 0.  0.
        1    1    3    3  502    0  0.62085438730E+03  0.76321822503E+03 -0.15349189689E+04  0.18231671537E+04  0.50400001928E-02 0. -1.
       -1    1    3    3    0  502 -0.62085438730E+03 -0.76321822503E+03  0.57568605316E+03  0.11399020401E+04  0.50400001928E-02 0.  1.
</event>
<event>
 5   0  0.1339837E-05  0.2988012E+04  0.7818609E-02  0.8247163E-01
        2   -1    0    0  501    0  0.00000000000E+00  0.00000000000E+00  0.19131841445E+04  0.19131841445E+04  0.25500000920E-02 0.  1.
       -2   -1    0    0    0  501  0.00000000000E+00  0.00000000000E+00 -0.11666693873E+04  0.11666693873E+04  0.25500000920E-02 0. -1.
    10030    2    1    2    0    0  0.00000000000E+00  0.00000000000E+00  0.74651475718E+03  0.30798535318E+04  0.29880116289E+04 0.  0.
        5    1    3    3  502    0 -0.28576462233E+03 -0.11269258761E+04  0.13403982874E+04  0.17743486153E+04  0.46999998093E+01 0.  1.
       -5    1    3    3    0  502  0.28576462233E+03  0.11269258761E+04 -0.59388353025E+03  0.13055049165E+04  0.46999998093E+01 0. -1.
</event>
<event>
 5   0  0.1336899E-05  0.2935318E+04  0.7818609E-02  0.8262446E-01
        2   -1    0    0  501    0  0.00000000000E+00  0.00000000000E+00  0.18465536106E+04  0.18465536106E+04  0.25500000920E-02 0. -1.
       -2   -1    0    0    0  501  0.00000000000E+00  0.00000000000E+00 -0.11665094372E+04  0.11665094372E+04  0.25500000920E-02 0.  1.
    10030    2    1    2    0    0  0.00000000000E+00  0.00000000000E+00  0.68004417342E+03  0.30130630478E+04  0.29353175045E+04 0.  0.
        1    1    3    3  502    0 -0.27209135122E+03 -0.14152557334E+04  0.55110258704E+02  0.14422273174E+04  0.50400001928E-02 0.  1.
       -1    1    3    3    0  502  0.27209135122E+03  0.14152557334E+04  0.62493391471E+03  0.15708357305E+04  0.50400001928E-02 0. -1.
</event>
<event>
 5   0  0.5059249E-06  0.2877771E+04  0.7818609E-02  0.8279522E-01
        1   -1    0    0  501    0  0.00000000000E+00  0.00000000000E+00  0.18810657796E+04  0.18810657796E+04  0.50400001928E-02 0.  1.
       -1   -1    0    0    0  501  0.00000000000E+00  0.00000000000E+00 -0.11006479663E+04  0.11006479663E+04  0.50400001928E-02 0. -1.
    10030    2    1    2    0    0  0.00000000000E+00  0.00000000000E+00  0.78041781328E+03  0.29817137459E+04  0.28777708211E+04 0.  0.
        1    1    3    3  502    0 -0.95864487851E+03 -0.40148969398E+03  0.14212372396E+04  0.17607127161E+04  0.50400001928E-02 0.  1.
       -1    1    3    3    0  502  0.95864487851E+03  0.40148969398E+03 -0.64081942632E+03  0.12210010297E+04  0.50400001928E-02 0. -1.
</event>
<event>
 5   0  0.1339837E-05  0.2967054E+04  0.7818609E-02  0.8253202E-01
        2   -1    0    0  501    0  0.00000000000E+00  0.00000000000E+00  0.13618847138E+04  0.13618847138E+04  0.25500000920E-02 0. -1.
       -2   -1    0    0    0  501  0.00000000000E+00  0.00000000000E+00 -0.16160346224E+04  0.16160346224E+04  0.25500000920E-02 0.  1.
    10030    2    1    2    0    0  0.00000000000E+00  0.00000000000E+00 -0.25414990859E+03  0.29779193361E+04  0.29670543299E+04 0.  0.
        5    1    3    3  502    0 -0.54738364935E+02  0.18973868117E+03 -0.16027766373E+04  0.16149031224E+04  0.46999998093E+01 0.  1.
       -5    1    3    3    0  502  0.54738364935E+02 -0.18973868117E+03  0.13486267287E+04  0.13630162138E+04  0.46999998093E+01 0. -1.
</event>
<event>
 5   0  0.4590125E-06  0.2905323E+04  0.7818609E-02  0.8271295E-01
        3   -1    0    0  501    0  0.00000000000E+00  0.00000000000E+00  0.16822502776E+04  0.16822502806E+04  0.10100000352E+00 0. -1.
       -3   -1    0    0    0  501  0.00000000000E+00  0.00000000000E+00 -0.12544063655E+04  0.12544063696E+04  0.10100000352E+00 0.  1.
    10030    2    1    2    0    0  0.00000000000E+00  0.00000000000E+00  0.42784391205E+03  0.29366566502E+04  0.29053230230E+04 0.  0.
        2    1    3    3  502    0  0.45161734402E+03  0.11348619561E+04 -0.58091470373E+03  0.13525279213E+04  0.25500000920E-02 0.  1.
       -2    1    3    3    0  502 -0.45161734402E+03 -0.11348619561E+04  0.10087586158E+04  0.15841287289E+04  0.25500000920E-02 0. -1.
</event>
<event>
 5   0  0.1307832E-05  0.2672185E+04  0.7818609E-02  0.8344087E-01
       -2   -1    0    0    0  501  0.00000000000E+00  0.00000000000E+00  0.13500679798E+04  0.13500679798E+04  0.25500000920E-02 0. -1.
        2   -1    0    0  501    0  0.00000000000E+00  0.00000000000E+00 -0.13222614521E+04  0.13222614521E+04  0.25500000920E-02 0.  1.
    10030    2    1    2    0    0  0.00000000000E+00  0.00000000000E+00  0.27806527671E+02  0.26723294318E+04  0.26721847596E+04 0.  0.
        4    1    3    3  502    0  0.29503214333E+03 -0.64603143563E+03  0.11456626621E+04  0.13479410705E+04  0.12699999809E+01 0. -1.
       -4    1    3    3    0  502 -0.29503214333E+03  0.64603143563E+03 -0.11178561344E+04  0.13243883613E+04  0.12699999809E+01 0.  1.
</event>
<event>
 5   0  0.1307832E-05  0.2914607E+04  0.7818609E-02  0.8268545E-01
        2   -1    0    0  501    0  0.00000000000E+00  0.00000000000E+00  0.18937918382E+04  0.18937918382E+04  0.25500000920E-02 0. -1.
       -2   -1    0    0    0  501  0.00000000000E+00  0.00000000000E+00 -0.11214184375E+04  0.11214184375E+04  0.25500000920E-02 0.  1.
    10030    2    1    2    0    0  0.00000000000E+00  0.00000000000E+00  0.77237340071E+03  0.30152102756E+04  0.29146067207E+04 0.  0.
        4    1    3    3  502    0 -0.76311922176E+03 -0.10405705127E+04  0.10867568124E+04  0.16870625124E+04  0.12699999809E+01 0. -1.
       -4    1    3    3    0  502  0.76311922176E+03  0.10405705127E+04 -0.31438341166E+03  0.13281477632E+04  0.12699999809E+01 0.  1.
</event>
<event>
 5   0  0.5352212E-06  0.2747005E+04  0.7818609E-02  0.8319913E-01
       -1   -1    0    0    0  501  0.00000000000E+00  0.00000000000E+00  0.10998372822E+04  0.10998372822E+04  0.50400001928E-02 0.  1.
        1   -1    0    0  501    0  0.00000000000E+00  0.00000000000E+00 -0.17152621058E+04  0.17152621058E+04  0.50400001928E-02 0. -1.
    10030    2    1    2    0    0  0.00000000000E+00  0.00000000000E+00 -0.61542482357E+03  0.28150993880E+04  0.27470050694E+04 0.  0.
        2    1    3    3  502    0 -0.63748063310E+03  0.88155726302E+03 -0.11669378572E+04  0.15953898358E+04  0.25500000920E-02 0. -1.
       -2    1    3    3    0  502  0.63748063310E+03 -0.88155726302E+03  0.55151303363E+03  0.12197095522E+04  0.25500000920E-02 0.  1.
</event>
<event>
 5   0  0.5059249E-06  0.2949834E+04  0.7818609E-02  0.8258203E-01
       -1   -1    0    0    0  501  0.00000000000E+00  0.00000000000E+00  0.17455536398E+04  0.17455536398E+04  0.50400001928E-02 0.  1.
        1   -1    0    0  501    0  0.00000000000E+00  0.00000000000E+00 -0.12462405818E+04  0.12462405818E+04  0.50400001928E-02 0. -1.
    10030    2    1    2    0    0  0.00000000000E+00  0.00000000000E+00  0.49931305801E+03  0.29917942217E+04  0.29498337470E+04 0.  0.
        1    1    3    3  502    0 -0.94853425156E+03  0.32561454419E+03 -0.84722535339E+03  0.13128339031E+04  0.50400001928E-02 0. -1.
       -1    1    3    3    0  502  0.94853425156E+03 -0.32561454419E+03  0.13465384114E+04  0.16789603185E+04  0.50400001928E-02 0.  1.
</event>
<event>
 5   0  0.5261878E-06  0.2899345E+04  0.7818609E-02  0.8273072E-01
        1   -1    0    0  501    0  0.00000000000E+00  0.00000000000E+00  0.17029849860E+04  0.17029849860E+04  0.50400001928E-02 0. -1.
       -1   -1    0    0    0  501  0.00000000000E+00  0.00000000000E+00 -0.12340392547E+04  0.12340392547E+04  0.50400001928E-02 0.  1.
    10030    2    1    2    0    0  0.00000000000E+00  0.00000000000E+00  0.46894573131E+03  0.29370242406E+04  0.28993449762E+04 0.  0.
        5    1    3    3  502    0 -0.66423199064E+03  0.12650976180E+04  0.48229915804E+03  0.15080817910E+04  0.46999998093E+01 0.  1.
       -5    1    3    3    0  502  0.66423199064E+03 -0.12650976180E+04 -0.13353426726E+02  0.14289424497E+04  0.46999998093E+01 0. -1.
</event>
<event>
 5   0  0.1307832E-05  0.2882427E+04  0.7818609E-02  0.8278125E-01
        2   -1    0    0  501    0  0.00000000000E+00  0.00000000000E+00  0.26903398539E+04  0.26903398539E+04  0.25500000920E-02 0. -1.
       -2   -1    0    0    0  501  0.00000000000E+00  0.00000000000E+00 -0.77205706222E+03  0.77205706223E+03  0.25500000920E-02 0.  1.
    10030    2    1    2    0    0  0.00000000000E+00  0.00000000000E+00  0.19182827917E+04  0.34623969161E+04  0.28824266749E+04 0.  0.
        4    1    3    3  502    0  0.13220788962E+04 -0.11261947221E+03  0.28334146080E+03  0.13567828675E+04  0.12699999809E+01 0.  1.
       -4    1    3    3    0  502 -0.13220788962E+04  0.11261947221E+03  0.16349413309E+04  0.21056140486E+04  0.12699999809E+01 0. -1.
</event>
<event>
 5   0  0.1339837E-05  0.2208049E+04  0.7818609E-02  0.8515085E-01
        2   -1    0    0  501    0  0.00000000000E+00  0.00000000000E+00  0.85136320337E+03  0.85136320337E+03  0.25500000920E-02 0. -1.
       -2   -1    0    0    0  501  0.00000000000E+00  0.00000000000E+00 -0.14316689237E+04  0.14316689237E+04  0.25500000920E-02 0.  1.
    10030    2    1    2    0    0  0.00000000000E+00  0.00000000000E+00 -0.58030572034E+03  0.22830321271E+04  0.22080491308E+04 0.  0.
        5    1    3    3  502    0 -0.18905553841E+03 -0.92499303801E+03  0.30155179612E+03  0.99111537810E+03  0.46999998093E+01 0. -1.
       -5    1    3    3    0  502  0.18905553841E+03  0.92499303801E+03 -0.88185751646E+03  0.12919167490E+04  0.46999998093E+01 0.  1.
</event>
<event>
 5   0  0.1336899E-05  0.3122082E+04  0.7818609E-02  0.8209704E-01
        2   -1    0    0  501    0  0.00000000000E+00  0.00000000000E+00  0.23422056182E+04  0.23422056182E+04  0.25500000920E-02 0. -1.
       -2   -1    0    0    0  501  0.00000000000E+00  0.00000000000E+00 -0.10404075597E+04  0.10404075597E+04  0.25500000920E-02 0.  1.
    10030    2    1    2    0    0  0.00000000000E+00  0.00000000000E+00  0.13017980585E+04  0.33826131780E+04  0.31220816336E+04 0.  0.
        1    1    3    3  502    0 -0.95175607265E+03  0.11656462436E+04  0.20119938416E+03  0.15182397634E+04  0.50400001928E-02 0.  1.
       -1    1    3    3    0  502  0.95175607265E+03 -0.11656462436E+04  0.11005986743E+04  0.18643734146E+04  0.50400001928E-02 0. -1.
</event>
<event>
 5   0  0.1336899E-05  0.2960288E+04  0.7818609E-02  0.8255163E-01
       -2   -1    0    0    0  501  0.00000000000E+00  0.00000000000E+00  0.70960344063E+03  0.70960344063E+03  0.25500000920E-02 0.  1.
        2   -1    0    0  501    0  0.00000000000E+00  0.00000000000E+00 -0.30873953925E+04  0.30873953925E+04  0.25500000920E-02 0. -1.
    10030    2    1    2    0    0  0.00000000000E+00  0.00000000000E+00 -0.23777919519E+04  0.37969988331E+04  0.29602880894E+04 0.  0.
        1    1    3    3  502    0 -0.14060554692E+04  0.42654783526E+02 -0.59830098446E+03  0.15286515237E+04  0.50400001928E-02 0. -1.
       -1    1    3    3    0  502  0.14060554692E+04 -0.42654783526E+02 -0.17794909674E+04  0.22683473094E+04  0.50400001928E-02 0.  1.
</event>
<event>
 5   0  0.5261878E-06  0.2883486E+04  0.7818609E-02  0.8277808E-01
       -1   -1    0    0    0  501  0.00000000000E+00  0.00000000000E+00  0.13475126736E+04  0.13475126736E+04  0.50400001928E-02 0. -1.
        1   -1    0    0  501    0  0.00000000000E+00  0.00000000000E+00 -0.15425628325E+04  0.15425628325E+04  0.50400001928E-02 0.  1.
    10030    2    1    2    0    0  0.00000000000E+00  0.00000000000E+00 -0.19505015895E+03  0.28900755061E+04  0.28834860614E+04 0.  0.
        5    1    3    3  502    0  0.13053411121E+03  0.82927701311E+03  0.10772718077E+04  0.13657511326E+04  0.46999998093E+01 0. -1.
       -5    1    3    3    0  502 -0.13053411121E+03 -0.82927701311E+03 -0.12723219666E+04  0.15243243734E+04  0.46999998093E+01 0.  1.
</event>
<event>
 5   0  0.5261878E-06  0.2818660E+04  0.7818609E-02  0.8297498E-01
        1   -1    0    0  501    0  0.00000000000E+00  0.00000000000E+00  0.19248428647E+04  0.19248428647E+04  0.50400001928E-02 0. -1.
       -1   -1    0    0    0  501  0.00000000000E+00  0.00000000000E+00 -0.10318824368E+04  0.10318824368E+04  0.50400001928E-02 0.  1.
    10030    2    1    2    0    0  0.00000000000E+00  0.00000000000E+00  0.89296042793E+03  0.29567253015E+04  0.28186603524E+04 0.  0.
        5    1    3    3  502    0  0.49405318083E+03 -0.87833759122E+03 -0.58697994956E+03  0.11662474098E+04  0.46999998093E+01 0.  1.
       -5    1    3    3    0  502 -0.49405318083E+03  0.87833759122E+03  0.14799403775E+04  0.17904778917E+04  0.46999998093E+01 0. -1.
</event>
<event>
 5   0  0.1307832E-05  0.2359569E+04  0.7818609E-02  0.8454797E-01
       -2   -1    0    0    0  501  0.00000000000E+00  0.00000000000E+00  0.12037005828E+04  0.12037005828E+04  0.25500000920E-02 0.  1.
        2   -1    0    0  501    0  0.00000000000E+00  0.00000000000E+00 -0.11563436795E+04  0.11563436795E+04  0.25500000920E-02 0. -1.
    10030    2    1    2    0    0  0.00000000000E+00  0.00000000000E+00  0.47356903369E+02  0.23600442623E+04  0.23595690801E+04 0.  0.
        4    1    3    3  502    0  0.50352060726E+03  0.20459894358E+02  0.10906352047E+04  0.12014318007E+04  0.12699999809E+01 0.  1.
       -4    1    3    3    0  502 -0.50352060726E+03 -0.20459894358E+02 -0.10432783013E+04  0.11586124616E+04  0.12699999809E+01 0. -1.
</event>
<event>
 5   0  0.5002240E-06  0.2537604E+04  0.7818609E-02  0.8389710E-01
        1   -1    0    0  501    0  0.00000000000E+00  0.00000000000E+00  0.18796469391E+04  0.18796469391E+04  0.50400001928E-02 0.  1.
       -1   -1    0    0    0  501  0.00000000000E+00  0.00000000000E+00 -0.85646850316E+03  0.85646850318E+03  0.50400001928E-02 0. -1.
    10030    2    1    2    0    0  0.00000000000E+00  0.00000000000E+00  0.10231784359E+04  0.27361154423E+04  0.25376039095E+04 0.  0.
        4    1    3    3  502    0  0.43177612506E+03  0.47584708905E+03 -0.66807085383E+03  0.92692035956E+03  0.12699999809E+01 0. -1.
       -4    1    3    3    0  502 -0.43177612506E+03 -0.47584708905E+03  0.16912492898E+04  0.18091950827E+04  0.12699999809E+01 0.  1.
</event>
<event>
 5   0  0.1307832E-05  0.2831936E+04  0.7818609E-02  0.8293421E-01
       -2   -1    0    0    0  501  0.00000000000E+00  0.00000000000E+00  0.91769405169E+03  0.91769405169E+03  0.25500000920E-02 0.  1.
        2   -1    0    0  501    0  0.00000000000E+00  0.00000000000E+00 -0.21847865533E+04  0.21847865533E+04  0.25500000920E-02 0. -1.
    10030    2    1    2    0    0  0.00000000000E+00  0.00000000000E+00 -0.12670925016E+04  0.31024806050E+04  0.28319361745E+04 0.  0.
        4    1    3    3  502    0  0.23269700579E+03  0.35129574909E+03 -0.21145061705E+04  0.21560831519E+04  0.12699999809E+01 0. -1.
       -4    1    3    3    0  502 -0.23269700579E+03 -0.35129574909E+03  0.84741366898E+03  0.94639745303E+03  0.12699999809E+01 0.  1.
</event>
<event>
 5   0  0.5154476E-06  0.2476482E+04  0.7818609E-02  0.8411412E-01
        1   -1    0    0  501    0  0.00000000000E+00  0.00000000000E+00  0.25362304262E+04  0.25362304262E+04  0.50400001928E-02 0. -1.
       -1   -1    0    0    0  501  0.00000000000E+00  0.00000000000E+00 -0.60453536642E+03  0.60453536644E+03  0.50400001928E-02 0.  1.
    10030    2    1    2    0    0  0.00000000000E+00  0.00000000000E+00  0.19316950598E+04  0.31407657926E+04  0.24764821744E+04 0.  0.
        3    1    3    3  502    0  0.11564952894E+04 -0.36444085603E+03  0.12840271058E+04  0.17660759074E+04  0.10100000352E+00 0. -1.
       -3    1    3    3    0  502 -0.11564952894E+04  0.36444085603E+03  0.64766795397E+03  0.13746898853E+04  0.10100000352E+00 0.  1.
</event>
<event>
 5   0  0.5002240E-06  0.2962256E+04  0.7818609E-02  0.8254592E-01
        1   -1    0    0  501    0  0.00000000000E+00  0.00000000000E+00  0.22612854316E+04  0.22612854316E+04  0.50400001928E-02 0.  1.
       -1   -1    0    0    0  501  0.00000000000E+00  0.00000000000E+00 -0.97012953138E+03  0.97012953140E+03  0.50400001928E-02 0. -1.
    10030    2    1    2    0    0  0.00000000000E+00  0.00000000000E+00  0.12911559002E+04  0.32314149630E+04  0.29622557459E+04 0.  0.
        4    1    3    3  502    0 -0.59227227222E+03  0.55237598551E+03 -0.70719433482E+03  0.10751888736E+04  0.12699999809E+01 0. -1.
       -4    1    3    3    0  502  0.59227227222E+03 -0.55237598551E+03  0.19983502350E+04  0.21562260894E+04  0.12699999809E+01 0.  1.
</event>
<event>
 5   0  0.5352212E-06  0.2746389E+04  0.7818609E-02  0.8320108E-01
       -1   -1    0    0    0  501  0.00000000000E+00  0.00000000000E+00  0.12072402597E+04  0.12072402597E+04  0.50400001928E-02 0.  1.
        1   -1    0    0  501    0  0.00000000000E+00  0.00000000000E+00 -0.15619617514E+04  0.15619617514E+04  0.50400001928E-02 0. -1.
    10030    2    1    2    0    0  0.00000000000E+00  0.00000000000E+00 -0.35472149167E+03  0.27692020111E+04  0.27463889822E+04 0.  0.
        2    1    3    3  502    0  0.10516154529E+04  0.49575880549E+03  0.55945629784E+03  0.12902182773E+04  0.25500000920E-02 0.  1.
       -2    1    3    3    0  502 -0.10516154529E+04 -0.49575880549E+03 -0.91417778951E+03  0.14789837338E+04  0.25500000920E-02 0. -1.
</event>
<event>
 5   0  0.1336899E-05  0.2910089E+04  0.7818609E-02  0.8269882E-01
        2   -1    0    0  501    0  0.00000000000E+00  0.00000000000E+00  0.11010233636E+04  0.11010233636E+04  0.25500000920E-02 0. -1.
       -2   -1    0    0    0  501  0.00000000000E+00  0.00000000000E+00 -0.19228965059E+04  0.19228965059E+04  0.25500000920E-02 0.  1.
    10030    2    1    2    0    0  0.00000000000E+00  0.00000000000E+00 -0.82187314227E+03  0.30239198695E+04  0.29100886439E+04 0.  0.
        1    1    3    3  502    0  0.13278205474E+04 -0.33287098094E+03  0.10155256903E+03  0.13726701790E+04  0.50400001928E-02 0.  1.
       -1    1    3    3    0  502 -0.13278205474E+04  0.33287098094E+03 -0.92342571130E+03  0.16512496905E+04  0.50400001928E-02 0. -1.
</event>
<event>
 5   0  0.5059249E-06  0.2875967E+04  0.7818609E-02  0.8280064E-01
        1   -1    0    0  501    0  0.00000000000E+00  0.00000000000E+00  0.14467724150E+04  0.14467724150E+04  0.50400001928E-02 0. -1.
       -1   -1    0    0    0  501  0.00000000000E+00  0.00000000000E+00 -0.14292481433E+04  0.14292481433E+04  0.50400001928E-02 0.  1.
    10030    2    1    2    0    0  0.00000000000E+00  0.00000000000E+00  0.17524271656E+02  0.28760205583E+04  0.28759671680E+04 0.  0.
        1    1    3    3  502    0 -0.93601394814E+03 -0.12349805706E+03 -0.10758883083E+04  0.14314012481E+04  0.50400001928E-02 0.  1.
       -1    1    3    3    0  502  0.93601394814E+03  0.12349805706E+03  0.10934125800E+04  0.14446193101E+04  0.50400001928E-02 0. -1.
</event>
<event>
 5   0  0.1336899E-05  0.2749901E+04  0.7818609E-02  0.8318993E-01
        2   -1    0    0  501    0  0.00000000000E+00  0.00000000000E+00  0.24040735422E+04  0.24040735422E+04  0.25500000920E-02 0. -1.
       -2   -1    0    0    0  501  0.00000000000E+00  0.00000000000E+00 -0.78636926456E+03  0.78636926457E+03  0.25500000920E-02 0.  1.
    10030    2    1    2    0    0  0.00000000000E+00  0.00000000000E+00  0.16177042777E+04  0.31904428068E+04  0.27499014843E+04 0.  0.
        1    1    3    3  502    0  0.73070737123E+03  0.67675203688E+03  0.19086378803E+04  0.21528644035E+04  0.50400001928E-02 0. -1.
       -1    1    3    3    0  502 -0.73070737123E+03 -0.67675203688E+03 -0.29093360263E+03  0.10375784033E+04  0.50400001928E-02 0.  1.
</event>
<event>
 5   0  0.1382803E-05  0.2967286E+04  0.7818609E-02  0.8253135E-01
       -2   -1    0    0    0  501  0.00000000000E+00  0.00000000000E+00  0.14336706162E+04  0.14336706162E+04  0.25500000920E-02 0. -1.
        2   -1    0    0  501    0  0.00000000000E+00  0.00000000000E+00 -0.15353571468E+04  0.15353571468E+04  0.25500000920E-02 0.  1.
    10030    2    1    2    0    0  0.00000000000E+00  0.00000000000E+00 -0.10168653061E+03  0.29690277631E+04  0.29672859160E+04 0.  0.
        2    1    3    3  502    0  0.13642385153E+04  0.12221776208E+03 -0.62136436388E+03  0.15040537161E+04  0.25500000920E-02 0.  1.
       -2    1    3    3    0  502 -0.13642385153E+04 -0.12221776208E+03  0.51967783327E+03  0.14649740470E+04  0.25500000920E-02 0. -1.
</event>
<event>
 5   0  0.1307832E-05  0.2735148E+04  0.7818609E-02  0.8323690E-01
       -2   -1    0    0    0  501  0.00000000000E+00  0.00000000000E+00  0.11567345182E+04  0.11567345182E+04  0.25500000920E-02 0.  1.
        2   -1    0    0  501    0  0.00000000000E+00  0.00000000000E+00 -0.16168436773E+04  0.16168436773E+04  0.25500000920E-02 0. -1.
    10030    2    1    2    0    0  0.00000000000E+00  0.00000000000E+00 -0.46010915913E+03  0.27735781955E+04  0.27351481803E+04 0.  0.
        4    1    3    3  502    0 -0.53017332825E+02 -0.91801476100E+03 -0.12565498088E+04  0.15570744921E+04  0.12699999809E+01 0. -1.
       -4    1    3    3    0  502  0.53017332825E+02  0.91801476100E+03  0.79644064970E+03  0.12165037034E+04  0.12699999809E+01 0.  1.
</event>
<event>
 5   0  0.5352212E-06  0.2869163E+04  0.7818609E-02  0.8282112E-01
       -1   -1    0    0    0  501  0.00000000000E+00  0.00000000000E+00  0.11596983023E+04  0.11596983023E+04  0.50400001928E-02 0.  1.
        1   -1    0    0  501    0  0.00000000000E+00  0.00000000000E+00 -0.17746201306E+04  0.17746201306E+04  0.50400001928E-02 0. -1.
    10030    2    1    2    0    0  0.00000000000E+00  0.00000000000E+00 -0.61492182832E+03  0.29343184329E+04  0.28691629111E+04 0.  0.
        2    1    3    3  502    0 -0.44231679463E+03 -0.16296653958E+03 -0.16931547487E+04  0.17575480770E+04  0.25500000920E-02 0. -1.
       -2    1    3    3    0  502  0.44231679463E+03  0.16296653958E+03  0.10782329204E+04  0.11767703559E+04  0.25500000920E-02 0.  1.
</event>
<event>
 5   0  0.5059249E-06  0.2778406E+04  0.7818609E-02  0.8310004E-01
        1   -1    0    0  501    0  0.00000000000E+00  0.00000000000E+00  0.17394512644E+04  0.17394512644E+04  0.50400001928E-02 0.  1.
       -1   -1    0    0    0  501  0.00000000000E+00  0.00000000000E+00 -0.11094788418E+04  0.11094788418E+04  0.50400001928E-02 0. -1.
    10030    2    1    2    0    0  0.00000000000E+00  0.00000000000E+00  0.62997242263E+03  0.28489301062E+04  0.27784055674E+04 0.  0.
        1    1    3    3  502    0  0.12775128515E+04  0.35855842043E+03  0.73686768204E+03  0.15177540010E+04  0.50400001928E-02 0.  1.
       -1    1    3    3    0  502 -0.12775128515E+04 -0.35855842043E+03 -0.10689525941E+03  0.13311761052E+04  0.50400001928E-02 0. -1.
</event>
<event>
 5   0  0.1307832E-05  0.2872399E+04  0.7818609E-02  0.8281137E-01
       -2   -1    0    0    0  501  0.00000000000E+00  0.00000000000E+00  0.80057413149E+03  0.80057413149E+03  0.25500000920E-02 0. -1.
        2   -1    0    0  501    0  0.00000000000E+00  0.00000000000E+00 -0.25764875601E+04  0.25764875601E+04  0.25500000920E-02 0.  1.
    10030    2    1    2    0    0  0.00000000000E+00  0.00000000000E+00 -0.17759134286E+04  0.33770616915E+04  0.28723991998E+04 0.  0.
        4    1    3    3  502    0  0.79057566136E+03 -0.10047037878E+04 -0.11859286072E+03  0.12839413761E+04  0.12699999809E+01 0.  1.
       -4    1    3    3    0  502 -0.79057566136E+03  0.10047037878E+04 -0.16573205678E+04  0.20931203155E+04  0.12699999809E+01 0. -1.
</event>
<event>
 5   0  0.1385669E-05  0.2781656E+04  0.7818609E-02  0.8308986E-01
       -2   -1    0    0    0  501  0.00000000000E+00  0.00000000000E+00  0.10658244548E+04  0.10658244548E+04  0.25500000920E-02 0. -1.
        2   -1    0    0  501    0  0.00000000000E+00  0.00000000000E+00 -0.18149355155E+04  0.18149355155E+04  0.25500000920E-02 0.  1.
    10030    2    1    2    0    0  0.00000000000E+00  0.00000000000E+00 -0.74911106064E+03  0.28807599703E+04  0.27816560940E+04 0.  0.
        3    1    3    3  502    0  0.68302464873E+03  0.12099569647E+04 -0.43909864146E+03  0.14571637363E+04  0.10100000352E+00 0. -1.
       -3    1    3    3    0  502 -0.68302464873E+03 -0.12099569647E+04 -0.31001241919E+03  0.14235962340E+04  0.10100000352E+00 0.  1.
</event>
<event>
 5   0  0.5352212E-06  0.1973283E+04  0.7818609E-02  0.8619214E-01
       -1   -1    0    0    0  501  0.00000000000E+00  0.00000000000E+00  0.77461633754E+03  0.77461633756E+03  0.50400001928E-02 0. -1.
        1   -1    0    0  501    0  0.00000000000E+00  0.00000000000E+00 -0.12567018103E+04  0.12567018103E+04  0.50400001928E-02 0.  1.
    10030    2    1    2    0    0  0.00000000000E+00  0.00000000000E+00 -0.48208547278E+03  0.20313181479E+04  0.19732833083E+04 0.  0.
        2    1    3    3  502    0  0.97941971295E+03 -0.13627348130E+02 -0.36290106846E+03  0.10445792762E+04  0.25500000920E-02 0.  1.
       -2    1    3    3    0  502 -0.97941971295E+03  0.13627348130E+02 -0.11918440432E+03  0.98673887172E+03  0.25500000920E-02 0. -1.
</event>
<event>
 5   0  0.4590125E-06  0.2860204E+04  0.7818609E-02  0.8284817E-01
        3   -1    0    0  501    0  0.00000000000E+00  0.00000000000E+00  0.11291129685E+04  0.11291129730E+04  0.10100000352E+00 0. -1.
       -3   -1    0    0    0  501  0.00000000000E+00  0.00000000000E+00 -0.18113255195E+04  0.18113255223E+04  0.10100000352E+00 0.  1.
    10030    2    1    2    0    0  0.00000000000E+00  0.00000000000E+00 -0.68221255096E+03  0.29404384953E+04  0.28602035907E+04 0.  0.
        3    1    3    3  502    0 -0.11845093797E+04 -0.66131771181E+03  0.12412288195E+03  0.13622812069E+04  0.10100000352E+00 0. -1.
       -3    1    3    3    0  502  0.11845093797E+04  0.66131771181E+03 -0.80633543292E+03  0.15781572885E+04  0.10100000352E+00 0.  1.
</event>
<event>
 5   0  0.5154476E-06  0.1850744E+04  0.7818609E-02  0.8679770E-01
       -1   -1    0    0    0  501  0.00000000000E+00  0.00000000000E+00  0.10296384993E+04  0.10296384993E+04  0.50400001928E-02 0. -1.
        1   -1    0    0  501    0  0.00000000000E+00  0.00000000000E+00 -0.83166432034E+03  0.83166432036E+03  0.50400001928E-02 0.  1.
    10030    2    1    2    0    0  0.00000000000E+00  0.00000000000E+00  0.19797417892E+03  0.18613028196E+04  0.18507442856E+04 0.  0.
        3    1    3    3  502    0 -0.22801764414E+03  0.66443769388E+02 -0.80049041205E+03  0.83498007792E+03  0.10100000352E+00 0.  1.
       -3    1    3    3    0  502  0.22801764414E+03 -0.66443769388E+02  0.99846459098E+03  0.10263227417E+04  0.10100000352E+00 0. -1.
</event>
<event>
 5   0  0.1382803E-05  0.2936691E+04  0.7818609E-02  0.8262044E-01
       -2   -1    0    0    0  501  0.00000000000E+00  0.00000000000E+00  0.13122978192E+04  0.13122978192E+04  0.25500000920E-02 0.  1.
        2   -1    0    0  501    0  0.00000000000E+00  0.00000000000E+00 -0.16429494324E+04  0.16429494324E+04  0.25500000920E-02 0. -1.
    10030    2    1    2    0    0  0.00000000000E+00  0.00000000000E+00 -0.33065161323E+03  0.29552472516E+04  0.29366913063E+04 0.  0.
        2    1    3    3  502    0  0.50764846187E+03 -0.31330081316E+03 -0.15155094391E+04  0.16286906460E+04  0.25500000920E-02 0. -1.
       -2    1    3    3    0  502 -0.50764846187E+03  0.31330081316E+03  0.11848578258E+04  0.13265566056E+04  0.25500000920E-02 0.  1.
</event>
<event>
 5   0  0.1307832E-05  0.2912208E+04  0.7818609E-02  0.8269255E-01
        2   -1    0    0  501    0  0.00000000000E+00  0.00000000000E+00  0.17963764703E+04  0.17963764703E+04  0.25500000920E-02 0.  1.
       -2   -1    0    0    0  501  0.00000000000E+00  0.00000000000E+00 -0.11802863106E+04  0.11802863106E+04  0.25500000920E-02 0. -1.
    10030    2    1    2    0    0  0.00000000000E+00  0.00000000000E+00  0.61609015965E+03  0.29766627810E+04  0.29122077925E+04 0.  0.
        4    1    3    3  502    0  0.30593174922E+03 -0.24298970973E+03 -0.11257118901E+04  0.11915817667E+04  0.12699999809E+01 0. -1.
       -4    1    3    3    0  502 -0.30593174922E+03  0.24298970973E+03  0.17418020497E+04  0.17850810143E+04  0.12699999809E+01 0.  1.
</event>
<event>
 5   0  0.5059249E-06  0.2825586E+04  0.7818609E-02  0.8295369E-01
       -1   -1    0    0    0  501  0.00000000000E+00  0.00000000000E+00  0.13190435390E+04  0.13190435390E+04  0.50400001928E-02 0.  1.
        1   -1    0    0  501    0  0.00000000000E+00  0.00000000000E+00 -0.15132054721E+04  0.15132054721E+04  0.50400001928E-02 0. -1.
    10030    2    1    2    0    0  0.00000000000E+00  0.00000000000E+00 -0.19416193312E+03  0.28322490111E+04  0.28255858870E+04 0.  0.
        1    1    3    3  502    0  0.40792639882E+03 -0.74184808413E+03  0.10366217043E+04  0.13384046789E+04  0.50400001928E-02 0.  1.
       -1    1    3    3    0  502 -0.40792639882E+03  0.74184808413E+03 -0.12307836374E+04  0.14938443322E+04  0.50400001928E-02 0. -1.
</event>
<event>
 5   0  0.5059249E-06  0.2214004E+04  0.7818609E-02  0.8512622E-01
        1   -1    0    0  501    0  0.00000000000E+00  0.00000000000E+00  0.14522244568E+04  0.14522244568E+04  0.50400001928E-02 0. -1.
       -1   -1    0    0    0  501  0.00000000000E+00  0.00000000000E+00 -0.84384580054E+03  0.84384580055E+03  0.50400001928E-02 0.  1.
    10030    2    1    2    0    0  0.00000000000E+00  0.00000000000E+00  0.60837865626E+03  0.22960702574E+04  0.22140040735E+04 0.  0.
        1    1    3    3  502    0 -0.55884397590E+03 -0.49595163316E+03 -0.54289745960E+03  0.92358663020E+03  0.50400001928E-02 0.  1.
       -1    1    3    3    0  502  0.55884397590E+03  0.49595163316E+03  0.11512761159E+04  0.13724836271E+04  0.50400001928E-02 0. -1.
</event>
<event>
 5   0  0.1385669E-05  0.2201705E+04  0.7818609E-02  0.8517719E-01
       -2   -1    0    0    0  501  0.00000000000E+00  0.00000000000E+00  0.21947114463E+04  0.21947114463E+04  0.25500000920E-02 0.  1.
        2   -1    0    0  501    0  0.00000000000E+00  0.00000000000E+00 -0.55218034471E+03  0.55218034472E+03  0.25500000920E-02 0. -1.
    10030    2    1    2    0    0  0.00000000000E+00  0.00000000000E+00  0.16425311015E+04  0.27468917910E+04  0.22017052691E+04 0.  0.
        3    1    3    3  502    0  0.10490938035E+04 -0.26013510348E+03  0.56072963150E+03  0.12176558670E+04  0.10100000352E+00 0. -1.
       -3    1    3    3    0  502 -0.10490938035E+04  0.26013510348E+03  0.10818014700E+04  0.15292359240E+04  0.10100000352E+00 0.  1.
</event>
<event>
 5   0  0.5002240E-06  0.2790061E+04  0.7818609E-02  0.8306361E-01
        1   -1    0    0  501    0  0.00000000000E+00  0.00000000000E+00  0.15948237391E+04  0.15948237391E+04  0.50400001928E-02 0. -1.
       -1   -1    0    0    0  501  0.00000000000E+00  0.00000000000E+00 -0.12202662543E+04  0.12202662544E+04  0.50400001928E-02 0.  1.
    10030    2    1    2    0    0  0.00000000000E+00  0.00000000000E+00  0.37455748478E+03  0.28150899935E+04  0.27900606377E+04 0.  0.
        4    1    3    3  502    0  0.42347309405E+03 -0.10201588355E+03  0.15244492949E+04  0.15854601753E+04  0.12699999809E+01 0. -1.
       -4    1    3    3    0  502 -0.42347309405E+03  0.10201588355E+03 -0.11498918101E+04  0.12296298182E+04  0.12699999809E+01 0.  1.
</event>
<event>
 5   0  0.5059249E-06  0.2815255E+04  0.7818609E-02  0.8298548E-01
       -1   -1    0    0    0  501  0.00000000000E+00  0.00000000000E+00  0.12311893910E+04  0.12311893910E+04  0.50400001928E-02 0.  1.
        1   -1    0    0  501    0  0.00000000000E+00  0.00000000000E+00 -0.16093504263E+04  0.16093504263E+04  0.50400001928E-02 0. -1.
    10030    2    1    2    0    0  0.00000000000E+00  0.00000000000E+00 -0.37816103534E+03  0.28405398173E+04  0.28152549947E+04 0.  0.
        1    1    3    3  502    0 -0.52236372026E+03  0.45990563396E+03  0.10454435858E+04  0.12559177280E+04  0.50400001928E-02 0.  1.
       -1    1    3    3    0  502  0.52236372026E+03 -0.45990563396E+03 -0.14236046212E+04  0.15846220893E+04  0.50400001928E-02 0. -1.
</event>
<event>
 5   0  0.4590125E-06  0.2916986E+04  0.7818609E-02  0.8267842E-01
        3   -1    0    0  501    0  0.00000000000E+00  0.00000000000E+00  0.21995449116E+04  0.21995449139E+04  0.10100000352E+00 0. -1.
       -3   -1    0    0    0  501  0.00000000000E+00  0.00000000000E+00 -0.96710967938E+03  0.96710968465E+03  0.10100000352E+00 0.  1.
    10030    2    1    2    0    0  0.00000000000E+00  0.00000000000E+00  0.12324352322E+04  0.31666545985E+04  0.29169855579E+04 0.  0.
        5    1    3    3  502    0  0.12423040256E+04  0.13982399372E+03 -0.19928418796E+03  0.12659408828E+04  0.46999998093E+01 0.  1.
       -5    1    3    3    0  502 -0.12423040256E+04 -0.13982399372E+03  0.14317194201E+04  0.19007137157E+04  0.46999998093E+01 0. -1.
</event>
<event>
 5   0  0.5059249E-06  0.1966660E+04  0.7818609E-02  0.8622369E-01
        1   -1    0    0  501    0  0.00000000000E+00  0.00000000000E+00  0.14340786279E+04  0.14340786279E+04  0.50400001928E-02 0.  1.
       -1   -1    0    0    0  501  0.00000000000E+00  0.00000000000E+00 -0.67425746038E+03  0.67425746040E+03  0.50400001928E-02 0. -1.
    10030    2    1    2    0    0  0.00000000000E+00  0.00000000000E+00  0.75982116754E+03  0.21083360883E+04  0.19666603303E+04 0.  0.
        1    1    3    3  502    0 -0.74190024264E+03 -0.39228089668E+03 -0.16949012842E+03  0.85617006230E+03  0.50400001928E-02 0. -1.
       -1    1    3    3    0  502  0.74190024264E+03  0.39228089668E+03  0.92931129596E+03  0.12521660260E+04  0.50400001928E-02 0.  1.
</event>
<event>
 5   0  0.5154476E-06  0.2936117E+04  0.7818609E-02  0.8262212E-01
        1   -1    0    0  501    0  0.00000000000E+00  0.00000000000E+00  0.21902734445E+04  0.21902734445E+04  0.50400001928E-02 0.  1.
       -1   -1    0    0    0  501  0.00000000000E+00  0.00000000000E+00 -0.98398468762E+03  0.98398468764E+03  0.50400001928E-02 0. -1.
    10030    2    1    2    0    0  0.00000000000E+00  0.00000000000E+00  0.12062887569E+04  0.31742581321E+04  0.29361168445E+04 0.  0.
        3    1    3    3  502    0 -0.14578687613E+04  0.15625461580E+03  0.52370915185E+03  0.15569419115E+04  0.10100000352E+00 0.  1.
       -3    1    3    3    0  502  0.14578687613E+04 -0.15625461580E+03  0.68257960502E+03  0.16173162206E+04  0.10100000352E+00 0. -1.
</event>
<event>
 5   0  0.1339837E-05  0.2908061E+04  0.7818609E-02  0.8270483E-01
        2   -1    0    0  501    0  0.00000000000E+00  0.00000000000E+00  0.19923617126E+04  0.19923617126E+04  0.25500000920E-02 0.  1.
       -2   -1    0    0    0  501  0.00000000000E+00  0.00000000000E+00 -0.10611550779E+04  0.10611550779E+04  0.25500000920E-02 0. -1.
    10030    2    1    2    0    0  0.00000000000E+00  0.00000000000E+00  0.93120663473E+03  0.30535167904E+04  0.29080610367E+04 0.  0.
        5    1    3    3  502    0 -0.30948697788E+03 -0.82889543380E+03  0.16771498957E+04  0.18962340816E+04  0.46999998093E+01 0.  1.
       -5    1    3    3    0  502  0.30948697788E+03  0.82889543380E+03 -0.74594326095E+03  0.11572827089E+04  0.46999998093E+01 0. -1.
</event>
<event>
 5   0  0.5002240E-06  0.2957177E+04  0.7818609E-02  0.8256066E-01
        1   -1    0    0  501    0  0.00000000000E+00  0.00000000000E+00  0.15701885839E+04  0.15701885839E+04  0.50400001928E-02 0. -1.
       -1   -1    0    0    0  501  0.00000000000E+00  0.00000000000E+00 -0.13923322560E+04  0.13923322560E+04  0.50400001928E-02 0.  1.
    10030    2    1    2    0    0  0.00000000000E+00  0.00000000000E+00  0.17785632787E+03  0.29625208399E+04  0.29571771766E+04 0.  0.
        4    1    3    3  502    0  0.85437865876E+03 -0.11893885612E+04 -0.11543692753E+03  0.14689912659E+04  0.12699999809E+01 0.  1.
       -4    1    3    3    0  502 -0.85437865876E+03  0.11893885612E+04  0.29329325541E+03  0.14935295741E+04  0.12699999809E+01 0. -1.
</event>
<event>
 5   0  0.5059249E-06  0.2878338E+04  0.7818609E-02  0.8279352E-01
        1   -1    0    0  501    0  0.00000000000E+00  0.00000000000E+00  0.11959374926E+04  0.11959374927E+04  0.50400001928E-02 0. -1.
       -1   -1    0    0    0  501  0.00000000000E+00  0.00000000000E+00 -0.17318695696E+04  0.17318695696E+04  0.50400001928E-02 0.  1.
    10030    2    1    2    0    0  0.00000000000E+00  0.00000000000E+00 -0.53593207693E+03  0.29278070622E+04  0.28783382363E+04 0.  0.
        1    1    3    3  502    0  0.14010927364E+04 -0.21688565911E+03 -0.51941387614E+03  0.15099307997E+04  0.50400001928E-02 0.  1.
       -1    1    3    3    0  502 -0.14010927364E+04  0.21688565911E+03 -0.16518200797E+02  0.14178762626E+04  0.50400001928E-02 0. -1.
</event>
<event>
 5   0  0.5059249E-06  0.2185647E+04  0.7818609E-02  0.8524426E-01
       -1   -1    0    0    0  501  0.00000000000E+00  0.00000000000E+00  0.51641290770E+03  0.51641290772E+03  0.50400001928E-02 0. -1.
        1   -1    0    0  501    0  0.00000000000E+00  0.00000000000E+00 -0.23126121944E+04  0.23126121944E+04  0.50400001928E-02 0.  1.
    10030    2    1    2    0    0  0.00000000000E+00  0.00000000000E+00 -0.17961992867E+04  0.28290251021E+04  0.21856466208E+04 0.  0.
        1    1    3    3  502    0  0.16869006477E+03  0.32475435825E+02  0.49882683568E+03  0.52757862343E+03  0.50400001928E-02 0. -1.
       -1    1    3    3    0  502 -0.16869006477E+03 -0.32475435825E+02 -0.22950261223E+04  0.23014464787E+04  0.50400001928E-02 0.  1.
</event>
<event>
 5   0  0.1339837E-05  0.2896174E+04  0.7818609E-02  0.8274017E-01
       -2   -1    0    0    0  501  0.00000000000E+00  0.00000000000E+00  0.14793251293E+04  0.14793251293E+04  0.25500000920E-02 0. -1.
        2   -1    0    0  501    0  0.00000000000E+00  0.00000000000E+00 -0.14175081548E+04  0.14175081549E+04  0.25500000920E-02 0.  1.
    10030    2    1    2    0    0  0.00000000000E+00  0.00000000000E+00  0.61816974482E+02  0.28968332842E+04  0.28961736374E+04 0.  0.
        5    1    3    3  502    0 -0.99444249179E+03  0.25903709214E+03 -0.98957741801E+03  0.14266399829E+04  0.46999998093E+01 0.  1.
       -5    1    3    3    0  502  0.99444249179E+03 -0.25903709214E+03  0.10513943925E+04  0.14701933013E+04  0.46999998093E+01 0. -1.
</event>
<event>
 5   0  0.1307832E-05  0.2977998E+04  0.7818609E-02  0.8250042E-01
        2   -1    0    0  501    0  0.00000000000E+00  0.00000000000E+00  0.22197858258E+04  0.22197858258E+04  0.25500000920E-02 0.  1.
       -2   -1    0    0    0  501  0.00000000000E+00  0.00000000000E+00 -0.99879832066E+03  0.99879832067E+03  0.25500000920E-02 0. -1.
    10030    2    1    2    0    0  0.00000000000E+00  0.00000000000E+00  0.12209875051E+04  0.32185841465E+04  0.29779982237E+04 0.  0.
        4    1    3    3  502    0 -0.19640100645E+02 -0.14844603542E+04  0.48675197173E+03  0.15623499517E+04  0.12699999809E+01 0.  1.
       -4    1    3    3    0  502  0.19640100645E+02  0.14844603542E+04  0.73423553340E+03  0.16562341948E+04  0.12699999809E+01 0. -1.
</event>
<event>
 5   0  0.5261878E-06  0.2948585E+04  0.7818609E-02  0.8258567E-01
        1   -1    0    0  501    0  0.00000000000E+00  0.00000000000E+00  0.13838176401E+04  0.13838176402E+04  0.50400001928E-02 0.  1.
       -1   -1    0    0    0  501  0.00000000000E+00  0.00000000000E+00 -0.15706831038E+04  0.15706831038E+04  0.50400001928E-02 0. -1.
    10030    2    1    2    0    0  0.00000000000E+00  0.00000000000E+00 -0.18686546364E+03  0.29545007440E+04  0.29485854141E+04 0.  0.
        5    1    3    3  502    0 -0.52329172703E+02  0.70055092971E+02 -0.15680749648E+04  0.15705181449E+04  0.46999998093E+01 0. -1.
       -5    1    3    3    0  502  0.52329172703E+02 -0.70055092971E+02  0.13812095011E+04  0.13839825990E+04  0.46999998093E+01 0.  1.
</event>
<event>
 5   0  0.1307832E-05  0.2794968E+04  0.7818609E-02  0.8304832E-01
       -2   -1    0    0    0  501  0.00000000000E+00  0.00000000000E+00  0.12648920691E+04  0.12648920691E+04  0.25500000920E-02 0. -1.
        2   -1    0    0  501    0  0.00000000000E+00  0.00000000000E+00 -0.15439751719E+04  0.15439751719E+04  0.25500000920E-02 0.  1.
    10030    2    1    2    0    0  0.00000000000E+00  0.00000000000E+00 -0.27908310289E+03  0.28088672410E+04  0.27949683002E+04 0.  0.
        4    1    3    3  502    0 -0.83026926552E+02  0.26974827528E+03 -0.15150343153E+04  0.15410996697E+04  0.12699999809E+01 0.  1.
       -4    1    3    3    0  502  0.83026926552E+02 -0.26974827528E+03  0.12359512124E+04  0.12677675713E+04  0.12699999809E+01 0. -1.
</event>
<event>
 5   0  0.5154476E-06  0.2892405E+04  0.7818609E-02  0.8275141E-01
       -1   -1    0    0    0  501  0.00000000000E+00  0.00000000000E+00  0.86176063967E+03  0.86176063969E+03  0.50400001928E-02 0.  1.
        1   -1    0    0  501    0  0.00000000000E+00  0.00000000000E+00 -0.24270106449E+04  0.24270106449E+04  0.50400001928E-02 0. -1.
    10030    2    1    2    0    0  0.00000000000E+00  0.00000000000E+00 -0.15652500053E+04  0.32887712846E+04  0.28924053975E+04 0.  0.
        3    1    3    3  502    0  0.72514092907E+03  0.88015481198E+03  0.22863505363E+03  0.11630889295E+04  0.10100000352E+00 0.  1.
       -3    1    3    3    0  502 -0.72514092907E+03 -0.88015481198E+03 -0.17938850589E+04  0.21256823551E+04  0.10100000352E+00 0. -1.
</event>
<event>
 5   0  0.1382803E-05  0.2912308E+04  0.7818609E-02  0.8269225E-01
        2   -1    0    0  501    0  0.00000000000E+00  0.00000000000E+00  0.20491360940E+04  0.20491360940E+04  0.25500000920E-02 0. -1.
       -2   -1    0    0    0  501  0.00000000000E+00  0.00000000000E+00 -0.10347700876E+04  0.10347700876E+04  0.25500000920E-02 0.  1.
    10030    2    1    2    0    0  0.00000000000E+00  0.00000000000E+00  0.10143660064E+04  0.30839061816E+04  0.29123081812E+04 0.  0.
        2    1    3    3  502    0  0.39891801644E+03  0.10549905673E+04 -0.46808559158E+03  0.12211653458E+04  0.25500000920E-02 0.  1.
       -2    1    3    3    0  502 -0.39891801644E+03 -0.10549905673E+04  0.14824515980E+04  0.18627408358E+04  0.25500000920E-02 0. -1.
</event>
<event>
 5   0  0.1336899E-05  0.3161407E+04  0.7818609E-02  0.8199085E-01
        2   -1    0    0  501    0  0.00000000000E+00  0.00000000000E+00  0.30803634373E+04  0.30803634373E+04  0.25500000920E-02 0.  1.
       -2   -1    0    0    0  501  0.00000000000E+00  0.00000000000E+00 -0.81114546224E+03  0.81114546225E+03  0.25500000920E-02 0. -1.
    10030    2    1    2    0    0  0.00000000000E+00  0.00000000000E+00  0.22692179751E+04  0.38915088996E+04  0.31614065378E+04 0.  0.
        1    1    3    3  502    0  0.54345838630E+03 -0.13086626357E+04  0.27235356275E+03  0.14429557772E+04  0.50400001928E-02 0.  1.
       -1    1    3    3    0  502 -0.54345838630E+03  0.13086626357E+04  0.19968644123E+04  0.24485531223E+04  0.50400001928E-02 0. -1.
</event>
<event>
 5   0  0.5002240E-06  0.2926818E+04  0.7818609E-02  0.8264943E-01
       -1   -1    0    0    0  501  0.00000000000E+00  0.00000000000E+00  0.21708444857E+04  0.21708444857E+04  0.50400001928E-02 0. -1.
        1   -1    0    0  501    0  0.00000000000E+00  0.00000000000E+00 -0.98651281384E+03  0.98651281386E+03  0.50400001928E-02 0.  1.
    10030    2    1    2    0    0  0.00000000000E+00  0.00000000000E+00  0.11843316718E+04  0.31573572995E+04  0.29268180005E+04 0.  0.
        4    1    3    3  502    0  0.13704761978E+03  0.12286940014E+04 -0.25251238274E+03  0.12618379910E+04  0.12699999809E+01 0.  1.
       -4    1    3    3    0  502 -0.13704761978E+03 -0.12286940014E+04  0.14368440546E+04  0.18955193086E+04  0.12699999809E+01 0. -1.
</event>
<event>
 5   0  0.1336899E-05  0.2846653E+04  0.7818609E-02  0.8288929E-01
       -2   -1    0    0    0  501  0.00000000000E+00  0.00000000000E+00  0.20894644899E+04  0.20894644899E+04  0.25500000920E-02 0.  1.
        2   -1    0    0  501    0  0.00000000000E+00  0.00000000000E+00 -0.96955880601E+03  0.96955880602E+03  0.25500000920E-02 0. -1.
    10030    2    1    2    0    0  0.00000000000E+00  0.00000000000E+00  0.11199056839E+04  0.30590232959E+04  0.28466532603E+04 0.  0.
        1    1    3    3  502    0  0.12302361253E+04 -0.48902775565E+02 -0.20745717634E+03  0.12485635288E+04  0.50400001928E-02 0. -1.
       -1    1    3    3    0  502 -0.12302361253E+04  0.48902775565E+02  0.13273628603E+04  0.18104597671E+04  0.50400001928E-02 0.  1.
</event>
<event>
 5   0  0.5352212E-06  0.2934832E+04  0.7818609E-02  0.8262589E-01
       -1   -1    0    0    0  501  0.00000000000E+00  0.00000000000E+00  0.11823688470E+04  0.11823688470E+04  0.50400001928E-02 0.  1.
        1   -1    0    0  501    0  0.00000000000E+00  0.00000000000E+00 -0.18211832793E+04  0.18211832793E+04  0.50400001928E-02 0. -1.
    10030    2    1    2    0    0  0.00000000000E+00  0.00000000000E+00 -0.63881443224E+03  0.30035521263E+04  0.29348324478E+04 0.  0.
        2    1    3    3  502    0  0.12531296031E+04  0.72484048528E+03 -0.73824152759E+02  0.14495439065E+04  0.25500000920E-02 0.  1.
       -2    1    3    3    0  502 -0.12531296031E+04 -0.72484048528E+03 -0.56499027948E+03  0.15540082198E+04  0.25500000920E-02 0. -1.
</event>
<event>
 5   0  0.1307832E-05  0.2841422E+04  0.7818609E-02  0.8290523E-01
        2   -1    0    0  501    0  0.00000000000E+00  0.00000000000E+00  0.20037211432E+04  0.20037211432E+04  0.25500000920E-02 0.  1.
       -2   -1    0    0    0  501  0.00000000000E+00  0.00000000000E+00 -0.10073357862E+04  0.10073357862E+04  0.25500000920E-02 0. -1.
    10030    2    1    2    0    0  0.00000000000E+00  0.00000000000E+00  0.99638535692E+03  0.30110569294E+04  0.28414221884E+04 0.  0.
        4    1    3    3  502    0  0.46372344046E+03 -0.10040548377E+04  0.14432014016E+04  0.18182402054E+04  0.12699999809E+01 0.  1.
       -4    1    3    3    0  502 -0.46372344046E+03  0.10040548377E+04 -0.44681604466E+03  0.11928167240E+04  0.12699999809E+01 0. -1.
</event>
<event>
 5   0  0.1385669E-05  0.2886276E+04  0.7818609E-02  0.8276972E-01
       -2   -1    0    0    0  501  0.00000000000E+00  0.00000000000E+00  0.10778915570E+04  0.10778915570E+04  0.25500000920E-02 0. -1.
        2   -1    0    0  501    0  0.00000000000E+00  0.00000000000E+00 -0.19321493837E+04  0.19321493837E+04  0.25500000920E-02 0.  1.
    10030    2    1    2    0    0  0.00000000000E+00  0.00000000000E+00 -0.85425782666E+03  0.30100409407E+04  0.28862761528E+04 0.  0.
        3    1    3    3  502    0  0.77319303909E+03  0.95052528149E+02 -0.16940398146E+04  0.18645732387E+04  0.10100000352E+00 0.  1.
       -3    1    3    3    0  502 -0.77319303909E+03 -0.95052528149E+02  0.83978198795E+03  0.11454677020E+04  0.10100000352E+00 0. -1.
</event>
<event>
 5   0  0.5352212E-06  0.2690903E+04  0.7818609E-02  0.8337963E-01
       -1   -1    0    0    0  501  0.00000000000E+00  0.00000000000E+00  0.10882739474E+04  0.10882739474E+04  0.50400001928E-02 0. -1.
        1   -1    0    0  501    0  0.00000000000E+00  0.00000000000E+00 -0.16634038511E+04  0.16634038512E+04  0.50400001928E-02 0.  1.
    10030    2    1    2    0    0  0.00000000000E+00  0.00000000000E+00 -0.57512990372E+03  0.27516777986E+04  0.26909025068E+04 0.  0.
        2    1    3    3  502    0  0.35667510985E+03  0.65862773868E+03  0.85536883154E+03  0.11369535919E+04  0.25500000920E-02 0. -1.
       -2    1    3    3    0  502 -0.35667510985E+03 -0.65862773868E+03 -0.14304987353E+04  0.16147242067E+04  0.25500000920E-02 0.  1.
</event>
<event>
 5   0  0.5002240E-06  0.2930349E+04  0.7818609E-02  0.8263905E-01
        1   -1    0    0  501    0  0.00000000000E+00  0.00000000000E+00  0.20574728531E+04  0.20574728531E+04  0.50400001928E-02 0. -1.
       -1   -1    0    0    0  501  0.00000000000E+00  0.00000000000E+00 -0.10433846873E+04  0.10433846873E+04  0.50400001928E-02 0.  1.
    10030    2    1    2    0    0  0.00000000000E+00  0.00000000000E+00  0.10140881658E+04  0.31008575404E+04  0.29303485591E+04 0.  0.
        4    1    3    3  502    0  0.59694554101E+03 -0.81947896411E+03  0.16263462904E+04  0.19164794861E+04  0.12699999809E+01 0. -1.
       -4    1    3    3    0  502 -0.59694554101E+03  0.81947896411E+03 -0.61225812456E+03  0.11843780543E+04  0.12699999809E+01 0.  1.
</event>
<event>
 5   0  0.5154476E-06  0.2881052E+04  0.7818609E-02  0.8278537E-01
       -1   -1    0    0    0  501  0.00000000000E+00  0.00000000000E+00  0.11648559117E+04  0.11648559117E+04  0.50400001928E-02 0. -1.
        1   -1    0    0  501    0  0.00000000000E+00  0.00000000000E+00 -0.17814353785E+04  0.17814353785E+04  0.50400001928E-02 0.  1.
    10030    2    1    2    0    0  0.00000000000E+00  0.00000000000E+00 -0.61657946681E+03  0.29462912901E+04  0.28810522604E+04 0.  0.
        3    1    3    3  502    0  0.63705444309E+03  0.61505384809E+03 -0.14702340043E+04  0.17163093069E+04  0.10100000352E+00 0.  1.
       -3    1    3    3    0  502 -0.63705444309E+03 -0.61505384809E+03  0.85365453745E+03  0.12299819832E+04  0.10100000352E+00 0. -1.
</event>
<event>
 5   0  0.5154476E-06  0.2908337E+04  0.7818609E-02  0.8270401E-01
       -1   -1    0    0    0  501  0.00000000000E+00  0.00000000000E+00  0.12997290440E+04  0.12997290440E+04  0.50400001928E-02 0.  1.
        1   -1    0    0  501    0  0.00000000000E+00  0.00000000000E+00 -0.16269593866E+04  0.16269593867E+04  0.50400001928E-02 0. -1.
    10030    2    1    2    0    0  0.00000000000E+00  0.00000000000E+00 -0.32723034263E+03  0.29266884307E+04  0.29083372351E+04 0.  0.
        3    1    3    3  502    0  0.10659749723E+02  0.13895084555E+04  0.26776086214E+03  0.14151124576E+04  0.10100000352E+00 0. -1.
       -3    1    3    3    0  502 -0.10659749723E+02 -0.13895084555E+04 -0.59499120477E+03  0.15115759730E+04  0.10100000352E+00 0.  1.
</event>
<event>
 5   0  0.1336899E-05  0.3012396E+04  0.7818609E-02  0.8240200E-01
        2   -1    0    0  501    0  0.00000000000E+00  0.00000000000E+00  0.19211057341E+04  0.19211057341E+04  0.25500000920E-02 0.  1.
       -2   -1    0    0    0  501  0.00000000000E+00  0.00000000000E+00 -0.11808990264E+04  0.11808990264E+04  0.25500000920E-02 0. -1.
    10030    2    1    2    0    0  0.00000000000E+00  0.00000000000E+00  0.74020670777E+03  0.31020047605E+04  0.30123956520E+04 0.  0.
        1    1    3    3  502    0 -0.91789606979E+03 -0.77056048449E+03  0.13095661540E+04  0.17751789112E+04  0.50400001928E-02 0. -1.
       -1    1    3    3    0  502  0.91789606979E+03  0.77056048449E+03 -0.56935944623E+03  0.13268258492E+04  0.50400001928E-02 0.  1.
</event>
<event>
 5   0  0.1339837E-05  0.2869655E+04  0.7818609E-02  0.8281964E-01
       -2   -1    0    0    0  501  0.00000000000E+00  0.00000000000E+00  0.12862525073E+04  0.12862525073E+04  0.25500000920E-02 0. -1.
        2   -1    0    0  501    0  0.00000000000E+00  0.00000000000E+00 -0.16005648536E+04  0.16005648536E+04  0.25500000920E-02 0.  1.
    10030    2    1    2    0    0  0.00000000000E+00  0.00000000000E+00 -0.31431234637E+03  0.28868173609E+04  0.28696554191E+04 0.  0.
        5    1    3    3  502    0 -0.44074701323E+03 -0.42457273367E+03  0.11483679776E+04  0.13012651681E+04  0.46999998093E+01 0. -1.
       -5    1    3    3    0  502  0.44074701323E+03  0.42457273367E+03 -0.14626803240E+04  0.15855521928E+04  0.46999998093E+01 0.  1.
</event>
<event>
 5   0  0.1382803E-05  0.2987683E+04  0.7818609E-02  0.8247257E-01
        2   -1    0    0  501    0  0.00000000000E+00  0.00000000000E+00  0.28922605958E+04  0.28922605958E+04  0.25500000920E-02 0. -1.
       -2   -1    0    0    0  501  0.00000000000E+00  0.00000000000E+00 -0.77156338691E+03  0.77156338692E+03  0.25500000920E-02 0.  1.
    10030    2    1    2    0    0  0.00000000000E+00  0.00000000000E+00  0.21206972089E+04  0.36638239827E+04  0.29876829692E+04 0.  0.
        2    1    3    3  502    0  0.38298451715E+03 -0.70227347867E+02 -0.70824026724E+03  0.80821612017E+03  0.25500000920E-02 0.  1.
       -2    1    3    3    0  502 -0.38298451715E+03  0.70227347867E+02  0.28289374761E+04  0.28556078626E+04  0.25500000920E-02 0. -1.
</event>
<event>
 5   0  0.5059249E-06  0.2828355E+04  0.7818609E-02  0.8294519E-01
       -1   -1    0    0    0  501  0.00000000000E+00  0.00000000000E+00  0.85849381471E+03  0.85849381473E+03  0.50400001928E-02 0.  1.
        1   -1    0    0  501    0  0.00000000000E+00  0.00000000000E+00 -0.23295423553E+04  0.23295423553E+04  0.50400001928E-02 0. -1.
    10030    2    1    2    0    0  0.00000000000E+00  0.00000000000E+00 -0.14710485406E+04  0.31880361700E+04  0.28283547890E+04 0.  0.
        1    1    3    3  502    0  0.10784348394E+04 -0.65931862700E+03 -0.14503445431E+04  0.19238560363E+04  0.50400001928E-02 0. -1.
       -1    1    3    3    0  502 -0.10784348394E+04  0.65931862700E+03 -0.20703997482E+02  0.12641801337E+04  0.50400001928E-02 0.  1.
</event>
<event>
 5   0  0.1382803E-05  0.2804815E+04  0.7818609E-02  0.8301775E-01
       -2   -1    0    0    0  501  0.00000000000E+00  0.00000000000E+00  0.17561935766E+04  0.17561935766E+04  0.25500000920E-02 0.  1.
        2   -1    0    0  501    0  0.00000000000E+00  0.00000000000E+00 -0.11198918625E+04  0.11198918625E+04  0.25500000920E-02 0. -1.
    10030    2    1    2    0    0  0.00000000000E+00  0.00000000000E+00  0.63630171418E+03  0.28760854391E+04  0.28048150708E+04 0.  0.
        2    1    3    3  502    0 -0.15228011894E+03 -0.11546011357E+04  0.11193195675E+04  0.16152923300E+04  0.25500000920E-02 0.  1.
       -2    1    3    3    0  502  0.15228011894E+03  0.11546011357E+04 -0.48301785332E+03  0.12607931091E+04  0.25500000920E-02 0. -1.
</event>
<event>
 5   0  0.5059249E-06  0.2850318E+04  0.7818609E-02  0.8287815E-01
       -1   -1    0    0    0  501  0.00000000000E+00  0.00000000000E+00  0.11536304568E+04  0.11536304568E+04  0.50400001928E-02 0. -1.
        1   -1    0    0  501    0  0.00000000000E+00  0.00000000000E+00 -0.17605973374E+04  0.17605973374E+04  0.50400001928E-02 0.  1.
    10030    2    1    2    0    0  0.00000000000E+00  0.00000000000E+00 -0.60696688062E+03  0.29142277942E+04  0.28503183756E+04 0.  0.
        1    1    3    3  502    0 -0.63394776878E+03 -0.90628035692E+03  0.61547126127E+03  0.12657166872E+04  0.50400001928E-02 0. -1.
       -1    1    3    3    0  502  0.63394776878E+03  0.90628035692E+03 -0.12224381419E+04  0.16485111069E+04  0.50400001928E-02 0.  1.
</event>
<event>
 5   0  0.5261878E-06  0.2876815E+04  0.7818609E-02  0.8279809E-01
        1   -1    0    0  501    0  0.00000000000E+00  0.00000000000E+00  0.13527103411E+04  0.13527103411E+04  0.50400001928E-02 0.  1.
       -1   -1    0    0    0  501  0.00000000000E+00  0.00000000000E+00 -0.15295341349E+04  0.15295341350E+04  0.50400001928E-02 0. -1.
    10030    2    1    2    0    0  0.00000000000E+00  0.00000000000E+00 -0.17682379389E+03  0.28822444760E+04  0.28768153513E+04 0.  0.
        5    1    3    3  502    0 -0.43587660114E+03  0.45629251765E+03 -0.13834468414E+04  0.15205717760E+04  0.46999998093E+01 0. -1.
       -5    1    3    3    0  502  0.43587660114E+03 -0.45629251765E+03  0.12066230475E+04  0.13616727000E+04  0.46999998093E+01 0.  1.
</event>
<event>
 5   0  0.1307832E-05  0.3000488E+04  0.7818609E-02  0.8243592E-01
        2   -1    0    0  501    0  0.00000000000E+00  0.00000000000E+00  0.26640936133E+04  0.26640936133E+04  0.25500000920E-02 0.  1.
       -2   -1    0    0    0  501  0.00000000000E+00  0.00000000000E+00 -0.84483963282E+03  0.84483963282E+03  0.25500000920E-02 0. -1.
    10030    2    1    2    0    0  0.00000000000E+00  0.00000000000E+00  0.18192539805E+04  0.35089332462E+04  0.30004878737E+04 0.  0.
        4    1    3    3  502    0  0.52225738507E+03 -0.12759104927E+04  0.21773898826E+03  0.13957479147E+04  0.12699999809E+01 0. -1.
       -4    1    3    3    0  502 -0.52225738507E+03  0.12759104927E+04  0.16015149923E+04  0.21131853314E+04  0.12699999809E+01 0.  1.
</event>
<event>
 5   0  0.5059249E-06  0.2874723E+04  0.7818609E-02  0.8280438E-01
       -1   -1    0    0    0  501  0.00000000000E+00  0.00000000000E+00  0.11328643759E+04  0.11328643760E+04  0.50400001928E-02 0. -1.
        1   -1    0    0  501    0  0.00000000000E+00  0.00000000000E+00 -0.18237027005E+04  0.18237027005E+04  0.50400001928E-02 0.  1.
    10030    2    1    2    0    0  0.00000000000E+00  0.00000000000E+00 -0.69083832452E+03  0.29565670764E+04  0.28747228191E+04 0.  0.
        1    1    3    3  502    0 -0.85263976240E+03  0.90381841057E+03 -0.10885738608E+04  0.16519307897E+04  0.50400001928E-02 0.  1.
       -1    1    3    3    0  502  0.85263976240E+03 -0.90381841057E+03  0.39773553625E+03  0.13046362867E+04  0.50400001928E-02 0. -1.
</event>
<event>
 5   0  0.5261878E-06  0.2914087E+04  0.7818609E-02  0.8268699E-01
        1   -1    0    0  501    0  0.00000000000E+00  0.00000000000E+00  0.14637355746E+04  0.14637355746E+04  0.50400001928E-02 0. -1.
       -1   -1    0    0    0  501  0.00000000000E+00  0.00000000000E+00 -0.14503817743E+04  0.14503817743E+04  0.50400001928E-02 0.  1.
    10030    2    1    2    0    0  0.00000000000E+00  0.00000000000E+00  0.13353800298E+02  0.29141173488E+04  0.29140867521E+04 0.  0.
        5    1    3    3  502    0 -0.12448324159E+04 -0.75551626890E+03  0.57083117295E+02  0.14572896584E+04  0.46999998093E+01 0. -1.
       -5    1    3    3    0  502  0.12448324159E+04  0.75551626890E+03 -0.43729316997E+02  0.14568276904E+04  0.46999998093E+01 0.  1.
</event>
<event>
 5   0  0.5059249E-06  0.2410197E+04  0.7818609E-02  0.8435696E-01
       -1   -1    0    0    0  501  0.00000000000E+00  0.00000000000E+00  0.12855138206E+04  0.12855138206E+04  0.50400001928E-02 0.  1.
        1   -1    0    0  501    0  0.00000000000E+00  0.00000000000E+00 -0.11297134140E+04  0.11297134140E+04  0.50400001928E-02 0. -1.
    10030    2    1    2    0    0  0.00000000000E+00  0.00000000000E+00  0.15580040658E+03  0.24152272345E+04  0.24101968442E+04 0.  0.
        1    1    3    3  502    0 -0.12892929905E+03  0.54480778441E+03  0.11472844304E+04  0.12765969804E+04  0.50400001928E-02 0.  1.
       -1    1    3    3    0  502  0.12892929905E+03 -0.54480778441E+03 -0.99148402382E+03  0.11386302541E+04  0.50400001928E-02 0. -1.
</event>
<event>
 5   0  0.5352212E-06  0.2613101E+04  0.7818609E-02  0.8363765E-01
       -1   -1    0    0    0  501  0.00000000000E+00  0.00000000000E+00  0.90839565526E+03  0.90839565527E+03  0.50400001928E-02 0.  1.
        1   -1    0    0  501    0  0.00000000000E+00  0.00000000000E+00 -0.18792183166E+04  0.18792183166E+04  0.50400001928E-02 0. -1.
    10030    2    1    2    0    0  0.00000000000E+00  0.00000000000E+00 -0.97082266132E+03  0.27876139719E+04  0.26131006518E+04 0.  0.
        2    1    3    3  502    0  0.44984798756E+03  0.11958191785E+04 -0.77703002959E+03  0.14953669739E+04  0.25500000920E-02 0.  1.
       -2    1    3    3    0  502 -0.44984798756E+03 -0.11958191785E+04 -0.19379263173E+03  0.12922469980E+04  0.25500000920E-02 0. -1.
</event>
<event>
 5   0  0.5002240E-06  0.2881629E+04  0.7818609E-02  0.8278364E-01
        1   -1    0    0  501    0  0.00000000000E+00  0.00000000000E+00  0.18786907488E+04  0.18786907488E+04  0.50400001928E-02 0.  1.
       -1   -1    0    0    0  501  0.00000000000E+00  0.00000000000E+00 -0.11049962040E+04  0.11049962040E+04  0.50400001928E-02 0. -1.
    10030    2    1    2    0    0  0.00000000000E+00  0.00000000000E+00  0.77369454475E+03  0.29836869528E+04  0.28816288074E+04 0.  0.
        4    1    3    3  502    0  0.10840756371E+02  0.13662269919E+03 -0.10982311416E+04  0.11067504403E+04  0.12699999809E+01 0. -1.
       -4    1    3    3    0  502 -0.10840756371E+02 -0.13662269919E+03  0.18719256863E+04  0.18769365125E+04  0.12699999809E+01 0.  1.
</event>
<event>
 5   0  0.5261878E-06  0.2874695E+04  0.7818609E-02  0.8280446E-01
       -1   -1    0    0    0  501  0.00000000000E+00  0.00000000000E+00  0.13780344910E+04  0.13780344910E+04  0.50400001928E-02 0. -1.
        1   -1    0    0  501    0  0.00000000000E+00  0.00000000000E+00 -0.14992137459E+04  0.14992137459E+04  0.50400001928E-02 0.  1.
    10030    2    1    2    0    0  0.00000000000E+00  0.00000000000E+00 -0.12117925492E+03  0.28772482369E+04  0.28746952891E+04 0.  0.
        5    1    3    3  502    0 -0.31165626921E+02  0.23056343419E+03 -0.14802340351E+04  0.14984143894E+04  0.46999998093E+01 0.  1.
       -5    1    3    3    0  502  0.31165626921E+02 -0.23056343419E+03  0.13590547802E+04  0.13788338475E+04  0.46999998093E+01 0. -1.
</event>
<event>
 5   0  0.1336899E-05  0.2298933E+04  0.7818609E-02  0.8478342E-01
       -2   -1    0    0    0  501  0.00000000000E+00  0.00000000000E+00  0.11902817606E+04  0.11902817606E+04  0.25500000920E-02 0. -1.
        2   -1    0    0  501    0  0.00000000000E+00  0.00000000000E+00 -0.11100510937E+04  0.11100510937E+04  0.25500000920E-02 0.  1.
    10030    2    1    2    0    0  0.00000000000E+00  0.00000000000E+00  0.80230666898E+02  0.23003328544E+04  0.22989332920E+04 0.  0.
        1    1    3    3  502    0  0.35195117592E+03  0.18804822551E+03  0.11187520235E+04  0.11877869571E+04  0.50400001928E-02 0. -1.
       -1    1    3    3    0  502 -0.35195117592E+03 -0.18804822551E+03 -0.10385213566E+04  0.11125458973E+04  0.50400001928E-02 0.  1.
</event>
<event>
 5   0  0.5352212E-06  0.2064866E+04  0.7818609E-02  0.8576880E-01
       -1   -1    0    0    0  501  0.00000000000E+00  0.00000000000E+00  0.79290677165E+03  0.79290677167E+03  0.50400001928E-02 0.  1.
        1   -1    0    0  501    0  0.00000000000E+00  0.00000000000E+00 -0.13443167256E+04  0.13443167256E+04  0.50400001928E-02 0. -1.
    10030    2    1    2    0    0  0.00000000000E+00  0.00000000000E+00 -0.55140995392E+03  0.21372234972E+04  0.20648659375E+04 0.  0.
        2    1    3    3  502    0  0.36732462186E+03  0.89746242072E+03 -0.64245429139E+03  0.11632341514E+04  0.25500000920E-02 0. -1.
       -2    1    3    3    0  502 -0.36732462186E+03 -0.89746242072E+03  0.91044337478E+02  0.97398934585E+03  0.25500000920E-02 0.  1.
</event>
<event>
 5   0  0.1385669E-05  0.2846151E+04  0.7818609E-02  0.8289082E-01
       -2   -1    0    0    0  501  0.00000000000E+00  0.00000000000E+00  0.11897938575E+04  0.11897938575E+04  0.25500000920E-02 0.  1.
        2   -1    0    0  501    0  0.00000000000E+00  0.00000000000E+00 -0.17020960536E+04  0.17020960536E+04  0.25500000920E-02 0. -1.
    10030    2    1    2    0    0  0.00000000000E+00  0.00000000000E+00 -0.51230219605E+03  0.28918899111E+04  0.28461506843E+04 0.  0.
        3    1    3    3  502    0  0.31338387028E+03  0.13171180398E+04  0.18922409378E+03  0.13670461399E+04  0.10100000352E+00 0. -1.
       -3    1    3    3    0  502 -0.31338387028E+03 -0.13171180398E+04 -0.70152628983E+03  0.15248437711E+04  0.10100000352E+00 0.  1.
</event>
<event>
 5   0  0.5002240E-06  0.2951185E+04  0.7818609E-02  0.8257809E-01
        1   -1    0    0  501    0  0.00000000000E+00  0.00000000000E+00  0.14902267418E+04  0.14902267418E+04  0.50400001928E-02 0.  1.
       -1   -1    0    0    0  501  0.00000000000E+00  0.00000000000E+00 -0.14611023117E+04  0.14611023117E+04  0.50400001928E-02 0. -1.
    10030    2    1    2    0    0  0.00000000000E+00  0.00000000000E+00  0.29124430098E+02  0.29513290535E+04  0.29511853465E+04 0.  0.
        4    1    3    3  502    0 -0.60340049443E+03 -0.11413979781E+04 -0.69995884200E+03  0.14686134598E+04  0.12699999809E+01 0. -1.
       -4    1    3    3    0  502  0.60340049443E+03  0.11413979781E+04  0.72908327210E+03  0.14827155936E+04  0.12699999809E+01 0.  1.
</event>
<event>
 5   0  0.1336899E-05  0.2882875E+04  0.7818609E-02  0.8277991E-01
       -2   -1    0    0    0  501  0.00000000000E+00  0.00000000000E+00  0.12781228844E+04  0.12781228844E+04  0.25500000920E-02 0. -1.
        2   -1    0    0  501    0  0.00000000000E+00  0.00000000000E+00 -0.16256201697E+04  0.16256201697E+04  0.25500000920E-02 0.  1.
    10030    2    1    2    0    0  0.00000000000E+00  0.00000000000E+00 -0.34749728523E+03  0.29037430541E+04  0.28828751900E+04 0.  0.
        1    1    3    3  502    0 -0.98390884553E+03 -0.89686774200E+03  0.38278505005E+03  0.13852699223E+04  0.50400001928E-02 0. -1.
       -1    1    3    3    0  502  0.98390884553E+03  0.89686774200E+03 -0.73028233528E+03  0.15184731319E+04  0.50400001928E-02 0.  1.
</event>
<event>
 5   0  0.5154476E-06  0.1828746E+04  0.7818609E-02  0.8691160E-01
       -1   -1    0    0    0  501  0.00000000000E+00  0.00000000000E+00  0.61649717943E+03  0.61649717945E+03  0.50400001928E-02 0. -1.
        1   -1    0    0  501    0  0.00000000000E+00  0.00000000000E+00 -0.13561745537E+04  0.13561745537E+04  0.50400001928E-02 0.  1.
    10030    2    1    2    0    0  0.00000000000E+00  0.00000000000E+00 -0.73967737428E+03  0.19726717332E+04  0.18287457857E+04 0.  0.
        3    1    3    3  502    0  0.41357400982E+03 -0.24409423555E+03 -0.12091855217E+04  0.13010592198E+04  0.10100000352E+00 0.  1.
       -3    1    3    3    0  502 -0.41357400982E+03  0.24409423555E+03  0.46950814740E+03  0.67161251336E+03  0.10100000352E+00 0. -1.
</event>
<event>
 5   0  0.1307832E-05  0.2839081E+04  0.7818609E-02  0.8291237E-01
        2   -1    0    0  501    0  0.00000000000E+00  0.00000000000E+00  0.14231346558E+04  0.14231346558E+04  0.25500000920E-02 0. -1.
       -2   -1    0    0    0  501  0.00000000000E+00  0.00000000000E+00 -0.14159556384E+04  0.14159556384E+04  0.25500000920E-02 0.  1.
    10030    2    1    2    0    0  0.00000000000E+00  0.00000000000E+00  0.71790174082E+01  0.28390902942E+04  0.28390812176E+04 0.  0.
        4    1    3    3  502    0  0.79640861284E+03  0.55876942989E+03 -0.10301468239E+04  0.14169312073E+04  0.12699999809E+01 0.  1.
       -4    1    3    3    0  502 -0.79640861284E+03 -0.55876942989E+03  0.10373258414E+04  0.14221590869E+04  0.12699999809E+01 0. -1.
</event>
<event>
 5   0  0.4590125E-06  0.2823607E+04  0.7818609E-02  0.8295977E-01
        3   -1    0    0  501    0  0.00000000000E+00  0.00000000000E+00  0.11819119029E+04  0.11819119072E+04  0.10100000352E+00 0. -1.
       -3   -1    0    0    0  501  0.00000000000E+00  0.00000000000E+00 -0.16864106577E+04  0.16864106607E+04  0.10100000352E+00 0.  1.
    10030    2    1    2    0    0  0.00000000000E+00  0.00000000000E+00 -0.50449875480E+03  0.28683225680E+04  0.28236067999E+04 0.  0.
        1    1    3    3  502    0 -0.85702989923E+03 -0.68908618243E+03 -0.11516225456E+04  0.15923487377E+04  0.50400001928E-02 0.  1.
       -1    1    3    3    0  502  0.85702989923E+03  0.68908618243E+03  0.64712379077E+03  0.12759738303E+04  0.50400001928E-02 0. -1.
</event>
<event>
 5   0  0.1307832E-05  0.2945907E+04  0.7818609E-02  0.8259348E-01
       -2   -1    0    0    0  501  0.00000000000E+00  0.00000000000E+00  0.10672784334E+04  0.10672784334E+04  0.25500000920E-02 0. -1.
        2   -1    0    0  501    0  0.00000000000E+00  0.00000000000E+00 -0.20328269270E+04  0.20328269270E+04  0.25500000920E-02 0.  1.
    10030    2    1    2    0    0  0.00000000000E+00  0.00000000000E+00 -0.96554849357E+03  0.31001053604E+04  0.29459072206E+04 0.  0.
        4    1    3    3  502    0  0.18708857281E+03 -0.35009170824E+03 -0.19754793216E+04  0.20149656328E+04  0.12699999809E+01 0.  1.
       -4    1    3    3    0  502 -0.18708857281E+03  0.35009170824E+03  0.10099308280E+04  0.10851397277E+04  0.12699999809E+01 0. -1.
</event>
<event>
 5   0  0.1339837E-05  0.2858971E+04  0.7818609E-02  0.8285190E-01
        2   -1    0    0  501    0  0.00000000000E+00  0.00000000000E+00  0.16775370564E+04  0.16775370564E+04  0.25500000920E-02 0. -1.
       -2   -1    0    0    0  501  0.00000000000E+00  0.00000000000E+00 -0.12181125286E+04  0.12181125286E+04  0.25500000920E-02 0.  1.
    10030    2    1    2    0    0  0.00000000000E+00  0.00000000000E+00  0.45942452789E+03  0.28956495850E+04  0.28589710775E+04 0.  0.
        5    1    3    3  502    0 -0.90945098344E+03  0.95587894656E+03  0.78686150077E+03  0.15362222376E+04  0.46999998093E+01 0.  1.
       -5    1    3    3    0  502  0.90945098344E+03 -0.95587894656E+03 -0.32743697288E+03  0.13594273474E+04  0.46999998093E+01 0. -1.
</event>
<event>
 5   0  0.1382803E-05  0.2583932E+04  0.7818609E-02  0.8373680E-01
       -2   -1    0    0    0  501  0.00000000000E+00  0.00000000000E+00  0.12186636689E+04  0.12186636689E+04  0.25500000920E-02 0.  1.
        2   -1    0    0  501    0  0.00000000000E+00  0.00000000000E+00 -0.13696773241E+04  0.13696773241E+04  0.25500000920E-02 0. -1.
    10030    2    1    2    0    0  0.00000000000E+00  0.00000000000E+00 -0.15101365515E+03  0.25883409930E+04  0.25839318823E+04 0.  0.
        2    1    3    3  502    0 -0.10578663900E+04 -0.24596474249E+03  0.62539852716E+03  0.12532770131E+04  0.25500000920E-02 0.  1.
       -2    1    3    3    0  502  0.10578663900E+04  0.24596474249E+03 -0.77641218231E+03  0.13350639800E+04  0.25500000920E-02 0. -1.
</event>
<event>
 5   0  0.1385669E-05  0.2973284E+04  0.7818609E-02  0.8251401E-01
        2   -1    0    0  501    0  0.00000000000E+00  0.00000000000E+00  0.21619840485E+04  0.21619840485E+04  0.25500000920E-02 0.  1.
       -2   -1    0    0    0  501  0.00000000000E+00  0.00000000000E+00 -0.10222572349E+04  0.10222572350E+04  0.25500000920E-02 0. -1.
    10030    2    1    2    0    0  0.00000000000E+00  0.00000000000E+00  0.11397268136E+04  0.31842412835E+04  0.29732835959E+04 0.  0.
        3    1    3    3  502    0 -0.16433464101E+03 -0.76039659465E+03  0.19265918872E+04  0.20777307730E+04  0.10100000352E+00 0.  1.
       -3    1    3    3    0  502  0.16433464101E+03  0.76039659465E+03 -0.78686507361E+03  0.11065105104E+04  0.10100000352E+00 0. -1.
</event>
<event>
 5   0  0.1385669E-05  0.2909369E+04  0.7818609E-02  0.8270095E-01
       -2   -1    0    0    0  501  0.00000000000E+00  0.00000000000E+00  0.12085012330E+04  0.12085012330E+04  0.25500000920E-02 0.  1.
        2   -1    0    0  501    0  0.00000000000E+00  0.00000000000E+00 -0.17510181701E+04  0.17510181701E+04  0.25500000920E-02 0. -1.
    10030    2    1    2    0    0  0.00000000000E+00  0.00000000000E+00 -0.54251693708E+03  0.29595194031E+04  0.29093694283E+04 0.  0.
        3    1    3    3  502    0 -0.96321208956E+03  0.61838675443E+02 -0.13783689525E+04  0.16827069058E+04  0.10100000352E+00 0. -1.
       -3    1    3    3    0  502  0.96321208956E+03 -0.61838675443E+02  0.83585201547E+03  0.12768124973E+04  0.10100000352E+00 0.  1.
</event>
<event>
 5   0  0.1382803E-05  0.2865066E+04  0.7818609E-02  0.8283348E-01
        2   -1    0    0  501    0  0.00000000000E+00  0.00000000000E+00  0.23284184689E+04  0.23284184689E+04  0.25500000920E-02 0. -1.
       -2   -1    0    0    0  501  0.00000000000E+00  0.00000000000E+00 -0.88134939884E+03  0.88134939885E+03  0.25500000920E-02 0.  1.
    10030    2    1    2    0    0  0.00000000000E+00  0.00000000000E+00  0.14470690701E+04  0.32097678678E+04  0.28650655964E+04 0.  0.
        2    1    3    3  502    0 -0.11305479193E+03  0.12324750022E+03  0.23174434533E+04  0.23234705704E+04  0.25500000920E-02 0. -1.
       -2    1    3    3    0  502  0.11305479193E+03 -0.12324750022E+03 -0.87037438324E+03  0.88629729735E+03  0.25500000920E-02 0.  1.
</event>
<event>
 5   0  0.4590125E-06  0.2912252E+04  0.7818609E-02  0.8269242E-01
       -3   -1    0    0    0  501  0.00000000000E+00  0.00000000000E+00  0.15971334258E+04  0.15971334290E+04  0.10100000352E+00 0. -1.
        3   -1    0    0  501    0  0.00000000000E+00  0.00000000000E+00 -0.13275673871E+04  0.13275673909E+04  0.10100000352E+00 0.  1.
    10030    2    1    2    0    0  0.00000000000E+00  0.00000000000E+00  0.26956603874E+03  0.29247008199E+04  0.29122515408E+04 0.  0.
        2    1    3    3  502    0 -0.26081341492E+02 -0.11358773305E+04 -0.77982670064E+03  0.13780519691E+04  0.25500000920E-02 0.  1.
       -2    1    3    3    0  502  0.26081341492E+02  0.11358773305E+04  0.10493927394E+04  0.15466488509E+04  0.25500000920E-02 0. -1.
</event>
<event>
 5   0  0.1339837E-05  0.2909311E+04  0.7818609E-02  0.8270113E-01
        2   -1    0    0  501    0  0.00000000000E+00  0.00000000000E+00  0.21214101092E+04  0.21214101092E+04  0.25500000920E-02 0. -1.
       -2   -1    0    0    0  501  0.00000000000E+00  0.00000000000E+00 -0.99746042976E+03  0.99746042976E+03  0.25500000920E-02 0.  1.
    10030    2    1    2    0    0  0.00000000000E+00  0.00000000000E+00  0.11239496795E+04  0.31188705390E+04  0.29093110107E+04 0.  0.
        5    1    3    3  502    0 -0.25530684736E+03  0.66580450676E+03  0.19211825786E+04  0.20492539661E+04  0.46999998093E+01 0. -1.
       -5    1    3    3    0  502  0.25530684736E+03 -0.66580450676E+03 -0.79723289910E+03  0.10696165729E+04  0.46999998093E+01 0.  1.
</event>
<event>
 5   0  0.1385669E-05  0.2890012E+04  0.7818609E-02  0.8275856E-01
        2   -1    0    0  501    0  0.00000000000E+00  0.00000000000E+00  0.27926727651E+04  0.27926727651E+04  0.25500000920E-02 0. -1.
       -2   -1    0    0    0  501  0.00000000000E+00  0.00000000000E+00 -0.74768576774E+03  0.74768576775E+03  0.25500000920E-02 0.  1.
    10030    2    1    2    0    0  0.00000000000E+00  0.00000000000E+00  0.20449869973E+04  0.35403585328E+04  0.28900115435E+04 0.  0.
        3    1    3    3  502    0 -0.12305968887E+04  0.30011804124E+03  0.18743996811E+04  0.22622585431E+04  0.10100000352E+00 0. -1.
       -3    1    3    3    0  502  0.12305968887E+04 -0.30011804124E+03  0.17058731623E+03  0.12780999897E+04  0.10100000352E+00 0.  1.
</event>
<event>
 5   0  0.5002240E-06  0.2903510E+04  0.7818609E-02  0.8271834E-01
       -1   -1    0    0    0  501  0.00000000000E+00  0.00000000000E+00  0.16516693006E+04  0.16516693006E+04  0.50400001928E-02 0.  1.
        1   -1    0    0  501    0  0.00000000000E+00  0.00000000000E+00 -0.12760379751E+04  0.12760379751E+04  0.50400001928E-02 0. -1.
    10030    2    1    2    0    0  0.00000000000E+00  0.00000000000E+00  0.37563132546E+03  0.29277072757E+04  0.29035101170E+04 0.  0.
        4    1    3    3  502    0 -0.52979548159E+03 -0.12847535807E+04 -0.23558381729E+03  0.14095305472E+04  0.12699999809E+01 0. -1.
       -4    1    3    3    0  502  0.52979548159E+03  0.12847535807E+04  0.61121514275E+03  0.15181767286E+04  0.12699999809E+01 0.  1.
</event>
<event>
 5   0  0.1336899E-05  0.2943877E+04  0.7818609E-02  0.8259941E-01
        2   -1    0    0  501    0  0.00000000000E+00  0.00000000000E+00  0.26185879909E+04  0.26185879909E+04  0.25500000920E-02 0.  1.
       -2   -1    0    0    0  501  0.00000000000E+00  0.00000000000E+00 -0.82739385548E+03  0.82739385549E+03  0.25500000920E-02 0. -1.
    10030    2    1    2    0    0  0.00000000000E+00  0.00000000000E+00  0.17911941354E+04  0.34459818464E+04  0.29438774524E+04 0.  0.
        1    1    3    3  502    0  0.60863280824E+03  0.10504154644E+04 -0.78710956444E+02  0.12165533107E+04  0.50400001928E-02 0. -1.
       -1    1    3    3    0  502 -0.60863280824E+03 -0.10504154644E+04  0.18699050919E+04  0.22294285357E+04  0.50400001928E-02 0.  1.
</event>
<event>
 5   0  0.1382803E-05  0.2865029E+04  0.7818609E-02  0.8283359E-01
       -2   -1    0    0    0  501  0.00000000000E+00  0.00000000000E+00  0.15222035341E+04  0.15222035341E+04  0.25500000920E-02 0.  1.
        2   -1    0    0  501    0  0.00000000000E+00  0.00000000000E+00 -0.13481099132E+04  0.13481099132E+04  0.25500000920E-02 0. -1.
    10030    2    1    2    0    0  0.00000000000E+00  0.00000000000E+00  0.17409362091E+03  0.28703134474E+04  0.28650289173E+04 0.  0.
        2    1    3    3  502    0  0.92555685655E+03  0.96962480084E+03 -0.41912754843E+03  0.14044556422E+04  0.25500000920E-02 0. -1.
       -2    1    3    3    0  502 -0.92555685655E+03 -0.96962480084E+03  0.59322116934E+03  0.14658578051E+04  0.25500000920E-02 0.  1.
</event>
<event>
 5   0  0.5352212E-06  0.2889924E+04  0.7818609E-02  0.8275882E-01
        1   -1    0    0  501    0  0.00000000000E+00  0.00000000000E+00  0.15251806201E+04  0.15251806201E+04  0.50400001928E-02 0.  1.
       -1   -1    0    0    0  501  0.00000000000E+00  0.00000000000E+00 -0.13689625541E+04  0.13689625541E+04  0.50400001928E-02 0. -1.
    10030    2    1    2    0    0  0.00000000000E+00  0.00000000000E+00  0.15621806606E+03  0.28941431742E+04  0.28899239832E+04 0.  0.
        2    1    3    3  502    0 -0.30351213760E+02 -0.81223798921E+03 -0.11183164617E+04  0.13824917561E+04  0.25500000920E-02 0. -1.
       -2    1    3    3    0  502  0.30351213760E+02  0.81223798921E+03  0.12745345278E+04  0.15116514181E+04  0.25500000920E-02 0.  1.
</event>
<event>
 5   0  0.1339837E-05  0.2868846E+04  0.7818609E-02  0.8282208E-01
        2   -1    0    0  501    0  0.00000000000E+00  0.00000000000E+00  0.15688458121E+04  0.15688458121E+04  0.25500000920E-02 0.  1.
       -2   -1    0    0    0  501  0.00000000000E+00  0.00000000000E+00 -0.13115174639E+04  0.13115174639E+04  0.25500000920E-02 0. -1.
    10030    2    1    2    0    0  0.00000000000E+00  0.00000000000E+00  0.25732834819E+03  0.28803632760E+04  0.28688455384E+04 0.  0.
        5    1    3    3  502    0 -0.33479784333E+03 -0.57865622592E+03  0.14028589776E+04  0.15540167389E+04  0.46999998093E+01 0.  1.
       -5    1    3    3    0  502  0.33479784333E+03  0.57865622592E+03 -0.11455306294E+04  0.13263465371E+04  0.46999998093E+01 0. -1.
</event>
<event>
 5   0  0.5154476E-06  0.2953315E+04  0.7818609E-02  0.8257189E-01
       -1   -1    0    0    0  501  0.00000000000E+00  0.00000000000E+00  0.11365594518E+04  0.11365594518E+04  0.50400001928E-02 0.  1.
        1   -1    0    0  501    0  0.00000000000E+00  0.00000000000E+00 -0.19185252219E+04  0.19185252219E+04  0.50400001928E-02 0. -1.
    10030    2    1    2    0    0  0.00000000000E+00  0.00000000000E+00 -0.78196577011E+03  0.30550846738E+04  0.29533154079E+04 0.  0.
        3    1    3    3  502    0 -0.86635144206E+03  0.54795497629E+03  0.70851574842E+03  0.12461195983E+04  0.10100000352E+00 0.  1.
       -3    1    3    3    0  502  0.86635144206E+03 -0.54795497629E+03 -0.14904815185E+04  0.18089650755E+04  0.10100000352E+00 0. -1.
</event>
<event>
 5   0  0.5154476E-06  0.2899805E+04  0.7818609E-02  0.8272936E-01
       -1   -1    0    0    0  501  0.00000000000E+00  0.00000000000E+00  0.24941124392E+04  0.24941124392E+04  0.50400001928E-02 0.  1.
        1   -1    0    0  501    0  0.00000000000E+00  0.00000000000E+00 -0.84287171046E+03  0.84287171048E+03  0.50400001928E-02 0. -1.
    10030    2    1    2    0    0  0.00000000000E+00  0.00000000000E+00  0.16512407287E+04  0.33369841497E+04  0.28998046953E+04 0.  0.
        3    1    3    3  502    0 -0.99207879513E+03  0.49628553603E+03  0.19000258208E+04  0.22001404043E+04  0.10100000352E+00 0.  1.
       -3    1    3    3    0  502  0.99207879513E+03 -0.49628553603E+03 -0.24878509206E+03  0.11368437453E+04  0.10100000352E+00 0. -1.
</event>
<event>
 5   0  0.5002240E-06  0.2907100E+04  0.7818609E-02  0.8270768E-01
        1   -1    0    0  501    0  0.00000000000E+00  0.00000000000E+00  0.14696195144E+04  0.14696195145E+04  0.50400001928E-02 0.  1.
       -1   -1    0    0    0  501  0.00000000000E+00  0.00000000000E+00 -0.14376565077E+04  0.14376565077E+04  0.50400001928E-02 0. -1.
    10030    2    1    2    0    0  0.00000000000E+00  0.00000000000E+00  0.31963006783E+02  0.29072760221E+04  0.29071003139E+04 0.  0.
        4    1    3    3  502    0  0.43691590154E+01  0.12318528122E+04 -0.75563885129E+03  0.14451547070E+04  0.12699999809E+01 0. -1.
       -4    1    3    3    0  502 -0.43691590154E+01 -0.12318528122E+04  0.78760185807E+03  0.14621213152E+04  0.12699999809E+01 0.  1.
</event>
<event>
 5   0  0.1307832E-05  0.2689649E+04  0.7818609E-02  0.8338371E-01
        2   -1    0    0  501    0  0.00000000000E+00  0.00000000000E+00  0.16768550286E+04  0.16768550286E+04  0.25500000920E-02 0. -1.
       -2   -1    0    0    0  501  0.00000000000E+00  0.00000000000E+00 -0.10785390059E+04  0.10785390059E+04  0.25500000920E-02 0.  1.
    10030    2    1    2    0    0  0.00000000000E+00  0.00000000000E+00  0.59831602273E+03  0.27553940345E+04  0.26896494609E+04 0.  0.
        4    1    3    3  502    0  0.13245530921E+04  0.12520474157E+02  0.61199628805E+02  0.13260258910E+04  0.12699999809E+01 0.  1.
       -4    1    3    3    0  502 -0.13245530921E+04 -0.12520474157E+02  0.53711639392E+03  0.14293681435E+04  0.12699999809E+01 0. -1.
</event>
<event>
 5   0  0.1382803E-05  0.2265397E+04  0.7818609E-02  0.8491691E-01
       -2   -1    0    0    0  501  0.00000000000E+00  0.00000000000E+00  0.11951213217E+04  0.11951213217E+04  0.25500000920E-02 0. -1.
        2   -1    0    0  501    0  0.00000000000E+00  0.00000000000E+00 -0.10735359928E+04  0.10735359928E+04  0.25500000920E-02 0.  1.
    10030    2    1    2    0    0  0.00000000000E+00  0.00000000000E+00  0.12158532893E+03  0.22686573145E+04  0.22653968788E+04 0.  0.
        2    1    3    3  502    0  0.16024794623E+03  0.10511805717E+04  0.45166936359E+03  0.11552771151E+04  0.25500000920E-02 0.  1.
       -2    1    3    3    0  502 -0.16024794623E+03 -0.10511805717E+04 -0.33008403466E+03  0.11133801994E+04  0.25500000920E-02 0. -1.
</event>
<event>
 5   0  0.1307832E-05  0.2908723E+04  0.7818609E-02  0.8270287E-01
       -2   -1    0    0    0  501  0.00000000000E+00  0.00000000000E+00  0.11805601444E+04  0.11805601444E+04  0.25500000920E-02 0. -1.
        2   -1    0    0  501    0  0.00000000000E+00  0.00000000000E+00 -0.17916641780E+04  0.17916641780E+04  0.25500000920E-02 0.  1.
    10030    2    1    2    0    0  0.00000000000E+00  0.00000000000E+00 -0.61110403360E+03  0.29722243224E+04  0.29087229642E+04 0.  0.
        4    1    3    3  502    0  0.52063088930E+03  0.12607399644E+04  0.21008713545E+03  0.13800941990E+04  0.12699999809E+01 0. -1.
       -4    1    3    3    0  502 -0.52063088930E+03 -0.12607399644E+04 -0.82119116906E+03  0.15921301234E+04  0.12699999809E+01 0.  1.
</event>
<event>
 5   0  0.1336899E-05  0.2875547E+04  0.7818609E-02  0.8280190E-01
        2   -1    0    0  501    0  0.00000000000E+00  0.00000000000E+00  0.10453870447E+04  0.10453870447E+04  0.25500000920E-02 0. -1.
       -2   -1    0    0    0  501  0.00000000000E+00  0.00000000000E+00 -0.19774417391E+04  0.19774417391E+04  0.25500000920E-02 0.  1.
    10030    2    1    2    0    0  0.00000000000E+00  0.00000000000E+00 -0.93205469440E+03  0.30228287839E+04  0.28755465399E+04 0.  0.
        1    1    3    3  502    0 -0.55533595800E+02 -0.10456272930E+04 -0.15017695447E+04  0.18307736565E+04  0.50400001928E-02 0.  1.
       -1    1    3    3    0  502  0.55533595800E+02  0.10456272930E+04  0.56971485027E+03  0.11920551274E+04  0.50400001928E-02 0. -1.
</event>
<event>
 5   0  0.1385669E-05  0.2923688E+04  0.7818609E-02  0.8265864E-01
        2   -1    0    0  501    0  0.00000000000E+00  0.00000000000E+00  0.20388160574E+04  0.20388160574E+04  0.25500000920E-02 0. -1.
       -2   -1    0    0    0  501  0.00000000000E+00  0.00000000000E+00 -0.10481513237E+04  0.10481513237E+04  0.25500000920E-02 0.  1.
    10030    2    1    2    0    0  0.00000000000E+00  0.00000000000E+00  0.99066473362E+03  0.30869673811E+04  0.29236879104E+04 0.  0.
        3    1    3    3  502    0  0.15927520947E+03 -0.10497882583E+03  0.20256182209E+04  0.20345806284E+04  0.10100000352E+00 0. -1.
       -3    1    3    3    0  502 -0.15927520947E+03  0.10497882583E+03 -0.10349534873E+04  0.10523867527E+04  0.10100000352E+00 0.  1.
</event>
<event>
 5   0  0.5059249E-06  0.2853135E+04  0.7818609E-02  0.8286959E-01
        1   -1    0    0  501    0  0.00000000000E+00  0.00000000000E+00  0.22722834757E+04  0.22722834757E+04  0.50400001928E-02 0. -1.
       -1   -1    0    0    0  501  0.00000000000E+00  0.00000000000E+00 -0.89561654179E+03  0.89561654180E+03  0.50400001928E-02 0.  1.
    10030    2    1    2    0    0  0.00000000000E+00  0.00000000000E+00  0.13766669339E+04  0.31679000175E+04  0.28531348854E+04 0.  0.
        1    1    3    3  502    0 -0.74637558813E+01  0.15611314571E+03 -0.88608185386E+03  0.89976000894E+03  0.50400001928E-02 0.  1.
       -1    1    3    3    0  502  0.74637558813E+01 -0.15611314571E+03  0.22627487878E+04  0.22681400086E+04  0.50400001928E-02 0. -1.
</event>
<event>
 5   0  0.1382803E-05  0.2367334E+04  0.7818609E-02  0.8451835E-01
        2   -1    0    0  501    0  0.00000000000E+00  0.00000000000E+00  0.19139264715E+04  0.19139264715E+04  0.25500000920E-02 0.  1.
       -2   -1    0    0    0  501  0.00000000000E+00  0.00000000000E+00 -0.73203841395E+03  0.73203841396E+03  0.25500000920E-02 0. -1.
    10030    2    1    2    0    0  0.00000000000E+00  0.00000000000E+00  0.11818880575E+04  0.26459648854E+04  0.23673341113E+04 0.  0.
        2    1    3    3  502    0 -0.91632474556E+03  0.74750331334E+03  0.53334779834E+03  0.12972556097E+04  0.25500000920E-02 0.  1.
       -2    1    3    3    0  502  0.91632474556E+03 -0.74750331334E+03  0.64854025917E+03  0.13487092758E+04  0.25500000920E-02 0. -1.
</event>
<event>
 5   0  0.5352212E-06  0.2881924E+04  0.7818609E-02  0.8278276E-01
        1   -1    0    0  501    0  0.00000000000E+00  0.00000000000E+00  0.23832927843E+04  0.23832927843E+04  0.50400001928E-02 0.  1.
       -1   -1    0    0    0  501  0.00000000000E+00  0.00000000000E+00 -0.87121973395E+03  0.87121973396E+03  0.50400001928E-02 0. -1.
    10030    2    1    2    0    0  0.00000000000E+00  0.00000000000E+00  0.15120730504E+04  0.32545125183E+04  0.28819241527E+04 0.  0.
        2    1    3    3  502    0  0.14383071388E+03  0.14266866288E+04  0.91673532692E+03  0.17019182326E+04  0.25500000920E-02 0.  1.
       -2    1    3    3    0  502 -0.14383071388E+03 -0.14266866288E+04  0.59533772348E+03  0.15525942857E+04  0.25500000920E-02 0. -1.
</event>
<event>
 5   0  0.1307832E-05  0.2931871E+04  0.7818609E-02  0.8263458E-01
        2   -1    0    0  501    0  0.00000000000E+00  0.00000000000E+00  0.17879844031E+04  0.17879844031E+04  0.25500000920E-02 0. -1.
       -2   -1    0    0    0  501  0.00000000000E+00  0.00000000000E+00 -0.12018932518E+04  0.12018932518E+04  0.25500000920E-02 0.  1.
    10030    2    1    2    0    0  0.00000000000E+00  0.00000000000E+00  0.58609115131E+03  0.29898776549E+04  0.29318706577E+04 0.  0.
        4    1    3    3  502    0  0.30606680914E+03 -0.17915289115E+03 -0.11574859542E+04  0.12105981980E+04  0.12699999809E+01 0.  1.
       -4    1    3    3    0  502 -0.30606680914E+03  0.17915289115E+03  0.17435771055E+04  0.17792794569E+04  0.12699999809E+01 0. -1.
</event>
<event>
 5   0  0.1307832E-05  0.2825321E+04  0.7818609E-02  0.8295450E-01
       -2   -1    0    0    0  501  0.00000000000E+00  0.00000000000E+00  0.13553161606E+04  0.13553161606E+04  0.25500000920E-02 0. -1.
        2   -1    0    0  501    0  0.00000000000E+00  0.00000000000E+00 -0.14724312686E+04  0.14724312686E+04  0.25500000920E-02 0.  1.
    10030    2    1    2    0    0  0.00000000000E+00  0.00000000000E+00 -0.11711510803E+03  0.28277474292E+04  0.28253211454E+04 0.  0.
        4    1    3    3  502    0  0.35658410087E+03  0.13667209942E+04 -0.35520751800E+02  0.14129196133E+04  0.12699999809E+01 0.  1.
       -4    1    3    3    0  502 -0.35658410087E+03 -0.13667209942E+04 -0.81594356228E+02  0.14148278159E+04  0.12699999809E+01 0. -1.
</event>
<event>
 5   0  0.5059249E-06  0.2896770E+04  0.7818609E-02  0.8273839E-01
       -1   -1    0    0    0  501  0.00000000000E+00  0.00000000000E+00  0.12863515117E+04  0.12863515117E+04  0.50400001928E-02 0. -1.
        1   -1    0    0  501    0  0.00000000000E+00  0.00000000000E+00 -0.16308283197E+04  0.16308283197E+04  0.50400001928E-02 0.  1.
    10030    2    1    2    0    0  0.00000000000E+00  0.00000000000E+00 -0.34447680796E+03  0.29171798314E+04  0.28967695624E+04 0.  0.
        1    1    3    3  502    0  0.42300001776E+03  0.13035720206E+04  0.29966703827E+03  0.14028646983E+04  0.50400001928E-02 0.  1.
       -1    1    3    3    0  502 -0.42300001776E+03 -0.13035720206E+04 -0.64414384623E+03  0.15143151332E+04  0.50400001928E-02 0. -1.
</event>
<event>
 5   0  0.5154476E-06  0.2976658E+04  0.7818609E-02  0.8250428E-01
        1   -1    0    0  501    0  0.00000000000E+00  0.00000000000E+00  0.13533708204E+04  0.13533708204E+04  0.50400001928E-02 0. -1.
       -1   -1    0    0    0  501  0.00000000000E+00  0.00000000000E+00 -0.16367448657E+04  0.16367448657E+04  0.50400001928E-02 0.  1.
    10030    2    1    2    0    0  0.00000000000E+00  0.00000000000E+00 -0.28337404533E+03  0.29901156861E+04  0.29766576838E+04 0.  0.
        3    1    3    3  502    0 -0.46487774580E+03  0.12571470342E+04 -0.79159960851E+03  0.15566502287E+04  0.10100000352E+00 0.  1.
       -3    1    3    3    0  502  0.46487774580E+03 -0.12571470342E+04  0.50822556318E+03  0.14334654574E+04  0.10100000352E+00 0. -1.
</event>
<event>
 5   0  0.1385669E-05  0.2886822E+04  0.7818609E-02  0.8276809E-01
       -2   -1    0    0    0  501  0.00000000000E+00  0.00000000000E+00  0.11238912196E+04  0.11238912196E+04  0.25500000920E-02 0.  1.
        2   -1    0    0  501    0  0.00000000000E+00  0.00000000000E+00 -0.18537689370E+04  0.18537689370E+04  0.25500000920E-02 0. -1.
    10030    2    1    2    0    0  0.00000000000E+00  0.00000000000E+00 -0.72987771732E+03  0.29776601566E+04  0.28868215265E+04 0.  0.
        3    1    3    3  502    0 -0.14293171199E+04  0.12931168535E+02 -0.57205566108E+03  0.15395981079E+04  0.10100000352E+00 0. -1.
       -3    1    3    3    0  502  0.14293171199E+04 -0.12931168535E+02 -0.15782205624E+03  0.14380620487E+04  0.10100000352E+00 0.  1.
</event>
<event>
 5   0  0.5261878E-06  0.2783148E+04  0.7818609E-02  0.8308520E-01
        1   -1    0    0  501    0  0.00000000000E+00  0.00000000000E+00  0.20188970413E+04  0.20188970413E+04  0.50400001928E-02 0. -1.
       -1   -1    0    0    0  501  0.00000000000E+00  0.00000000000E+00 -0.95917599584E+03  0.95917599585E+03  0.50400001928E-02 0.  1.
    10030    2    1    2    0    0  0.00000000000E+00  0.00000000000E+00  0.10597210454E+04  0.29780730371E+04  0.27831475563E+04 0.  0.
        5    1    3    3  502    0 -0.10784322804E+04 -0.28892847288E+03 -0.35895362142E+03  0.11727598382E+04  0.46999998093E+01 0.  1.
       -5    1    3    3    0  502  0.10784322804E+04  0.28892847288E+03  0.14186746669E+04  0.18053131989E+04  0.46999998093E+01 0. -1.
</event>
<event>
 5   0  0.5002240E-06  0.2834989E+04  0.7818609E-02  0.8292487E-01
       -1   -1    0    0    0  501  0.00000000000E+00  0.00000000000E+00  0.15903819614E+04  0.15903819614E+04  0.50400001928E-02 0. -1.
        1   -1    0    0  501    0  0.00000000000E+00  0.00000000000E+00 -0.12634010970E+04  0.12634010970E+04  0.50400001928E-02 0.  1.
    10030    2    1    2    0    0  0.00000000000E+00  0.00000000000E+00  0.32698086446E+03  0.28537830584E+04  0.28349887581E+04 0.  0.
        4    1    3    3  502    0  0.36731330891E+03  0.34529995618E+03  0.14970892332E+04  0.15796926636E+04  0.12699999809E+01 0. -1.
       -4    1    3    3    0  502 -0.36731330891E+03 -0.34529995618E+03 -0.11701083687E+04  0.12740903948E+04  0.12699999809E+01 0.  1.
</event>
<event>
 5   0  0.1307832E-05  0.2936052E+04  0.7818609E-02  0.8262231E-01
        2   -1    0    0  501    0  0.00000000000E+00  0.00000000000E+00  0.18272830055E+04  0.18272830055E+04  0.25500000920E-02 0.  1.
       -2   -1    0    0    0  501  0.00000000000E+00  0.00000000000E+00 -0.11794016664E+04  0.11794016664E+04  0.25500000920E-02 0. -1.
    10030    2    1    2    0    0  0.00000000000E+00  0.00000000000E+00  0.64788133909E+03  0.30066846719E+04  0.29360521941E+04 0.  0.
        4    1    3    3  502    0 -0.23466191723E+03 -0.88207091968E+01 -0.11600429418E+04  0.11835730903E+04  0.12699999809E+01 0. -1.
       -4    1    3    3    0  502  0.23466191723E+03  0.88207091968E+01  0.18079242809E+04  0.18231115815E+04  0.12699999809E+01 0.  1.
</event>
<event>
 5   0  0.1336899E-05  0.2863058E+04  0.7818609E-02  0.8283954E-01
       -2   -1    0    0    0  501  0.00000000000E+00  0.00000000000E+00  0.12212197043E+04  0.12212197043E+04  0.25500000920E-02 0. -1.
        2   -1    0    0  501    0  0.00000000000E+00  0.00000000000E+00 -0.16780563300E+04  0.16780563300E+04  0.25500000920E-02 0.  1.
    10030    2    1    2    0    0  0.00000000000E+00  0.00000000000E+00 -0.45683662569E+03  0.28992760343E+04  0.28630581239E+04 0.  0.
        1    1    3    3  502    0 -0.57336531859E+03  0.65751812031E+03  0.92092729783E+03  0.12685365407E+04  0.50400001928E-02 0. -1.
       -1    1    3    3    0  502  0.57336531859E+03 -0.65751812031E+03 -0.13777639235E+04  0.16307394936E+04  0.50400001928E-02 0.  1.
</event>
<event>
 5   0  0.5352212E-06  0.2835792E+04  0.7818609E-02  0.8292242E-01
        1   -1    0    0  501    0  0.00000000000E+00  0.00000000000E+00  0.16197384762E+04  0.16197384762E+04  0.50400001928E-02 0.  1.
       -1   -1    0    0    0  501  0.00000000000E+00  0.00000000000E+00 -0.12412061580E+04  0.12412061580E+04  0.50400001928E-02 0. -1.
    10030    2    1    2    0    0  0.00000000000E+00  0.00000000000E+00  0.37853231816E+03  0.28609446342E+04  0.28357922145E+04 0.  0.
        2    1    3    3  502    0 -0.83640371598E+03  0.62401725733E+03  0.11577077804E+04  0.15586070763E+04  0.25500000920E-02 0.  1.
       -2    1    3    3    0  502  0.83640371598E+03 -0.62401725733E+03 -0.77917546225E+03  0.13023375578E+04  0.25500000920E-02 0. -1.
</event>
<event>
 5   0  0.1382803E-05  0.2978807E+04  0.7818609E-02  0.8249809E-01
        2   -1    0    0  501    0  0.00000000000E+00  0.00000000000E+00  0.15084866793E+04  0.15084866793E+04  0.25500000920E-02 0. -1.
       -2   -1    0    0    0  501  0.00000000000E+00  0.00000000000E+00 -0.14705613497E+04  0.14705613497E+04  0.25500000920E-02 0.  1.
    10030    2    1    2    0    0  0.00000000000E+00  0.00000000000E+00  0.37925329645E+02  0.29790480290E+04  0.29788066115E+04 0.  0.
        2    1    3    3  502    0 -0.11370847776E+04 -0.95688079276E+03 -0.79734563097E+02  0.14882675309E+04  0.25500000920E-02 0. -1.
       -2    1    3    3    0  502  0.11370847776E+04  0.95688079276E+03  0.11765989274E+03  0.14907804981E+04  0.25500000920E-02 0.  1.
</event>
<event>
 5   0  0.1336899E-05  0.2917538E+04  0.7818609E-02  0.8267678E-01
       -2   -1    0    0    0  501  0.00000000000E+00  0.00000000000E+00  0.89862185504E+03  0.89862185505E+03  0.25500000920E-02 0.  1.
        2   -1    0    0  501    0  0.00000000000E+00  0.00000000000E+00 -0.23680789366E+04  0.23680789366E+04  0.25500000920E-02 0. -1.
    10030    2    1    2    0    0  0.00000000000E+00  0.00000000000E+00 -0.14694570816E+04  0.32667007917E+04  0.29175383370E+04 0.  0.
        1    1    3    3  502    0  0.40787565977E+03  0.94142416355E+03 -0.18958317659E+04  0.21556484162E+04  0.50400001928E-02 0. -1.
       -1    1    3    3    0  502 -0.40787565977E+03 -0.94142416355E+03  0.42637468435E+03  0.11110523755E+04  0.50400001928E-02 0.  1.
</event>
<event>
 5   0  0.1385669E-05  0.3225208E+04  0.7818609E-02  0.8182191E-01
       -2   -1    0    0    0  501  0.00000000000E+00  0.00000000000E+00  0.17238816900E+04  0.17238816900E+04  0.25500000920E-02 0.  1.
        2   -1    0    0  501    0  0.00000000000E+00  0.00000000000E+00 -0.15085094235E+04  0.15085094235E+04  0.25500000920E-02 0. -1.
    10030    2    1    2    0    0  0.00000000000E+00  0.00000000000E+00  0.21537226646E+03  0.32323911135E+04  0.32252080704E+04 0.  0.
        3    1    3    3  502    0 -0.76852052102E+02 -0.10461325650E+04  0.13352373336E+04  0.16979865514E+04  0.10100000352E+00 0.  1.
       -3    1    3    3    0  502  0.76852052102E+02  0.10461325650E+04 -0.11198650671E+04  0.15344045621E+04  0.10100000352E+00 0. -1.
</event>
<event>
 5   0  0.1382803E-05  0.2880511E+04  0.7818609E-02  0.8278700E-01
       -2   -1    0    0    0  501  0.00000000000E+00  0.00000000000E+00  0.10090298565E+04  0.10090298565E+04  0.25500000920E-02 0.  1.
        2   -1    0    0  501    0  0.00000000000E+00  0.00000000000E+00 -0.20557723791E+04  0.20557723791E+04  0.25500000920E-02 0. -1.
    10030    2    1    2    0    0  0.00000000000E+00  0.00000000000E+00 -0.10467425226E+04  0.30648022356E+04  0.28805108635E+04 0.  0.
        2    1    3    3  502    0  0.11680529369E+04 -0.84223698669E+03 -0.54996867604E+03  0.15414851118E+04  0.25500000920E-02 0.  1.
       -2    1    3    3    0  502 -0.11680529369E+04  0.84223698669E+03 -0.49677384660E+03  0.15233171239E+04  0.25500000920E-02 0. -1.
</event>
<event>
 5   0  0.5261878E-06  0.2929107E+04  0.7818609E-02  0.8264270E-01
       -1   -1    0    0    0  501  0.00000000000E+00  0.00000000000E+00  0.16302335044E+04  0.16302335044E+04  0.50400001928E-02 0. -1.
        1   -1    0    0  501    0  0.00000000000E+00  0.00000000000E+00 -0.13157117144E+04  0.13157117144E+04  0.50400001928E-02 0.  1.
    10030    2    1    2    0    0  0.00000000000E+00  0.00000000000E+00  0.31452179001E+03  0.29459452188E+04  0.29291072490E+04 0.  0.
        5    1    3    3  502    0  0.44536889633E+03  0.11986562738E+04 -0.56082163778E+03  0.13963070278E+04  0.46999998093E+01 0. -1.
       -5    1    3    3    0  502 -0.44536889633E+03 -0.11986562738E+04  0.87534342780E+03  0.15496381910E+04  0.46999998093E+01 0.  1.
</event>
<event>
 5   0  0.1307832E-05  0.2737704E+04  0.7818609E-02  0.8322874E-01
        2   -1    0    0  501    0  0.00000000000E+00  0.00000000000E+00  0.18629060350E+04  0.18629060350E+04  0.25500000920E-02 0.  1.
       -2   -1    0    0    0  501  0.00000000000E+00  0.00000000000E+00 -0.10058240857E+04  0.10058240857E+04  0.25500000920E-02 0. -1.
    10030    2    1    2    0    0  0.00000000000E+00  0.00000000000E+00  0.85708194927E+03  0.28687301206E+04  0.27377039718E+04 0.  0.
        4    1    3    3  502    0 -0.33801806320E+03 -0.22234466336E+02 -0.96120865517E+03  0.10191537049E+04  0.12699999809E+01 0. -1.
       -4    1    3    3    0  502  0.33801806320E+03  0.22234466336E+02  0.18182906044E+04  0.18495764157E+04  0.12699999809E+01 0.  1.
</event>
<event>
 5   0  0.5154476E-06  0.2668528E+04  0.7818609E-02  0.8345289E-01
       -1   -1    0    0    0  501  0.00000000000E+00  0.00000000000E+00  0.88159072189E+03  0.88159072191E+03  0.50400001928E-02 0. -1.
        1   -1    0    0  501    0  0.00000000000E+00  0.00000000000E+00 -0.20193733379E+04  0.20193733379E+04  0.50400001928E-02 0.  1.
    10030    2    1    2    0    0  0.00000000000E+00  0.00000000000E+00 -0.11377826160E+04  0.29009640598E+04  0.26685282826E+04 0.  0.
        3    1    3    3  502    0 -0.93794108518E+03  0.34932183599E+03 -0.15280716799E+04  0.18266806764E+04  0.10100000352E+00 0.  1.
       -3    1    3    3    0  502  0.93794108518E+03 -0.34932183599E+03  0.39028906387E+03  0.10742833834E+04  0.10100000352E+00 0. -1.
</event>
<event>
 5   0  0.5059249E-06  0.2697602E+04  0.7818609E-02  0.8335783E-01
       -1   -1    0    0    0  501  0.00000000000E+00  0.00000000000E+00  0.10764003241E+04  0.10764003241E+04  0.50400001928E-02 0.  1.
        1   -1    0    0  501    0  0.00000000000E+00  0.00000000000E+00 -0.16901373107E+04  0.16901373107E+04  0.50400001928E-02 0. -1.
    10030    2    1    2    0    0  0.00000000000E+00  0.00000000000E+00 -0.61373698660E+03  0.27665376348E+04  0.26976021568E+04 0.  0.
        1    1    3    3  502    0 -0.12635937364E+04  0.77952371341E+02  0.17033798840E+03  0.12774039037E+04  0.50400001928E-02 0.  1.
       -1    1    3    3    0  502  0.12635937364E+04 -0.77952371341E+02 -0.78407497501E+03  0.14891337312E+04  0.50400001928E-02 0. -1.
</event>
<event>
 5   0  0.1385669E-05  0.2679721E+04  0.7818609E-02  0.8341615E-01
       -2   -1    0    0    0  501  0.00000000000E+00  0.00000000000E+00  0.94829533664E+03  0.94829533665E+03  0.25500000920E-02 0. -1.
        2   -1    0    0  501    0  0.00000000000E+00  0.00000000000E+00 -0.18931081219E+04  0.18931081219E+04  0.25500000920E-02 0.  1.
    10030    2    1    2    0    0  0.00000000000E+00  0.00000000000E+00 -0.94481278523E+03  0.28414034585E+04  0.26797205852E+04 0.  0.
        3    1    3    3  502    0  0.88248080027E+02 -0.10722773582E+04 -0.13191222354E+04  0.17022484949E+04  0.10100000352E+00 0.  1.
       -3    1    3    3    0  502 -0.88248080027E+02  0.10722773582E+04  0.37430945013E+03  0.11391549636E+04  0.10100000352E+00 0. -1.
</event>
<event>
 5   0  0.5261878E-06  0.2874856E+04  0.7818609E-02  0.8280398E-01
        1   -1    0    0  501    0  0.00000000000E+00  0.00000000000E+00  0.17697122349E+04  0.17697122349E+04  0.50400001928E-02 0. -1.
       -1   -1    0    0    0  501  0.00000000000E+00  0.00000000000E+00 -0.11675342980E+04  0.11675342980E+04  0.50400001928E-02 0.  1.
    10030    2    1    2    0    0  0.00000000000E+00  0.00000000000E+00  0.60217793689E+03  0.29372465330E+04  0.28748563317E+04 0.  0.
        5    1    3    3  502    0 -0.12728131205E+04  0.53645150513E+03  0.70764959128E+03  0.15519740626E+04  0.46999998093E+01 0.  1.
       -5    1    3    3    0  502  0.12728131205E+04 -0.53645150513E+03 -0.10547165438E+03  0.13852724703E+04  0.46999998093E+01 0. -1.
</event>
<event>
 5   0  0.5154476E-06  0.2913911E+04  0.7818609E-02  0.8268751E-01
        1   -1    0    0  501    0  0.00000000000E+00  0.00000000000E+00  0.14578251198E+04  0.14578251198E+04  0.50400001928E-02 0. -1.
       -1   -1    0    0    0  501  0.00000000000E+00  0.00000000000E+00 -0.14560859151E+04  0.14560859151E+04  0.50400001928E-02 0.  1.
    10030    2    1    2    0    0  0.00000000000E+00  0.00000000000E+00  0.17392047412E+01  0.29139110349E+04  0.29139105159E+04 0.  0.
        3    1    3    3  502    0 -0.10187939072E+03  0.64930525442E+03 -0.12994159401E+04  0.14561794255E+04  0.10100000352E+00 0.  1.
       -3    1    3    3    0  502  0.10187939072E+03 -0.64930525442E+03  0.13011551449E+04  0.14577316094E+04  0.10100000352E+00 0. -1.
</event>
<event>
 5   0  0.5002240E-06  0.2453600E+04  0.7818609E-02  0.8419705E-01
        1   -1    0    0  501    0  0.00000000000E+00  0.00000000000E+00  0.19813934878E+04  0.19813934878E+04  0.50400001928E-02 0.  1.
       -1   -1    0    0    0  501  0.00000000000E+00  0.00000000000E+00 -0.75958575942E+03  0.75958575943E+03  0.50400001928E-02 0. -1.
    10030    2    1    2    0    0  0.00000000000E+00  0.00000000000E+00  0.12218077284E+04  0.27409792472E+04  0.24536000303E+04 0.  0.
        4    1    3    3  502    0  0.71696782291E+03  0.46846244743E+03  0.15921552543E+04  0.18078882406E+04  0.12699999809E+01 0.  1.
       -4    1    3    3    0  502 -0.71696782291E+03 -0.46846244743E+03 -0.37034752596E+03  0.93309100662E+03  0.12699999809E+01 0. -1.
</event>
<event>
 5   0  0.5261878E-06  0.2900676E+04  0.7818609E-02  0.8272676E-01
        1   -1    0    0  501    0  0.00000000000E+00  0.00000000000E+00  0.23203584941E+04  0.23203584941E+04  0.50400001928E-02 0.  1.
       -1   -1    0    0    0  501  0.00000000000E+00  0.00000000000E+00 -0.90653231679E+03  0.90653231680E+03  0.50400001928E-02 0. -1.
    10030    2    1    2    0    0  0.00000000000E+00  0.00000000000E+00  0.14138261773E+04  0.32268908109E+04  0.29006757568E+04 0.  0.
        5    1    3    3  502    0  0.88912992028E+03 -0.76148888659E+03 -0.24555202917E+03  0.11961334493E+04  0.46999998093E+01 0. -1.
       -5    1    3    3    0  502 -0.88912992028E+03  0.76148888659E+03  0.16593782065E+04  0.20307573616E+04  0.46999998093E+01 0.  1.
</event>
<event>
 5   0  0.5002240E-06  0.2892216E+04  0.7818609E-02  0.8275197E-01
       -1   -1    0    0    0  501  0.00000000000E+00  0.00000000000E+00  0.82577613839E+03  0.82577613841E+03  0.50400001928E-02 0. -1.
        1   -1    0    0  501    0  0.00000000000E+00  0.00000000000E+00 -0.25324396866E+04  0.25324396867E+04  0.50400001928E-02 0.  1.
    10030    2    1    2    0    0  0.00000000000E+00  0.00000000000E+00 -0.17066635483E+04  0.33582158251E+04  0.28922159430E+04 0.  0.
        4    1    3    3  502    0  0.49317008786E+03  0.57321240167E+03 -0.22845943069E+04  0.24064833166E+04  0.12699999809E+01 0.  1.
       -4    1    3    3    0  502 -0.49317008786E+03 -0.57321240167E+03  0.57793075865E+03  0.95173250847E+03  0.12699999809E+01 0. -1.
</event>
<event>
 5   0  0.1336899E-05  0.2835010E+04  0.7818609E-02  0.8292481E-01
       -2   -1    0    0    0  501  0.00000000000E+00  0.00000000000E+00  0.95798126564E+03  0.95798126564E+03  0.25500000920E-02 0. -1.
        2   -1    0    0  501    0  0.00000000000E+00  0.00000000000E+00 -0.20974529424E+04  0.20974529424E+04  0.25500000920E-02 0.  1.
    10030    2    1    2    0    0  0.00000000000E+00  0.00000000000E+00 -0.11394716768E+04  0.30554342080E+04  0.28350101406E+04 0.  0.
        1    1    3    3  502    0  0.12675739226E+04 -0.46499961169E+02  0.11224683649E+03  0.12733833861E+04  0.50400001928E-02 0. -1.
       -1    1    3    3    0  502 -0.12675739226E+04  0.46499961169E+02 -0.12517185132E+04  0.17820508220E+04  0.50400001928E-02 0.  1.
</event>
<event>
 5   0  0.5002240E-06  0.2878900E+04  0.7818609E-02  0.8279183E-01
        1   -1    0    0  501    0  0.00000000000E+00  0.00000000000E+00  0.15703814300E+04  0.15703814300E+04  0.50400001928E-02 0. -1.
       -1   -1    0    0    0  501  0.00000000000E+00  0.00000000000E+00 -0.13194352669E+04  0.13194352669E+04  0.50400001928E-02 0.  1.
    10030    2    1    2    0    0  0.00000000000E+00  0.00000000000E+00  0.25094616306E+03  0.28898166969E+04  0.28789002353E+04 0.  0.
        4    1    3    3  502    0  0.10004227273E+04  0.79699920421E+03  0.78825069579E+03  0.15024626907E+04  0.12699999809E+01 0.  1.
       -4    1    3    3    0  502 -0.10004227273E+04 -0.79699920421E+03 -0.53730453273E+03  0.13873540062E+04  0.12699999809E+01 0. -1.
</event>
<event>
 5   0  0.1385669E-05  0.2881088E+04  0.7818609E-02  0.8278527E-01
       -2   -1    0    0    0  501  0.00000000000E+00  0.00000000000E+00  0.13294662279E+04  0.13294662279E+04  0.25500000920E-02 0.  1.
        2   -1    0    0  501    0  0.00000000000E+00  0.00000000000E+00 -0.15609023325E+04  0.15609023325E+04  0.25500000920E-02 0. -1.
    10030    2    1    2    0    0  0.00000000000E+00  0.00000000000E+00 -0.23143610462E+03  0.28903685603E+04  0.28810879445E+04 0.  0.
        3    1    3    3  502    0  0.99508963493E+03  0.34630294524E+03  0.86980973753E+03  0.13662716059E+04  0.10100000352E+00 0.  1.
       -3    1    3    3    0  502 -0.99508963493E+03 -0.34630294524E+03 -0.11012458422E+04  0.15240969544E+04  0.10100000352E+00 0. -1.
</event>
<event>
 5   0  0.1307832E-05  0.2862000E+04  0.7818609E-02  0.8284274E-01
       -2   -1    0    0    0  501  0.00000000000E+00  0.00000000000E+00  0.23882044721E+04  0.23882044721E+04  0.25500000920E-02 0. -1.
        2   -1    0    0  501    0  0.00000000000E+00  0.00000000000E+00 -0.85744774859E+03  0.85744774860E+03  0.25500000920E-02 0.  1.
    10030    2    1    2    0    0  0.00000000000E+00  0.00000000000E+00  0.15307567235E+04  0.32456522207E+04  0.28619996840E+04 0.  0.
        4    1    3    3  502    0 -0.13323912838E+04 -0.33301309911E+03  0.30950320347E+03  0.14078203377E+04  0.12699999809E+01 0. -1.
       -4    1    3    3    0  502  0.13323912838E+04  0.33301309911E+03  0.12212535200E+04  0.18378318830E+04  0.12699999809E+01 0.  1.
</event>
<event>
 5   0  0.5002240E-06  0.2351719E+04  0.7818609E-02  0.8457804E-01
       -1   -1    0    0    0  501  0.00000000000E+00  0.00000000000E+00  0.82734021878E+03  0.82734021880E+03  0.50400001928E-02 0. -1.
        1   -1    0    0  501    0  0.00000000000E+00  0.00000000000E+00 -0.16711936887E+04  0.16711936887E+04  0.50400001928E-02 0.  1.
    10030    2    1    2    0    0  0.00000000000E+00  0.00000000000E+00 -0.84385346989E+03  0.24985339075E+04  0.23517191601E+04 0.  0.
        4    1    3    3  502    0  0.60370886409E+03 -0.26264642061E+02  0.64975257645E+03  0.88731857160E+03  0.12699999809E+01 0. -1.
       -4    1    3    3    0  502 -0.60370886409E+03  0.26264642061E+02 -0.14936060463E+04  0.16112153359E+04  0.12699999809E+01 0.  1.
</event>
<event>
 5   0  0.5059249E-06  0.2873556E+04  0.7818609E-02  0.8280789E-01
       -1   -1    0    0    0  501  0.00000000000E+00  0.00000000000E+00  0.86753418709E+03  0.86753418710E+03  0.50400001928E-02 0.  1.
        1   -1    0    0  501    0  0.00000000000E+00  0.00000000000E+00 -0.23795390429E+04  0.23795390429E+04  0.50400001928E-02 0. -1.
    10030    2    1    2    0    0  0.00000000000E+00  0.00000000000E+00 -0.15120048558E+04  0.32470732300E+04  0.28735563118E+04 0.  0.
        1    1    3    3  502    0 -0.50536160242E+03  0.76858550333E+03  0.49119376935E+03  0.10427777060E+04  0.50400001928E-02 0.  1.
       -1    1    3    3    0  502  0.50536160242E+03 -0.76858550333E+03 -0.20031986252E+04  0.22042955240E+04  0.50400001928E-02 0. -1.
</event>
<event>
 5   0  0.1382803E-05  0.2909406E+04  0.7818609E-02  0.8270084E-01
        2   -1    0    0  501    0  0.00000000000E+00  0.00000000000E+00  0.14580193017E+04  0.14580193017E+04  0.25500000920E-02 0. -1.
       -2   -1    0    0    0  501  0.00000000000E+00  0.00000000000E+00 -0.14513943967E+04  0.14513943967E+04  0.25500000920E-02 0.  1.
    10030    2    1    2    0    0  0.00000000000E+00  0.00000000000E+00  0.66249050585E+01  0.29094136984E+04  0.29094061558E+04 0.  0.
        2    1    3    3  502    0 -0.13398743876E+04 -0.20514798404E+03 -0.52471540706E+03  0.14535044989E+04  0.25500000920E-02 0. -1.
       -2    1    3    3    0  502  0.13398743876E+04  0.20514798404E+03  0.53134031212E+03  0.14559091995E+04  0.25500000920E-02 0.  1.
</event>
<event>
 5   0  0.1385669E-05  0.2880102E+04  0.7818609E-02  0.8278822E-01
        2   -1    0    0  501    0  0.00000000000E+00  0.00000000000E+00  0.16984927355E+04  0.16984927355E+04  0.25500000920E-02 0.  1.
       -2   -1    0    0    0  501  0.00000000000E+00  0.00000000000E+00 -0.12209335328E+04  0.12209335328E+04  0.25500000920E-02 0. -1.
    10030    2    1    2    0    0  0.00000000000E+00  0.00000000000E+00  0.47755920266E+03  0.29194262684E+04  0.28801018983E+04 0.  0.
        3    1    3    3  502    0 -0.65803688861E+03 -0.13066845334E+03 -0.10528476371E+04  0.12484289922E+04  0.10100000352E+00 0. -1.
       -3    1    3    3    0  502  0.65803688861E+03  0.13066845334E+03  0.15304068398E+04  0.16709972761E+04  0.10100000352E+00 0.  1.
</event>
<event>
 5   0  0.5002240E-06  0.2842915E+04  0.7818609E-02  0.8290067E-01
        1   -1    0    0  501    0  0.00000000000E+00  0.00000000000E+00  0.24245274807E+04  0.24245274807E+04  0.50400001928E-02 0.  1.
       -1   -1    0    0    0  501  0.00000000000E+00  0.00000000000E+00 -0.83337553612E+03  0.83337553614E+03  0.50400001928E-02 0. -1.
    10030    2    1    2    0    0  0.00000000000E+00  0.00000000000E+00  0.15911519446E+04  0.32579030168E+04  0.28429153270E+04 0.  0.
        4    1    3    3  502    0 -0.55936789502E+03 -0.41127879808E+03 -0.62584472948E+03  0.93473307958E+03  0.12699999809E+01 0. -1.
       -4    1    3    3    0  502  0.55936789502E+03  0.41127879808E+03  0.22169966740E+04  0.23231699372E+04  0.12699999809E+01 0.  1.
</event>
<event>
 5   0  0.5352212E-06  0.2897121E+04  0.7818609E-02  0.8273735E-01
       -1   -1    0    0    0  501  0.00000000000E+00  0.00000000000E+00  0.10639236946E+04  0.10639236946E+04  0.50400001928E-02 0. -1.
        1   -1    0    0  501    0  0.00000000000E+00  0.00000000000E+00 -0.19722538777E+04  0.19722538777E+04  0.50400001928E-02 0.  1.
    10030    2    1    2    0    0  0.00000000000E+00  0.00000000000E+00 -0.90833018313E+03  0.30361775723E+04  0.28971210760E+04 0.  0.
        2    1    3    3  502    0 -0.93134655756E+02 -0.13626829109E+04  0.51431685035E+02  0.13668299082E+04  0.25500000920E-02 0.  1.
       -2    1    3    3    0  502  0.93134655756E+02  0.13626829109E+04 -0.95976186816E+03  0.16693476640E+04  0.25500000920E-02 0. -1.
</event>
<event>
 5   0  0.5059249E-06  0.2911541E+04  0.7818609E-02  0.8269452E-01
       -1   -1    0    0    0  501  0.00000000000E+00  0.00000000000E+00  0.18104942484E+04  0.18104942484E+04  0.50400001928E-02 0.  1.
        1   -1    0    0  501    0  0.00000000000E+00  0.00000000000E+00 -0.11705461954E+04  0.11705461954E+04  0.50400001928E-02 0. -1.
    10030    2    1    2    0    0  0.00000000000E+00  0.00000000000E+00  0.63994805299E+03  0.29810404439E+04  0.29115405918E+04 0.  0.
        1    1    3    3  502    0 -0.26242863427E+03  0.14257530066E+04  0.18403914911E+03  0.14613387124E+04  0.50400001928E-02 0. -1.
       -1    1    3    3    0  502  0.26242863427E+03 -0.14257530066E+04  0.45590890388E+03  0.15197017315E+04  0.50400001928E-02 0.  1.
</event>
<event>
 5   0  0.1382803E-05  0.2903327E+04  0.7818609E-02  0.8271888E-01
        2   -1    0    0  501    0  0.00000000000E+00  0.00000000000E+00  0.14210129994E+04  0.14210129994E+04  0.25500000920E-02 0. -1.
       -2   -1    0    0    0  501  0.00000000000E+00  0.00000000000E+00 -0.14829749756E+04  0.14829749756E+04  0.25500000920E-02 0.  1.
    10030    2    1    2    0    0  0.00000000000E+00  0.00000000000E+00 -0.61961976264E+02  0.29039879750E+04  0.29033268628E+04 0.  0.
        2    1    3    3  502    0  0.61048422157E+03 -0.92905901360E+02 -0.13450549464E+04  0.14800321957E+04  0.25500000920E-02 0.  1.
       -2    1    3    3    0  502 -0.61048422157E+03  0.92905901360E+02  0.12830929702E+04  0.14239557793E+04  0.25500000920E-02 0. -1.
</event>
<event>
 5   0  0.5154476E-06  0.2889562E+04  0.7818609E-02  0.8275990E-01
       -1   -1    0    0    0  501  0.00000000000E+00  0.00000000000E+00  0.93713460096E+03  0.93713460097E+03  0.50400001928E-02 0. -1.
        1   -1    0    0  501    0  0.00000000000E+00  0.00000000000E+00 -0.22274203632E+04  0.22274203632E+04  0.50400001928E-02 0.  1.
    10030    2    1    2    0    0  0.00000000000E+00  0.00000000000E+00 -0.12902857622E+04  0.31645549641E+04  0.28895623843E+04 0.  0.
        3    1    3    3  502    0 -0.12554844188E+04  0.35975164702E+03 -0.13217847858E+04  0.18581650636E+04  0.10100000352E+00 0.  1.
       -3    1    3    3    0  502  0.12554844188E+04 -0.35975164702E+03  0.31499023614E+02  0.13063899005E+04  0.10100000352E+00 0. -1.
</event>
<event>
 5   0  0.5154476E-06  0.2651312E+04  0.7818609E-02  0.8350978E-01
       -1   -1    0    0    0  501  0.00000000000E+00  0.00000000000E+00  0.86199712860E+03  0.86199712862E+03  0.50400001928E-02 0.  1.
        1   -1    0    0  501    0  0.00000000000E+00  0.00000000000E+00 -0.20387120785E+04  0.20387120785E+04  0.50400001928E-02 0. -1.
    10030    2    1    2    0    0  0.00000000000E+00  0.00000000000E+00 -0.11767149499E+04  0.29007092071E+04  0.26513120961E+04 0.  0.
        3    1    3    3  502    0 -0.17308323251E+03  0.17198418866E+03  0.83721772787E+03  0.87204925353E+03  0.10100000352E+00 0.  1.
       -3    1    3    3    0  502  0.17308323251E+03 -0.17198418866E+03 -0.20139326778E+04  0.20286599536E+04  0.10100000352E+00 0. -1.
</event>
<event>
 5   0  0.1385669E-05  0.3174042E+04  0.7818609E-02  0.8195707E-01
        2   -1    0    0  501    0  0.00000000000E+00  0.00000000000E+00  0.23730981038E+04  0.23730981038E+04  0.25500000920E-02 0.  1.
       -2   -1    0    0    0  501  0.00000000000E+00  0.00000000000E+00 -0.10613277728E+04  0.10613277728E+04  0.25500000920E-02 0. -1.
    10030    2    1    2    0    0  0.00000000000E+00  0.00000000000E+00  0.13117703311E+04  0.34344258766E+04  0.31740415404E+04 0.  0.
        3    1    3    3  502    0  0.11682449402E+04 -0.61974443812E+03 -0.29344644771E+03  0.13546181148E+04  0.10100000352E+00 0. -1.
       -3    1    3    3    0  502 -0.11682449402E+04  0.61974443812E+03  0.16052167788E+04  0.20798077618E+04  0.10100000352E+00 0.  1.
</event>
<event>
 5   0  0.1385669E-05  0.2871384E+04  0.7818609E-02  0.8281443E-01
       -2   -1    0    0    0  501  0.00000000000E+00  0.00000000000E+00  0.90499422022E+03  0.90499422023E+03  0.25500000920E-02 0.  1.
        2   -1    0    0  501    0  0.00000000000E+00  0.00000000000E+00 -0.22775959726E+04  0.22775959726E+04  0.25500000920E-02 0. -1.
    10030    2    1    2    0    0  0.00000000000E+00  0.00000000000E+00 -0.13726017524E+04  0.31825901929E+04  0.28713837718E+04 0.  0.
        3    1    3    3  502    0 -0.11003778482E+04  0.85273141221E+03 -0.29721471561E+03  0.14234882745E+04  0.10100000352E+00 0. -1.
       -3    1    3    3    0  502  0.11003778482E+04 -0.85273141221E+03 -0.10753870368E+04  0.17591019184E+04  0.10100000352E+00 0.  1.
</event>
<event>
 5   0  0.5059249E-06  0.2769684E+04  0.7818609E-02  0.8312742E-01
       -1   -1    0    0    0  501  0.00000000000E+00  0.00000000000E+00  0.11664450631E+04  0.11664450631E+04  0.50400001928E-02 0.  1.
        1   -1    0    0  501    0  0.00000000000E+00  0.00000000000E+00 -0.16441301280E+04  0.16441301280E+04  0.50400001928E-02 0. -1.
    10030    2    1    2    0    0  0.00000000000E+00  0.00000000000E+00 -0.47768506490E+03  0.28105751911E+04  0.27696840765E+04 0.  0.
        1    1    3    3  502    0 -0.15001845515E+02 -0.60420857701E+03  0.10255443948E+04  0.11903925259E+04  0.50400001928E-02 0.  1.
       -1    1    3    3    0  502  0.15001845515E+02  0.60420857701E+03 -0.15032294598E+04  0.16201826652E+04  0.50400001928E-02 0. -1.
</event>
<event>
 5   0  0.1336899E-05  0.3389365E+04  0.7818609E-02  0.8140521E-01
        2   -1    0    0  501    0  0.00000000000E+00  0.00000000000E+00  0.97786385095E+03  0.97786385095E+03  0.25500000920E-02 0. -1.
       -2   -1    0    0    0  501  0.00000000000E+00  0.00000000000E+00 -0.29369620383E+04  0.29369620383E+04  0.25500000920E-02 0.  1.
    10030    2    1    2    0    0  0.00000000000E+00  0.00000000000E+00 -0.19590981874E+04  0.39148258893E+04  0.33893651375E+04 0.  0.
        1    1    3    3  502    0  0.38431657716E+02  0.59494973922E+02 -0.29352517127E+04  0.29361061392E+04  0.50400001928E-02 0.  1.
       -1    1    3    3    0  502 -0.38431657716E+02 -0.59494973922E+02  0.97615352526E+03  0.97871975005E+03  0.50400001928E-02 0. -1.
</event>
<event>
 5   0  0.5352212E-06  0.2951137E+04  0.7818609E-02  0.8257823E-01
        1   -1    0    0  501    0  0.00000000000E+00  0.00000000000E+00  0.12368709430E+04  0.12368709430E+04  0.50400001928E-02 0. -1.
       -1   -1    0    0    0  501  0.00000000000E+00  0.00000000000E+00 -0.17603307744E+04  0.17603307744E+04  0.50400001928E-02 0.  1.
    10030    2    1    2    0    0  0.00000000000E+00  0.00000000000E+00 -0.52345983143E+03  0.29972017174E+04  0.29511367199E+04 0.  0.
        2    1    3    3  502    0 -0.13141039088E+04  0.24203080081E+03  0.37402361584E+03  0.13875668117E+04  0.25500000920E-02 0. -1.
       -2    1    3    3    0  502  0.13141039088E+04 -0.24203080081E+03 -0.89748344727E+03  0.16096349057E+04  0.25500000920E-02 0.  1.
</event>
<event>
 5   0  0.5059249E-06  0.2792231E+04  0.7818609E-02  0.8305684E-01
       -1   -1    0    0    0  501  0.00000000000E+00  0.00000000000E+00  0.14307947533E+04  0.14307947533E+04  0.50400001928E-02 0. -1.
        1   -1    0    0  501    0  0.00000000000E+00  0.00000000000E+00 -0.13622771232E+04  0.13622771232E+04  0.50400001928E-02 0.  1.
    10030    2    1    2    0    0  0.00000000000E+00  0.00000000000E+00  0.68517630129E+02  0.27930718765E+04  0.27922313374E+04 0.  0.
        1    1    3    3  502    0 -0.44069162962E+03 -0.72240994806E+03 -0.10765049732E+04  0.13692874800E+04  0.50400001928E-02 0.  1.
       -1    1    3    3    0  502  0.44069162962E+03  0.72240994806E+03  0.11450226034E+04  0.14237843965E+04  0.50400001928E-02 0. -1.
</event>
<event>
 5   0  0.1339837E-05  0.2896854E+04  0.7818609E-02  0.8273814E-01
       -2   -1    0    0    0  501  0.00000000000E+00  0.00000000000E+00  0.12105795420E+04  0.12105795420E+04  0.25500000920E-02 0.  1.
        2   -1    0    0  501    0  0.00000000000E+00  0.00000000000E+00 -0.17330057843E+04  0.17330057843E+04  0.25500000920E-02 0. -1.
    10030    2    1    2    0    0  0.00000000000E+00  0.00000000000E+00 -0.52242624222E+03  0.29435853263E+04  0.28968543965E+04 0.  0.
        5    1    3    3  502    0  0.13439766410E+04 -0.25310022321E+03 -0.74596895341E+03  0.15578269172E+04  0.46999998093E+01 0. -1.
       -5    1    3    3    0  502 -0.13439766410E+04  0.25310022321E+03  0.22354271119E+03  0.13857584091E+04  0.46999998093E+01 0.  1.
</event>
<event>
 5   0  0.1336899E-05  0.2223408E+04  0.7818609E-02  0.8508748E-01
        2   -1    0    0  501    0  0.00000000000E+00  0.00000000000E+00  0.46615577071E+03  0.46615577072E+03  0.25500000920E-02 0.  1.
       -2   -1    0    0    0  501  0.00000000000E+00  0.00000000000E+00 -0.26512288456E+04  0.26512288456E+04  0.25500000920E-02 0. -1.
    10030    2    1    2    0    0  0.00000000000E+00  0.00000000000E+00 -0.21850730749E+04  0.31173846163E+04  0.22234078581E+04 0.  0.
        1    1    3    3  502    0  0.41268160662E+03 -0.21256534593E+03 -0.25088373918E+04  0.25514221903E+04  0.50400001928E-02 0. -1.
       -1    1    3    3    0  502 -0.41268160662E+03  0.21256534593E+03  0.32376431690E+03  0.56596242601E+03  0.50400001928E-02 0.  1.
</event>
<event>
 5   0  0.5352212E-06  0.2879820E+04  0.7818609E-02  0.8278907E-01
        1   -1    0    0  501    0  0.00000000000E+00  0.00000000000E+00  0.16067525582E+04  0.16067525582E+04  0.50400001928E-02 0. -1.
       -1   -1    0    0    0  501  0.00000000000E+00  0.00000000000E+00 -0.12903921586E+04  0.12903921586E+04  0.50400001928E-02 0.  1.
    10030    2    1    2    0    0  0.00000000000E+00  0.00000000000E+00  0.31636039954E+03  0.28971447168E+04  0.28798200652E+04 0.  0.
        2    1    3    3  502    0 -0.22014313486E+03  0.10514209868E+04  0.11227977331E+04  0.15539059948E+04  0.25500000920E-02 0.  1.
       -2    1    3    3    0  502  0.22014313486E+03 -0.10514209868E+04 -0.80643733355E+03  0.13432387220E+04  0.25500000920E-02 0. -1.
</event>
<event>
 5   0  0.5352212E-06  0.2865067E+04  0.7818609E-02  0.8283347E-01
       -1   -1    0    0    0  501  0.00000000000E+00  0.00000000000E+00  0.16602431737E+04  0.16602431737E+04  0.50400001928E-02 0. -1.
        1   -1    0    0  501    0  0.00000000000E+00  0.00000000000E+00 -0.12360555521E+04  0.12360555521E+04  0.50400001928E-02 0.  1.
    10030    2    1    2    0    0  0.00000000000E+00  0.00000000000E+00  0.42418762158E+03  0.28962987257E+04  0.28650673937E+04 0.  0.
        2    1    3    3  502    0 -0.12793797627E+04  0.99829653300E+02  0.85572427689E+03  0.15424145276E+04  0.25500000920E-02 0. -1.
       -2    1    3    3    0  502  0.12793797627E+04 -0.99829653300E+02 -0.43153665531E+03  0.13538841981E+04  0.25500000920E-02 0.  1.
</event>
<event>
 5   0  0.1382803E-05  0.2990866E+04  0.7818609E-02  0.8246344E-01
       -2   -1    0    0    0  501  0.00000000000E+00  0.00000000000E+00  0.16978897259E+04  0.16978897259E+04  0.25500000920E-02 0. -1.
        2   -1    0    0  501    0  0.00000000000E+00  0.00000000000E+00 -0.13171173968E+04  0.13171173968E+04  0.25500000920E-02 0.  1.
    10030    2    1    2    0    0  0.00000000000E+00  0.00000000000E+00  0.38077232909E+03  0.30150071226E+04  0.29908661593E+04 0.  0.
        2    1    3    3  502    0  0.11476981582E+04  0.10722238505E+03  0.11507627703E+04  0.16287917779E+04  0.25500000920E-02 0.  1.
       -2    1    3    3    0  502 -0.11476981582E+04 -0.10722238505E+03 -0.76999044124E+03  0.13862153447E+04  0.25500000920E-02 0. -1.
</event>
<event>
 5   0  0.4590125E-06  0.2911973E+04  0.7818609E-02  0.8269324E-01
        3   -1    0    0  501    0  0.00000000000E+00  0.00000000000E+00  0.13019148140E+04  0.13019148179E+04  0.10100000352E+00 0. -1.
       -3   -1    0    0    0  501  0.00000000000E+00  0.00000000000E+00 -0.16282914956E+04  0.16282914988E+04  0.10100000352E+00 0.  1.
    10030    2    1    2    0    0  0.00000000000E+00  0.00000000000E+00 -0.32637668163E+03  0.29302063167E+04  0.29119730974E+04 0.  0.
        3    1    3    3  502    0  0.87085615821E+03  0.68794729902E+03  0.78517499343E+03  0.13594711159E+04  0.10100000352E+00 0. -1.
       -3    1    3    3    0  502 -0.87085615821E+03 -0.68794729902E+03 -0.11115516751E+04  0.15707352008E+04  0.10100000352E+00 0.  1.
</event>
<event>
 5   0  0.5154476E-06  0.2947531E+04  0.7818609E-02  0.8258874E-01
       -1   -1    0    0    0  501  0.00000000000E+00  0.00000000000E+00  0.13380109309E+04  0.13380109309E+04  0.50400001928E-02 0.  1.
        1   -1    0    0  501    0  0.00000000000E+00  0.00000000000E+00 -0.16232938142E+04  0.16232938142E+04  0.50400001928E-02 0. -1.
    10030    2    1    2    0    0  0.00000000000E+00  0.00000000000E+00 -0.28528288337E+03  0.29613047451E+04  0.29475310804E+04 0.  0.
        3    1    3    3  502    0 -0.89160716801E+03  0.22135932792E+03  0.10151418362E+04  0.13691151347E+04  0.10100000352E+00 0.  1.
       -3    1    3    3    0  502  0.89160716801E+03 -0.22135932792E+03 -0.13004247196E+04  0.15921896105E+04  0.10100000352E+00 0. -1.
</event>
<event>
 5   0  0.1339837E-05  0.2455983E+04  0.7818609E-02  0.8418837E-01
        2   -1    0    0  501    0  0.00000000000E+00  0.00000000000E+00  0.62754737297E+03  0.62754737298E+03  0.25500000920E-02 0.  1.
       -2   -1    0    0    0  501  0.00000000000E+00  0.00000000000E+00 -0.24029467059E+04  0.24029467059E+04  0.25500000920E-02 0. -1.
    10030    2    1    2    0    0  0.00000000000E+00  0.00000000000E+00 -0.17753993329E+04  0.30304940789E+04  0.24559828116E+04 0.  0.
        5    1    3    3  502    0 -0.34580357806E+03 -0.20374175605E+02 -0.23413981454E+04  0.23668887991E+04  0.46999998093E+01 0. -1.
       -5    1    3    3    0  502  0.34580357806E+03  0.20374175605E+02  0.56599881252E+03  0.66360527982E+03  0.46999998093E+01 0.  1.
</event>
<event>
 5   0  0.5154476E-06  0.2733340E+04  0.7818609E-02  0.8324268E-01
        1   -1    0    0  501    0  0.00000000000E+00  0.00000000000E+00  0.16729568617E+04  0.16729568617E+04  0.50400001928E-02 0. -1.
       -1   -1    0    0    0  501  0.00000000000E+00  0.00000000000E+00 -0.11164581650E+04  0.11164581650E+04  0.50400001928E-02 0.  1.
    10030    2    1    2    0    0  0.00000000000E+00  0.00000000000E+00  0.55649869667E+03  0.27894150267E+04  0.27333396042E+04 0.  0.
        3    1    3    3  502    0 -0.10333105483E+04 -0.74223398941E+02 -0.63141088867E+03  0.12132269049E+04  0.10100000352E+00 0.  1.
       -3    1    3    3    0  502  0.10333105483E+04  0.74223398941E+02  0.11879095853E+04  0.15761881218E+04  0.10100000352E+00 0. -1.
</event>
<event>
 5   0  0.1382803E-05  0.2497267E+04  0.7818609E-02  0.8403960E-01
        2   -1    0    0  501    0  0.00000000000E+00  0.00000000000E+00  0.15882857717E+04  0.15882857717E+04  0.25500000920E-02 0. -1.
       -2   -1    0    0    0  501  0.00000000000E+00  0.00000000000E+00 -0.98161519398E+03  0.98161519398E+03  0.25500000920E-02 0.  1.
    10030    2    1    2    0    0  0.00000000000E+00  0.00000000000E+00  0.60667057771E+03  0.25699009657E+04  0.24972668627E+04 0.  0.
        2    1    3    3  502    0 -0.31986043894E+03 -0.11698688831E+04  0.60892609004E+03  0.13570905966E+04  0.25500000920E-02 0. -1.
       -2    1    3    3    0  502  0.31986043894E+03  0.11698688831E+04 -0.22555123321E+01  0.12128103691E+04  0.25500000920E-02 0.  1.
</event>
<event>
 5   0  0.1382803E-05  0.2874648E+04  0.7818609E-02  0.8280461E-01
       -2   -1    0    0    0  501  0.00000000000E+00  0.00000000000E+00  0.11957095746E+04  0.11957095746E+04  0.25500000920E-02 0. -1.
        2   -1    0    0  501    0  0.00000000000E+00  0.00000000000E+00 -0.17277610505E+04  0.17277610505E+04  0.25500000920E-02 0.  1.
    10030    2    1    2    0    0  0.00000000000E+00  0.00000000000E+00 -0.53205147582E+03  0.29234706251E+04  0.28746481042E+04 0.  0.
        2    1    3    3  502    0  0.72348783361E+03 -0.30924532153E+03  0.95724691256E+03  0.12391081332E+04  0.25500000920E-02 0. -1.
       -2    1    3    3    0  502 -0.72348783361E+03  0.30924532153E+03 -0.14892983884E+04  0.16843624918E+04  0.25500000920E-02 0.  1.
</event>
<event>
 5   0  0.5059249E-06  0.2784767E+04  0.7818609E-02  0.8308013E-01
       -1   -1    0    0    0  501  0.00000000000E+00  0.00000000000E+00  0.11092153458E+04  0.11092153458E+04  0.50400001928E-02 0.  1.
        1   -1    0    0  501    0  0.00000000000E+00  0.00000000000E+00 -0.17478401639E+04  0.17478401639E+04  0.50400001928E-02 0. -1.
    10030    2    1    2    0    0  0.00000000000E+00  0.00000000000E+00 -0.63862481819E+03  0.28570555097E+04  0.27847665121E+04 0.  0.
        1    1    3    3  502    0 -0.46787965749E+03  0.10867286826E+04  0.43380037055E+03  0.12601878292E+04  0.50400001928E-02 0. -1.
       -1    1    3    3    0  502  0.46787965749E+03 -0.10867286826E+04 -0.10724251887E+04  0.15968676805E+04  0.50400001928E-02 0.  1.
</event>
<event>
 5   0  0.1385669E-05  0.2834752E+04  0.7818609E-02  0.8292560E-01
       -2   -1    0    0    0  501  0.00000000000E+00  0.00000000000E+00  0.17975168958E+04  0.17975168958E+04  0.25500000920E-02 0.  1.
        2   -1    0    0  501    0  0.00000000000E+00  0.00000000000E+00 -0.11176274040E+04  0.11176274040E+04  0.25500000920E-02 0. -1.
    10030    2    1    2    0    0  0.00000000000E+00  0.00000000000E+00  0.67988949177E+03  0.29151442998E+04  0.28347515884E+04 0.  0.
        3    1    3    3  502    0 -0.78003193565E+03 -0.19048579300E+03  0.15410668858E+04  0.17377059057E+04  0.10100000352E+00 0.  1.
       -3    1    3    3    0  502  0.78003193565E+03  0.19048579300E+03 -0.86117739399E+03  0.11774383942E+04  0.10100000352E+00 0. -1.
</event>
<event>
 5   0  0.1382803E-05  0.3094993E+04  0.7818609E-02  0.8217113E-01
       -2   -1    0    0    0  501  0.00000000000E+00  0.00000000000E+00  0.20466132103E+04  0.20466132103E+04  0.25500000920E-02 0. -1.
        2   -1    0    0  501    0  0.00000000000E+00  0.00000000000E+00 -0.11701019037E+04  0.11701019037E+04  0.25500000920E-02 0.  1.
    10030    2    1    2    0    0  0.00000000000E+00  0.00000000000E+00  0.87651130664E+03  0.32167151140E+04  0.30949933852E+04 0.  0.
        2    1    3    3  502    0 -0.40953319927E+03 -0.91104572953E+03  0.16666981926E+04  0.19430915129E+04  0.25500000920E-02 0. -1.
       -2    1    3    3    0  502  0.40953319927E+03  0.91104572953E+03 -0.79018688591E+03  0.12736236011E+04  0.25500000920E-02 0.  1.
</event>
<event>
 5   0  0.5154476E-06  0.2802792E+04  0.7818609E-02  0.8302402E-01
       -1   -1    0    0    0  501  0.00000000000E+00  0.00000000000E+00  0.10913825984E+04  0.10913825984E+04  0.50400001928E-02 0.  1.
        1   -1    0    0  501    0  0.00000000000E+00  0.00000000000E+00 -0.17994710469E+04  0.17994710469E+04  0.50400001928E-02 0. -1.
    10030    2    1    2    0    0  0.00000000000E+00  0.00000000000E+00 -0.70808844842E+03  0.28908536453E+04  0.28027924553E+04 0.  0.
        3    1    3    3  502    0 -0.82277849413E+03 -0.98210547246E+03  0.23161272604E+03  0.13019754508E+04  0.10100000352E+00 0.  1.
       -3    1    3    3    0  502  0.82277849413E+03  0.98210547246E+03 -0.93970117446E+03  0.15888781945E+04  0.10100000352E+00 0. -1.
</event>
<event>
 5   0  0.5154476E-06  0.2879527E+04  0.7818609E-02  0.8278995E-01
       -1   -1    0    0    0  501  0.00000000000E+00  0.00000000000E+00  0.12107880133E+04  0.12107880133E+04  0.50400001928E-02 0.  1.
        1   -1    0    0  501    0  0.00000000000E+00  0.00000000000E+00 -0.17120412664E+04  0.17120412664E+04  0.50400001928E-02 0. -1.
    10030    2    1    2    0    0  0.00000000000E+00  0.00000000000E+00 -0.50125325313E+03  0.29228292797E+04  0.28795270748E+04 0.  0.
        3    1    3    3  502    0  0.50289970128E+03 -0.77240202143E+02 -0.16177455540E+04  0.16958699379E+04  0.10100000352E+00 0. -1.
       -3    1    3    3    0  502 -0.50289970128E+03  0.77240202143E+02  0.11164923009E+04  0.12269593419E+04  0.10100000352E+00 0.  1.
</event>
<event>
 5   0  0.5002240E-06  0.2871778E+04  0.7818609E-02  0.8281324E-01
       -1   -1    0    0    0  501  0.00000000000E+00  0.00000000000E+00  0.19973364841E+04  0.19973364841E+04  0.50400001928E-02 0. -1.
        1   -1    0    0  501    0  0.00000000000E+00  0.00000000000E+00 -0.10322630256E+04  0.10322630256E+04  0.50400001928E-02 0.  1.
    10030    2    1    2    0    0  0.00000000000E+00  0.00000000000E+00  0.96507345856E+03  0.30295995097E+04  0.28717775695E+04 0.  0.
        4    1    3    3  502    0 -0.12238066022E+04  0.42315834918E+03 -0.17205436133E+03  0.13062809438E+04  0.12699999809E+01 0.  1.
       -4    1    3    3    0  502  0.12238066022E+04 -0.42315834918E+03  0.11371278199E+04  0.17233185659E+04  0.12699999809E+01 0. -1.
</event>
<event>
 5   0  0.1385669E-05  0.2095597E+04  0.7818609E-02  0.8563185E-01
       -2   -1    0    0    0  501  0.00000000000E+00  0.00000000000E+00  0.15947470297E+04  0.15947470297E+04  0.25500000920E-02 0.  1.
        2   -1    0    0  501    0  0.00000000000E+00  0.00000000000E+00 -0.68843628514E+03  0.68843628514E+03  0.25500000920E-02 0. -1.
    10030    2    1    2    0    0  0.00000000000E+00  0.00000000000E+00  0.90631074457E+03  0.22831833149E+04  0.20955970232E+04 0.  0.
        3    1    3    3  502    0  0.58722010862E+03 -0.57409161423E+03 -0.25584409602E+03  0.86015396829E+03  0.10100000352E+00 0.  1.
       -3    1    3    3    0  502 -0.58722010862E+03  0.57409161423E+03  0.11621548406E+04  0.14230293466E+04  0.10100000352E+00 0. -1.
</event>
<event>
 5   0  0.1382803E-05  0.2742885E+04  0.7818609E-02  0.8321223E-01
        2   -1    0    0  501    0  0.00000000000E+00  0.00000000000E+00  0.16866282893E+04  0.16866282893E+04  0.25500000920E-02 0.  1.
       -2   -1    0    0    0  501  0.00000000000E+00  0.00000000000E+00 -0.11151567245E+04  0.11151567245E+04  0.25500000920E-02 0. -1.
    10030    2    1    2    0    0  0.00000000000E+00  0.00000000000E+00  0.57147156479E+03  0.28017850138E+04  0.27428852536E+04 0.  0.
        2    1    3    3  502    0 -0.63983320533E+03 -0.11349406713E+04 -0.15168640550E+03  0.13116728341E+04  0.25500000920E-02 0. -1.
       -2    1    3    3    0  502  0.63983320533E+03  0.11349406713E+04  0.72315797028E+03  0.14901121797E+04  0.25500000920E-02 0.  1.
</event>
<event>
 5   0  0.1307832E-05  0.2780039E+04  0.7818609E-02  0.8309492E-01
       -2   -1    0    0    0  501  0.00000000000E+00  0.00000000000E+00  0.92389315286E+03  0.92389315287E+03  0.25500000920E-02 0.  1.
        2   -1    0    0  501    0  0.00000000000E+00  0.00000000000E+00 -0.20913181010E+04  0.20913181010E+04  0.25500000920E-02 0. -1.
    10030    2    1    2    0    0  0.00000000000E+00  0.00000000000E+00 -0.11674249481E+04  0.30152112538E+04  0.27800391896E+04 0.  0.
        4    1    3    3  502    0 -0.98191724219E+03 -0.31402874225E+03 -0.15949914657E+04  0.18991511025E+04  0.12699999809E+01 0. -1.
       -4    1    3    3    0  502  0.98191724219E+03  0.31402874225E+03  0.42756651764E+03  0.11160601513E+04  0.12699999809E+01 0.  1.
</event>
<event>
 5   0  0.5352212E-06  0.2897268E+04  0.7818609E-02  0.8273691E-01
       -1   -1    0    0    0  501  0.00000000000E+00  0.00000000000E+00  0.12765806554E+04  0.12765806554E+04  0.50400001928E-02 0.  1.
        1   -1    0    0  501    0  0.00000000000E+00  0.00000000000E+00 -0.16438756407E+04  0.16438756407E+04  0.50400001928E-02 0. -1.
    10030    2    1    2    0    0  0.00000000000E+00  0.00000000000E+00 -0.36729498530E+03  0.29204562960E+04  0.28972675698E+04 0.  0.
        2    1    3    3  502    0  0.21722339895E+03  0.78550928432E+03  0.10235727143E+04  0.13084005282E+04  0.25500000920E-02 0.  1.
       -2    1    3    3    0  502 -0.21722339895E+03 -0.78550928432E+03 -0.13908676996E+04  0.16120557678E+04  0.25500000920E-02 0. -1.
</event>
<event>
 5   0  0.5261878E-06  0.2785932E+04  0.7818609E-02  0.8307649E-01
       -1   -1    0    0    0  501  0.00000000000E+00  0.00000000000E+00  0.11232618026E+04  0.11232618026E+04  0.50400001928E-02 0. -1.
        1   -1    0    0  501    0  0.00000000000E+00  0.00000000000E+00 -0.17274286681E+04  0.17274286681E+04  0.50400001928E-02 0.  1.
    10030    2    1    2    0    0  0.00000000000E+00  0.00000000000E+00 -0.60416686554E+03  0.28506904707E+04  0.27859322602E+04 0.  0.
        5    1    3    3  502    0  0.56577430856E+03  0.77904274131E+03 -0.13321226479E+04  0.16436486851E+04  0.46999998093E+01 0.  1.
       -5    1    3    3    0  502 -0.56577430856E+03 -0.77904274131E+03  0.72795578239E+03  0.12070417856E+04  0.46999998093E+01 0. -1.
</event>
<event>
 5   0  0.1336899E-05  0.2928481E+04  0.7818609E-02  0.8264454E-01
       -2   -1    0    0    0  501  0.00000000000E+00  0.00000000000E+00  0.15648930843E+04  0.15648930843E+04  0.25500000920E-02 0. -1.
        2   -1    0    0  501    0  0.00000000000E+00  0.00000000000E+00 -0.13700618955E+04  0.13700618955E+04  0.25500000920E-02 0.  1.
    10030    2    1    2    0    0  0.00000000000E+00  0.00000000000E+00  0.19483118886E+03  0.29349549798E+04  0.29284810980E+04 0.  0.
        1    1    3    3  502    0  0.10263437503E+04  0.76123365647E+03 -0.61910700467E+03  0.14199125525E+04  0.50400001928E-02 0.  1.
       -1    1    3    3    0  502 -0.10263437503E+04 -0.76123365647E+03  0.81393819353E+03  0.15150424273E+04  0.50400001928E-02 0. -1.
</event>
<event>
 5   0  0.1382803E-05  0.2876175E+04  0.7818609E-02  0.8280002E-01
       -2   -1    0    0    0  501  0.00000000000E+00  0.00000000000E+00  0.11551067175E+04  0.11551067175E+04  0.25500000920E-02 0. -1.
        2   -1    0    0  501    0  0.00000000000E+00  0.00000000000E+00 -0.17903930635E+04  0.17903930635E+04  0.25500000920E-02 0.  1.
    10030    2    1    2    0    0  0.00000000000E+00  0.00000000000E+00 -0.63528634599E+03  0.29454997809E+04  0.28761745806E+04 0.  0.
        2    1    3    3  502    0  0.18932382064E+03  0.97055637502E+03 -0.13869717034E+04  0.17033830140E+04  0.25500000920E-02 0.  1.
       -2    1    3    3    0  502 -0.18932382064E+03 -0.97055637502E+03  0.75168535745E+03  0.12421167670E+04  0.25500000920E-02 0. -1.
</event>
<event>
 5   0  0.5059249E-06  0.1826657E+04  0.7818609E-02  0.8692251E-01
       -1   -1    0    0    0  501  0.00000000000E+00  0.00000000000E+00  0.75291452740E+03  0.75291452742E+03  0.50400001928E-02 0.  1.
        1   -1    0    0  501    0  0.00000000000E+00  0.00000000000E+00 -0.11079193350E+04  0.11079193350E+04  0.50400001928E-02 0. -1.
    10030    2    1    2    0    0  0.00000000000E+00  0.00000000000E+00 -0.35500480763E+03  0.18608338625E+04  0.18266565770E+04 0.  0.
        1    1    3    3  502    0 -0.50531159746E+01  0.29452435444E+03  0.70319514407E+03  0.76239985573E+03  0.50400001928E-02 0.  1.
       -1    1    3    3    0  502  0.50531159746E+01 -0.29452435444E+03 -0.10581999517E+04  0.10984340067E+04  0.50400001928E-02 0. -1.
</event>
<event>
 5   0  0.5154476E-06  0.2786129E+04  0.7818609E-02  0.8307588E-01
       -1   -1    0    0    0  501  0.00000000000E+00  0.00000000000E+00  0.98703577271E+03  0.98703577273E+03  0.50400001928E-02 0. -1.
        1   -1    0    0  501    0  0.00000000000E+00  0.00000000000E+00 -0.19661175741E+04  0.19661175741E+04  0.50400001928E-02 0.  1.
    10030    2    1    2    0    0  0.00000000000E+00  0.00000000000E+00 -0.97908180137E+03  0.29531533468E+04  0.27861287687E+04 0.  0.
        3    1    3    3  502    0  0.11611803919E+03 -0.12926223218E+04  0.47040753032E+02  0.12986796019E+04  0.10100000352E+00 0.  1.
       -3    1    3    3    0  502 -0.11611803919E+03  0.12926223218E+04 -0.10261225544E+04  0.16544737449E+04  0.10100000352E+00 0. -1.
</event>
<event>
 5   0  0.5002240E-06  0.1954413E+04  0.7818609E-02  0.8628236E-01
       -1   -1    0    0    0  501  0.00000000000E+00  0.00000000000E+00  0.87321309917E+03  0.87321309919E+03  0.50400001928E-02 0.  1.
        1   -1    0    0  501    0  0.00000000000E+00  0.00000000000E+00 -0.10935844640E+04  0.10935844640E+04  0.50400001928E-02 0. -1.
    10030    2    1    2    0    0  0.00000000000E+00  0.00000000000E+00 -0.22037136485E+03  0.19667975632E+04  0.19544127293E+04 0.  0.
        4    1    3    3  502    0 -0.60122424611E+02  0.90887416299E+03 -0.46635460673E+03  0.10233060061E+04  0.12699999809E+01 0. -1.
       -4    1    3    3    0  502  0.60122424611E+02 -0.90887416299E+03  0.24598324187E+03  0.94349155708E+03  0.12699999809E+01 0.  1.
</event>
<event>
 5   0  0.4590125E-06  0.2035441E+04  0.7818609E-02  0.8590228E-01
        3   -1    0    0  501    0  0.00000000000E+00  0.00000000000E+00  0.18203847925E+04  0.18203847953E+04  0.10100000352E+00 0. -1.
       -3   -1    0    0    0  501  0.00000000000E+00  0.00000000000E+00 -0.56897608853E+03  0.56897609749E+03  0.10100000352E+00 0.  1.
    10030    2    1    2    0    0  0.00000000000E+00  0.00000000000E+00  0.12514087039E+04  0.23893608928E+04  0.20354414095E+04 0.  0.
        3    1    3    3  502    0  0.82581064822E+03 -0.56046625526E+03  0.39189977883E+03  0.10722271666E+04  0.10100000352E+00 0.  1.
       -3    1    3    3    0  502 -0.82581064822E+03  0.56046625526E+03  0.85950892512E+03  0.13171337261E+04  0.10100000352E+00 0. -1.
</event>
<event>
 5   0  0.5059249E-06  0.2829956E+04  0.7818609E-02  0.8294028E-01
       -1   -1    0    0    0  501  0.00000000000E+00  0.00000000000E+00  0.85781951729E+03  0.85781951731E+03  0.50400001928E-02 0.  1.
        1   -1    0    0  501    0  0.00000000000E+00  0.00000000000E+00 -0.23340133481E+04  0.23340133481E+04  0.50400001928E-02 0. -1.
    10030    2    1    2    0    0  0.00000000000E+00  0.00000000000E+00 -0.14761938308E+04  0.31918328654E+04  0.28299556206E+04 0.  0.
        1    1    3    3  502    0 -0.21364264208E+02  0.12118120253E+04  0.85496125769E+02  0.12150121004E+04  0.50400001928E-02 0. -1.
       -1    1    3    3    0  502  0.21364264208E+02 -0.12118120253E+04 -0.15616899566E+04  0.19768207650E+04  0.50400001928E-02 0.  1.
</event>
<event>
 5   0  0.1385669E-05  0.2856532E+04  0.7818609E-02  0.8285929E-01
        2   -1    0    0  501    0  0.00000000000E+00  0.00000000000E+00  0.18624147712E+04  0.18624147712E+04  0.25500000920E-02 0. -1.
       -2   -1    0    0    0  501  0.00000000000E+00  0.00000000000E+00 -0.10953216008E+04  0.10953216008E+04  0.25500000920E-02 0.  1.
    10030    2    1    2    0    0  0.00000000000E+00  0.00000000000E+00  0.76709317039E+03  0.29577363720E+04  0.28565315532E+04 0.  0.
        3    1    3    3  502    0  0.99989031944E+03  0.80390145953E+03  0.10334010902E+04  0.16474088840E+04  0.10100000352E+00 0. -1.
       -3    1    3    3    0  502 -0.99989031944E+03 -0.80390145953E+03 -0.26630791982E+03  0.13103274880E+04  0.10100000352E+00 0.  1.
</event>
<event>
 5   0  0.5352212E-06  0.2917195E+04  0.7818609E-02  0.8267780E-01
        1   -1    0    0  501    0  0.00000000000E+00  0.00000000000E+00  0.19098490757E+04  0.19098490757E+04  0.50400001928E-02 0.  1.
       -1   -1    0    0    0  501  0.00000000000E+00  0.00000000000E+00 -0.11139661011E+04  0.11139661012E+04  0.50400001928E-02 0. -1.
    10030    2    1    2    0    0  0.00000000000E+00  0.00000000000E+00  0.79588297452E+03  0.30238151768E+04  0.29171953165E+04 0.  0.
        2    1    3    3  502    0 -0.11415156337E+04  0.66372673849E+03  0.10401970030E+04  0.16809523879E+04  0.25500000920E-02 0.  1.
       -2    1    3    3    0  502  0.11415156337E+04 -0.66372673849E+03 -0.24431402845E+03  0.13428627889E+04  0.25500000920E-02 0. -1.
</event>
<event>
 5   0  0.1336899E-05  0.2847465E+04  0.7818609E-02  0.8288682E-01
        2   -1    0    0  501    0  0.00000000000E+00  0.00000000000E+00  0.18285005803E+04  0.18285005803E+04  0.25500000920E-02 0. -1.
       -2   -1    0    0    0  501  0.00000000000E+00  0.00000000000E+00 -0.11085665259E+04  0.11085665259E+04  0.25500000920E-02 0.  1.
    10030    2    1    2    0    0  0.00000000000E+00  0.00000000000E+00  0.71993405439E+03  0.29370671061E+04  0.28474652137E+04 0.  0.
        1    1    3    3  502    0  0.11801662483E+04 -0.38819643327E+03 -0.35727415797E+03  0.12927233534E+04  0.50400001928E-02 0.  1.
       -1    1    3    3    0  502 -0.11801662483E+04  0.38819643327E+03  0.10772082124E+04  0.16443437527E+04  0.50400001928E-02 0. -1.
</event>
<event>
 5   0  0.5352212E-06  0.2943826E+04  0.7818609E-02  0.8259956E-01
       -1   -1    0    0    0  501  0.00000000000E+00  0.00000000000E+00  0.10547108872E+04  0.10547108872E+04  0.50400001928E-02 0. -1.
        1   -1    0    0  501    0  0.00000000000E+00  0.00000000000E+00 -0.20541436319E+04  0.20541436319E+04  0.50400001928E-02 0.  1.
    10030    2    1    2    0    0  0.00000000000E+00  0.00000000000E+00 -0.99943274473E+03  0.31088545192E+04  0.29438258458E+04 0.  0.
        2    1    3    3  502    0 -0.20596382796E+03 -0.42892789458E+03 -0.19706850050E+04  0.20273134010E+04  0.25500000920E-02 0.  1.
       -2    1    3    3    0  502  0.20596382796E+03  0.42892789458E+03  0.97125226024E+03  0.10815411181E+04  0.25500000920E-02 0. -1.
</event>
<event>
 5   0  0.5154476E-06  0.2715014E+04  0.7818609E-02  0.8330150E-01
       -1   -1    0    0    0  501  0.00000000000E+00  0.00000000000E+00  0.61687945249E+03  0.61687945251E+03  0.50400001928E-02 0. -1.
        1   -1    0    0  501    0  0.00000000000E+00  0.00000000000E+00 -0.29873352722E+04  0.29873352722E+04  0.50400001928E-02 0.  1.
    10030    2    1    2    0    0  0.00000000000E+00  0.00000000000E+00 -0.23704558197E+04  0.36042147247E+04  0.27150143625E+04 0.  0.
        3    1    3    3  502    0  0.12690655841E+04  0.31744039741E+03 -0.16666773963E+04  0.21187518533E+04  0.10100000352E+00 0.  1.
       -3    1    3    3    0  502 -0.12690655841E+04 -0.31744039741E+03 -0.70377842344E+03  0.14854628713E+04  0.10100000352E+00 0. -1.
</event>
<event>
 5   0  0.1307832E-05  0.2872027E+04  0.7818609E-02  0.8281249E-01
       -2   -1    0    0    0  501  0.00000000000E+00  0.00000000000E+00  0.15432463070E+04  0.15432463070E+04  0.25500000920E-02 0. -1.
        2   -1    0    0  501    0  0.00000000000E+00  0.00000000000E+00 -0.13362315314E+04  0.13362315314E+04  0.25500000920E-02 0.  1.
    10030    2    1    2    0    0  0.00000000000E+00  0.00000000000E+00  0.20701477562E+03  0.28794778384E+04  0.28720267242E+04 0.  0.
        4    1    3    3  502    0  0.36383540531E+03  0.11269674637E+03  0.14916774177E+04  0.15395388563E+04  0.12699999809E+01 0. -1.
       -4    1    3    3    0  502 -0.36383540531E+03 -0.11269674637E+03 -0.12846626421E+04  0.13399389821E+04  0.12699999809E+01 0.  1.
</event>
<event>
 5   0  0.5002240E-06  0.2962012E+04  0.7818609E-02  0.8254663E-01
       -1   -1    0    0    0  501  0.00000000000E+00  0.00000000000E+00  0.14147586959E+04  0.14147586959E+04  0.50400001928E-02 0. -1.
        1   -1    0    0  501    0  0.00000000000E+00  0.00000000000E+00 -0.15503551736E+04  0.15503551736E+04  0.50400001928E-02 0.  1.
    10030    2    1    2    0    0  0.00000000000E+00  0.00000000000E+00 -0.13559647769E+03  0.29651138695E+04  0.29620117917E+04 0.  0.
        4    1    3    3  502    0 -0.12540781229E+04  0.74023130516E+03  0.20215533060E+03  0.14702117923E+04  0.12699999809E+01 0. -1.
       -4    1    3    3    0  502  0.12540781229E+04 -0.74023130516E+03 -0.33775180829E+03  0.14949020772E+04  0.12699999809E+01 0.  1.
</event>
<event>
 5   0  0.1382803E-05  0.2890671E+04  0.7818609E-02  0.8275658E-01
        2   -1    0    0  501    0  0.00000000000E+00  0.00000000000E+00  0.21616410891E+04  0.21616410891E+04  0.25500000920E-02 0. -1.
       -2   -1    0    0    0  501  0.00000000000E+00  0.00000000000E+00 -0.96639328013E+03  0.96639328013E+03  0.25500000920E-02 0.  1.
    10030    2    1    2    0    0  0.00000000000E+00  0.00000000000E+00  0.11952478090E+04  0.31280343692E+04  0.28906714947E+04 0.  0.
        2    1    3    3  502    0  0.77596703979E+03  0.91764538110E+03  0.14665532391E+04  0.18960422715E+04  0.25500000920E-02 0. -1.
       -2    1    3    3    0  502 -0.77596703979E+03 -0.91764538110E+03 -0.27130543016E+03  0.12319920977E+04  0.25500000920E-02 0.  1.
</event>
<event>
 5   0  0.5154476E-06  0.2884919E+04  0.7818609E-02  0.8277379E-01
       -1   -1    0    0    0  501  0.00000000000E+00  0.00000000000E+00  0.14575045124E+04  0.14575045124E+04  0.50400001928E-02 0.  1.
        1   -1    0    0  501    0  0.00000000000E+00  0.00000000000E+00 -0.14275700735E+04  0.14275700735E+04  0.50400001928E-02 0. -1.
    10030    2    1    2    0    0  0.00000000000E+00  0.00000000000E+00  0.29934438886E+02  0.28850745859E+04  0.28849192876E+04 0.  0.
        3    1    3    3  502    0 -0.89157530364E+03 -0.49323130319E+03  0.10360540986E+04  0.14531317029E+04  0.10100000352E+00 0.  1.
       -3    1    3    3    0  502  0.89157530364E+03  0.49323130319E+03 -0.10061196597E+04  0.14319428831E+04  0.10100000352E+00 0. -1.
</event>
<event>
 5   0  0.1385669E-05  0.2966331E+04  0.7818609E-02  0.8253411E-01
        2   -1    0    0  501    0  0.00000000000E+00  0.00000000000E+00  0.23757475769E+04  0.23757475769E+04  0.25500000920E-02 0. -1.
       -2   -1    0    0    0  501  0.00000000000E+00  0.00000000000E+00 -0.92593147359E+03  0.92593147360E+03  0.25500000920E-02 0.  1.
    10030    2    1    2    0    0  0.00000000000E+00  0.00000000000E+00  0.14498161033E+04  0.33016790505E+04  0.29663306995E+04 0.  0.
        3    1    3    3  502    0 -0.52793697162E+03 -0.46339639125E+03  0.21788473133E+04  0.22892857590E+04  0.10100000352E+00 0. -1.
       -3    1    3    3    0  502  0.52793697162E+03  0.46339639125E+03 -0.72903120997E+03  0.10123932915E+04  0.10100000352E+00 0.  1.
</event>
<event>
 5   0  0.5352212E-06  0.2814724E+04  0.7818609E-02  0.8298712E-01
       -1   -1    0    0    0  501  0.00000000000E+00  0.00000000000E+00  0.93353733762E+03  0.93353733763E+03  0.50400001928E-02 0.  1.
        1   -1    0    0  501    0  0.00000000000E+00  0.00000000000E+00 -0.21216806328E+04  0.21216806328E+04  0.50400001928E-02 0. -1.
    10030    2    1    2    0    0  0.00000000000E+00  0.00000000000E+00 -0.11881432952E+04  0.30552179704E+04  0.28147242062E+04 0.  0.
        2    1    3    3  502    0 -0.29561250930E+03 -0.88056022335E+03  0.55357148928E+03  0.10813022040E+04  0.25500000920E-02 0.  1.
       -2    1    3    3    0  502  0.29561250930E+03  0.88056022335E+03 -0.17417147845E+04  0.19739157665E+04  0.25500000920E-02 0. -1.
</event>
<event>
 5   0  0.1382803E-05  0.2955207E+04  0.7818609E-02  0.8256639E-01
        2   -1    0    0  501    0  0.00000000000E+00  0.00000000000E+00  0.21113326689E+04  0.21113326689E+04  0.25500000920E-02 0. -1.
       -2   -1    0    0    0  501  0.00000000000E+00  0.00000000000E+00 -0.10340921999E+04  0.10340921999E+04  0.25500000920E-02 0.  1.
    10030    2    1    2    0    0  0.00000000000E+00  0.00000000000E+00  0.10772404690E+04  0.31454248688E+04  0.29552073662E+04 0.  0.
        2    1    3    3  502    0  0.27110082853E+02 -0.14607891595E+04  0.30380073405E+03  0.14922917983E+04  0.25500000920E-02 0. -1.
       -2    1    3    3    0  502 -0.27110082853E+02  0.14607891595E+04  0.77343973499E+03  0.16531330705E+04  0.25500000920E-02 0.  1.
</event>
<event>
 5   0  0.1336899E-05  0.2930481E+04  0.7818609E-02  0.8263866E-01
       -2   -1    0    0    0  501  0.00000000000E+00  0.00000000000E+00  0.11088019856E+04  0.11088019856E+04  0.25500000920E-02 0. -1.
        2   -1    0    0  501    0  0.00000000000E+00  0.00000000000E+00 -0.19362605110E+04  0.19362605110E+04  0.25500000920E-02 0.  1.
    10030    2    1    2    0    0  0.00000000000E+00  0.00000000000E+00 -0.82745852544E+03  0.30450624966E+04  0.29304808474E+04 0.  0.
        1    1    3    3  502    0 -0.22595484179E+03  0.80072081485E+03 -0.16670061794E+04  0.18630939365E+04  0.50400001928E-02 0.  1.
       -1    1    3    3    0  502  0.22595484179E+03 -0.80072081485E+03  0.83954765398E+03  0.11819685602E+04  0.50400001928E-02 0. -1.
</event>
<event>
 5   0  0.5059249E-06  0.2422230E+04  0.7818609E-02  0.8431228E-01
       -1   -1    0    0    0  501  0.00000000000E+00  0.00000000000E+00  0.30671717011E+04  0.30671717011E+04  0.50400001928E-02 0. -1.
        1   -1    0    0  501    0  0.00000000000E+00  0.00000000000E+00 -0.47822545309E+03  0.47822545311E+03  0.50400001928E-02 0.  1.
    10030    2    1    2    0    0  0.00000000000E+00  0.00000000000E+00  0.25889462480E+04  0.35453971542E+04  0.24222300275E+04 0.  0.
        1    1    3    3  502    0  0.13898206377E+03 -0.11967419898E+04  0.14754754260E+04  0.19048714227E+04  0.50400001928E-02 0. -1.
       -1    1    3    3    0  502 -0.13898206377E+03  0.11967419898E+04  0.11134708220E+04  0.16405257315E+04  0.50400001928E-02 0.  1.
</event>
<event>
 5   0  0.5002240E-06  0.2059961E+04  0.7818609E-02  0.8579089E-01
        1   -1    0    0  501    0  0.00000000000E+00  0.00000000000E+00  0.21701367227E+04  0.21701367228E+04  0.50400001928E-02 0. -1.
       -1   -1    0    0    0  501  0.00000000000E+00  0.00000000000E+00 -0.48884476960E+03  0.48884476962E+03  0.50400001928E-02 0.  1.
    10030    2    1    2    0    0  0.00000000000E+00  0.00000000000E+00  0.16812919531E+04  0.26589814924E+04  0.20599611513E+04 0.  0.
        4    1    3    3  502    0 -0.23696851527E+03  0.99093316527E+03  0.10353621107E+04  0.14526110727E+04  0.12699999809E+01 0. -1.
       -4    1    3    3    0  502  0.23696851527E+03 -0.99093316527E+03  0.64592984241E+03  0.12063704197E+04  0.12699999809E+01 0.  1.
</event>
<event>
 5   0  0.1382803E-05  0.2907306E+04  0.7818609E-02  0.8270707E-01
        2   -1    0    0  501    0  0.00000000000E+00  0.00000000000E+00  0.15841237623E+04  0.15841237623E+04  0.25500000920E-02 0.  1.
       -2   -1    0    0    0  501  0.00000000000E+00  0.00000000000E+00 -0.13339280047E+04  0.13339280047E+04  0.25500000920E-02 0. -1.
    10030    2    1    2    0    0  0.00000000000E+00  0.00000000000E+00  0.25019575760E+03  0.29180517670E+04  0.29073060035E+04 0.  0.
        2    1    3    3  502    0 -0.37106453858E+03  0.10744699135E+04  0.10345000532E+04  0.15369986490E+04  0.25500000920E-02 0.  1.
       -2    1    3    3    0  502  0.37106453858E+03 -0.10744699135E+04 -0.78430429561E+03  0.13810531181E+04  0.25500000920E-02 0. -1.
</event>
<event>
 5   0  0.1307832E-05  0.2806797E+04  0.7818609E-02  0.8301161E-01
        2   -1    0    0  501    0  0.00000000000E+00  0.00000000000E+00  0.21673942324E+04  0.21673942324E+04  0.25500000920E-02 0. -1.
       -2   -1    0    0    0  501  0.00000000000E+00  0.00000000000E+00 -0.90870773314E+03  0.90870773315E+03  0.25500000920E-02 0.  1.
    10030    2    1    2    0    0  0.00000000000E+00  0.00000000000E+00  0.12586864993E+04  0.30761019656E+04  0.28067973919E+04 0.  0.
        4    1    3    3  502    0 -0.58473655928E+03  0.12384049576E+04  0.96528747868E+03  0.16755134175E+04  0.12699999809E+01 0.  1.
       -4    1    3    3    0  502  0.58473655928E+03 -0.12384049576E+04  0.29339902059E+03  0.14005885481E+04  0.12699999809E+01 0. -1.
</event>
<event>
 5   0  0.1385669E-05  0.2890804E+04  0.7818609E-02  0.8275619E-01
       -2   -1    0    0    0  501  0.00000000000E+00  0.00000000000E+00  0.85943565517E+03  0.85943565517E+03  0.25500000920E-02 0.  1.
        2   -1    0    0  501    0  0.00000000000E+00  0.00000000000E+00 -0.24308817776E+04  0.24308817776E+04  0.25500000920E-02 0. -1.
    10030    2    1    2    0    0  0.00000000000E+00  0.00000000000E+00 -0.15714461224E+04  0.32903174327E+04  0.28908036759E+04 0.  0.
        3    1    3    3  502    0  0.93243038084E+03 -0.11036715682E+04 -0.73922202375E+03  0.16229499549E+04  0.10100000352E+00 0. -1.
       -3    1    3    3    0  502 -0.93243038084E+03  0.11036715682E+04 -0.83222409865E+03  0.16673674778E+04  0.10100000352E+00 0.  1.
</event>
<event>
 5   0  0.1339837E-05  0.2725120E+04  0.7818609E-02  0.8326900E-01
        2   -1    0    0  501    0  0.00000000000E+00  0.00000000000E+00  0.16794064519E+04  0.16794064519E+04  0.25500000920E-02 0.  1.
       -2   -1    0    0    0  501  0.00000000000E+00  0.00000000000E+00 -0.11054913119E+04  0.11054913119E+04  0.25500000920E-02 0. -1.
    10030    2    1    2    0    0  0.00000000000E+00  0.00000000000E+00  0.57391514000E+03  0.27848977639E+04  0.27251196244E+04 0.  0.
        5    1    3    3  502    0 -0.39449695064E+03  0.71458057360E+03 -0.82798061923E+03  0.11626810552E+04  0.46999998093E+01 0. -1.
       -5    1    3    3    0  502  0.39449695064E+03 -0.71458057360E+03  0.14018957592E+04  0.16222167087E+04  0.46999998093E+01 0.  1.
</event>
<event>
 5   0  0.5002240E-06  0.2848168E+04  0.7818609E-02  0.8288468E-01
       -1   -1    0    0    0  501  0.00000000000E+00  0.00000000000E+00  0.10772848627E+04  0.10772848627E+04  0.50400001928E-02 0.  1.
        1   -1    0    0  501    0  0.00000000000E+00  0.00000000000E+00 -0.18825242888E+04  0.18825242888E+04  0.50400001928E-02 0. -1.
    10030    2    1    2    0    0  0.00000000000E+00  0.00000000000E+00 -0.80523942613E+03  0.29598091515E+04  0.28481677760E+04 0.  0.
        4    1    3    3  502    0 -0.87878918252E+03  0.82983529688E+03 -0.11852095249E+04  0.16928143070E+04  0.12699999809E+01 0. -1.
       -4    1    3    3    0  502  0.87878918252E+03 -0.82983529688E+03  0.37997009873E+03  0.12669948445E+04  0.12699999809E+01 0.  1.
</event>
<event>
 5   0  0.5154476E-06  0.2907521E+04  0.7818609E-02  0.8270643E-01
       -1   -1    0    0    0  501  0.00000000000E+00  0.00000000000E+00  0.10947489628E+04  0.10947489629E+04  0.50400001928E-02 0.  1.
        1   -1    0    0  501    0  0.00000000000E+00  0.00000000000E+00 -0.19305065014E+04  0.19305065014E+04  0.50400001928E-02 0. -1.
    10030    2    1    2    0    0  0.00000000000E+00  0.00000000000E+00 -0.83575753856E+03  0.30252554643E+04  0.29075212743E+04 0.  0.
        3    1    3    3  502    0 -0.12999098025E+04 -0.21592598930E+03  0.22101310923E+03  0.13361273638E+04  0.10100000352E+00 0.  1.
       -3    1    3    3    0  502  0.12999098025E+04  0.21592598930E+03 -0.10567706478E+04  0.16891281005E+04  0.10100000352E+00 0. -1.
</event>
<event>
 5   0  0.5059249E-06  0.2917441E+04  0.7818609E-02  0.8267707E-01
       -1   -1    0    0    0  501  0.00000000000E+00  0.00000000000E+00  0.19324286179E+04  0.19324286179E+04  0.50400001928E-02 0.  1.
        1   -1    0    0  501    0  0.00000000000E+00  0.00000000000E+00 -0.11011353767E+04  0.11011353767E+04  0.50400001928E-02 0. -1.
    10030    2    1    2    0    0  0.00000000000E+00  0.00000000000E+00  0.83129324117E+03  0.30335639945E+04  0.29174410116E+04 0.  0.
        1    1    3    3  502    0 -0.83854574272E+03 -0.87207118166E+03  0.12630691223E+04  0.17490027776E+04  0.50400001928E-02 0.  1.
       -1    1    3    3    0  502  0.83854574272E+03  0.87207118166E+03 -0.43177588108E+03  0.12845612169E+04  0.50400001928E-02 0. -1.
</event>
<event>
 5   0  0.1307832E-05  0.2838880E+04  0.7818609E-02  0.8291298E-01
        2   -1    0    0  501    0  0.00000000000E+00  0.00000000000E+00  0.16223740199E+04  0.16223740199E+04  0.25500000920E-02 0. -1.
       -2   -1    0    0    0  501  0.00000000000E+00  0.00000000000E+00 -0.12418896265E+04  0.12418896265E+04  0.25500000920E-02 0.  1.
    10030    2    1    2    0    0  0.00000000000E+00  0.00000000000E+00  0.38048439340E+03  0.28642636464E+04  0.28388796844E+04 0.  0.
        4    1    3    3  502    0 -0.12575113086E+04 -0.61983396868E+03  0.41421588569E+03  0.14618841448E+04  0.12699999809E+01 0. -1.
       -4    1    3    3    0  502  0.12575113086E+04  0.61983396868E+03 -0.33731492291E+02  0.14023795016E+04  0.12699999809E+01 0.  1.
</event>
<event>
 5   0  0.1307832E-05  0.2207607E+04  0.7818609E-02  0.8515268E-01
       -2   -1    0    0    0  501  0.00000000000E+00  0.00000000000E+00  0.13609111600E+04  0.13609111600E+04  0.25500000920E-02 0. -1.
        2   -1    0    0  501    0  0.00000000000E+00  0.00000000000E+00 -0.89526961930E+03  0.89526961930E+03  0.25500000920E-02 0.  1.
    10030    2    1    2    0    0  0.00000000000E+00  0.00000000000E+00  0.46564154072E+03  0.22561807793E+04  0.22076072261E+04 0.  0.
        4    1    3    3  502    0 -0.79977578603E+03  0.64810945961E+03  0.63994957183E+03  0.12121156079E+04  0.12699999809E+01 0. -1.
       -4    1    3    3    0  502  0.79977578603E+03 -0.64810945961E+03 -0.17430803111E+03  0.10440651714E+04  0.12699999809E+01 0.  1.
</event>
<event>
 5   0  0.5261878E-06  0.2936711E+04  0.7818609E-02  0.8262038E-01
        1   -1    0    0  501    0  0.00000000000E+00  0.00000000000E+00  0.12687210717E+04  0.12687210717E+04  0.50400001928E-02 0. -1.
       -1   -1    0    0    0  501  0.00000000000E+00  0.00000000000E+00 -0.16994025135E+04  0.16994025136E+04  0.50400001928E-02 0.  1.
    10030    2    1    2    0    0  0.00000000000E+00  0.00000000000E+00 -0.43068144189E+03  0.29681235852E+04  0.29367109345E+04 0.  0.
        5    1    3    3  502    0  0.41561263634E+03 -0.76128636679E+03 -0.14128156266E+04  0.16578181084E+04  0.46999998093E+01 0.  1.
       -5    1    3    3    0  502 -0.41561263634E+03  0.76128636679E+03  0.98213418473E+03  0.13103054768E+04  0.46999998093E+01 0. -1.
</event>
<event>
 5   0  0.1382803E-05  0.2831954E+04  0.7818609E-02  0.8293416E-01
        2   -1    0    0  501    0  0.00000000000E+00  0.00000000000E+00  0.23895439316E+04  0.23895439316E+04  0.25500000920E-02 0. -1.
       -2   -1    0    0    0  501  0.00000000000E+00  0.00000000000E+00 -0.83906836302E+03  0.83906836303E+03  0.25500000920E-02 0.  1.
    10030    2    1    2    0    0  0.00000000000E+00  0.00000000000E+00  0.15504755686E+04  0.32286122947E+04  0.28319538945E+04 0.  0.
        2    1    3    3  502    0  0.32033813249E+03  0.11541214871E+04 -0.85777816077E+02  0.12008208692E+04  0.25500000920E-02 0.  1.
       -2    1    3    3    0  502 -0.32033813249E+03 -0.11541214871E+04  0.16362533847E+04  0.20277914254E+04  0.25500000920E-02 0. -1.
</event>
<event>
 5   0  0.5352212E-06  0.2922543E+04  0.7818609E-02  0.8266202E-01
       -1   -1    0    0    0  501  0.00000000000E+00  0.00000000000E+00  0.27730164497E+04  0.27730164497E+04  0.50400001928E-02 0.  1.
        1   -1    0    0  501    0  0.00000000000E+00  0.00000000000E+00 -0.77003308651E+03  0.77003308653E+03  0.50400001928E-02 0. -1.
    10030    2    1    2    0    0  0.00000000000E+00  0.00000000000E+00  0.20029833632E+04  0.35430495362E+04  0.29225430130E+04 0.  0.
        2    1    3    3  502    0  0.12223957991E+04  0.52643509067E+02  0.32933145985E+02  0.12239719853E+04  0.25500000920E-02 0. -1.
       -2    1    3    3    0  502 -0.12223957991E+04 -0.52643509067E+02  0.19700502172E+04  0.23190775509E+04  0.25500000920E-02 0.  1.
</event>
<event>
 5   0  0.5154476E-06  0.2905370E+04  0.7818609E-02  0.8271282E-01
       -1   -1    0    0    0  501  0.00000000000E+00  0.00000000000E+00  0.19863721349E+04  0.19863721349E+04  0.50400001928E-02 0. -1.
        1   -1    0    0  501    0  0.00000000000E+00  0.00000000000E+00 -0.10623856281E+04  0.10623856281E+04  0.50400001928E-02 0.  1.
    10030    2    1    2    0    0  0.00000000000E+00  0.00000000000E+00  0.92398650676E+03  0.30487577630E+04  0.29053696551E+04 0.  0.
        3    1    3    3  502    0 -0.54885949280E+03  0.12566384683E+04  0.96514256029E+03  0.16768682580E+04  0.10100000352E+00 0. -1.
       -3    1    3    3    0  502  0.54885949280E+03 -0.12566384683E+04 -0.41156053530E+02  0.13718895050E+04  0.10100000352E+00 0.  1.
</event>
<event>
 5   0  0.1339837E-05  0.1996082E+04  0.7818609E-02  0.8608455E-01
        2   -1    0    0  501    0  0.00000000000E+00  0.00000000000E+00  0.13496967990E+04  0.13496967990E+04  0.25500000920E-02 0.  1.
       -2   -1    0    0    0  501  0.00000000000E+00  0.00000000000E+00 -0.73800687389E+03  0.73800687389E+03  0.25500000920E-02 0. -1.
    10030    2    1    2    0    0  0.00000000000E+00  0.00000000000E+00  0.61168992511E+03  0.20877036729E+04  0.19960816770E+04 0.  0.
        5    1    3    3  502    0  0.99449629204E+03  0.83779116136E+02  0.30098291134E+03  0.10424272723E+04  0.46999998093E+01 0.  1.
       -5    1    3    3    0  502 -0.99449629204E+03 -0.83779116136E+02  0.31070701377E+03  0.10452764006E+04  0.46999998093E+01 0. -1.
</event>
<event>
 5   0  0.1336899E-05  0.2897530E+04  0.7818609E-02  0.8273613E-01
        2   -1    0    0  501    0  0.00000000000E+00  0.00000000000E+00  0.24678119394E+04  0.24678119394E+04  0.25500000920E-02 0. -1.
       -2   -1    0    0    0  501  0.00000000000E+00  0.00000000000E+00 -0.85051852100E+03  0.85051852100E+03  0.25500000920E-02 0.  1.
    10030    2    1    2    0    0  0.00000000000E+00  0.00000000000E+00  0.16172934184E+04  0.33183304604E+04  0.28975298175E+04 0.  0.
        1    1    3    3  502    0 -0.71744446778E+02  0.58987084386E+03  0.23218318200E+04  0.23966639060E+04  0.50400001928E-02 0. -1.
       -1    1    3    3    0  502  0.71744446778E+02 -0.58987084386E+03 -0.70453840160E+03  0.92166655437E+03  0.50400001928E-02 0.  1.
</event>
<event>
 5   0  0.5002240E-06  0.3024425E+04  0.7818609E-02  0.8236790E-01
        1   -1    0    0  501    0  0.00000000000E+00  0.00000000000E+00  0.21367665360E+04  0.21367665360E+04  0.50400001928E-02 0. -1.
       -1   -1    0    0    0  501  0.00000000000E+00  0.00000000000E+00 -0.10702089893E+04  0.10702089893E+04  0.50400001928E-02 0.  1.
    10030    2    1    2    0    0  0.00000000000E+00  0.00000000000E+00  0.10665575467E+04  0.32069755253E+04  0.30244250725E+04 0.  0.
        4    1    3    3  502    0  0.45707084000E+03  0.42765140598E+03  0.19929524637E+04  0.20889376757E+04  0.12699999809E+01 0. -1.
       -4    1    3    3    0  502 -0.45707084000E+03 -0.42765140598E+03 -0.92639491701E+03  0.11180378495E+04  0.12699999809E+01 0.  1.
</event>
<event>
 5   0  0.5002240E-06  0.2922810E+04  0.7818609E-02  0.8266123E-01
       -1   -1    0    0    0  501  0.00000000000E+00  0.00000000000E+00  0.84351606828E+03  0.84351606830E+03  0.50400001928E-02 0. -1.
        1   -1    0    0  501    0  0.00000000000E+00  0.00000000000E+00 -0.25319074427E+04  0.25319074427E+04  0.50400001928E-02 0.  1.
    10030    2    1    2    0    0  0.00000000000E+00  0.00000000000E+00 -0.16883913744E+04  0.33754235110E+04  0.29228100255E+04 0.  0.
        4    1    3    3  502    0 -0.19335899550E+03  0.13909690119E+04 -0.13111923668E+04  0.19213041219E+04  0.12699999809E+01 0.  1.
       -4    1    3    3    0  502  0.19335899550E+03 -0.13909690119E+04 -0.37719900761E+03  0.14541193890E+04  0.12699999809E+01 0. -1.
</event>
<event>
 5   0  0.5154476E-06  0.2914095E+04  0.7818609E-02  0.8268696E-01
        1   -1    0    0  501    0  0.00000000000E+00  0.00000000000E+00  0.21869238754E+04  0.21869238754E+04  0.50400001928E-02 0. -1.
       -1   -1    0    0    0  501  0.00000000000E+00  0.00000000000E+00 -0.97076428642E+03  0.97076428643E+03  0.50400001928E-02 0.  1.
    10030    2    1    2    0    0  0.00000000000E+00  0.00000000000E+00  0.12161595890E+04  0.31576881619E+04  0.29140951223E+04 0.  0.
        3    1    3    3  502    0  0.12390061389E+04  0.73181833037E+03  0.36028706613E+03  0.14834085955E+04  0.10100000352E+00 0.  1.
       -3    1    3    3    0  502 -0.12390061389E+04 -0.73181833037E+03  0.85587252289E+03  0.16742795664E+04  0.10100000352E+00 0. -1.
</event>
<event>
 5   0  0.1307832E-05  0.2873768E+04  0.7818609E-02  0.8280725E-01
        2   -1    0    0  501    0  0.00000000000E+00  0.00000000000E+00  0.10083479445E+04  0.10083479445E+04  0.25500000920E-02 0. -1.
       -2   -1    0    0    0  501  0.00000000000E+00  0.00000000000E+00 -0.20475423374E+04  0.20475423374E+04  0.25500000920E-02 0.  1.
    10030    2    1    2    0    0  0.00000000000E+00  0.00000000000E+00 -0.10391943929E+04  0.30558902819E+04  0.28737676366E+04 0.  0.
        4    1    3    3  502    0  0.37151912002E+03 -0.12753746020E+04  0.62862705927E+02  0.13298722362E+04  0.12699999809E+01 0.  1.
       -4    1    3    3    0  502 -0.37151912002E+03  0.12753746020E+04 -0.11020570989E+04  0.17260180457E+04  0.12699999809E+01 0. -1.
</event>
<event>
 5   0  0.5261878E-06  0.2951715E+04  0.7818609E-02  0.8257655E-01
       -1   -1    0    0    0  501  0.00000000000E+00  0.00000000000E+00  0.10578656416E+04  0.10578656416E+04  0.50400001928E-02 0. -1.
        1   -1    0    0  501    0  0.00000000000E+00  0.00000000000E+00 -0.20590100734E+04  0.20590100734E+04  0.50400001928E-02 0.  1.
    10030    2    1    2    0    0  0.00000000000E+00  0.00000000000E+00 -0.10011444318E+04  0.31168757150E+04  0.29517154418E+04 0.  0.
        5    1    3    3  502    0 -0.89451989395E+03 -0.11413110975E+04 -0.79048315058E+03  0.16515576173E+04  0.46999998093E+01 0.  1.
       -5    1    3    3    0  502  0.89451989395E+03  0.11413110975E+04 -0.21066128117E+03  0.14653180977E+04  0.46999998093E+01 0. -1.
</event>
<event>
 5   0  0.1385669E-05  0.2912410E+04  0.7818609E-02  0.8269195E-01
        2   -1    0    0  501    0  0.00000000000E+00  0.00000000000E+00  0.18674978782E+04  0.18674978782E+04  0.25500000920E-02 0. -1.
       -2   -1    0    0    0  501  0.00000000000E+00  0.00000000000E+00 -0.11354940391E+04  0.11354940391E+04  0.25500000920E-02 0.  1.
    10030    2    1    2    0    0  0.00000000000E+00  0.00000000000E+00  0.73200383915E+03  0.30029919173E+04  0.29124097986E+04 0.  0.
        3    1    3    3  502    0  0.48220694379E+03 -0.15082492592E+03  0.17742250877E+04  0.18447618727E+04  0.10100000352E+00 0. -1.
       -3    1    3    3    0  502 -0.48220694379E+03  0.15082492592E+03 -0.10422212486E+04  0.11582300446E+04  0.10100000352E+00 0.  1.
</event>
<event>
 5   0  0.1385669E-05  0.2865353E+04  0.7818609E-02  0.8283261E-01
        2   -1    0    0  501    0  0.00000000000E+00  0.00000000000E+00  0.20061912844E+04  0.20061912844E+04  0.25500000920E-02 0. -1.
       -2   -1    0    0    0  501  0.00000000000E+00  0.00000000000E+00 -0.10231139247E+04  0.10231139247E+04  0.25500000920E-02 0.  1.
    10030    2    1    2    0    0  0.00000000000E+00  0.00000000000E+00  0.98307735975E+03  0.30293052091E+04  0.28653531989E+04 0.  0.
        3    1    3    3  502    0 -0.12455468940E+04  0.12320866740E+03 -0.24548369785E+03  0.12754723427E+04  0.10100000352E+00 0.  1.
       -3    1    3    3    0  502  0.12455468940E+04 -0.12320866740E+03  0.12285610576E+04  0.17538328664E+04  0.10100000352E+00 0. -1.
</event>
<event>
 5   0  0.5261878E-06  0.2824725E+04  0.7818609E-02  0.8295633E-01
       -1   -1    0    0    0  501  0.00000000000E+00  0.00000000000E+00  0.15014196291E+04  0.15014196292E+04  0.50400001928E-02 0.  1.
        1   -1    0    0  501    0  0.00000000000E+00  0.00000000000E+00 -0.13285879379E+04  0.13285879379E+04  0.50400001928E-02 0. -1.
    10030    2    1    2    0    0  0.00000000000E+00  0.00000000000E+00  0.17283169125E+03  0.28300075671E+04  0.28247251258E+04 0.  0.
        5    1    3    3  502    0  0.43870621042E+03  0.14994343582E+03  0.14230020494E+04  0.14966305808E+04  0.46999998093E+01 0.  1.
       -5    1    3    3    0  502 -0.43870621042E+03 -0.14994343582E+03 -0.12501703581E+04  0.13333769862E+04  0.46999998093E+01 0. -1.
</event>
<event>
 5   0  0.5261878E-06  0.2815577E+04  0.7818609E-02  0.8298449E-01
        1   -1    0    0  501    0  0.00000000000E+00  0.00000000000E+00  0.15106403432E+04  0.15106403432E+04  0.50400001928E-02 0.  1.
       -1   -1    0    0    0  501  0.00000000000E+00  0.00000000000E+00 -0.13119391035E+04  0.13119391035E+04  0.50400001928E-02 0. -1.
    10030    2    1    2    0    0  0.00000000000E+00  0.00000000000E+00  0.19870123967E+03  0.28225794467E+04  0.28155767705E+04 0.  0.
        5    1    3    3  502    0 -0.42461455662E+03 -0.83960463515E+03 -0.95044658881E+03  0.13373871067E+04  0.46999998093E+01 0. -1.
       -5    1    3    3    0  502  0.42461455662E+03  0.83960463515E+03  0.11491478285E+04  0.14851923400E+04  0.46999998093E+01 0.  1.
</event>
<event>
 5   0  0.1385669E-05  0.2763161E+04  0.7818609E-02  0.8314797E-01
       -2   -1    0    0    0  501  0.00000000000E+00  0.00000000000E+00  0.95054743380E+03  0.95054743381E+03  0.25500000920E-02 0. -1.
        2   -1    0    0  501    0  0.00000000000E+00  0.00000000000E+00 -0.20080693772E+04  0.20080693772E+04  0.25500000920E-02 0.  1.
    10030    2    1    2    0    0  0.00000000000E+00  0.00000000000E+00 -0.10575219434E+04  0.29586168110E+04  0.27631613731E+04 0.  0.
        3    1    3    3  502    0 -0.31881567359E+03  0.13209027805E+04 -0.26142494478E+03  0.13837523627E+04  0.10100000352E+00 0.  1.
       -3    1    3    3    0  502  0.31881567359E+03 -0.13209027805E+04 -0.79609699865E+03  0.15748644484E+04  0.10100000352E+00 0. -1.
</event>
<event>
 5   0  0.4590125E-06  0.2912471E+04  0.7818609E-02  0.8269177E-01
       -3   -1    0    0    0  501  0.00000000000E+00  0.00000000000E+00  0.10295419185E+04  0.10295419234E+04  0.10100000352E+00 0.  1.
        3   -1    0    0  501    0  0.00000000000E+00  0.00000000000E+00 -0.20597715620E+04  0.20597715644E+04  0.10100000352E+00 0. -1.
    10030    2    1    2    0    0  0.00000000000E+00  0.00000000000E+00 -0.10302296435E+04  0.30893134879E+04  0.29124705506E+04 0.  0.
        2    1    3    3  502    0  0.10235341974E+04 -0.72892995004E+03  0.26554861874E+03  0.12843197399E+04  0.25500000920E-02 0.  1.
       -2    1    3    3    0  502 -0.10235341974E+04  0.72892995004E+03 -0.12957782622E+04  0.18049937480E+04  0.25500000920E-02 0. -1.
</event>
<event>
 5   0  0.1382803E-05  0.2956698E+04  0.7818609E-02  0.8256205E-01
        2   -1    0    0  501    0  0.00000000000E+00  0.00000000000E+00  0.16556503502E+04  0.16556503502E+04  0.25500000920E-02 0.  1.
       -2   -1    0    0    0  501  0.00000000000E+00  0.00000000000E+00 -0.13200343969E+04  0.13200343969E+04  0.25500000920E-02 0. -1.
    10030    2    1    2    0    0  0.00000000000E+00  0.00000000000E+00  0.33561595329E+03  0.29756847470E+04  0.29566977603E+04 0.  0.
        2    1    3    3  502    0 -0.27247832220E+03  0.34009713379E+03 -0.12539224862E+04  0.13274909031E+04  0.25500000920E-02 0. -1.
       -2    1    3    3    0  502  0.27247832220E+03 -0.34009713379E+03  0.15895384395E+04  0.16481938439E+04  0.25500000920E-02 0.  1.
</event>
<event>
 5   0  0.1336899E-05  0.2929121E+04  0.7818609E-02  0.8264266E-01
        2   -1    0    0  501    0  0.00000000000E+00  0.00000000000E+00  0.17724374826E+04  0.17724374826E+04  0.25500000920E-02 0. -1.
       -2   -1    0    0    0  501  0.00000000000E+00  0.00000000000E+00 -0.12101622225E+04  0.12101622225E+04  0.25500000920E-02 0.  1.
    10030    2    1    2    0    0  0.00000000000E+00  0.00000000000E+00  0.56227526009E+03  0.29825997052E+04  0.29291206075E+04 0.  0.
        1    1    3    3  502    0 -0.42617583947E+03  0.39004064989E+03 -0.10892342638E+04  0.12329593814E+04  0.50400001928E-02 0.  1.
       -1    1    3    3    0  502  0.42617583947E+03 -0.39004064989E+03  0.16515095239E+04  0.17496403237E+04  0.50400001928E-02 0. -1.
</event>
<event>
 5   0  0.5059249E-06  0.2887867E+04  0.7818609E-02  0.8276497E-01
       -1   -1    0    0    0  501  0.00000000000E+00  0.00000000000E+00  0.95666426172E+03  0.95666426173E+03  0.50400001928E-02 0.  1.
        1   -1    0    0  501    0  0.00000000000E+00  0.00000000000E+00 -0.21793891518E+04  0.21793891519E+04  0.50400001928E-02 0. -1.
    10030    2    1    2    0    0  0.00000000000E+00  0.00000000000E+00 -0.12227248901E+04  0.31360534136E+04  0.28878668349E+04 0.  0.
        1    1    3    3  502    0  0.42955435023E+03 -0.14605411079E+03 -0.20999714881E+04  0.21484247704E+04  0.50400001928E-02 0. -1.
       -1    1    3    3    0  502 -0.42955435023E+03  0.14605411079E+03  0.87724659801E+03  0.98762864317E+03  0.50400001928E-02 0.  1.
</event>
<event>
 5   0  0.1307832E-05  0.2889881E+04  0.7818609E-02  0.8275894E-01
        2   -1    0    0  501    0  0.00000000000E+00  0.00000000000E+00  0.15550853161E+04  0.15550853161E+04  0.25500000920E-02 0.  1.
       -2   -1    0    0    0  501  0.00000000000E+00  0.00000000000E+00 -0.13425972346E+04  0.13425972346E+04  0.25500000920E-02 0. -1.
    10030    2    1    2    0    0  0.00000000000E+00  0.00000000000E+00  0.21248808152E+03  0.28976825506E+04  0.28898811359E+04 0.  0.
        4    1    3    3  502    0  0.12699536490E+04  0.63412230909E+03 -0.16459299700E+03  0.14289807000E+04  0.12699999809E+01 0. -1.
       -4    1    3    3    0  502 -0.12699536490E+04 -0.63412230909E+03  0.37708107852E+03  0.14687018506E+04  0.12699999809E+01 0.  1.
</event>
<event>
 5   0  0.1307832E-05  0.2858942E+04  0.7818609E-02  0.8285199E-01
        2   -1    0    0  501    0  0.00000000000E+00  0.00000000000E+00  0.19738450150E+04  0.19738450150E+04  0.25500000920E-02 0.  1.
       -2   -1    0    0    0  501  0.00000000000E+00  0.00000000000E+00 -0.10352319453E+04  0.10352319453E+04  0.25500000920E-02 0. -1.
    10030    2    1    2    0    0  0.00000000000E+00  0.00000000000E+00  0.93861306978E+03  0.30090769603E+04  0.28589420523E+04 0.  0.
        4    1    3    3  502    0 -0.11640202140E+04 -0.29524593765E+03 -0.34683154514E+03  0.12499627818E+04  0.12699999809E+01 0. -1.
       -4    1    3    3    0  502  0.11640202140E+04  0.29524593765E+03  0.12854446149E+04  0.17591141785E+04  0.12699999809E+01 0.  1.
</event>
<event>
 5   0  0.1385669E-05  0.2929116E+04  0.7818609E-02  0.8264267E-01
       -2   -1    0    0    0  501  0.00000000000E+00  0.00000000000E+00  0.23396651521E+04  0.23396651521E+04  0.25500000920E-02 0. -1.
        2   -1    0    0  501    0  0.00000000000E+00  0.00000000000E+00 -0.91676771678E+03  0.91676771679E+03  0.25500000920E-02 0.  1.
    10030    2    1    2    0    0  0.00000000000E+00  0.00000000000E+00  0.14228974353E+04  0.32564328689E+04  0.29291155522E+04 0.  0.
        3    1    3    3  502    0 -0.24144949534E+03  0.14421179833E+04  0.61891742136E+03  0.15877849103E+04  0.10100000352E+00 0.  1.
       -3    1    3    3    0  502  0.24144949534E+03 -0.14421179833E+04  0.80398001394E+03  0.16686479586E+04  0.10100000352E+00 0. -1.
</event>
<event>
 5   0  0.5002240E-06  0.2898461E+04  0.7818609E-02  0.8273336E-01
       -1   -1    0    0    0  501  0.00000000000E+00  0.00000000000E+00  0.92223248528E+03  0.92223248529E+03  0.50400001928E-02 0. -1.
        1   -1    0    0  501    0  0.00000000000E+00  0.00000000000E+00 -0.22773745623E+04  0.22773745623E+04  0.50400001928E-02 0.  1.
    10030    2    1    2    0    0  0.00000000000E+00  0.00000000000E+00 -0.13551420770E+04  0.31996070476E+04  0.28984608347E+04 0.  0.
        4    1    3    3  502    0  0.33565783833E+03 -0.42589556543E+03  0.80601865334E+03  0.97145298369E+03  0.12699999809E+01 0. -1.
       -4    1    3    3    0  502 -0.33565783833E+03  0.42589556543E+03 -0.21611607304E+04  0.22281540639E+04  0.12699999809E+01 0.  1.
</event>
<event>
 5   0  0.5352212E-06  0.2691445E+04  0.7818609E-02  0.8337786E-01
       -1   -1    0    0    0  501  0.00000000000E+00  0.00000000000E+00  0.96085841433E+03  0.96085841435E+03  0.50400001928E-02 0.  1.
        1   -1    0    0  501    0  0.00000000000E+00  0.00000000000E+00 -0.18847411367E+04  0.18847411367E+04  0.50400001928E-02 0. -1.
    10030    2    1    2    0    0  0.00000000000E+00  0.00000000000E+00 -0.92388272232E+03  0.28455995510E+04  0.26914452475E+04 0.  0.
        2    1    3    3  502    0 -0.62172126208E+03  0.11931198895E+04 -0.43027632291E+03  0.14125190662E+04  0.25500000920E-02 0.  1.
       -2    1    3    3    0  502  0.62172126208E+03 -0.11931198895E+04 -0.49360639941E+03  0.14330804848E+04  0.25500000920E-02 0. -1.
</event>
<event>
 5   0  0.1385669E-05  0.2890882E+04  0.7818609E-02  0.8275596E-01
        2   -1    0    0  501    0  0.00000000000E+00  0.00000000000E+00  0.17306447116E+04  0.17306447116E+04  0.25500000920E-02 0.  1.
       -2   -1    0    0    0  501  0.00000000000E+00  0.00000000000E+00 -0.12072376278E+04  0.12072376278E+04  0.25500000920E-02 0. -1.
    10030    2    1    2    0    0  0.00000000000E+00  0.00000000000E+00  0.52340708383E+03  0.29378823393E+04  0.28908818143E+04 0.  0.
        3    1    3    3  502    0  0.12193307274E+04  0.76307152745E+03  0.11707380016E+03  0.14431742319E+04  0.10100000352E+00 0. -1.
       -3    1    3    3    0  502 -0.12193307274E+04 -0.76307152745E+03  0.40633328367E+03  0.14947081074E+04  0.10100000352E+00 0.  1.
</event>
<event>
 5   0  0.1307832E-05  0.2905357E+04  0.7818609E-02  0.8271285E-01
       -2   -1    0    0    0  501  0.00000000000E+00  0.00000000000E+00  0.14728338064E+04  0.14728338064E+04  0.25500000920E-02 0.  1.
        2   -1    0    0  501    0  0.00000000000E+00  0.00000000000E+00 -0.14327994200E+04  0.14327994200E+04  0.25500000920E-02 0. -1.
    10030    2    1    2    0    0  0.00000000000E+00  0.00000000000E+00  0.40034386361E+02  0.29056332264E+04  0.29053574125E+04 0.  0.
        4    1    3    3  502    0  0.70225832286E+03 -0.65090179223E+03 -0.10725305259E+04  0.14377632757E+04  0.12699999809E+01 0. -1.
       -4    1    3    3    0  502 -0.70225832286E+03  0.65090179223E+03  0.11125649123E+04  0.14678699507E+04  0.12699999809E+01 0.  1.
</event>
<event>
 5   0  0.1307832E-05  0.2900612E+04  0.7818609E-02  0.8272695E-01
       -2   -1    0    0    0  501  0.00000000000E+00  0.00000000000E+00  0.13678526465E+04  0.13678526465E+04  0.25500000920E-02 0.  1.
        2   -1    0    0  501    0  0.00000000000E+00  0.00000000000E+00 -0.15377299905E+04  0.15377299905E+04  0.25500000920E-02 0. -1.
    10030    2    1    2    0    0  0.00000000000E+00  0.00000000000E+00 -0.16987734407E+03  0.29055826370E+04  0.29006123747E+04 0.  0.
        4    1    3    3  502    0 -0.95037297071E+03 -0.86596011302E+03  0.58724821518E+03  0.14134913441E+04  0.12699999809E+01 0.  1.
       -4    1    3    3    0  502  0.95037297071E+03  0.86596011302E+03 -0.75712555925E+03  0.14920912928E+04  0.12699999809E+01 0. -1.
</event>
<event>
 5   0  0.5154476E-06  0.2943149E+04  0.7818609E-02  0.8260154E-01
       -1   -1    0    0    0  501  0.00000000000E+00  0.00000000000E+00  0.13630802133E+04  0.13630802133E+04  0.50400001928E-02 0.  1.
        1   -1    0    0  501    0  0.00000000000E+00  0.00000000000E+00 -0.15887038957E+04  0.15887038957E+04  0.50400001928E-02 0. -1.
    10030    2    1    2    0    0  0.00000000000E+00  0.00000000000E+00 -0.22562368242E+03  0.29517841090E+04  0.29431485488E+04 0.  0.
        3    1    3    3  502    0 -0.24878984490E+03 -0.12259865378E+04  0.66444039977E+03  0.14164817093E+04  0.10100000352E+00 0.  1.
       -3    1    3    3    0  502  0.24878984490E+03  0.12259865378E+04 -0.89006408219E+03  0.15353023997E+04  0.10100000352E+00 0. -1.
</event>
<event>
 5   0  0.5059249E-06  0.2913858E+04  0.7818609E-02  0.8268766E-01
        1   -1    0    0  501    0  0.00000000000E+00  0.00000000000E+00  0.11723077251E+04  0.11723077251E+04  0.50400001928E-02 0.  1.
       -1   -1    0    0    0  501  0.00000000000E+00  0.00000000000E+00 -0.18106526624E+04  0.18106526624E+04  0.50400001928E-02 0. -1.
    10030    2    1    2    0    0  0.00000000000E+00  0.00000000000E+00 -0.63834493725E+03  0.29829603875E+04  0.29138579949E+04 0.  0.
        1    1    3    3  502    0 -0.84328771122E+03  0.79474264246E+03 -0.12232305986E+04  0.16849460315E+04  0.50400001928E-02 0. -1.
       -1    1    3    3    0  502  0.84328771122E+03 -0.79474264246E+03  0.58488566131E+03  0.12980143560E+04  0.50400001928E-02 0.  1.
</event>
<event>
 5   0  0.5352212E-06  0.2876858E+04  0.7818609E-02  0.8279796E-01
        1   -1    0    0  501    0  0.00000000000E+00  0.00000000000E+00  0.88843797238E+03  0.88843797240E+03  0.50400001928E-02 0.  1.
       -1   -1    0    0    0  501  0.00000000000E+00  0.00000000000E+00 -0.23288937437E+04  0.23288937437E+04  0.50400001928E-02 0. -1.
    10030    2    1    2    0    0  0.00000000000E+00  0.00000000000E+00 -0.14404557713E+04  0.32173317161E+04  0.28768577549E+04 0.  0.
        2    1    3    3  502    0 -0.10838179680E+04  0.94060519221E+03 -0.61020755246E+03  0.15594078275E+04  0.25500000920E-02 0.  1.
       -2    1    3    3    0  502  0.10838179680E+04 -0.94060519221E+03 -0.83024821882E+03  0.16579238886E+04  0.25500000920E-02 0. -1.
</event>
<event>
 5   0  0.1336899E-05  0.2961832E+04  0.7818609E-02  0.8254715E-01
        2   -1    0    0  501    0  0.00000000000E+00  0.00000000000E+00  0.14904507878E+04  0.14904507878E+04  0.25500000920E-02 0.  1.
       -2   -1    0    0    0  501  0.00000000000E+00  0.00000000000E+00 -0.14714421163E+04  0.14714421163E+04  0.25500000920E-02 0. -1.
    10030    2    1    2    0    0  0.00000000000E+00  0.00000000000E+00  0.19008671445E+02  0.29618929041E+04  0.29618319071E+04 0.  0.
        1    1    3    3  502    0  0.26076593281E+03  0.57228043506E+03  0.13502811014E+04  0.14895512146E+04  0.50400001928E-02 0.  1.
       -1    1    3    3    0  502 -0.26076593281E+03 -0.57228043506E+03 -0.13312724299E+04  0.14723416895E+04  0.50400001928E-02 0. -1.
</event>
<event>
 5   0  0.1307832E-05  0.2740096E+04  0.7818609E-02  0.8322111E-01
       -2   -1    0    0    0  501  0.00000000000E+00  0.00000000000E+00  0.11663514493E+04  0.11663514493E+04  0.25500000920E-02 0.  1.
        2   -1    0    0  501    0  0.00000000000E+00  0.00000000000E+00 -0.16093186461E+04  0.16093186461E+04  0.25500000920E-02 0. -1.
    10030    2    1    2    0    0  0.00000000000E+00  0.00000000000E+00 -0.44296719680E+03  0.27756700955E+04  0.27400957176E+04 0.  0.
        4    1    3    3  502    0  0.13183397686E+04 -0.18094631530E+03 -0.55170391628E+03  0.14405346711E+04  0.12699999809E+01 0. -1.
       -4    1    3    3    0  502 -0.13183397686E+04  0.18094631530E+03  0.10873671949E+03  0.13351354244E+04  0.12699999809E+01 0.  1.
</event>
<event>
 5   0  0.5261878E-06  0.2860361E+04  0.7818609E-02  0.8284770E-01
        1   -1    0    0  501    0  0.00000000000E+00  0.00000000000E+00  0.88866641599E+03  0.88866641601E+03  0.50400001928E-02 0. -1.
       -1   -1    0    0    0  501  0.00000000000E+00  0.00000000000E+00 -0.23016688188E+04  0.23016688188E+04  0.50400001928E-02 0.  1.
    10030    2    1    2    0    0  0.00000000000E+00  0.00000000000E+00 -0.14130024028E+04  0.31903352348E+04  0.28603606626E+04 0.  0.
        5    1    3    3  502    0 -0.10221165913E+04  0.11468064123E+02  0.40916099719E+03  0.11010398060E+04  0.46999998093E+01 0. -1.
       -5    1    3    3    0  502  0.10221165913E+04 -0.11468064123E+02 -0.18221634000E+04  0.20892954288E+04  0.46999998093E+01 0.  1.
</event>
<event>
 5   0  0.1336899E-05  0.2028174E+04  0.7818609E-02  0.8593561E-01
       -2   -1    0    0    0  501  0.00000000000E+00  0.00000000000E+00  0.10123289123E+04  0.10123289123E+04  0.25500000920E-02 0. -1.
        2   -1    0    0  501    0  0.00000000000E+00  0.00000000000E+00 -0.10158479588E+04  0.10158479588E+04  0.25500000920E-02 0.  1.
    10030    2    1    2    0    0  0.00000000000E+00  0.00000000000E+00 -0.35190464825E+01  0.20281768710E+04  0.20281738181E+04 0.  0.
        1    1    3    3  502    0 -0.14969419215E+03 -0.10007372004E+04 -0.68759353019E+02  0.10142046855E+04  0.50400001928E-02 0. -1.
       -1    1    3    3    0  502  0.14969419215E+03  0.10007372004E+04  0.65240306537E+02  0.10139721855E+04  0.50400001928E-02 0.  1.
</event>
<event>
 5   0  0.5059249E-06  0.2922256E+04  0.7818609E-02  0.8266286E-01
       -1   -1    0    0    0  501  0.00000000000E+00  0.00000000000E+00  0.14142602770E+04  0.14142602770E+04  0.50400001928E-02 0.  1.
        1   -1    0    0  501    0  0.00000000000E+00  0.00000000000E+00 -0.15095489901E+04  0.15095489901E+04  0.50400001928E-02 0. -1.
    10030    2    1    2    0    0  0.00000000000E+00  0.00000000000E+00 -0.95288713087E+02  0.29238092671E+04  0.29222560962E+04 0.  0.
        1    1    3    3  502    0  0.56123432328E+03 -0.11402441522E+04  0.67367881898E+03  0.14383962748E+04  0.50400001928E-02 0.  1.
       -1    1    3    3    0  502 -0.56123432328E+03  0.11402441522E+04 -0.76896753206E+03  0.14854129923E+04  0.50400001928E-02 0. -1.
</event>
<event>
 5   0  0.5261878E-06  0.2872592E+04  0.7818609E-02  0.8281079E-01
        1   -1    0    0  501    0  0.00000000000E+00  0.00000000000E+00  0.14539518111E+04  0.14539518112E+04  0.50400001928E-02 0.  1.
       -1   -1    0    0    0  501  0.00000000000E+00  0.00000000000E+00 -0.14188550805E+04  0.14188550805E+04  0.50400001928E-02 0. -1.
    10030    2    1    2    0    0  0.00000000000E+00  0.00000000000E+00  0.35096730642E+02  0.28728068917E+04  0.28725924974E+04 0.  0.
        5    1    3    3  502    0  0.65626494474E+03 -0.10776981255E+04  0.70375400223E+03  0.14447867362E+04  0.46999998093E+01 0.  1.
       -5    1    3    3    0  502 -0.65626494474E+03  0.10776981255E+04 -0.66865727159E+03  0.14280201554E+04  0.46999998093E+01 0. -1.
</event>
<event>
 5   0  0.5261878E-06  0.2958346E+04  0.7818609E-02  0.8255726E-01
       -1   -1    0    0    0  501  0.00000000000E+00  0.00000000000E+00  0.12729797409E+04  0.12729797409E+04  0.50400001928E-02 0.  1.
        1   -1    0    0  501    0  0.00000000000E+00  0.00000000000E+00 -0.17187648801E+04  0.17187648801E+04  0.50400001928E-02 0. -1.
    10030    2    1    2    0    0  0.00000000000E+00  0.00000000000E+00 -0.44578513917E+03  0.29917446210E+04  0.29583460729E+04 0.  0.
        5    1    3    3  502    0  0.12176582819E+04 -0.44241456312E+03 -0.94474967360E+03  0.16034326843E+04  0.46999998093E+01 0. -1.
       -5    1    3    3    0  502 -0.12176582819E+04  0.44241456312E+03  0.49896453443E+03  0.13883119368E+04  0.46999998093E+01 0.  1.
</event>
<event>
 5   0  0.1339837E-05  0.2912068E+04  0.7818609E-02  0.8269296E-01
        2   -1    0    0  501    0  0.00000000000E+00  0.00000000000E+00  0.22361846425E+04  0.22361846425E+04  0.25500000920E-02 0. -1.
       -2   -1    0    0    0  501  0.00000000000E+00  0.00000000000E+00 -0.94805922473E+03  0.94805922473E+03  0.25500000920E-02 0.  1.
    10030    2    1    2    0    0  0.00000000000E+00  0.00000000000E+00  0.12881254177E+04  0.31842438672E+04  0.29120683223E+04 0.  0.
        5    1    3    3  502    0  0.66785751194E+03 -0.12866043135E+04  0.79330791167E+03  0.16524962476E+04  0.46999998093E+01 0.  1.
       -5    1    3    3    0  502 -0.66785751194E+03  0.12866043135E+04  0.49481750607E+03  0.15317476196E+04  0.46999998093E+01 0. -1.
</event>
<event>
 5   0  0.1339837E-05  0.2876246E+04  0.7818609E-02  0.8279980E-01
        2   -1    0    0  501    0  0.00000000000E+00  0.00000000000E+00  0.67452202859E+03  0.67452202859E+03  0.25500000920E-02 0.  1.
       -2   -1    0    0    0  501  0.00000000000E+00  0.00000000000E+00 -0.30661670227E+04  0.30661670227E+04  0.25500000920E-02 0. -1.
    10030    2    1    2    0    0  0.00000000000E+00  0.00000000000E+00 -0.23916449941E+04  0.37406890513E+04  0.28762456086E+04 0.  0.
        5    1    3    3  502    0  0.59496188814E+02 -0.10440162080E+04 -0.24797882215E+04  0.26912601793E+04  0.46999998093E+01 0. -1.
       -5    1    3    3    0  502 -0.59496188814E+02  0.10440162080E+04  0.88143227343E+02  0.10494288721E+04  0.46999998093E+01 0.  1.
</event>
<event>
 5   0  0.1307832E-05  0.2862410E+04  0.7818609E-02  0.8284150E-01
        2   -1    0    0  501    0  0.00000000000E+00  0.00000000000E+00  0.18378338089E+04  0.18378338089E+04  0.25500000920E-02 0. -1.
       -2   -1    0    0    0  501  0.00000000000E+00  0.00000000000E+00 -0.11145446916E+04  0.11145446916E+04  0.25500000920E-02 0.  1.
    10030    2    1    2    0    0  0.00000000000E+00  0.00000000000E+00  0.72328911724E+03  0.29523785005E+04  0.28624101144E+04 0.  0.
        4    1    3    3  502    0 -0.12035688353E+04  0.77280155160E+03  0.41368966643E+03  0.14889395328E+04  0.12699999809E+01 0. -1.
       -4    1    3    3    0  502  0.12035688353E+04 -0.77280155160E+03  0.30959945080E+03  0.14634389677E+04  0.12699999809E+01 0.  1.
</event>
<event>
 5   0  0.5059249E-06  0.2893293E+04  0.7818609E-02  0.8274876E-01
       -1   -1    0    0    0  501  0.00000000000E+00  0.00000000000E+00  0.24018152962E+04  0.24018152962E+04  0.50400001928E-02 0. -1.
        1   -1    0    0  501    0  0.00000000000E+00  0.00000000000E+00 -0.87133495517E+03  0.87133495519E+03  0.50400001928E-02 0.  1.
    10030    2    1    2    0    0  0.00000000000E+00  0.00000000000E+00  0.15304803410E+04  0.32731502514E+04  0.28932926734E+04 0.  0.
        1    1    3    3  502    0 -0.51818322194E+03  0.47385596808E+03 -0.66562011721E+03  0.96752440302E+03  0.50400001928E-02 0.  1.
       -1    1    3    3    0  502  0.51818322194E+03 -0.47385596808E+03  0.21961004582E+04  0.23056258484E+04  0.50400001928E-02 0. -1.
</event>
<event>
 5   0  0.1339837E-05  0.2895968E+04  0.7818609E-02  0.8274078E-01
       -2   -1    0    0    0  501  0.00000000000E+00  0.00000000000E+00  0.20587271381E+04  0.20587271381E+04  0.25500000920E-02 0.  1.
        2   -1    0    0  501    0  0.00000000000E+00  0.00000000000E+00 -0.10184245995E+04  0.10184245995E+04  0.25500000920E-02 0. -1.
    10030    2    1    2    0    0  0.00000000000E+00  0.00000000000E+00  0.10403025386E+04  0.30771517376E+04  0.28959684813E+04 0.  0.
        5    1    3    3  502    0 -0.13892117506E+04 -0.40666807343E+03  0.55916431797E+03  0.15517651351E+04  0.46999998093E+01 0.  1.
       -5    1    3    3    0  502  0.13892117506E+04  0.40666807343E+03  0.48113822060E+03  0.15253866026E+04  0.46999998093E+01 0. -1.
</event>
<event>
 5   0  0.5261878E-06  0.2843094E+04  0.7818609E-02  0.8290013E-01
       -1   -1    0    0    0  501  0.00000000000E+00  0.00000000000E+00  0.23482920196E+04  0.23482920196E+04  0.50400001928E-02 0. -1.
        1   -1    0    0  501    0  0.00000000000E+00  0.00000000000E+00 -0.86053872208E+03  0.86053872209E+03  0.50400001928E-02 0.  1.
    10030    2    1    2    0    0  0.00000000000E+00  0.00000000000E+00  0.14877532975E+04  0.32088307417E+04  0.28430942395E+04 0.  0.
        5    1    3    3  502    0 -0.44788609594E+03  0.76406890987E+03  0.19988368012E+04  0.21862694029E+04  0.46999998093E+01 0. -1.
       -5    1    3    3    0  502  0.44788609594E+03 -0.76406890987E+03 -0.51108350369E+03  0.10225613388E+04  0.46999998093E+01 0.  1.
</event>
<event>
 5   0  0.1385669E-05  0.2905731E+04  0.7818609E-02  0.8271174E-01
        2   -1    0    0  501    0  0.00000000000E+00  0.00000000000E+00  0.15240153592E+04  0.15240153592E+04  0.25500000920E-02 0.  1.
       -2   -1    0    0    0  501  0.00000000000E+00  0.00000000000E+00 -0.13850371927E+04  0.13850371927E+04  0.25500000920E-02 0. -1.
    10030    2    1    2    0    0  0.00000000000E+00  0.00000000000E+00  0.13897816647E+03  0.29090525519E+04  0.29057308580E+04 0.  0.
        3    1    3    3  502    0 -0.79087002609E+03 -0.10263148051E+04 -0.58854492994E+03  0.14230891125E+04  0.10100000352E+00 0.  1.
       -3    1    3    3    0  502  0.79087002609E+03  0.10263148051E+04  0.72752309642E+03  0.14859634394E+04  0.10100000352E+00 0. -1.
</event>
<event>
 5   0  0.1339837E-05  0.2448504E+04  0.7818609E-02  0.8421564E-01
        2   -1    0    0  501    0  0.00000000000E+00  0.00000000000E+00  0.23613474761E+04  0.23613474761E+04  0.25500000920E-02 0. -1.
       -2   -1    0    0    0  501  0.00000000000E+00  0.00000000000E+00 -0.63471949653E+03  0.63471949653E+03  0.25500000920E-02 0.  1.
    10030    2    1    2    0    0  0.00000000000E+00  0.00000000000E+00  0.17266279796E+04  0.29960669727E+04  0.24485042628E+04 0.  0.
        5    1    3    3  502    0 -0.77710489108E+03 -0.87569234263E+03  0.42546228224E+03  0.12457003389E+04  0.46999998093E+01 0. -1.
       -5    1    3    3    0  502  0.77710489108E+03  0.87569234263E+03  0.13011656974E+04  0.17503666338E+04  0.46999998093E+01 0.  1.
</event>
<event>
 5   0  0.5002240E-06  0.2830920E+04  0.7818609E-02  0.8293733E-01
       -1   -1    0    0    0  501  0.00000000000E+00  0.00000000000E+00  0.10506375081E+04  0.10506375082E+04  0.50400001928E-02 0. -1.
        1   -1    0    0  501    0  0.00000000000E+00  0.00000000000E+00 -0.19069634697E+04  0.19069634697E+04  0.50400001928E-02 0.  1.
    10030    2    1    2    0    0  0.00000000000E+00  0.00000000000E+00 -0.85632596154E+03  0.29576009778E+04  0.28309202376E+04 0.  0.
        4    1    3    3  502    0 -0.70743874601E+03  0.49940374351E+03  0.74160695879E+03  0.11401123509E+04  0.12699999809E+01 0. -1.
       -4    1    3    3    0  502  0.70743874601E+03 -0.49940374351E+03 -0.15979329203E+04  0.18174886270E+04  0.12699999809E+01 0.  1.
</event>
<event>
 5   0  0.1385669E-05  0.2892025E+04  0.7818609E-02  0.8275254E-01
       -2   -1    0    0    0  501  0.00000000000E+00  0.00000000000E+00  0.10436659571E+04  0.10436659571E+04  0.25500000920E-02 0.  1.
        2   -1    0    0  501    0  0.00000000000E+00  0.00000000000E+00 -0.20034685234E+04  0.20034685234E+04  0.25500000920E-02 0. -1.
    10030    2    1    2    0    0  0.00000000000E+00  0.00000000000E+00 -0.95980256631E+03  0.30471344805E+04  0.28920248228E+04 0.  0.
        3    1    3    3  502    0 -0.12581386834E+04 -0.61097730351E+03 -0.93136415855E+02  0.14017419928E+04  0.10100000352E+00 0.  1.
       -3    1    3    3    0  502  0.12581386834E+04  0.61097730351E+03 -0.86666615046E+03  0.16453924877E+04  0.10100000352E+00 0. -1.
</event>
<event>
 5   0  0.1382803E-05  0.2897593E+04  0.7818609E-02  0.8273594E-01
        2   -1    0    0  501    0  0.00000000000E+00  0.00000000000E+00  0.16738298317E+04  0.16738298317E+04  0.25500000920E-02 0. -1.
       -2   -1    0    0    0  501  0.00000000000E+00  0.00000000000E+00 -0.12540173479E+04  0.12540173479E+04  0.25500000920E-02 0.  1.
    10030    2    1    2    0    0  0.00000000000E+00  0.00000000000E+00  0.41981248385E+03  0.29278471796E+04  0.28975932402E+04 0.  0.
        2    1    3    3  502    0 -0.61504397135E+03 -0.13072597972E+04  0.10012386786E+03  0.14481823273E+04  0.25500000920E-02 0.  1.
       -2    1    3    3    0  502  0.61504397135E+03  0.13072597972E+04  0.31968861599E+03  0.14796648524E+04  0.25500000920E-02 0. -1.
</event>
<event>
 5   0  0.1307832E-05  0.2963764E+04  0.7818609E-02  0.8254155E-01
       -2   -1    0    0    0  501  0.00000000000E+00  0.00000000000E+00  0.12766629977E+04  0.12766629977E+04  0.25500000920E-02 0. -1.
        2   -1    0    0  501    0  0.00000000000E+00  0.00000000000E+00 -0.17200886743E+04  0.17200886743E+04  0.25500000920E-02 0.  1.
    10030    2    1    2    0    0  0.00000000000E+00  0.00000000000E+00 -0.44342567655E+03  0.29967516720E+04  0.29637635285E+04 0.  0.
        4    1    3    3  502    0 -0.38231528996E+03  0.60955346928E+03  0.10881798978E+04  0.13045526113E+04  0.12699999809E+01 0. -1.
       -4    1    3    3    0  502  0.38231528996E+03 -0.60955346928E+03 -0.15316055743E+04  0.16921990607E+04  0.12699999809E+01 0.  1.
</event>
<event>
 5   0  0.1385669E-05  0.2885712E+04  0.7818609E-02  0.8277141E-01
       -2   -1    0    0    0  501  0.00000000000E+00  0.00000000000E+00  0.11089162867E+04  0.11089162867E+04  0.25500000920E-02 0.  1.
        2   -1    0    0  501    0  0.00000000000E+00  0.00000000000E+00 -0.18773590277E+04  0.18773590277E+04  0.25500000920E-02 0. -1.
    10030    2    1    2    0    0  0.00000000000E+00  0.00000000000E+00 -0.76844274092E+03  0.29862753144E+04  0.28857123916E+04 0.  0.
        3    1    3    3  502    0  0.27427366636E+03 -0.34562503579E+03 -0.18058303503E+04  0.18589529240E+04  0.10100000352E+00 0. -1.
       -3    1    3    3    0  502 -0.27427366636E+03  0.34562503579E+03  0.10373876094E+04  0.11273223903E+04  0.10100000352E+00 0.  1.
</event>
<event>
 5   0  0.1336899E-05  0.2887375E+04  0.7818609E-02  0.8276644E-01
        2   -1    0    0  501    0  0.00000000000E+00  0.00000000000E+00  0.11649779664E+04  0.11649779664E+04  0.25500000920E-02 0.  1.
       -2   -1    0    0    0  501  0.00000000000E+00  0.00000000000E+00 -0.17890749938E+04  0.17890749938E+04  0.25500000920E-02 0. -1.
    10030    2    1    2    0    0  0.00000000000E+00  0.00000000000E+00 -0.62409702740E+03  0.29540529603E+04  0.28873745501E+04 0.  0.
        1    1    3    3  502    0 -0.48702980528E+03 -0.66019315827E+03  0.90331542319E+03  0.12202589034E+04  0.50400001928E-02 0.  1.
       -1    1    3    3    0  502  0.48702980528E+03  0.66019315827E+03 -0.15274124506E+04  0.17337940569E+04  0.50400001928E-02 0. -1.
</event>
<event>
 5   0  0.1336899E-05  0.2902399E+04  0.7818609E-02  0.8272164E-01
        2   -1    0    0  501    0  0.00000000000E+00  0.00000000000E+00  0.69631817413E+03  0.69631817414E+03  0.25500000920E-02 0. -1.
       -2   -1    0    0    0  501  0.00000000000E+00  0.00000000000E+00 -0.30244498488E+04  0.30244498488E+04  0.25500000920E-02 0.  1.
    10030    2    1    2    0    0  0.00000000000E+00  0.00000000000E+00 -0.23281316746E+04  0.37207680229E+04  0.29023985918E+04 0.  0.
        1    1    3    3  502    0 -0.11202411326E+04 -0.17430824548E+03 -0.23253969757E+04  0.25870436128E+04  0.50400001928E-02 0.  1.
       -1    1    3    3    0  502  0.11202411326E+04  0.17430824548E+03 -0.27346989139E+01  0.11337244102E+04  0.50400001928E-02 0. -1.
</event>
<event>
 5   0  0.5059249E-06  0.2905444E+04  0.7818609E-02  0.8271259E-01
        1   -1    0    0  501    0  0.00000000000E+00  0.00000000000E+00  0.12812783818E+04  0.12812783818E+04  0.50400001928E-02 0.  1.
       -1   -1    0    0    0  501  0.00000000000E+00  0.00000000000E+00 -0.16471063027E+04  0.16471063027E+04  0.50400001928E-02 0. -1.
    10030    2    1    2    0    0  0.00000000000E+00  0.00000000000E+00 -0.36582792087E+03  0.29283846846E+04  0.29054443366E+04 0.  0.
        1    1    3    3  502    0  0.12980479693E+04  0.86084409143E+02 -0.83459674396E+03  0.15456036948E+04  0.50400001928E-02 0.  1.
       -1    1    3    3    0  502 -0.12980479693E+04 -0.86084409143E+02  0.46876882310E+03  0.13827809898E+04  0.50400001928E-02 0. -1.
</event>
<event>
 5   0  0.5352212E-06  0.2845902E+04  0.7818609E-02  0.8289158E-01
        1   -1    0    0  501    0  0.00000000000E+00  0.00000000000E+00  0.18292624349E+04  0.18292624349E+04  0.50400001928E-02 0. -1.
       -1   -1    0    0    0  501  0.00000000000E+00  0.00000000000E+00 -0.11068884015E+04  0.11068884015E+04  0.50400001928E-02 0.  1.
    10030    2    1    2    0    0  0.00000000000E+00  0.00000000000E+00  0.72237403332E+03  0.29361508364E+04  0.28459018764E+04 0.  0.
        2    1    3    3  502    0  0.12046198658E+04  0.56881465488E+01 -0.42022697090E+03  0.12758260396E+04  0.25500000920E-02 0.  1.
       -2    1    3    3    0  502 -0.12046198658E+04 -0.56881465488E+01  0.11426010042E+04  0.16603247968E+04  0.25500000920E-02 0. -1.
</event>
<event>
 5   0  0.1336899E-05  0.2874940E+04  0.7818609E-02  0.8280373E-01
       -2   -1    0    0    0  501  0.00000000000E+00  0.00000000000E+00  0.95981995982E+03  0.95981995982E+03  0.25500000920E-02 0.  1.
        2   -1    0    0  501    0  0.00000000000E+00  0.00000000000E+00 -0.21528198104E+04  0.21528198104E+04  0.25500000920E-02 0. -1.
    10030    2    1    2    0    0  0.00000000000E+00  0.00000000000E+00 -0.11929998506E+04  0.31126397702E+04  0.28749395986E+04 0.  0.
        1    1    3    3  502    0 -0.10209848992E+04 -0.96429585240E+03 -0.26448099951E+03  0.14290650281E+04  0.50400001928E-02 0.  1.
       -1    1    3    3    0  502  0.10209848992E+04  0.96429585240E+03 -0.92851885107E+03  0.16835747421E+04  0.50400001928E-02 0. -1.
</event>
<event>
 5   0  0.5154476E-06  0.2876473E+04  0.7818609E-02  0.8279912E-01
       -1   -1    0    0    0  501  0.00000000000E+00  0.00000000000E+00  0.11011403148E+04  0.11011403148E+04  0.50400001928E-02 0.  1.
        1   -1    0    0  501    0  0.00000000000E+00  0.00000000000E+00 -0.18785285994E+04  0.18785285994E+04  0.50400001928E-02 0. -1.
    10030    2    1    2    0    0  0.00000000000E+00  0.00000000000E+00 -0.77738828459E+03  0.29796689142E+04  0.28764725435E+04 0.  0.
        3    1    3    3  502    0 -0.78880182518E+03 -0.11909888903E+04 -0.56159766539E+03  0.15349445607E+04  0.10100000352E+00 0. -1.
       -3    1    3    3    0  502  0.78880182518E+03  0.11909888903E+04 -0.21579061920E+03  0.14447243536E+04  0.10100000352E+00 0.  1.
</event>
<event>
 5   0  0.1339837E-05  0.2963096E+04  0.7818609E-02  0.8254348E-01
        2   -1    0    0  501    0  0.00000000000E+00  0.00000000000E+00  0.11356895012E+04  0.11356895012E+04  0.25500000920E-02 0. -1.
       -2   -1    0    0    0  501  0.00000000000E+00  0.00000000000E+00 -0.19327326603E+04  0.19327326603E+04  0.25500000920E-02 0.  1.
    10030    2    1    2    0    0  0.00000000000E+00  0.00000000000E+00 -0.79704315914E+03  0.30684221615E+04  0.29630958074E+04 0.  0.
        5    1    3    3  502    0  0.10444940552E+04  0.72525483894E+03 -0.11858088308E+04  0.17387142048E+04  0.46999998093E+01 0.  1.
       -5    1    3    3    0  502 -0.10444940552E+04 -0.72525483894E+03  0.38876567165E+03  0.13297079567E+04  0.46999998093E+01 0. -1.
</event>
<event>
 5   0  0.5154476E-06  0.2731858E+04  0.7818609E-02  0.8324742E-01
        1   -1    0    0  501    0  0.00000000000E+00  0.00000000000E+00  0.20815469604E+04  0.20815469604E+04  0.50400001928E-02 0.  1.
       -1   -1    0    0    0  501  0.00000000000E+00  0.00000000000E+00 -0.89633450928E+03  0.89633450930E+03  0.50400001928E-02 0. -1.
    10030    2    1    2    0    0  0.00000000000E+00  0.00000000000E+00  0.11852124512E+04  0.29778814697E+04  0.27318582491E+04 0.  0.
        3    1    3    3  502    0  0.22634958486E+03  0.13371735355E+04  0.77003847406E+03  0.15595597008E+04  0.10100000352E+00 0. -1.
       -3    1    3    3    0  502 -0.22634958486E+03 -0.13371735355E+04  0.41517397709E+03  0.14183217689E+04  0.10100000352E+00 0.  1.
</event>
<event>
 5   0  0.1382803E-05  0.2881029E+04  0.7818609E-02  0.8278544E-01
        2   -1    0    0  501    0  0.00000000000E+00  0.00000000000E+00  0.12712595345E+04  0.12712595345E+04  0.25500000920E-02 0.  1.
       -2   -1    0    0    0  501  0.00000000000E+00  0.00000000000E+00 -0.16323042783E+04  0.16323042783E+04  0.25500000920E-02 0. -1.
    10030    2    1    2    0    0  0.00000000000E+00  0.00000000000E+00 -0.36104474380E+03  0.29035638127E+04  0.28810292445E+04 0.  0.
        2    1    3    3  502    0  0.13466209270E+04  0.38461112558E+03  0.15941207722E+03  0.14095126283E+04  0.25500000920E-02 0.  1.
       -2    1    3    3    0  502 -0.13466209270E+04 -0.38461112558E+03 -0.52045682101E+03  0.14940511844E+04  0.25500000920E-02 0. -1.
</event>
<event>
 5   0  0.5002240E-06  0.2883500E+04  0.7818609E-02  0.8277804E-01
        1   -1    0    0  501    0  0.00000000000E+00  0.00000000000E+00  0.22762967301E+04  0.22762967301E+04  0.50400001928E-02 0.  1.
       -1   -1    0    0    0  501  0.00000000000E+00  0.00000000000E+00 -0.91316862578E+03  0.91316862579E+03  0.50400001928E-02 0. -1.
    10030    2    1    2    0    0  0.00000000000E+00  0.00000000000E+00  0.13631281043E+04  0.31894653559E+04  0.28834997880E+04 0.  0.
        4    1    3    3  502    0 -0.14401156277E+04  0.94767248697E+01  0.75673321498E+03  0.16268588141E+04  0.12699999809E+01 0.  1.
       -4    1    3    3    0  502  0.14401156277E+04 -0.94767248697E+01  0.60639488935E+03  0.15626065418E+04  0.12699999809E+01 0. -1.
</event>
<event>
 5   0  0.5261878E-06  0.2926033E+04  0.7818609E-02  0.8265174E-01
        1   -1    0    0  501    0  0.00000000000E+00  0.00000000000E+00  0.15609197024E+04  0.15609197024E+04  0.50400001928E-02 0. -1.
       -1   -1    0    0    0  501  0.00000000000E+00  0.00000000000E+00 -0.13712541211E+04  0.13712541211E+04  0.50400001928E-02 0.  1.
    10030    2    1    2    0    0  0.00000000000E+00  0.00000000000E+00  0.18966558132E+03  0.29321738235E+04  0.29260332019E+04 0.  0.
        5    1    3    3  502    0  0.13921723747E+04 -0.44797291375E+03  0.13456233463E+03  0.14686567891E+04  0.46999998093E+01 0. -1.
       -5    1    3    3    0  502 -0.13921723747E+04  0.44797291375E+03  0.55103246689E+02  0.14635170344E+04  0.46999998093E+01 0.  1.
</event>
<event>
 5   0  0.5059249E-06  0.2936865E+04  0.7818609E-02  0.8261993E-01
        1   -1    0    0  501    0  0.00000000000E+00  0.00000000000E+00  0.20535103422E+04  0.20535103422E+04  0.50400001928E-02 0.  1.
       -1   -1    0    0    0  501  0.00000000000E+00  0.00000000000E+00 -0.10500525181E+04  0.10500525181E+04  0.50400001928E-02 0. -1.
    10030    2    1    2    0    0  0.00000000000E+00  0.00000000000E+00  0.10034578241E+04  0.31035628604E+04  0.29368647949E+04 0.  0.
        1    1    3    3  502    0 -0.51718506250E+03  0.35800864759E+03  0.19039363307E+04  0.20051494039E+04  0.50400001928E-02 0. -1.
       -1    1    3    3    0  502  0.51718506250E+03 -0.35800864759E+03 -0.90047850654E+03  0.10984134565E+04  0.50400001928E-02 0.  1.
</event>
<event>
 5   0  0.5352212E-06  0.2966669E+04  0.7818609E-02  0.8253313E-01
        1   -1    0    0  501    0  0.00000000000E+00  0.00000000000E+00  0.13190482254E+04  0.13190482254E+04  0.50400001928E-02 0. -1.
       -1   -1    0    0    0  501  0.00000000000E+00  0.00000000000E+00 -0.16680828769E+04  0.16680828770E+04  0.50400001928E-02 0.  1.
    10030    2    1    2    0    0  0.00000000000E+00  0.00000000000E+00 -0.34903465153E+03  0.29871311024E+04  0.29666693504E+04 0.  0.
        2    1    3    3  502    0 -0.85586083267E+03  0.10064521067E+04  0.50455116837E+03  0.14142190387E+04  0.25500000920E-02 0. -1.
       -2    1    3    3    0  502  0.85586083267E+03 -0.10064521067E+04 -0.85358581989E+03  0.15729120636E+04  0.25500000920E-02 0.  1.
</event>
<event>
 5   0  0.1385669E-05  0.2901589E+04  0.7818609E-02  0.8272405E-01
        2   -1    0    0  501    0  0.00000000000E+00  0.00000000000E+00  0.17425278414E+04  0.17425278414E+04  0.25500000920E-02 0. -1.
       -2   -1    0    0    0  501  0.00000000000E+00  0.00000000000E+00 -0.12079032257E+04  0.12079032257E+04  0.25500000920E-02 0.  1.
    10030    2    1    2    0    0  0.00000000000E+00  0.00000000000E+00  0.53462461572E+03  0.29504310672E+04  0.29015892201E+04 0.  0.
        3    1    3    3  502    0 -0.14072459745E+04  0.31583064143E+03  0.10745673788E+03  0.14462493518E+04  0.10100000352E+00 0.  1.
       -3    1    3    3    0  502  0.14072459745E+04 -0.31583064143E+03  0.42716787784E+03  0.15041817154E+04  0.10100000352E+00 0. -1.
</event>
<event>
 5   0  0.1336899E-05  0.2800188E+04  0.7818609E-02  0.8303210E-01
       -2   -1    0    0    0  501  0.00000000000E+00  0.00000000000E+00  0.13161094108E+04  0.13161094108E+04  0.25500000920E-02 0. -1.
        2   -1    0    0  501    0  0.00000000000E+00  0.00000000000E+00 -0.14894380148E+04  0.14894380148E+04  0.25500000920E-02 0.  1.
    10030    2    1    2    0    0  0.00000000000E+00  0.00000000000E+00 -0.17332860405E+03  0.28055474256E+04  0.28001881280E+04 0.  0.
        1    1    3    3  502    0 -0.85096669846E+03 -0.16674231563E+02  0.10271472309E+04  0.13339616883E+04  0.50400001928E-02 0. -1.
       -1    1    3    3    0  502  0.85096669846E+03  0.16674231563E+02 -0.12004758350E+04  0.14715857373E+04  0.50400001928E-02 0.  1.
</event>
<event>
 5   0  0.5352212E-06  0.2883540E+04  0.7818609E-02  0.8277792E-01
        1   -1    0    0  501    0  0.00000000000E+00  0.00000000000E+00  0.12758297482E+04  0.12758297482E+04  0.50400001928E-02 0.  1.
       -1   -1    0    0    0  501  0.00000000000E+00  0.00000000000E+00 -0.16292934105E+04  0.16292934105E+04  0.50400001928E-02 0. -1.
    10030    2    1    2    0    0  0.00000000000E+00  0.00000000000E+00 -0.35346366227E+03  0.29051231588E+04  0.28835401865E+04 0.  0.
        2    1    3    3  502    0  0.59392426586E+03  0.12105843382E+03 -0.14946898988E+04  0.16129163251E+04  0.25500000920E-02 0. -1.
       -2    1    3    3    0  502 -0.59392426586E+03 -0.12105843382E+03  0.11412262366E+04  0.12922068337E+04  0.25500000920E-02 0.  1.
</event>
<event>
 5   0  0.5002240E-06  0.2869818E+04  0.7818609E-02  0.8281914E-01
        1   -1    0    0  501    0  0.00000000000E+00  0.00000000000E+00  0.15727371662E+04  0.15727371662E+04  0.50400001928E-02 0.  1.
       -1   -1    0    0    0  501  0.00000000000E+00  0.00000000000E+00 -0.13091596352E+04  0.13091596352E+04  0.50400001928E-02 0. -1.
    10030    2    1    2    0    0  0.00000000000E+00  0.00000000000E+00  0.26357753098E+03  0.28818968014E+04  0.28698181230E+04 0.  0.
        4    1    3    3  502    0  0.65709308808E+03 -0.12652797641E+04  0.29451458906E+03  0.14558312621E+04  0.12699999809E+01 0.  1.
       -4    1    3    3    0  502 -0.65709308808E+03  0.12652797641E+04 -0.30937058083E+02  0.14260655392E+04  0.12699999809E+01 0. -1.
</event>
<event>
 5   0  0.5154476E-06  0.2923421E+04  0.7818609E-02  0.8265943E-01
       -1   -1    0    0    0  501  0.00000000000E+00  0.00000000000E+00  0.14805797913E+04  0.14805797913E+04  0.50400001928E-02 0.  1.
        1   -1    0    0  501    0  0.00000000000E+00  0.00000000000E+00 -0.14430814003E+04  0.14430814003E+04  0.50400001928E-02 0. -1.
    10030    2    1    2    0    0  0.00000000000E+00  0.00000000000E+00  0.37498390965E+02  0.29236611916E+04  0.29234207076E+04 0.  0.
        3    1    3    3  502    0 -0.15467438795E+03  0.30226717016E+03 -0.14030947142E+04  0.14435942629E+04  0.10100000352E+00 0. -1.
       -3    1    3    3    0  502  0.15467438795E+03 -0.30226717016E+03  0.14405931052E+04  0.14800669287E+04  0.10100000352E+00 0.  1.
</event>
<event>
 5   0  0.5002240E-06  0.1902112E+04  0.7818609E-02  0.8653806E-01
       -1   -1    0    0    0  501  0.00000000000E+00  0.00000000000E+00  0.57601525885E+03  0.57601525887E+03  0.50400001928E-02 0.  1.
        1   -1    0    0  501    0  0.00000000000E+00  0.00000000000E+00 -0.15702844541E+04  0.15702844541E+04  0.50400001928E-02 0. -1.
    10030    2    1    2    0    0  0.00000000000E+00  0.00000000000E+00 -0.99426919521E+03  0.21462997129E+04  0.19021123061E+04 0.  0.
        4    1    3    3  502    0  0.58901623990E+03  0.74280758017E+03 -0.58309116256E+03  0.11129690691E+04  0.12699999809E+01 0.  1.
       -4    1    3    3    0  502 -0.58901623990E+03 -0.74280758017E+03 -0.41117803265E+03  0.10333306438E+04  0.12699999809E+01 0. -1.
</event>
<event>
 5   0  0.1382803E-05  0.2793075E+04  0.7818609E-02  0.8305422E-01
       -2   -1    0    0    0  501  0.00000000000E+00  0.00000000000E+00  0.87616304101E+03  0.87616304101E+03  0.25500000920E-02 0.  1.
        2   -1    0    0  501    0  0.00000000000E+00  0.00000000000E+00 -0.22259743648E+04  0.22259743648E+04  0.25500000920E-02 0. -1.
    10030    2    1    2    0    0  0.00000000000E+00  0.00000000000E+00 -0.13498113238E+04  0.31021374058E+04  0.27930746275E+04 0.  0.
        2    1    3    3  502    0  0.78677144771E+03 -0.78182540045E+03  0.26755165009E+03  0.11409838532E+04  0.25500000920E-02 0.  1.
       -2    1    3    3    0  502 -0.78677144771E+03  0.78182540045E+03 -0.16173629739E+04  0.19611535526E+04  0.25500000920E-02 0. -1.
</event>
<event>
 5   0  0.1336899E-05  0.2703595E+04  0.7818609E-02  0.8333839E-01
        2   -1    0    0  501    0  0.00000000000E+00  0.00000000000E+00  0.16772042591E+04  0.16772042591E+04  0.25500000920E-02 0. -1.
       -2   -1    0    0    0  501  0.00000000000E+00  0.00000000000E+00 -0.10895255130E+04  0.10895255130E+04  0.25500000920E-02 0.  1.
    10030    2    1    2    0    0  0.00000000000E+00  0.00000000000E+00  0.58767874615E+03  0.27667297721E+04  0.27035952587E+04 0.  0.
        1    1    3    3  502    0  0.45834628205E+03  0.63994701688E+03  0.14184764353E+04  0.16222480994E+04  0.50400001928E-02 0. -1.
       -1    1    3    3    0  502 -0.45834628205E+03 -0.63994701688E+03 -0.83079768913E+03  0.11444816726E+04  0.50400001928E-02 0.  1.
</event>
<event>
 5   0  0.4590125E-06  0.2960794E+04  0.7818609E-02  0.8255016E-01
       -3   -1    0    0    0  501  0.00000000000E+00  0.00000000000E+00  0.13957270650E+04  0.13957270686E+04  0.10100000352E+00 0. -1.
        3   -1    0    0  501    0  0.00000000000E+00  0.00000000000E+00 -0.15702035934E+04  0.15702035966E+04  0.10100000352E+00 0.  1.
    10030    2    1    2    0    0  0.00000000000E+00  0.00000000000E+00 -0.17447652837E+03  0.29659306652E+04  0.29607942603E+04 0.  0.
        5    1    3    3  502    0 -0.67139327794E+01  0.81927073590E+03  0.11479068281E+04  0.14103055667E+04  0.46999998093E+01 0. -1.
       -5    1    3    3    0  502  0.67139327794E+01 -0.81927073590E+03 -0.13223833565E+04  0.15556250985E+04  0.46999998093E+01 0.  1.
</event>
<event>
 5   0  0.5059249E-06  0.2948559E+04  0.7818609E-02  0.8258575E-01
       -1   -1    0    0    0  501  0.00000000000E+00  0.00000000000E+00  0.12727157028E+04  0.12727157028E+04  0.50400001928E-02 0. -1.
        1   -1    0    0  501    0  0.00000000000E+00  0.00000000000E+00 -0.17077656106E+04  0.17077656106E+04  0.50400001928E-02 0.  1.
    10030    2    1    2    0    0  0.00000000000E+00  0.00000000000E+00 -0.43504990787E+03  0.29804813134E+04  0.29485590442E+04 0.  0.
        1    1    3    3  502    0 -0.31657780865E+03 -0.25405650958E+03 -0.16501672801E+04  0.16993581939E+04  0.50400001928E-02 0.  1.
       -1    1    3    3    0  502  0.31657780865E+03  0.25405650958E+03  0.12151173722E+04  0.12811231195E+04  0.50400001928E-02 0. -1.
</event>
<event>
 5   0  0.1382803E-05  0.2837770E+04  0.7818609E-02  0.8291637E-01
        2   -1    0    0  501    0  0.00000000000E+00  0.00000000000E+00  0.12433917983E+04  0.12433917983E+04  0.25500000920E-02 0. -1.
       -2   -1    0    0    0  501  0.00000000000E+00  0.00000000000E+00 -0.16191471017E+04  0.16191471017E+04  0.25500000920E-02 0.  1.
    10030    2    1    2    0    0  0.00000000000E+00  0.00000000000E+00 -0.37575530342E+03  0.28625388999E+04  0.28377697062E+04 0.  0.
        2    1    3    3  502    0  0.11857618774E+04 -0.66248343997E+03 -0.60172522964E+03  0.14855937501E+04  0.25500000920E-02 0.  1.
       -2    1    3    3    0  502 -0.11857618774E+04  0.66248343997E+03  0.22596992622E+03  0.13769451499E+04  0.25500000920E-02 0. -1.
</event>
<event>
 5   0  0.5059249E-06  0.2818791E+04  0.7818609E-02  0.8297458E-01
       -1   -1    0    0    0  501  0.00000000000E+00  0.00000000000E+00  0.11106374372E+04  0.11106374372E+04  0.50400001928E-02 0.  1.
        1   -1    0    0  501    0  0.00000000000E+00  0.00000000000E+00 -0.17885180954E+04  0.17885180954E+04  0.50400001928E-02 0. -1.
    10030    2    1    2    0    0  0.00000000000E+00  0.00000000000E+00 -0.67788065821E+03  0.28991555326E+04  0.28187906300E+04 0.  0.
        1    1    3    3  502    0 -0.34758285827E+03 -0.78414127441E+03 -0.14891735999E+04  0.17185253539E+04  0.50400001928E-02 0. -1.
       -1    1    3    3    0  502  0.34758285827E+03  0.78414127441E+03  0.81129294165E+03  0.11806301787E+04  0.50400001928E-02 0.  1.
</event>
<event>
 5   0  0.1336899E-05  0.2922266E+04  0.7818609E-02  0.8266284E-01
        2   -1    0    0  501    0  0.00000000000E+00  0.00000000000E+00  0.21670497178E+04  0.21670497178E+04  0.25500000920E-02 0.  1.
       -2   -1    0    0    0  501  0.00000000000E+00  0.00000000000E+00 -0.98516842112E+03  0.98516842112E+03  0.25500000920E-02 0. -1.
    10030    2    1    2    0    0  0.00000000000E+00  0.00000000000E+00  0.11818812967E+04  0.31522181389E+04  0.29222655245E+04 0.  0.
        1    1    3    3  502    0 -0.41578503210E+03  0.80348944764E+03  0.18285869285E+04  0.20401477007E+04  0.50400001928E-02 0.  1.
       -1    1    3    3    0  502  0.41578503210E+03 -0.80348944764E+03 -0.64670563183E+03  0.11120704383E+04  0.50400001928E-02 0. -1.
</event>
<event>
 5   0  0.5154476E-06  0.2871385E+04  0.7818609E-02  0.8281443E-01
        1   -1    0    0  501    0  0.00000000000E+00  0.00000000000E+00  0.14324595395E+04  0.14324595396E+04  0.50400001928E-02 0. -1.
       -1   -1    0    0    0  501  0.00000000000E+00  0.00000000000E+00 -0.14389326335E+04  0.14389326335E+04  0.50400001928E-02 0.  1.
    10030    2    1    2    0    0  0.00000000000E+00  0.00000000000E+00 -0.64730939831E+01  0.28713921731E+04  0.28713848768E+04 0.  0.
        3    1    3    3  502    0 -0.18403707874E+03 -0.14092538405E+04 -0.20657602754E+03  0.14361544829E+04  0.10100000352E+00 0.  1.
       -3    1    3    3    0  502  0.18403707874E+03  0.14092538405E+04  0.20010293356E+03  0.14352376902E+04  0.10100000352E+00 0. -1.
</event>
<event>
 5   0  0.1339837E-05  0.2923055E+04  0.7818609E-02  0.8266051E-01
        2   -1    0    0  501    0  0.00000000000E+00  0.00000000000E+00  0.23031573450E+04  0.23031573450E+04  0.25500000920E-02 0. -1.
       -2   -1    0    0    0  501  0.00000000000E+00  0.00000000000E+00 -0.92744987850E+03  0.92744987851E+03  0.25500000920E-02 0.  1.
    10030    2    1    2    0    0  0.00000000000E+00  0.00000000000E+00  0.13757074665E+04  0.32306072235E+04  0.29230552508E+04 0.  0.
        5    1    3    3  502    0  0.63034218761E+03 -0.94330686335E+03 -0.33043454872E+03  0.11816802414E+04  0.46999998093E+01 0.  1.
       -5    1    3    3    0  502 -0.63034218761E+03  0.94330686335E+03  0.17061420152E+04  0.20489269821E+04  0.46999998093E+01 0. -1.
</event>
<event>
 5   0  0.1336899E-05  0.2929842E+04  0.7818609E-02  0.8264053E-01
       -2   -1    0    0    0  501  0.00000000000E+00  0.00000000000E+00  0.13858577022E+04  0.13858577022E+04  0.25500000920E-02 0.  1.
        2   -1    0    0  501    0  0.00000000000E+00  0.00000000000E+00 -0.15484952853E+04  0.15484952853E+04  0.25500000920E-02 0. -1.
    10030    2    1    2    0    0  0.00000000000E+00  0.00000000000E+00 -0.16263758309E+03  0.29343529875E+04  0.29298423971E+04 0.  0.
        1    1    3    3  502    0  0.49452559658E+03  0.13748195991E+04 -0.18782922312E+03  0.14730798732E+04  0.50400001928E-02 0.  1.
       -1    1    3    3    0  502 -0.49452559658E+03 -0.13748195991E+04  0.25191640035E+02  0.14612731143E+04  0.50400001928E-02 0. -1.
</event>
<event>
 5   0  0.5352212E-06  0.2818286E+04  0.7818609E-02  0.8297614E-01
       -1   -1    0    0    0  501  0.00000000000E+00  0.00000000000E+00  0.11148943920E+04  0.11148943920E+04  0.50400001928E-02 0.  1.
        1   -1    0    0  501    0  0.00000000000E+00  0.00000000000E+00 -0.17810516108E+04  0.17810516108E+04  0.50400001928E-02 0. -1.
    10030    2    1    2    0    0  0.00000000000E+00  0.00000000000E+00 -0.66615721881E+03  0.28959460027E+04  0.28182863252E+04 0.  0.
        2    1    3    3  502    0  0.77532649378E+03  0.10965333432E+04 -0.77165099367E+03  0.15488582249E+04  0.25500000920E-02 0.  1.
       -2    1    3    3    0  502 -0.77532649378E+03 -0.10965333432E+04  0.10549377486E+03  0.13470877779E+04  0.25500000920E-02 0. -1.
</event>
<event>
 5   0  0.1382803E-05  0.2902030E+04  0.7818609E-02  0.8272274E-01
        2   -1    0    0  501    0  0.00000000000E+00  0.00000000000E+00  0.13891747048E+04  0.13891747048E+04  0.25500000920E-02 0. -1.
       -2   -1    0    0    0  501  0.00000000000E+00  0.00000000000E+00 -0.15156078902E+04  0.15156078902E+04  0.25500000920E-02 0.  1.
    10030    2    1    2    0    0  0.00000000000E+00  0.00000000000E+00 -0.12643318540E+03  0.29047825950E+04  0.29020297335E+04 0.  0.
        2    1    3    3  502    0  0.84474550608E+03 -0.45527416803E+03 -0.11526306752E+04  0.14998089916E+04  0.25500000920E-02 0.  1.
       -2    1    3    3    0  502 -0.84474550608E+03  0.45527416803E+03  0.10261974898E+04  0.14049736033E+04  0.25500000920E-02 0. -1.
</event>
<event>
 5   0  0.1336899E-05  0.2916364E+04  0.7818609E-02  0.8268025E-01
        2   -1    0    0  501    0  0.00000000000E+00  0.00000000000E+00  0.15084774002E+04  0.15084774002E+04  0.25500000920E-02 0.  1.
       -2   -1    0    0    0  501  0.00000000000E+00  0.00000000000E+00 -0.14095632173E+04  0.14095632173E+04  0.25500000920E-02 0. -1.
    10030    2    1    2    0    0  0.00000000000E+00  0.00000000000E+00  0.98914182971E+02  0.29180406175E+04  0.29163636656E+04 0.  0.
        1    1    3    3  502    0 -0.11047156744E+03  0.53203357220E+03  0.14033909572E+04  0.15049152361E+04  0.50400001928E-02 0.  1.
       -1    1    3    3    0  502  0.11047156744E+03 -0.53203357220E+03 -0.13044767742E+04  0.14131253814E+04  0.50400001928E-02 0. -1.
</event>
<event>
 5   0  0.5352212E-06  0.2712495E+04  0.7818609E-02  0.8330962E-01
       -1   -1    0    0    0  501  0.00000000000E+00  0.00000000000E+00  0.12144017033E+04  0.12144017033E+04  0.50400001928E-02 0. -1.
        1   -1    0    0  501    0  0.00000000000E+00  0.00000000000E+00 -0.15146612399E+04  0.15146612399E+04  0.50400001928E-02 0.  1.
    10030    2    1    2    0    0  0.00000000000E+00  0.00000000000E+00 -0.30025953663E+03  0.27290629432E+04  0.27124949325E+04 0.  0.
        2    1    3    3  502    0  0.43533225167E+02 -0.11155736748E+04  0.62464359647E+03  0.12792886259E+04  0.25500000920E-02 0. -1.
       -2    1    3    3    0  502 -0.43533225167E+02  0.11155736748E+04 -0.92490313310E+03  0.14497743174E+04  0.25500000920E-02 0.  1.
</event>
<event>
 5   0  0.5002240E-06  0.2889767E+04  0.7818609E-02  0.8275929E-01
        1   -1    0    0  501    0  0.00000000000E+00  0.00000000000E+00  0.22479045021E+04  0.22479045021E+04  0.50400001928E-02 0.  1.
       -1   -1    0    0    0  501  0.00000000000E+00  0.00000000000E+00 -0.92872647369E+03  0.92872647370E+03  0.50400001928E-02 0. -1.
    10030    2    1    2    0    0  0.00000000000E+00  0.00000000000E+00  0.13191780284E+04  0.31766309758E+04  0.28897670643E+04 0.  0.
        4    1    3    3  502    0  0.13808482242E+04 -0.48019636821E+02  0.11242029118E+04  0.17812584045E+04  0.12699999809E+01 0.  1.
       -4    1    3    3    0  502 -0.13808482242E+04  0.48019636821E+02  0.19497511653E+03  0.13953725713E+04  0.12699999809E+01 0. -1.
</event>
<event>
 5   0  0.1339837E-05  0.2934116E+04  0.7818609E-02  0.8262799E-01
       -2   -1    0    0    0  501  0.00000000000E+00  0.00000000000E+00  0.81882069073E+03  0.81882069073E+03  0.25500000920E-02 0.  1.
        2   -1    0    0  501    0  0.00000000000E+00  0.00000000000E+00 -0.26284865902E+04  0.26284865902E+04  0.25500000920E-02 0. -1.
    10030    2    1    2    0    0  0.00000000000E+00  0.00000000000E+00 -0.18096658995E+04  0.34473072810E+04  0.29341160205E+04 0.  0.
        5    1    3    3  502    0 -0.10719945463E+04  0.35714131645E+03  0.19451325593E+03  0.11465512304E+04  0.46999998093E+01 0.  1.
       -5    1    3    3    0  502  0.10719945463E+04 -0.35714131645E+03 -0.20041791554E+04  0.23007560506E+04  0.46999998093E+01 0. -1.
</event>
<event>
 5   0  0.5154476E-06  0.2454411E+04  0.7818609E-02  0.8419409E-01
       -1   -1    0    0    0  501  0.00000000000E+00  0.00000000000E+00  0.12932436990E+04  0.12932436990E+04  0.50400001928E-02 0. -1.
        1   -1    0    0  501    0  0.00000000000E+00  0.00000000000E+00 -0.11645397187E+04  0.11645397187E+04  0.50400001928E-02 0.  1.
    10030    2    1    2    0    0  0.00000000000E+00  0.00000000000E+00  0.12870398026E+03  0.24577834177E+04  0.24544112560E+04 0.  0.
        3    1    3    3  502    0  0.10912144125E+04  0.20303264683E+03  0.58858103358E+03  0.12563434216E+04  0.10100000352E+00 0. -1.
       -3    1    3    3    0  502 -0.10912144125E+04 -0.20303264683E+03 -0.45987705332E+03  0.12014399961E+04  0.10100000352E+00 0.  1.
</event>
<event>
 5   0  0.5059249E-06  0.2904205E+04  0.7818609E-02  0.8271627E-01
        1   -1    0    0  501    0  0.00000000000E+00  0.00000000000E+00  0.11935096349E+04  0.11935096349E+04  0.50400001928E-02 0. -1.
       -1   -1    0    0    0  501  0.00000000000E+00  0.00000000000E+00 -0.17667240635E+04  0.17667240635E+04  0.50400001928E-02 0.  1.
    10030    2    1    2    0    0  0.00000000000E+00  0.00000000000E+00 -0.57321442858E+03  0.29602336984E+04  0.29042053591E+04 0.  0.
        1    1    3    3  502    0  0.34534623709E+03  0.85288827423E+03  0.85841667095E+03  0.12583964450E+04  0.50400001928E-02 0. -1.
       -1    1    3    3    0  502 -0.34534623709E+03 -0.85288827423E+03 -0.14316310995E+04  0.17018372534E+04  0.50400001928E-02 0.  1.
</event>
<event>
 5   0  0.1385669E-05  0.2882497E+04  0.7818609E-02  0.8278104E-01
        2   -1    0    0  501    0  0.00000000000E+00  0.00000000000E+00  0.23801600469E+04  0.23801600469E+04  0.25500000920E-02 0. -1.
       -2   -1    0    0    0  501  0.00000000000E+00  0.00000000000E+00 -0.87271352009E+03  0.87271352010E+03  0.25500000920E-02 0.  1.
    10030    2    1    2    0    0  0.00000000000E+00  0.00000000000E+00  0.15074465268E+04  0.32528735670E+04  0.28824974261E+04 0.  0.
        3    1    3    3  502    0 -0.91537500551E+03  0.10819341585E+04  0.45792734985E+03  0.14893590541E+04  0.10100000352E+00 0.  1.
       -3    1    3    3    0  502  0.91537500551E+03 -0.10819341585E+04  0.10495191770E+04  0.17635145129E+04  0.10100000352E+00 0. -1.
</event>
<event>
 5   0  0.1339837E-05  0.2707505E+04  0.7818609E-02  0.8332574E-01
        2   -1    0    0  501    0  0.00000000000E+00  0.00000000000E+00  0.12101462369E+04  0.12101462369E+04  0.25500000920E-02 0. -1.
       -2   -1    0    0    0  501  0.00000000000E+00  0.00000000000E+00 -0.15144007623E+04  0.15144007623E+04  0.25500000920E-02 0.  1.
    10030    2    1    2    0    0  0.00000000000E+00  0.00000000000E+00 -0.30425452542E+03  0.27245469991E+04  0.27075054080E+04 0.  0.
        5    1    3    3  502    0 -0.95401710927E+03  0.48718070519E+03  0.68080878264E+03  0.12692581978E+04  0.46999998093E+01 0. -1.
       -5    1    3    3    0  502  0.95401710927E+03 -0.48718070519E+03 -0.98506330806E+03  0.14552888013E+04  0.46999998093E+01 0.  1.
</event>
<event>
 5   0  0.5261878E-06  0.2393272E+04  0.7818609E-02  0.8442027E-01
        1   -1    0    0  501    0  0.00000000000E+00  0.00000000000E+00  0.19420033398E+04  0.19420033399E+04  0.50400001928E-02 0. -1.
       -1   -1    0    0    0  501  0.00000000000E+00  0.00000000000E+00 -0.73735061288E+03  0.73735061290E+03  0.50400001928E-02 0.  1.
    10030    2    1    2    0    0  0.00000000000E+00  0.00000000000E+00  0.12046527270E+04  0.26793539527E+04  0.23932716961E+04 0.  0.
        5    1    3    3  502    0 -0.44429141280E+03  0.58426089996E+02  0.18445104147E+04  0.18981699680E+04  0.46999998093E+01 0. -1.
       -5    1    3    3    0  502  0.44429141280E+03 -0.58426089996E+02 -0.63985768774E+03  0.78118398475E+03  0.46999998093E+01 0.  1.
</event>
<event>
 5   0  0.5352212E-06  0.2902451E+04  0.7818609E-02  0.8272149E-01
        1   -1    0    0  501    0  0.00000000000E+00  0.00000000000E+00  0.14548283076E+04  0.14548283076E+04  0.50400001928E-02 0. -1.
       -1   -1    0    0    0  501  0.00000000000E+00  0.00000000000E+00 -0.14476317475E+04  0.14476317475E+04  0.50400001928E-02 0.  1.
    10030    2    1    2    0    0  0.00000000000E+00  0.00000000000E+00  0.71965600607E+01  0.29024600551E+04  0.29024511332E+04 0.  0.
        2    1    3    3  502    0  0.10155788606E+04  0.40504180532E+03 -0.95065638052E+03  0.14488639826E+04  0.25500000920E-02 0. -1.
       -2    1    3    3    0  502 -0.10155788606E+04 -0.40504180532E+03  0.95785294058E+03  0.14535960725E+04  0.25500000920E-02 0.  1.
</event>
<event>
 5   0  0.1307832E-05  0.2111446E+04  0.7818609E-02  0.8556218E-01
        2   -1    0    0  501    0  0.00000000000E+00  0.00000000000E+00  0.15522078955E+04  0.15522078955E+04  0.25500000920E-02 0. -1.
       -2   -1    0    0    0  501  0.00000000000E+00  0.00000000000E+00 -0.71804244490E+03  0.71804244490E+03  0.25500000920E-02 0.  1.
    10030    2    1    2    0    0  0.00000000000E+00  0.00000000000E+00  0.83416545056E+03  0.22702503404E+04  0.21114460943E+04 0.  0.
        4    1    3    3  502    0  0.10167325167E+04  0.19877716533E+03  0.63557072601E+03  0.12154049254E+04  0.12699999809E+01 0. -1.
       -4    1    3    3    0  502 -0.10167325167E+04 -0.19877716533E+03  0.19859472455E+03  0.10548454150E+04  0.12699999809E+01 0.  1.
</event>
<event>
 5   0  0.1339837E-05  0.2530306E+04  0.7818609E-02  0.8392268E-01
       -2   -1    0    0    0  501  0.00000000000E+00  0.00000000000E+00  0.12699222718E+04  0.12699222718E+04  0.25500000920E-02 0.  1.
        2   -1    0    0  501    0  0.00000000000E+00  0.00000000000E+00 -0.12604012951E+04  0.12604012951E+04  0.25500000920E-02 0. -1.
    10030    2    1    2    0    0  0.00000000000E+00  0.00000000000E+00  0.95209766533E+01  0.25303235669E+04  0.25303056543E+04 0.  0.
        5    1    3    3  502    0  0.58593380061E+02 -0.46796046116E+03 -0.11692024248E+04  0.12607444537E+04  0.46999998093E+01 0. -1.
       -5    1    3    3    0  502 -0.58593380061E+02  0.46796046116E+03  0.11787234015E+04  0.12695791132E+04  0.46999998093E+01 0.  1.
</event>
<event>
 5   0  0.5059249E-06  0.2880037E+04  0.7818609E-02  0.8278842E-01
        1   -1    0    0  501    0  0.00000000000E+00  0.00000000000E+00  0.12321443130E+04  0.12321443131E+04  0.50400001928E-02 0. -1.
       -1   -1    0    0    0  501  0.00000000000E+00  0.00000000000E+00 -0.16829633847E+04  0.16829633847E+04  0.50400001928E-02 0.  1.
    10030    2    1    2    0    0  0.00000000000E+00  0.00000000000E+00 -0.45081907163E+03  0.29151076977E+04  0.28800373355E+04 0.  0.
        1    1    3    3  502    0 -0.37719960832E+03  0.13300378284E+04 -0.63327242211E+03  0.15206295177E+04  0.50400001928E-02 0. -1.
       -1    1    3    3    0  502  0.37719960832E+03 -0.13300378284E+04  0.18245335048E+03  0.13944781800E+04  0.50400001928E-02 0.  1.
</event>
<event>
 5   0  0.1382803E-05  0.2884907E+04  0.7818609E-02  0.8277382E-01
       -2   -1    0    0    0  501  0.00000000000E+00  0.00000000000E+00  0.11265785161E+04  0.11265785161E+04  0.25500000920E-02 0. -1.
        2   -1    0    0  501    0  0.00000000000E+00  0.00000000000E+00 -0.18468948483E+04  0.18468948483E+04  0.25500000920E-02 0.  1.
    10030    2    1    2    0    0  0.00000000000E+00  0.00000000000E+00 -0.72031633228E+03  0.29734733644E+04  0.28849069708E+04 0.  0.
        2    1    3    3  502    0 -0.78947503756E+03 -0.53186423054E+03  0.75686647896E+03  0.12161403133E+04  0.25500000920E-02 0. -1.
       -2    1    3    3    0  502  0.78947503756E+03  0.53186423054E+03 -0.14771828112E+04  0.17573330511E+04  0.25500000920E-02 0.  1.
</event>
<event>
 5   0  0.5352212E-06  0.2781621E+04  0.7818609E-02  0.8308997E-01
        1   -1    0    0  501    0  0.00000000000E+00  0.00000000000E+00  0.18130660595E+04  0.18130660595E+04  0.50400001928E-02 0. -1.
       -1   -1    0    0    0  501  0.00000000000E+00  0.00000000000E+00 -0.10668966122E+04  0.10668966122E+04  0.50400001928E-02 0.  1.
    10030    2    1    2    0    0  0.00000000000E+00  0.00000000000E+00  0.74616944730E+03  0.28799626717E+04  0.27816211363E+04 0.  0.
        2    1    3    3  502    0  0.95375685891E+03  0.67846501061E+03 -0.40473227129E+03  0.12384567526E+04  0.25500000920E-02 0.  1.
       -2    1    3    3    0  502 -0.95375685891E+03 -0.67846501061E+03  0.11509017186E+04  0.16415059191E+04  0.25500000920E-02 0. -1.
</event>
<event>
 5   0  0.1336899E-05  0.2924102E+04  0.7818609E-02  0.8265742E-01
        2   -1    0    0  501    0  0.00000000000E+00  0.00000000000E+00  0.15631404465E+04  0.15631404465E+04  0.25500000920E-02 0.  1.
       -2   -1    0    0    0  501  0.00000000000E+00  0.00000000000E+00 -0.13674988607E+04  0.13674988608E+04  0.25500000920E-02 0. -1.
    10030    2    1    2    0    0  0.00000000000E+00  0.00000000000E+00  0.19564158576E+03  0.29306393073E+04  0.29241017628E+04 0.  0.
        1    1    3    3  502    0  0.99900468746E+03  0.65289684486E+03 -0.74864316923E+03  0.14088119997E+04  0.50400001928E-02 0. -1.
       -1    1    3    3    0  502 -0.99900468746E+03 -0.65289684486E+03  0.94428475498E+03  0.15218273076E+04  0.50400001928E-02 0.  1.
</event>
<event>
 5   0  0.5059249E-06  0.3339888E+04  0.7818609E-02  0.8152819E-01
       -1   -1    0    0    0  501  0.00000000000E+00  0.00000000000E+00  0.12457899372E+04  0.12457899372E+04  0.50400001928E-02 0.  1.
        1   -1    0    0  501    0  0.00000000000E+00  0.00000000000E+00 -0.22385099419E+04  0.22385099419E+04  0.50400001928E-02 0. -1.
    10030    2    1    2    0    0  0.00000000000E+00  0.00000000000E+00 -0.99272000469E+03  0.34842998792E+04  0.33398881179E+04 0.  0.
        1    1    3    3  502    0 -0.13400168917E+04  0.15893832112E+03 -0.15226683811E+04  0.20345578533E+04  0.50400001928E-02 0. -1.
       -1    1    3    3    0  502  0.13400168917E+04 -0.15893832112E+03  0.52994837639E+03  0.14497420258E+04  0.50400001928E-02 0.  1.
</event>
<event>
 5   0  0.5154476E-06  0.2780658E+04  0.7818609E-02  0.8309298E-01
       -1   -1    0    0    0  501  0.00000000000E+00  0.00000000000E+00  0.97169729881E+03  0.97169729882E+03  0.50400001928E-02 0. -1.
        1   -1    0    0  501    0  0.00000000000E+00  0.00000000000E+00 -0.19893185002E+04  0.19893185002E+04  0.50400001928E-02 0.  1.
    10030    2    1    2    0    0  0.00000000000E+00  0.00000000000E+00 -0.10176212014E+04  0.29610157990E+04  0.27806584926E+04 0.  0.
        3    1    3    3  502    0  0.12673443201E+04  0.16375022961E+02 -0.11173540757E+04  0.16896478650E+04  0.10100000352E+00 0.  1.
       -3    1    3    3    0  502 -0.12673443201E+04 -0.16375022961E+02  0.99732874304E+02  0.12713679340E+04  0.10100000352E+00 0. -1.
</event>
<event>
 5   0  0.1307832E-05  0.2884644E+04  0.7818609E-02  0.8277461E-01
       -2   -1    0    0    0  501  0.00000000000E+00  0.00000000000E+00  0.12546748177E+04  0.12546748177E+04  0.25500000920E-02 0.  1.
        2   -1    0    0  501    0  0.00000000000E+00  0.00000000000E+00 -0.16580332527E+04  0.16580332527E+04  0.25500000920E-02 0. -1.
    10030    2    1    2    0    0  0.00000000000E+00  0.00000000000E+00 -0.40335843499E+03  0.29127080705E+04  0.28846438735E+04 0.  0.
        4    1    3    3  502    0  0.60522470052E+02  0.56806353787E+03  0.11355661626E+04  0.12711692551E+04  0.12699999809E+01 0.  1.
       -4    1    3    3    0  502 -0.60522470052E+02 -0.56806353787E+03 -0.15389245976E+04  0.16415388154E+04  0.12699999809E+01 0. -1.
</event>
<event>
 5   0  0.1336899E-05  0.2905929E+04  0.7818609E-02  0.8271116E-01
        2   -1    0    0  501    0  0.00000000000E+00  0.00000000000E+00  0.15989892681E+04  0.15989892681E+04  0.25500000920E-02 0. -1.
       -2   -1    0    0    0  501  0.00000000000E+00  0.00000000000E+00 -0.13202748899E+04  0.13202748899E+04  0.25500000920E-02 0.  1.
    10030    2    1    2    0    0  0.00000000000E+00  0.00000000000E+00  0.27871437817E+03  0.29192641580E+04  0.29059286845E+04 0.  0.
        1    1    3    3  502    0 -0.59428284294E+03 -0.39002772461E+03 -0.11336643338E+04  0.13380913814E+04  0.50400001928E-02 0.  1.
       -1    1    3    3    0  502  0.59428284294E+03  0.39002772461E+03  0.14123787119E+04  0.15811727766E+04  0.50400001928E-02 0. -1.
</event>
<event>
 5   0  0.1339837E-05  0.2930541E+04  0.7818609E-02  0.8263848E-01
       -2   -1    0    0    0  501  0.00000000000E+00  0.00000000000E+00  0.16829326197E+04  0.16829326197E+04  0.25500000920E-02 0.  1.
        2   -1    0    0  501    0  0.00000000000E+00  0.00000000000E+00 -0.12757599408E+04  0.12757599408E+04  0.25500000920E-02 0. -1.
    10030    2    1    2    0    0  0.00000000000E+00  0.00000000000E+00  0.40717267894E+03  0.29586925605E+04  0.29305412601E+04 0.  0.
        5    1    3    3  502    0  0.12359299567E+04  0.40766589639E+03 -0.47614303579E+03  0.13858025189E+04  0.46999998093E+01 0. -1.
       -5    1    3    3    0  502 -0.12359299567E+04 -0.40766589639E+03  0.88331571473E+03  0.15728900416E+04  0.46999998093E+01 0.  1.
</event>
<event>
 5   0  0.5002240E-06  0.2912749E+04  0.7818609E-02  0.8269094E-01
       -1   -1    0    0    0  501  0.00000000000E+00  0.00000000000E+00  0.78494821358E+03  0.78494821359E+03  0.50400001928E-02 0. -1.
        1   -1    0    0  501    0  0.00000000000E+00  0.00000000000E+00 -0.27021224982E+04  0.27021224982E+04  0.50400001928E-02 0.  1.
    10030    2    1    2    0    0  0.00000000000E+00  0.00000000000E+00 -0.19171742847E+04  0.34870707118E+04  0.29127486866E+04 0.  0.
        4    1    3    3  502    0  0.64837765181E+03 -0.55346868932E+03 -0.23722192132E+04  0.25207432987E+04  0.12699999809E+01 0.  1.
       -4    1    3    3    0  502 -0.64837765181E+03  0.55346868932E+03  0.45504492858E+03  0.96632741312E+03  0.12699999809E+01 0. -1.
</event>
<event>
 5   0  0.5261878E-06  0.2857053E+04  0.7818609E-02  0.8285771E-01
       -1   -1    0    0    0  501  0.00000000000E+00  0.00000000000E+00  0.12455627445E+04  0.12455627445E+04  0.50400001928E-02 0. -1.
        1   -1    0    0  501    0  0.00000000000E+00  0.00000000000E+00 -0.16383665057E+04  0.16383665057E+04  0.50400001928E-02 0.  1.
    10030    2    1    2    0    0  0.00000000000E+00  0.00000000000E+00 -0.39280376126E+03  0.28839292502E+04  0.28570532241E+04 0.  0.
        5    1    3    3  502    0  0.18059328640E+02 -0.45971213037E+03 -0.15615308869E+04  0.16279011588E+04  0.46999998093E+01 0.  1.
       -5    1    3    3    0  502 -0.18059328640E+02  0.45971213037E+03  0.11687271256E+04  0.12560280914E+04  0.46999998093E+01 0. -1.
</event>
<event>
 5   0  0.1382803E-05  0.2714779E+04  0.7818609E-02  0.8330226E-01
       -2   -1    0    0    0  501  0.00000000000E+00  0.00000000000E+00  0.20694753295E+04  0.20694753295E+04  0.25500000920E-02 0. -1.
        2   -1    0    0  501    0  0.00000000000E+00  0.00000000000E+00 -0.89032500241E+03  0.89032500241E+03  0.25500000920E-02 0.  1.
    10030    2    1    2    0    0  0.00000000000E+00  0.00000000000E+00  0.11791503271E+04  0.29598003319E+04  0.27147785381E+04 0.  0.
        2    1    3    3  502    0  0.66469669399E+03 -0.62637647017E+03 -0.50521463206E+03  0.10437485338E+04  0.25500000920E-02 0.  1.
       -2    1    3    3    0  502 -0.66469669399E+03  0.62637647017E+03  0.16843649592E+04  0.19160517981E+04  0.25500000920E-02 0. -1.
</event>
<event>
 5   0  0.5002240E-06  0.2015495E+04  0.7818609E-02  0.8599410E-01
       -1   -1    0    0    0  501  0.00000000000E+00  0.00000000000E+00  0.83862378479E+03  0.83862378481E+03  0.50400001928E-02 0.  1.
        1   -1    0    0  501    0  0.00000000000E+00  0.00000000000E+00 -0.12109780511E+04  0.12109780512E+04  0.50400001928E-02 0. -1.
    10030    2    1    2    0    0  0.00000000000E+00  0.00000000000E+00 -0.37235426635E+03  0.20496018360E+04  0.20154949730E+04 0.  0.
        4    1    3    3  502    0  0.38707904388E+03 -0.92886887644E+03 -0.13117105488E+03  0.10148078805E+04  0.12699999809E+01 0. -1.
       -4    1    3    3    0  502 -0.38707904388E+03  0.92886887644E+03 -0.24118321147E+03  0.10347939554E+04  0.12699999809E+01 0.  1.
</event>
<event>
 5   0  0.1339837E-05  0.2954148E+04  0.7818609E-02  0.8256947E-01
        2   -1    0    0  501    0  0.00000000000E+00  0.00000000000E+00  0.15104805960E+04  0.15104805960E+04  0.25500000920E-02 0.  1.
       -2   -1    0    0    0  501  0.00000000000E+00  0.00000000000E+00 -0.14444064703E+04  0.14444064703E+04  0.25500000920E-02 0. -1.
    10030    2    1    2    0    0  0.00000000000E+00  0.00000000000E+00  0.66074125744E+02  0.29548870663E+04  0.29541482334E+04 0.  0.
        5    1    3    3  502    0 -0.76099385480E+03 -0.45270417769E+03  0.12155650078E+04  0.15038859989E+04  0.46999998093E+01 0.  1.
       -5    1    3    3    0  502  0.76099385480E+03  0.45270417769E+03 -0.11494908821E+04  0.14510010674E+04  0.46999998093E+01 0. -1.
</event>
<event>
 5   0  0.5261878E-06  0.2929258E+04  0.7818609E-02  0.8264225E-01
        1   -1    0    0  501    0  0.00000000000E+00  0.00000000000E+00  0.16771064730E+04  0.16771064730E+04  0.50400001928E-02 0. -1.
       -1   -1    0    0    0  501  0.00000000000E+00  0.00000000000E+00 -0.12790705743E+04  0.12790705743E+04  0.50400001928E-02 0.  1.
    10030    2    1    2    0    0  0.00000000000E+00  0.00000000000E+00  0.39803589874E+03  0.29561770473E+04  0.29292576122E+04 0.  0.
        5    1    3    3  502    0  0.59058780867E+03  0.82160013440E+03  0.12676612314E+04  0.16219765190E+04  0.46999998093E+01 0. -1.
       -5    1    3    3    0  502 -0.59058780867E+03 -0.82160013440E+03 -0.86962533266E+03  0.13342005283E+04  0.46999998093E+01 0.  1.
</event>
<event>
 5   0  0.5059249E-06  0.2685565E+04  0.7818609E-02  0.8339704E-01
        1   -1    0    0  501    0  0.00000000000E+00  0.00000000000E+00  0.83989236887E+03  0.83989236889E+03  0.50400001928E-02 0. -1.
       -1   -1    0    0    0  501  0.00000000000E+00  0.00000000000E+00 -0.21467807021E+04  0.21467807021E+04  0.50400001928E-02 0.  1.
    10030    2    1    2    0    0  0.00000000000E+00  0.00000000000E+00 -0.13068883332E+04  0.29866730710E+04  0.26855649159E+04 0.  0.
        1    1    3    3  502    0 -0.78884367933E+03 -0.31154076717E+01 -0.18619163258E+04  0.20221316625E+04  0.50400001928E-02 0.  1.
       -1    1    3    3    0  502  0.78884367933E+03  0.31154076717E+01  0.55502799255E+03  0.96454140851E+03  0.50400001928E-02 0. -1.
</event>
<event>
 5   0  0.1382803E-05  0.2882404E+04  0.7818609E-02  0.8278132E-01
       -2   -1    0    0    0  501  0.00000000000E+00  0.00000000000E+00  0.21814382532E+04  0.21814382532E+04  0.25500000920E-02 0. -1.
        2   -1    0    0  501    0  0.00000000000E+00  0.00000000000E+00 -0.95215311003E+03  0.95215311004E+03  0.25500000920E-02 0.  1.
    10030    2    1    2    0    0  0.00000000000E+00  0.00000000000E+00  0.12292851432E+04  0.31335913633E+04  0.28824040086E+04 0.  0.
        2    1    3    3  502    0  0.89900452852E+03  0.43311125414E+03  0.17451003006E+04  0.20102660420E+04  0.25500000920E-02 0. -1.
       -2    1    3    3    0  502 -0.89900452852E+03 -0.43311125414E+03 -0.51581515736E+03  0.11233253212E+04  0.25500000920E-02 0.  1.
</event>
<event>
 5   0  0.5261878E-06  0.2850563E+04  0.7818609E-02  0.8287740E-01
        1   -1    0    0  501    0  0.00000000000E+00  0.00000000000E+00  0.14273808889E+04  0.14273808889E+04  0.50400001928E-02 0. -1.
       -1   -1    0    0    0  501  0.00000000000E+00  0.00000000000E+00 -0.14231851437E+04  0.14231851437E+04  0.50400001928E-02 0.  1.
    10030    2    1    2    0    0  0.00000000000E+00  0.00000000000E+00  0.41957451772E+01  0.28505660326E+04  0.28505629447E+04 0.  0.
        5    1    3    3  502    0 -0.43553824742E+03 -0.63847523479E+03 -0.11954262825E+04  0.14235203817E+04  0.46999998093E+01 0.  1.
       -5    1    3    3    0  502  0.43553824742E+03  0.63847523479E+03  0.11996220276E+04  0.14270456508E+04  0.46999998093E+01 0. -1.
</event>
<event>
 5   0  0.1336899E-05  0.2718102E+04  0.7818609E-02  0.8329155E-01
       -2   -1    0    0    0  501  0.00000000000E+00  0.00000000000E+00  0.16579109263E+04  0.16579109263E+04  0.25500000920E-02 0.  1.
        2   -1    0    0  501    0  0.00000000000E+00  0.00000000000E+00 -0.11140646036E+04  0.11140646036E+04  0.25500000920E-02 0. -1.
    10030    2    1    2    0    0  0.00000000000E+00  0.00000000000E+00  0.54384632270E+03  0.27719755299E+04  0.27181021901E+04 0.  0.
        1    1    3    3  502    0 -0.90940602569E+03 -0.98830566815E+03  0.48401748550E+03  0.14275995025E+04  0.50400001928E-02 0. -1.
       -1    1    3    3    0  502  0.90940602569E+03  0.98830566815E+03  0.59828837204E+02  0.13443760274E+04  0.50400001928E-02 0.  1.
</event>
<event>
 5   0  0.5059249E-06  0.2850315E+04  0.7818609E-02  0.8287816E-01
        1   -1    0    0  501    0  0.00000000000E+00  0.00000000000E+00  0.15866066263E+04  0.15866066263E+04  0.50400001928E-02 0. -1.
       -1   -1    0    0    0  501  0.00000000000E+00  0.00000000000E+00 -0.12801368597E+04  0.12801368597E+04  0.50400001928E-02 0.  1.
    10030    2    1    2    0    0  0.00000000000E+00  0.00000000000E+00  0.30646976657E+03  0.28667434860E+04  0.28503148066E+04 0.  0.
        1    1    3    3  502    0 -0.92365540460E+03 -0.14417999135E+03  0.12351424763E+04  0.15490332834E+04  0.50400001928E-02 0. -1.
       -1    1    3    3    0  502  0.92365540460E+03  0.14417999135E+03 -0.92867270970E+03  0.13177102026E+04  0.50400001928E-02 0.  1.
</event>
<event>
 5   0  0.5352212E-06  0.2850193E+04  0.7818609E-02  0.8287853E-01
       -1   -1    0    0    0  501  0.00000000000E+00  0.00000000000E+00  0.82636191619E+03  0.82636191620E+03  0.50400001928E-02 0.  1.
        1   -1    0    0  501    0  0.00000000000E+00  0.00000000000E+00 -0.24576407382E+04  0.24576407382E+04  0.50400001928E-02 0. -1.
    10030    2    1    2    0    0  0.00000000000E+00  0.00000000000E+00 -0.16312788220E+04  0.32840026544E+04  0.28501934740E+04 0.  0.
        2    1    3    3  502    0  0.38624972448E+03 -0.10291049645E+03  0.76044737627E+03  0.85910397044E+03  0.25500000920E-02 0.  1.
       -2    1    3    3    0  502 -0.38624972448E+03  0.10291049645E+03 -0.23917261983E+04  0.24248986840E+04  0.25500000920E-02 0. -1.
</event>
<event>
 5   0  0.1307832E-05  0.2941580E+04  0.7818609E-02  0.8260613E-01
       -2   -1    0    0    0  501  0.00000000000E+00  0.00000000000E+00  0.15249561767E+04  0.15249561767E+04  0.25500000920E-02 0. -1.
        2   -1    0    0  501    0  0.00000000000E+00  0.00000000000E+00 -0.14185481754E+04  0.14185481754E+04  0.25500000920E-02 0.  1.
    10030    2    1    2    0    0  0.00000000000E+00  0.00000000000E+00  0.10640800138E+03  0.29435043521E+04  0.29415803929E+04 0.  0.
        4    1    3    3  502    0 -0.70626752971E+03 -0.68388288173E+03  0.11478630875E+04  0.15113242207E+04  0.12699999809E+01 0. -1.
       -4    1    3    3    0  502  0.70626752971E+03  0.68388288173E+03 -0.10414550861E+04  0.14321801314E+04  0.12699999809E+01 0.  1.
</event>
<event>
 5   0  0.1382803E-05  0.2855686E+04  0.7818609E-02  0.8286186E-01
        2   -1    0    0  501    0  0.00000000000E+00  0.00000000000E+00  0.12595779104E+04  0.12595779104E+04  0.25500000920E-02 0. -1.
       -2   -1    0    0    0  501  0.00000000000E+00  0.00000000000E+00 -0.16185864792E+04  0.16185864792E+04  0.25500000920E-02 0.  1.
    10030    2    1    2    0    0  0.00000000000E+00  0.00000000000E+00 -0.35900856888E+03  0.28781643896E+04  0.28556860999E+04 0.  0.
        2    1    3    3  502    0  0.83297869783E+03  0.93640225267E+03 -0.86901878713E+03  0.15250889621E+04  0.25500000920E-02 0. -1.
       -2    1    3    3    0  502 -0.83297869783E+03 -0.93640225267E+03  0.51001021825E+03  0.13530754275E+04  0.25500000920E-02 0.  1.
</event>
<event>
 5   0  0.1307832E-05  0.2780789E+04  0.7818609E-02  0.8309257E-01
        2   -1    0    0  501    0  0.00000000000E+00  0.00000000000E+00  0.22510271360E+04  0.22510271360E+04  0.25500000920E-02 0.  1.
       -2   -1    0    0    0  501  0.00000000000E+00  0.00000000000E+00 -0.85880684390E+03  0.85880684390E+03  0.25500000920E-02 0. -1.
    10030    2    1    2    0    0  0.00000000000E+00  0.00000000000E+00  0.13922202921E+04  0.31098339799E+04  0.27807894636E+04 0.  0.
        4    1    3    3  502    0 -0.44837606851E+03 -0.72751359486E+03 -0.53042507805E+03  0.10058178293E+04  0.12699999809E+01 0. -1.
       -4    1    3    3    0  502  0.44837606851E+03  0.72751359486E+03  0.19226453701E+04  0.21040161505E+04  0.12699999809E+01 0.  1.
</event>
<event>
 5   0  0.5352212E-06  0.2485498E+04  0.7818609E-02  0.8408170E-01
        1   -1    0    0  501    0  0.00000000000E+00  0.00000000000E+00  0.14835403435E+04  0.14835403435E+04  0.50400001928E-02 0. -1.
       -1   -1    0    0    0  501  0.00000000000E+00  0.00000000000E+00 -0.10410401630E+04  0.10410401630E+04  0.50400001928E-02 0.  1.
    10030    2    1    2    0    0  0.00000000000E+00  0.00000000000E+00  0.44250018044E+03  0.25245805065E+04  0.24854980033E+04 0.  0.
        2    1    3    3  502    0 -0.58503246600E+03 -0.10962374526E+04  0.24220313862E+03  0.12659628348E+04  0.25500000920E-02 0. -1.
       -2    1    3    3    0  502  0.58503246600E+03  0.10962374526E+04  0.20029704182E+03  0.12586176718E+04  0.25500000920E-02 0.  1.
</event>
<event>
 5   0  0.1336899E-05  0.2801879E+04  0.7818609E-02  0.8302685E-01
       -2   -1    0    0    0  501  0.00000000000E+00  0.00000000000E+00  0.20336894190E+04  0.20336894190E+04  0.25500000920E-02 0. -1.
        2   -1    0    0  501    0  0.00000000000E+00  0.00000000000E+00 -0.96505943724E+03  0.96505943724E+03  0.25500000920E-02 0.  1.
    10030    2    1    2    0    0  0.00000000000E+00  0.00000000000E+00  0.10686299818E+04  0.29987488563E+04  0.28018787741E+04 0.  0.
        1    1    3    3  502    0  0.11678586707E+04 -0.58856770393E+03 -0.32997841048E+01  0.13077907728E+04  0.50400001928E-02 0. -1.
       -1    1    3    3    0  502 -0.11678586707E+04  0.58856770393E+03  0.10719297659E+04  0.16909580834E+04  0.50400001928E-02 0.  1.
</event>
<event>
 5   0  0.5002240E-06  0.2941699E+04  0.7818609E-02  0.8260578E-01
        1   -1    0    0  501    0  0.00000000000E+00  0.00000000000E+00  0.17464982078E+04  0.17464982078E+04  0.50400001928E-02 0. -1.
       -1   -1    0    0    0  501  0.00000000000E+00  0.00000000000E+00 -0.12387060496E+04  0.12387060496E+04  0.50400001928E-02 0.  1.
    10030    2    1    2    0    0  0.00000000000E+00  0.00000000000E+00  0.50779215821E+03  0.29852042574E+04  0.29416987579E+04 0.  0.
        4    1    3    3  502    0 -0.95171459781E+03  0.39511830285E+03  0.13189497256E+04  0.16737709343E+04  0.12699999809E+01 0. -1.
       -4    1    3    3    0  502  0.95171459781E+03 -0.39511830285E+03 -0.81115756737E+03  0.13114333231E+04  0.12699999809E+01 0.  1.
</event>
<event>
 5   0  0.5352212E-06  0.2896606E+04  0.7818609E-02  0.8273888E-01
       -1   -1    0    0    0  501  0.00000000000E+00  0.00000000000E+00  0.16428333165E+04  0.16428333165E+04  0.50400001928E-02 0. -1.
        1   -1    0    0  501    0  0.00000000000E+00  0.00000000000E+00 -0.12768075538E+04  0.12768075538E+04  0.50400001928E-02 0.  1.
    10030    2    1    2    0    0  0.00000000000E+00  0.00000000000E+00  0.36602576266E+03  0.29196408703E+04  0.28966062819E+04 0.  0.
        2    1    3    3  502    0  0.62648280992E+03 -0.12055106567E+04 -0.32281984100E+03  0.13964058522E+04  0.25500000920E-02 0. -1.
       -2    1    3    3    0  502 -0.62648280992E+03  0.12055106567E+04  0.68884560366E+03  0.15232350180E+04  0.25500000920E-02 0.  1.
</event>
<event>
 5   0  0.5059249E-06  0.2932755E+04  0.7818609E-02  0.8263198E-01
        1   -1    0    0  501    0  0.00000000000E+00  0.00000000000E+00  0.21923715350E+04  0.21923715350E+04  0.50400001928E-02 0. -1.
       -1   -1    0    0    0  501  0.00000000000E+00  0.00000000000E+00 -0.98079292319E+03  0.98079292320E+03  0.50400001928E-02 0.  1.
    10030    2    1    2    0    0  0.00000000000E+00  0.00000000000E+00  0.12115786118E+04  0.31731644582E+04  0.29327546686E+04 0.  0.
        1    1    3    3  502    0  0.18191941336E+03  0.13238384177E+04 -0.47547140095E+02  0.13371251100E+04  0.50400001928E-02 0.  1.
       -1    1    3    3    0  502 -0.18191941336E+03 -0.13238384177E+04  0.12591257519E+04  0.18360393482E+04  0.50400001928E-02 0. -1.
</event>
<event>
 5   0  0.1336899E-05  0.2572110E+04  0.7818609E-02  0.8377737E-01
        2   -1    0    0  501    0  0.00000000000E+00  0.00000000000E+00  0.10144478956E+04  0.10144478956E+04  0.25500000920E-02 0. -1.
       -2   -1    0    0    0  501  0.00000000000E+00  0.00000000000E+00 -0.16303820351E+04  0.16303820351E+04  0.25500000920E-02 0.  1.
    10030    2    1    2    0    0  0.00000000000E+00  0.00000000000E+00 -0.61593413945E+03  0.26448299307E+04  0.25721101256E+04 0.  0.
        1    1    3    3  502    0 -0.80384255765E+03 -0.10010440372E+04 -0.38550182915E+03  0.13404714403E+04  0.50400001928E-02 0.  1.
       -1    1    3    3    0  502  0.80384255765E+03  0.10010440372E+04 -0.23043231030E+03  0.13043584904E+04  0.50400001928E-02 0. -1.
</event>
<event>
 5   0  0.5059249E-06  0.2878453E+04  0.7818609E-02  0.8279317E-01
       -1   -1    0    0    0  501  0.00000000000E+00  0.00000000000E+00  0.79979295349E+03  0.79979295351E+03  0.50400001928E-02 0. -1.
        1   -1    0    0  501    0  0.00000000000E+00  0.00000000000E+00 -0.25898869785E+04  0.25898869785E+04  0.50400001928E-02 0.  1.
    10030    2    1    2    0    0  0.00000000000E+00  0.00000000000E+00 -0.17900940250E+04  0.33896799320E+04  0.28784533040E+04 0.  0.
        1    1    3    3  502    0 -0.97577867833E+03 -0.10482825203E+04 -0.10629665130E+04  0.17835184550E+04  0.50400001928E-02 0.  1.
       -1    1    3    3    0  502  0.97577867833E+03  0.10482825203E+04 -0.72712751206E+03  0.16061614770E+04  0.50400001928E-02 0. -1.
</event>
<event>
 5   0  0.5261878E-06  0.2881854E+04  0.7818609E-02  0.8278297E-01
        1   -1    0    0  501    0  0.00000000000E+00  0.00000000000E+00  0.14142159953E+04  0.14142159953E+04  0.50400001928E-02 0. -1.
       -1   -1    0    0    0  501  0.00000000000E+00  0.00000000000E+00 -0.14681423096E+04  0.14681423096E+04  0.50400001928E-02 0.  1.
    10030    2    1    2    0    0  0.00000000000E+00  0.00000000000E+00 -0.53926314235E+02  0.28823583049E+04  0.28818538045E+04 0.  0.
        5    1    3    3  502    0  0.11747910730E+04  0.83432258619E+03 -0.31436579611E+02  0.14412628461E+04  0.46999998093E+01 0.  1.
       -5    1    3    3    0  502 -0.11747910730E+04 -0.83432258619E+03 -0.22489734623E+02  0.14410954588E+04  0.46999998093E+01 0. -1.
</event>
<event>
 5   0  0.5154476E-06  0.2943659E+04  0.7818609E-02  0.8260005E-01
       -1   -1    0    0    0  501  0.00000000000E+00  0.00000000000E+00  0.10164939465E+04  0.10164939465E+04  0.50400001928E-02 0. -1.
        1   -1    0    0  501    0  0.00000000000E+00  0.00000000000E+00 -0.21311311186E+04  0.21311311186E+04  0.50400001928E-02 0.  1.
    10030    2    1    2    0    0  0.00000000000E+00  0.00000000000E+00 -0.11146371722E+04  0.31476250651E+04  0.29436588670E+04 0.  0.
        3    1    3    3  502    0 -0.31762568964E+03 -0.81300841759E+03 -0.18245121324E+04  0.20225511853E+04  0.10100000352E+00 0.  1.
       -3    1    3    3    0  502  0.31762568964E+03  0.81300841759E+03  0.70987496020E+03  0.11250738798E+04  0.10100000352E+00 0. -1.
</event>
<event>
 5   0  0.1382803E-05  0.2944459E+04  0.7818609E-02  0.8259771E-01
        2   -1    0    0  501    0  0.00000000000E+00  0.00000000000E+00  0.17521471476E+04  0.17521471476E+04  0.25500000920E-02 0.  1.
       -2   -1    0    0    0  501  0.00000000000E+00  0.00000000000E+00 -0.12370310473E+04  0.12370310473E+04  0.25500000920E-02 0. -1.
    10030    2    1    2    0    0  0.00000000000E+00  0.00000000000E+00  0.51511610031E+03  0.29891781948E+04  0.29444594892E+04 0.  0.
        2    1    3    3  502    0 -0.82643429384E+03 -0.44010984382E+03  0.14109334151E+04  0.16933468099E+04  0.25500000920E-02 0.  1.
       -2    1    3    3    0  502  0.82643429384E+03  0.44010984382E+03 -0.89581731482E+03  0.12958313849E+04  0.25500000920E-02 0. -1.
</event>
<event>
 5   0  0.1382803E-05  0.2958391E+04  0.7818609E-02  0.8255713E-01
        2   -1    0    0  501    0  0.00000000000E+00  0.00000000000E+00  0.20053242724E+04  0.20053242724E+04  0.25500000920E-02 0.  1.
       -2   -1    0    0    0  501  0.00000000000E+00  0.00000000000E+00 -0.10911048336E+04  0.10911048336E+04  0.25500000920E-02 0. -1.
    10030    2    1    2    0    0  0.00000000000E+00  0.00000000000E+00  0.91421943884E+03  0.30964291060E+04  0.29583907832E+04 0.  0.
        2    1    3    3  502    0  0.18027359837E+03 -0.13725407632E+04  0.10026317390E+04  0.17092797082E+04  0.25500000920E-02 0.  1.
       -2    1    3    3    0  502 -0.18027359837E+03  0.13725407632E+04 -0.88412300197E+02  0.13871493977E+04  0.25500000920E-02 0. -1.
</event>
<event>
 5   0  0.1307832E-05  0.2197008E+04  0.7818609E-02  0.8519674E-01
        2   -1    0    0  501    0  0.00000000000E+00  0.00000000000E+00  0.99794946069E+03  0.99794946070E+03  0.25500000920E-02 0. -1.
       -2   -1    0    0    0  501  0.00000000000E+00  0.00000000000E+00 -0.12091908466E+04  0.12091908466E+04  0.25500000920E-02 0.  1.
    10030    2    1    2    0    0  0.00000000000E+00  0.00000000000E+00 -0.21124138589E+03  0.22071403073E+04  0.21970082870E+04 0.  0.
        4    1    3    3  502    0 -0.61674847200E+03  0.44967873619E+03 -0.89927674178E+03  0.11795295311E+04  0.12699999809E+01 0.  1.
       -4    1    3    3    0  502  0.61674847200E+03 -0.44967873619E+03  0.68803535589E+03  0.10276107762E+04  0.12699999809E+01 0. -1.
</event>
<event>
 5   0  0.5261878E-06  0.2966407E+04  0.7818609E-02  0.8253389E-01
       -1   -1    0    0    0  501  0.00000000000E+00  0.00000000000E+00  0.99090419885E+03  0.99090419886E+03  0.50400001928E-02 0. -1.
        1   -1    0    0  501    0  0.00000000000E+00  0.00000000000E+00 -0.22200865848E+04  0.22200865848E+04  0.50400001928E-02 0.  1.
    10030    2    1    2    0    0  0.00000000000E+00  0.00000000000E+00 -0.12291823859E+04  0.32109907836E+04  0.29664073346E+04 0.  0.
        5    1    3    3  502    0  0.22270406180E+03 -0.51218284523E+03  0.87272283120E+03  0.10361445827E+04  0.46999998093E+01 0. -1.
       -5    1    3    3    0  502 -0.22270406180E+03  0.51218284523E+03 -0.21019052171E+04  0.21748462010E+04  0.46999998093E+01 0.  1.
</event>
<event>
 5   0  0.5154476E-06  0.2678947E+04  0.7818609E-02  0.8341868E-01
        1   -1    0    0  501    0  0.00000000000E+00  0.00000000000E+00  0.17251912334E+04  0.17251912334E+04  0.50400001928E-02 0.  1.
       -1   -1    0    0    0  501  0.00000000000E+00  0.00000000000E+00 -0.10399942640E+04  0.10399942640E+04  0.50400001928E-02 0. -1.
    10030    2    1    2    0    0  0.00000000000E+00  0.00000000000E+00  0.68519696940E+03  0.27651854973E+04  0.26789467982E+04 0.  0.
        3    1    3    3  502    0  0.96872116237E+03 -0.50755403155E+03 -0.45570467043E+03  0.11847778451E+04  0.10100000352E+00 0. -1.
       -3    1    3    3    0  502 -0.96872116237E+03  0.50755403155E+03  0.11409016398E+04  0.15804076523E+04  0.10100000352E+00 0.  1.
</event>
<event>
 5   0  0.5002240E-06  0.2906470E+04  0.7818609E-02  0.8270955E-01
        1   -1    0    0  501    0  0.00000000000E+00  0.00000000000E+00  0.21548854925E+04  0.21548854925E+04  0.50400001928E-02 0.  1.
       -1   -1    0    0    0  501  0.00000000000E+00  0.00000000000E+00 -0.98004825524E+03  0.98004825526E+03  0.50400001928E-02 0. -1.
    10030    2    1    2    0    0  0.00000000000E+00  0.00000000000E+00  0.11748372373E+04  0.31349337478E+04  0.29064698637E+04 0.  0.
        4    1    3    3  502    0 -0.61673032275E+03  0.12562925633E+04  0.10096796497E+04  0.17257119990E+04  0.12699999809E+01 0.  1.
       -4    1    3    3    0  502  0.61673032275E+03 -0.12562925633E+04  0.16515758757E+03  0.14092217488E+04  0.12699999809E+01 0. -1.
</event>
<event>
 5   0  0.1339837E-05  0.2905418E+04  0.7818609E-02  0.8271267E-01
        2   -1    0    0  501    0  0.00000000000E+00  0.00000000000E+00  0.14433162656E+04  0.14433162656E+04  0.25500000920E-02 0.  1.
       -2   -1    0    0    0  501  0.00000000000E+00  0.00000000000E+00 -0.14621624231E+04  0.14621624231E+04  0.25500000920E-02 0. -1.
    10030    2    1    2    0    0  0.00000000000E+00  0.00000000000E+00 -0.18846157445E+02  0.29054786887E+04  0.29054175660E+04 0.  0.
        5    1    3    3  502    0  0.10707995526E+04 -0.46508128455E+03 -0.87398070172E+03  0.14583472289E+04  0.46999998093E+01 0.  1.
       -5    1    3    3    0  502 -0.10707995526E+04  0.46508128455E+03  0.85513454428E+03  0.14471314598E+04  0.46999998093E+01 0. -1.
</event>
<event>
 5   0  0.5154476E-06  0.2953531E+04  0.7818609E-02  0.8257126E-01
       -1   -1    0    0    0  501  0.00000000000E+00  0.00000000000E+00  0.13901503222E+04  0.13901503222E+04  0.50400001928E-02 0. -1.
        1   -1    0    0  501    0  0.00000000000E+00  0.00000000000E+00 -0.15687777571E+04  0.15687777571E+04  0.50400001928E-02 0.  1.
    10030    2    1    2    0    0  0.00000000000E+00  0.00000000000E+00 -0.17862743490E+03  0.29589280793E+04  0.29535313809E+04 0.  0.
        3    1    3    3  502    0 -0.10253481866E+04  0.10001099943E+03  0.97068185703E+03  0.14154732006E+04  0.10100000352E+00 0. -1.
       -3    1    3    3    0  502  0.10253481866E+04 -0.10001099943E+03 -0.11493092919E+04  0.15434548787E+04  0.10100000352E+00 0.  1.
</event>
<event>
 5   0  0.5352212E-06  0.2831808E+04  0.7818609E-02  0.8293461E-01
       -1   -1    0    0    0  501  0.00000000000E+00  0.00000000000E+00  0.84921628014E+03  0.84921628016E+03  0.50400001928E-02 0. -1.
        1   -1    0    0  501    0  0.00000000000E+00  0.00000000000E+00 -0.23607462460E+04  0.23607462460E+04  0.50400001928E-02 0.  1.
    10030    2    1    2    0    0  0.00000000000E+00  0.00000000000E+00 -0.15115299659E+04  0.32099625262E+04  0.28318080058E+04 0.  0.
        2    1    3    3  502    0 -0.70103004587E+03  0.51566560464E+03  0.51026575526E+03  0.10088237121E+04  0.25500000920E-02 0. -1.
       -2    1    3    3    0  502  0.70103004587E+03 -0.51566560464E+03 -0.20217957212E+04  0.22011388141E+04  0.25500000920E-02 0.  1.
</event>
<event>
 5   0  0.1385669E-05  0.2917704E+04  0.7818609E-02  0.8267629E-01
       -2   -1    0    0    0  501  0.00000000000E+00  0.00000000000E+00  0.93306305641E+03  0.93306305641E+03  0.25500000920E-02 0.  1.
        2   -1    0    0  501    0  0.00000000000E+00  0.00000000000E+00 -0.22809272865E+04  0.22809272865E+04  0.25500000920E-02 0. -1.
    10030    2    1    2    0    0  0.00000000000E+00  0.00000000000E+00 -0.13478642301E+04  0.32139903429E+04  0.29177038818E+04 0.  0.
        3    1    3    3  502    0 -0.35333236679E+03  0.78439859018E+03 -0.19717611803E+04  0.21512710364E+04  0.10100000352E+00 0.  1.
       -3    1    3    3    0  502  0.35333236679E+03 -0.78439859018E+03  0.62389695023E+03  0.10627193065E+04  0.10100000352E+00 0. -1.
</event>
<event>
 5   0  0.5154476E-06  0.2920605E+04  0.7818609E-02  0.8266773E-01
       -1   -1    0    0    0  501  0.00000000000E+00  0.00000000000E+00  0.73318708561E+03  0.73318708562E+03  0.50400001928E-02 0. -1.
        1   -1    0    0  501    0  0.00000000000E+00  0.00000000000E+00 -0.29085124260E+04  0.29085124260E+04  0.50400001928E-02 0.  1.
    10030    2    1    2    0    0  0.00000000000E+00  0.00000000000E+00 -0.21753253404E+04  0.36416995116E+04  0.29206052449E+04 0.  0.
        3    1    3    3  502    0  0.88692885699E+03 -0.39442092779E+03 -0.24480248569E+04  0.26334457230E+04  0.10100000352E+00 0.  1.
       -3    1    3    3    0  502 -0.88692885699E+03  0.39442092779E+03  0.27269951659E+03  0.10082537886E+04  0.10100000352E+00 0. -1.
</event>
<event>
 5   0  0.5154476E-06  0.3011976E+04  0.7818609E-02  0.8240319E-01
        1   -1    0    0  501    0  0.00000000000E+00  0.00000000000E+00  0.17631315912E+04  0.17631315912E+04  0.50400001928E-02 0.  1.
       -1   -1    0    0    0  501  0.00000000000E+00  0.00000000000E+00 -0.12863476592E+04  0.12863476592E+04  0.50400001928E-02 0. -1.
    10030    2    1    2    0    0  0.00000000000E+00  0.00000000000E+00  0.47678393192E+03  0.30494792504E+04  0.30119762252E+04 0.  0.
        3    1    3    3  502    0  0.10424063725E+04 -0.85193424641E+03 -0.44499179812E+03  0.14178930553E+04  0.10100000352E+00 0. -1.
       -3    1    3    3    0  502 -0.10424063725E+04  0.85193424641E+03  0.92177573004E+03  0.16315861952E+04  0.10100000352E+00 0.  1.
</event>
<event>
 5   0  0.5154476E-06  0.2869377E+04  0.7818609E-02  0.8282047E-01
        1   -1    0    0  501    0  0.00000000000E+00  0.00000000000E+00  0.15724346745E+04  0.15724346746E+04  0.50400001928E-02 0. -1.
       -1   -1    0    0    0  501  0.00000000000E+00  0.00000000000E+00 -0.13090089815E+04  0.13090089815E+04  0.50400001928E-02 0.  1.
    10030    2    1    2    0    0  0.00000000000E+00  0.00000000000E+00  0.26342569307E+03  0.28814436560E+04  0.28693770138E+04 0.  0.
        3    1    3    3  502    0 -0.81654597473E+03  0.73043661553E+03 -0.79849036299E+03  0.13556813225E+04  0.10100000352E+00 0.  1.
       -3    1    3    3    0  502  0.81654597473E+03 -0.73043661553E+03  0.10619160561E+04  0.15257623336E+04  0.10100000352E+00 0. -1.
</event>
<event>
 5   0  0.1339837E-05  0.2906517E+04  0.7818609E-02  0.8270941E-01
        2   -1    0    0  501    0  0.00000000000E+00  0.00000000000E+00  0.22948226965E+04  0.22948226965E+04  0.25500000920E-02 0. -1.
       -2   -1    0    0    0  501  0.00000000000E+00  0.00000000000E+00 -0.92031535010E+03  0.92031535010E+03  0.25500000920E-02 0.  1.
    10030    2    1    2    0    0  0.00000000000E+00  0.00000000000E+00  0.13745073464E+04  0.32151380466E+04  0.29065171965E+04 0.  0.
        5    1    3    3  502    0 -0.52565370499E+03  0.68375228036E+03  0.19811132706E+04  0.21607084208E+04  0.46999998093E+01 0. -1.
       -5    1    3    3    0  502  0.52565370499E+03 -0.68375228036E+03 -0.60660592426E+03  0.10544296258E+04  0.46999998093E+01 0.  1.
</event>
<event>
 5   0  0.5002240E-06  0.2864134E+04  0.7818609E-02  0.8283629E-01
        1   -1    0    0  501    0  0.00000000000E+00  0.00000000000E+00  0.25031274943E+04  0.25031274943E+04  0.50400001928E-02 0. -1.
       -1   -1    0    0    0  501  0.00000000000E+00  0.00000000000E+00 -0.81930159225E+03  0.81930159227E+03  0.50400001928E-02 0.  1.
    10030    2    1    2    0    0  0.00000000000E+00  0.00000000000E+00  0.16838259021E+04  0.33224290866E+04  0.28641343137E+04 0.  0.
        4    1    3    3  502    0 -0.13103066043E+04  0.81903369164E+02  0.15054590357E+04  0.19975034619E+04  0.12699999809E+01 0. -1.
       -4    1    3    3    0  502  0.13103066043E+04 -0.81903369164E+02  0.17836686638E+03  0.13249256247E+04  0.12699999809E+01 0.  1.
</event>
<event>
 5   0  0.5002240E-06  0.2904513E+04  0.7818609E-02  0.8271536E-01
       -1   -1    0    0    0  501  0.00000000000E+00  0.00000000000E+00  0.13095148786E+04  0.13095148786E+04  0.50400001928E-02 0. -1.
        1   -1    0    0  501    0  0.00000000000E+00  0.00000000000E+00 -0.16105578569E+04  0.16105578569E+04  0.50400001928E-02 0.  1.
    10030    2    1    2    0    0  0.00000000000E+00  0.00000000000E+00 -0.30104297833E+03  0.29200727356E+04  0.29045133682E+04 0.  0.
        4    1    3    3  502    0  0.13342976166E+04 -0.42023352350E+03 -0.54261266311E+03  0.15004587495E+04  0.12699999809E+01 0. -1.
       -4    1    3    3    0  502 -0.13342976166E+04  0.42023352350E+03  0.24156968478E+03  0.14196139861E+04  0.12699999809E+01 0.  1.
</event>
<event>
 5   0  0.1385669E-05  0.2928486E+04  0.7818609E-02  0.8264452E-01
        2   -1    0    0  501    0  0.00000000000E+00  0.00000000000E+00  0.15521202872E+04  0.15521202872E+04  0.25500000920E-02 0. -1.
       -2   -1    0    0    0  501  0.00000000000E+00  0.00000000000E+00 -0.13813408380E+04  0.13813408380E+04  0.25500000920E-02 0.  1.
    10030    2    1    2    0    0  0.00000000000E+00  0.00000000000E+00  0.17077944924E+03  0.29334611252E+04  0.29284857099E+04 0.  0.
        3    1    3    3  502    0  0.11511935170E+04 -0.71379147325E+03  0.64244815604E+03  0.14991612403E+04  0.10100000352E+00 0. -1.
       -3    1    3    3    0  502 -0.11511935170E+04  0.71379147325E+03 -0.47166870680E+03  0.14342998850E+04  0.10100000352E+00 0.  1.
</event>
<event>
 5   0  0.1307832E-05  0.2849763E+04  0.7818609E-02  0.8287983E-01
        2   -1    0    0  501    0  0.00000000000E+00  0.00000000000E+00  0.12521921995E+04  0.12521921995E+04  0.25500000920E-02 0.  1.
       -2   -1    0    0    0  501  0.00000000000E+00  0.00000000000E+00 -0.16213864744E+04  0.16213864744E+04  0.25500000920E-02 0. -1.
    10030    2    1    2    0    0  0.00000000000E+00  0.00000000000E+00 -0.36919427487E+03  0.28735786739E+04  0.28497631450E+04 0.  0.
        4    1    3    3  502    0  0.12955453308E+04  0.10652246820E+03 -0.77299842316E+03  0.15123864967E+04  0.12699999809E+01 0. -1.
       -4    1    3    3    0  502 -0.12955453308E+04 -0.10652246820E+03  0.40380414829E+03  0.13611921772E+04  0.12699999809E+01 0.  1.
</event>
<event>
 5   0  0.1307832E-05  0.2896154E+04  0.7818609E-02  0.8274023E-01
       -2   -1    0    0    0  501  0.00000000000E+00  0.00000000000E+00  0.14205761713E+04  0.14205761713E+04  0.25500000920E-02 0.  1.
        2   -1    0    0  501    0  0.00000000000E+00  0.00000000000E+00 -0.14761104763E+04  0.14761104763E+04  0.25500000920E-02 0. -1.
    10030    2    1    2    0    0  0.00000000000E+00  0.00000000000E+00 -0.55534305016E+02  0.28966866476E+04  0.28961542561E+04 0.  0.
        4    1    3    3  502    0  0.66723714879E+03 -0.75597202126E+03  0.10117634302E+04  0.14284137921E+04  0.12699999809E+01 0.  1.
       -4    1    3    3    0  502 -0.66723714879E+03  0.75597202126E+03 -0.10672977353E+04  0.14682728555E+04  0.12699999809E+01 0. -1.
</event>
<event>
 5   0  0.5261878E-06  0.2914019E+04  0.7818609E-02  0.8268719E-01
        1   -1    0    0  501    0  0.00000000000E+00  0.00000000000E+00  0.15791212597E+04  0.15791212597E+04  0.50400001928E-02 0. -1.
       -1   -1    0    0    0  501  0.00000000000E+00  0.00000000000E+00 -0.13443403725E+04  0.13443403725E+04  0.50400001928E-02 0.  1.
    10030    2    1    2    0    0  0.00000000000E+00  0.00000000000E+00  0.23478088724E+03  0.29234616323E+04  0.29140188486E+04 0.  0.
        5    1    3    3  502    0  0.13813633061E+04  0.12879326460E+03  0.56391933530E+03  0.14975911976E+04  0.46999998093E+01 0. -1.
       -5    1    3    3    0  502 -0.13813633061E+04 -0.12879326460E+03 -0.32913844806E+03  0.14258704347E+04  0.46999998093E+01 0.  1.
</event>
<event>
 5   0  0.5154476E-06  0.2853543E+04  0.7818609E-02  0.8286836E-01
       -1   -1    0    0    0  501  0.00000000000E+00  0.00000000000E+00  0.16723122742E+04  0.16723122742E+04  0.50400001928E-02 0. -1.
        1   -1    0    0  501    0  0.00000000000E+00  0.00000000000E+00 -0.12172827275E+04  0.12172827275E+04  0.50400001928E-02 0.  1.
    10030    2    1    2    0    0  0.00000000000E+00  0.00000000000E+00  0.45502954670E+03  0.28895950017E+04  0.28535429532E+04 0.  0.
        3    1    3    3  502    0 -0.17984954900E+03  0.11106411082E+04  0.11159864285E+04  0.15847066765E+04  0.10100000352E+00 0. -1.
       -3    1    3    3    0  502  0.17984954900E+03 -0.11106411082E+04 -0.66095688184E+03  0.13048883253E+04  0.10100000352E+00 0.  1.
</event>
<event>
 5   0  0.1307832E-05  0.2978226E+04  0.7818609E-02  0.8249976E-01
       -2   -1    0    0    0  501  0.00000000000E+00  0.00000000000E+00  0.10299228142E+04  0.10299228142E+04  0.25500000920E-02 0.  1.
        2   -1    0    0  501    0  0.00000000000E+00  0.00000000000E+00 -0.21530323062E+04  0.21530323062E+04  0.25500000920E-02 0. -1.
    10030    2    1    2    0    0  0.00000000000E+00  0.00000000000E+00 -0.11231094921E+04  0.31829551204E+04  0.29782257079E+04 0.  0.
        4    1    3    3  502    0 -0.11083564612E+04  0.30025298560E+03  0.45169479700E+03  0.12339512563E+04  0.12699999809E+01 0.  1.
       -4    1    3    3    0  502  0.11083564612E+04 -0.30025298560E+03 -0.15748042891E+04  0.19490038641E+04  0.12699999809E+01 0. -1.
</event>
<event>
 5   0  0.1339837E-05  0.2884112E+04  0.7818609E-02  0.8277620E-01
        2   -1    0    0  501    0  0.00000000000E+00  0.00000000000E+00  0.11020236008E+04  0.11020236008E+04  0.25500000920E-02 0.  1.
       -2   -1    0    0    0  501  0.00000000000E+00  0.00000000000E+00 -0.18870067755E+04  0.18870067755E+04  0.25500000920E-02 0. -1.
    10030    2    1    2    0    0  0.00000000000E+00  0.00000000000E+00 -0.78498317469E+03  0.29890303763E+04  0.28841123428E+04 0.  0.
        5    1    3    3  502    0 -0.13394219256E+04 -0.17470604646E+03 -0.91576558157E+03  0.16319381078E+04  0.46999998093E+01 0. -1.
       -5    1    3    3    0  502  0.13394219256E+04  0.17470604646E+03  0.13078240688E+03  0.13570922685E+04  0.46999998093E+01 0.  1.
</event>
<event>
 5   0  0.5261878E-06  0.2900645E+04  0.7818609E-02  0.8272685E-01
       -1   -1    0    0    0  501  0.00000000000E+00  0.00000000000E+00  0.11908468348E+04  0.11908468348E+04  0.50400001928E-02 0. -1.
        1   -1    0    0  501    0  0.00000000000E+00  0.00000000000E+00 -0.17663362908E+04  0.17663362908E+04  0.50400001928E-02 0.  1.
    10030    2    1    2    0    0  0.00000000000E+00  0.00000000000E+00 -0.57548945598E+03  0.29571831256E+04  0.29006454324E+04 0.  0.
        5    1    3    3  502    0  0.10377230382E+04 -0.26275987718E+03 -0.12853378059E+04  0.16727304691E+04  0.46999998093E+01 0.  1.
       -5    1    3    3    0  502 -0.10377230382E+04  0.26275987718E+03  0.70984834993E+03  0.12844526565E+04  0.46999998093E+01 0. -1.
</event>
<event>
 5   0  0.5154476E-06  0.2903271E+04  0.7818609E-02  0.8271905E-01
        1   -1    0    0  501    0  0.00000000000E+00  0.00000000000E+00  0.15266326216E+04  0.15266326216E+04  0.50400001928E-02 0.  1.
       -1   -1    0    0    0  501  0.00000000000E+00  0.00000000000E+00 -0.13803230245E+04  0.13803230245E+04  0.50400001928E-02 0. -1.
    10030    2    1    2    0    0  0.00000000000E+00  0.00000000000E+00  0.14630959704E+03  0.29069556461E+04  0.29032713670E+04 0.  0.
        3    1    3    3  502    0  0.32970808160E+03 -0.79791168063E+03 -0.10953204207E+04  0.13946674526E+04  0.10100000352E+00 0. -1.
       -3    1    3    3    0  502 -0.32970808160E+03  0.79791168063E+03  0.12416300177E+04  0.15122881935E+04  0.10100000352E+00 0.  1.
</event>
<event>
 5   0  0.1382803E-05  0.2938581E+04  0.7818609E-02  0.8261490E-01
        2   -1    0    0  501    0  0.00000000000E+00  0.00000000000E+00  0.23001108760E+04  0.23001108760E+04  0.25500000920E-02 0. -1.
       -2   -1    0    0    0  501  0.00000000000E+00  0.00000000000E+00 -0.93856982530E+03  0.93856982530E+03  0.25500000920E-02 0.  1.
    10030    2    1    2    0    0  0.00000000000E+00  0.00000000000E+00  0.13615410507E+04  0.32386807013E+04  0.29385810610E+04 0.  0.
        2    1    3    3  502    0 -0.12541967930E+04 -0.28800898560E+03  0.14623123591E+04  0.19479004613E+04  0.25500000920E-02 0. -1.
       -2    1    3    3    0  502  0.12541967930E+04  0.28800898560E+03 -0.10077130844E+03  0.12907802400E+04  0.25500000920E-02 0.  1.
</event>
<event>
 5   0  0.1339837E-05  0.2911833E+04  0.7818609E-02  0.8269366E-01
        2   -1    0    0  501    0  0.00000000000E+00  0.00000000000E+00  0.18549417223E+04  0.18549417223E+04  0.25500000920E-02 0. -1.
       -2   -1    0    0    0  501  0.00000000000E+00  0.00000000000E+00 -0.11427273678E+04  0.11427273678E+04  0.25500000920E-02 0.  1.
    10030    2    1    2    0    0  0.00000000000E+00  0.00000000000E+00  0.71221435449E+03  0.29976690901E+04  0.29118328742E+04 0.  0.
        5    1    3    3  502    0  0.68815583351E+03 -0.94898145828E+03 -0.53279620996E+03  0.12876405363E+04  0.46999998093E+01 0.  1.
       -5    1    3    3    0  502 -0.68815583351E+03  0.94898145828E+03  0.12450105645E+04  0.17100285538E+04  0.46999998093E+01 0. -1.
</event>
<event>
 5   0  0.1336899E-05  0.2835040E+04  0.7818609E-02  0.8292472E-01
        2   -1    0    0  501    0  0.00000000000E+00  0.00000000000E+00  0.16110050460E+04  0.16110050460E+04  0.25500000920E-02 0. -1.
       -2   -1    0    0    0  501  0.00000000000E+00  0.00000000000E+00 -0.12472726525E+04  0.12472726525E+04  0.25500000920E-02 0.  1.
    10030    2    1    2    0    0  0.00000000000E+00  0.00000000000E+00  0.36373239351E+03  0.28582776985E+04  0.28350397083E+04 0.  0.
        1    1    3    3  502    0 -0.12121241627E+04  0.10894470077E+03  0.91463075134E+03  0.15223873833E+04  0.50400001928E-02 0. -1.
       -1    1    3    3    0  502  0.12121241627E+04 -0.10894470077E+03 -0.55089835784E+03  0.13358903152E+04  0.50400001928E-02 0.  1.
</event>
<event>
 5   0  0.1307832E-05  0.2914601E+04  0.7818609E-02  0.8268546E-01
        2   -1    0    0  501    0  0.00000000000E+00  0.00000000000E+00  0.13864410869E+04  0.13864410869E+04  0.25500000920E-02 0.  1.
       -2   -1    0    0    0  501  0.00000000000E+00  0.00000000000E+00 -0.15317814394E+04  0.15317814394E+04  0.25500000920E-02 0. -1.
    10030    2    1    2    0    0  0.00000000000E+00  0.00000000000E+00 -0.14534035250E+03  0.29182225262E+04  0.29146009837E+04 0.  0.
        4    1    3    3  502    0  0.58140475436E+03  0.82920418120E+03  0.97654032010E+03  0.14068559529E+04  0.12699999809E+01 0.  1.
       -4    1    3    3    0  502 -0.58140475436E+03 -0.82920418120E+03 -0.11218806726E+04  0.15113665733E+04  0.12699999809E+01 0. -1.
</event>
<event>
 5   0  0.1339837E-05  0.1872000E+04  0.7818609E-02  0.8668921E-01
       -2   -1    0    0    0  501  0.00000000000E+00  0.00000000000E+00  0.11483274018E+04  0.11483274018E+04  0.25500000920E-02 0.  1.
        2   -1    0    0  501    0  0.00000000000E+00  0.00000000000E+00 -0.76293210329E+03  0.76293210330E+03  0.25500000920E-02 0. -1.
    10030    2    1    2    0    0  0.00000000000E+00  0.00000000000E+00  0.38539529854E+03  0.19112595051E+04  0.18719998290E+04 0.  0.
        5    1    3    3  502    0 -0.26137282868E+03  0.89178077455E+03  0.30677748871E+03  0.97863334452E+03  0.46999998093E+01 0.  1.
       -5    1    3    3    0  502  0.26137282868E+03 -0.89178077455E+03  0.78617809827E+02  0.93262616061E+03  0.46999998093E+01 0. -1.
</event>
<event>
 5   0  0.1385669E-05  0.2903490E+04  0.7818609E-02  0.8271840E-01
        2   -1    0    0  501    0  0.00000000000E+00  0.00000000000E+00  0.21093639434E+04  0.21093639434E+04  0.25500000920E-02 0. -1.
       -2   -1    0    0    0  501  0.00000000000E+00  0.00000000000E+00 -0.99914632921E+03  0.99914632921E+03  0.25500000920E-02 0.  1.
    10030    2    1    2    0    0  0.00000000000E+00  0.00000000000E+00  0.11102176142E+04  0.31085102726E+04  0.29034897906E+04 0.  0.
        3    1    3    3  502    0 -0.10144034313E+04  0.90552306998E+03  0.10995197527E+04  0.17486938121E+04  0.10100000352E+00 0. -1.
       -3    1    3    3    0  502  0.10144034313E+04 -0.90552306998E+03  0.10697861416E+02  0.13598164605E+04  0.10100000352E+00 0.  1.
</event>
<event>
 5   0  0.5352212E-06  0.2933463E+04  0.7818609E-02  0.8262990E-01
       -1   -1    0    0    0  501  0.00000000000E+00  0.00000000000E+00  0.96970872981E+03  0.96970872982E+03  0.50400001928E-02 0. -1.
        1   -1    0    0  501    0  0.00000000000E+00  0.00000000000E+00 -0.22185022506E+04  0.22185022506E+04  0.50400001928E-02 0.  1.
    10030    2    1    2    0    0  0.00000000000E+00  0.00000000000E+00 -0.12487935208E+04  0.31882109804E+04  0.29334627999E+04 0.  0.
        2    1    3    3  502    0 -0.18171090054E+03  0.32426725868E+03 -0.21664617971E+04  0.21981184738E+04  0.25500000920E-02 0.  1.
       -2    1    3    3    0  502  0.18171090054E+03 -0.32426725868E+03  0.91766827630E+03  0.99009250666E+03  0.25500000920E-02 0. -1.
</event>
<event>
 5   0  0.1339837E-05  0.2877287E+04  0.7818609E-02  0.8279668E-01
        2   -1    0    0  501    0  0.00000000000E+00  0.00000000000E+00  0.18483842910E+04  0.18483842910E+04  0.25500000920E-02 0. -1.
       -2   -1    0    0    0  501  0.00000000000E+00  0.00000000000E+00 -0.11197319841E+04  0.11197319841E+04  0.25500000920E-02 0.  1.
    10030    2    1    2    0    0  0.00000000000E+00  0.00000000000E+00  0.72865230691E+03  0.29681162751E+04  0.28772869232E+04 0.  0.
        5    1    3    3  502    0 -0.16457977709E+03 -0.30393740368E+03 -0.10762567544E+04  0.11304048566E+04  0.46999998093E+01 0.  1.
       -5    1    3    3    0  502  0.16457977709E+03  0.30393740368E+03  0.18049090613E+04  0.18377114186E+04  0.46999998093E+01 0. -1.
</event>
<event>
 5   0  0.5261878E-06  0.2948050E+04  0.7818609E-02  0.8258723E-01
        1   -1    0    0  501    0  0.00000000000E+00  0.00000000000E+00  0.87328267087E+03  0.87328267089E+03  0.50400001928E-02 0.  1.
       -1   -1    0    0    0  501  0.00000000000E+00  0.00000000000E+00 -0.24880251123E+04  0.24880251123E+04  0.50400001928E-02 0. -1.
    10030    2    1    2    0    0  0.00000000000E+00  0.00000000000E+00 -0.16147424414E+04  0.33613077832E+04  0.29480496707E+04 0.  0.
        5    1    3    3  502    0 -0.22324131664E+03  0.13556783194E+04 -0.19865302617E+03  0.13882310708E+04  0.46999998093E+01 0.  1.
       -5    1    3    3    0  502  0.22324131664E+03 -0.13556783194E+04 -0.14160894152E+04  0.19730767124E+04  0.46999998093E+01 0. -1.
</event>
<event>
 5   0  0.5261878E-06  0.2878522E+04  0.7818609E-02  0.8279296E-01
        1   -1    0    0  501    0  0.00000000000E+00  0.00000000000E+00  0.15980355529E+04  0.15980355529E+04  0.50400001928E-02 0.  1.
       -1   -1    0    0    0  501  0.00000000000E+00  0.00000000000E+00 -0.12962620373E+04  0.12962620373E+04  0.50400001928E-02 0. -1.
    10030    2    1    2    0    0  0.00000000000E+00  0.00000000000E+00  0.30177351561E+03  0.28942975902E+04  0.28785224136E+04 0.  0.
        5    1    3    3  502    0 -0.92159521122E+03  0.21548972450E+03 -0.93934194401E+03  0.13334762587E+04  0.46999998093E+01 0. -1.
       -5    1    3    3    0  502  0.92159521122E+03 -0.21548972450E+03  0.12411154596E+04  0.15608213315E+04  0.46999998093E+01 0.  1.
</event>
<event>
 5   0  0.5261878E-06  0.2889194E+04  0.7818609E-02  0.8276100E-01
        1   -1    0    0  501    0  0.00000000000E+00  0.00000000000E+00  0.14079882432E+04  0.14079882432E+04  0.50400001928E-02 0. -1.
       -1   -1    0    0    0  501  0.00000000000E+00  0.00000000000E+00 -0.14821576369E+04  0.14821576369E+04  0.50400001928E-02 0.  1.
    10030    2    1    2    0    0  0.00000000000E+00  0.00000000000E+00 -0.74169393693E+02  0.28901458802E+04  0.28891940242E+04 0.  0.
        5    1    3    3  502    0  0.11661315381E+04  0.37138987904E+03  0.73066097808E+03  0.14253703944E+04  0.46999998093E+01 0. -1.
       -5    1    3    3    0  502 -0.11661315381E+04 -0.37138987904E+03 -0.80483037177E+03  0.14647754858E+04  0.46999998093E+01 0.  1.
</event>
<event>
 5   0  0.5002240E-06  0.2973430E+04  0.7818609E-02  0.8251359E-01
        1   -1    0    0  501    0  0.00000000000E+00  0.00000000000E+00  0.17390225248E+04  0.17390225248E+04  0.50400001928E-02 0. -1.
       -1   -1    0    0    0  501  0.00000000000E+00  0.00000000000E+00 -0.12710132948E+04  0.12710132948E+04  0.50400001928E-02 0.  1.
    10030    2    1    2    0    0  0.00000000000E+00  0.00000000000E+00  0.46800923009E+03  0.30100358196E+04  0.29734295007E+04 0.  0.
        4    1    3    3  502    0 -0.15290766089E+03 -0.14679185627E+04  0.41552607976E+03  0.15332414015E+04  0.12699999809E+01 0. -1.
       -4    1    3    3    0  502  0.15290766089E+03  0.14679185627E+04  0.52483150327E+02  0.14767944181E+04  0.12699999809E+01 0.  1.
</event>
<event>
 5   0  0.1385669E-05  0.2790002E+04  0.7818609E-02  0.8306379E-01
        2   -1    0    0  501    0  0.00000000000E+00  0.00000000000E+00  0.20253854227E+04  0.20253854227E+04  0.25500000920E-02 0.  1.
       -2   -1    0    0    0  501  0.00000000000E+00  0.00000000000E+00 -0.96081871565E+03  0.96081871566E+03  0.25500000920E-02 0. -1.
    10030    2    1    2    0    0  0.00000000000E+00  0.00000000000E+00  0.10645667070E+04  0.29862041383E+04  0.27900023086E+04 0.  0.
        3    1    3    3  502    0 -0.28443434274E+03 -0.10634394806E+04 -0.38484171343E+03  0.11661516106E+04  0.10100000352E+00 0. -1.
       -3    1    3    3    0  502  0.28443434274E+03  0.10634394806E+04  0.14494084204E+04  0.18200525277E+04  0.10100000352E+00 0.  1.
</event>
<event>
 5   0  0.1339837E-05  0.2892558E+04  0.7818609E-02  0.8275095E-01
        2   -1    0    0  501    0  0.00000000000E+00  0.00000000000E+00  0.21952974048E+04  0.21952974048E+04  0.25500000920E-02 0.  1.
       -2   -1    0    0    0  501  0.00000000000E+00  0.00000000000E+00 -0.95281971450E+03  0.95281971450E+03  0.25500000920E-02 0. -1.
    10030    2    1    2    0    0  0.00000000000E+00  0.00000000000E+00  0.12424776903E+04  0.31481171193E+04  0.28925577930E+04 0.  0.
        5    1    3    3  502    0  0.82668917765E+03  0.21712036208E+03  0.18909967404E+04  0.20751980653E+04  0.46999998093E+01 0.  1.
       -5    1    3    3    0  502 -0.82668917765E+03 -0.21712036208E+03 -0.64851905010E+03  0.10729190540E+04  0.46999998093E+01 0. -1.
</event>
<event>
 5   0  0.5002240E-06  0.2905113E+04  0.7818609E-02  0.8271358E-01
       -1   -1    0    0    0  501  0.00000000000E+00  0.00000000000E+00  0.95615907191E+03  0.95615907193E+03  0.50400001928E-02 0. -1.
        1   -1    0    0  501    0  0.00000000000E+00  0.00000000000E+00 -0.22066620671E+04  0.22066620671E+04  0.50400001928E-02 0.  1.
    10030    2    1    2    0    0  0.00000000000E+00  0.00000000000E+00 -0.12505029952E+04  0.31628211390E+04  0.29051127029E+04 0.  0.
        4    1    3    3  502    0  0.51830987691E+03  0.93696803493E+03  0.44332810441E+03  0.11589200352E+04  0.12699999809E+01 0. -1.
       -4    1    3    3    0  502 -0.51830987691E+03 -0.93696803493E+03 -0.16938310996E+04  0.20039011038E+04  0.12699999809E+01 0.  1.
</event>
<event>
 5   0  0.1382803E-05  0.2882752E+04  0.7818609E-02  0.8278028E-01
        2   -1    0    0  501    0  0.00000000000E+00  0.00000000000E+00  0.21807110065E+04  0.21807110065E+04  0.25500000920E-02 0. -1.
       -2   -1    0    0    0  501  0.00000000000E+00  0.00000000000E+00 -0.95270046349E+03  0.95270046349E+03  0.25500000920E-02 0.  1.
    10030    2    1    2    0    0  0.00000000000E+00  0.00000000000E+00  0.12280105430E+04  0.31334114700E+04  0.28827517317E+04 0.  0.
        2    1    3    3  502    0  0.58099997074E+03  0.12615416131E+04  0.19511808975E+03  0.14025402941E+04  0.25500000920E-02 0.  1.
       -2    1    3    3    0  502 -0.58099997074E+03 -0.12615416131E+04  0.10328924533E+04  0.17308711759E+04  0.25500000920E-02 0. -1.
</event>
<event>
 5   0  0.1382803E-05  0.2945586E+04  0.7818609E-02  0.8259442E-01
        2   -1    0    0  501    0  0.00000000000E+00  0.00000000000E+00  0.13770045700E+04  0.13770045700E+04  0.25500000920E-02 0.  1.
       -2   -1    0    0    0  501  0.00000000000E+00  0.00000000000E+00 -0.15752449239E+04  0.15752449239E+04  0.25500000920E-02 0. -1.
    10030    2    1    2    0    0  0.00000000000E+00  0.00000000000E+00 -0.19824035392E+03  0.29522494939E+04  0.29455861618E+04 0.  0.
        2    1    3    3  502    0  0.71598013420E+03  0.38330264712E+03  0.11323051914E+04  0.13934358681E+04  0.25500000920E-02 0.  1.
       -2    1    3    3    0  502 -0.71598013420E+03 -0.38330264712E+03 -0.13305455454E+04  0.15588136258E+04  0.25500000920E-02 0. -1.
</event>
<event>
 5   0  0.5002240E-06  0.2940826E+04  0.7818609E-02  0.8260833E-01
        1   -1    0    0  501    0  0.00000000000E+00  0.00000000000E+00  0.11016382109E+04  0.11016382109E+04  0.50400001928E-02 0. -1.
       -1   -1    0    0    0  501  0.00000000000E+00  0.00000000000E+00 -0.19626352059E+04  0.19626352059E+04  0.50400001928E-02 0.  1.
    10030    2    1    2    0    0  0.00000000000E+00  0.00000000000E+00 -0.86099699496E+03  0.30642734168E+04  0.29408256915E+04 0.  0.
        4    1    3    3  502    0  0.44284882851E+03  0.32319810614E+03  0.99115724025E+03  0.11326810621E+04  0.12699999809E+01 0. -1.
       -4    1    3    3    0  502 -0.44284882851E+03 -0.32319810614E+03 -0.18521542352E+04  0.19315923547E+04  0.12699999809E+01 0.  1.
</event>
<event>
 5   0  0.1339837E-05  0.2951778E+04  0.7818609E-02  0.8257637E-01
       -2   -1    0    0    0  501  0.00000000000E+00  0.00000000000E+00  0.23986960242E+04  0.23986960242E+04  0.25500000920E-02 0. -1.
        2   -1    0    0  501    0  0.00000000000E+00  0.00000000000E+00 -0.90809657976E+03  0.90809657977E+03  0.25500000920E-02 0.  1.
    10030    2    1    2    0    0  0.00000000000E+00  0.00000000000E+00  0.14905994445E+04  0.33067926040E+04  0.29517775360E+04 0.  0.
        5    1    3    3  502    0  0.97565562747E+03  0.10788664145E+04  0.10250737866E+04  0.17795097645E+04  0.46999998093E+01 0. -1.
       -5    1    3    3    0  502 -0.97565562747E+03 -0.10788664145E+04  0.46552565788E+03  0.15272828395E+04  0.46999998093E+01 0.  1.
</event>
<event>
 5   0  0.5154476E-06  0.2857337E+04  0.7818609E-02  0.8285685E-01
        1   -1    0    0  501    0  0.00000000000E+00  0.00000000000E+00  0.23895830588E+04  0.23895830588E+04  0.50400001928E-02 0.  1.
       -1   -1    0    0    0  501  0.00000000000E+00  0.00000000000E+00 -0.85416318996E+03  0.85416318997E+03  0.50400001928E-02 0. -1.
    10030    2    1    2    0    0  0.00000000000E+00  0.00000000000E+00  0.15354198688E+04  0.32437462488E+04  0.28573371437E+04 0.  0.
        3    1    3    3  502    0 -0.16165964547E+03  0.59109964107E+03  0.22328046113E+04  0.23153723392E+04  0.10100000352E+00 0.  1.
       -3    1    3    3    0  502  0.16165964547E+03 -0.59109964107E+03 -0.69738474250E+03  0.92837390955E+03  0.10100000352E+00 0. -1.
</event>
<event>
 5   0  0.1307832E-05  0.2902783E+04  0.7818609E-02  0.8272050E-01
       -2   -1    0    0    0  501  0.00000000000E+00  0.00000000000E+00  0.11806837651E+04  0.11806837651E+04  0.25500000920E-02 0.  1.
        2   -1    0    0  501    0  0.00000000000E+00  0.00000000000E+00 -0.17841669704E+04  0.17841669704E+04  0.25500000920E-02 0. -1.
    10030    2    1    2    0    0  0.00000000000E+00  0.00000000000E+00 -0.60348320529E+03  0.29648507354E+04  0.29027827863E+04 0.  0.
        4    1    3    3  502    0 -0.51162383767E+02  0.14463039508E+04 -0.41419877932E+03  0.15053155647E+04  0.12699999809E+01 0. -1.
       -4    1    3    3    0  502  0.51162383767E+02 -0.14463039508E+04 -0.18928442597E+03  0.14595351707E+04  0.12699999809E+01 0.  1.
</event>
<event>
 5   0  0.4590125E-06  0.3408851E+04  0.7818609E-02  0.8135737E-01
        3   -1    0    0  501    0  0.00000000000E+00  0.00000000000E+00  0.19455958409E+04  0.19455958435E+04  0.10100000352E+00 0.  1.
       -3   -1    0    0    0  501  0.00000000000E+00  0.00000000000E+00 -0.14931503456E+04  0.14931503490E+04  0.10100000352E+00 0. -1.
    10030    2    1    2    0    0  0.00000000000E+00  0.00000000000E+00  0.45244549530E+03  0.34387461925E+04  0.34088514855E+04 0.  0.
        4    1    3    3  502    0 -0.74416141630E+03 -0.63226845848E+02 -0.13193005960E+04  0.15160242489E+04  0.12699999809E+01 0. -1.
       -4    1    3    3    0  502  0.74416141630E+03  0.63226845848E+02  0.17717460913E+04  0.19227219436E+04  0.12699999809E+01 0.  1.
</event>
<event>
 5   0  0.1339837E-05  0.2987203E+04  0.7818609E-02  0.8247395E-01
        2   -1    0    0  501    0  0.00000000000E+00  0.00000000000E+00  0.16086530780E+04  0.16086530780E+04  0.25500000920E-02 0.  1.
       -2   -1    0    0    0  501  0.00000000000E+00  0.00000000000E+00 -0.13867787582E+04  0.13867787582E+04  0.25500000920E-02 0. -1.
    10030    2    1    2    0    0  0.00000000000E+00  0.00000000000E+00  0.22187431982E+03  0.29954318362E+04  0.29872033195E+04 0.  0.
        5    1    3    3  502    0  0.95553224741E+02  0.29178100417E+03 -0.13547859176E+04  0.13891484966E+04  0.46999998093E+01 0. -1.
       -5    1    3    3    0  502 -0.95553224741E+02 -0.29178100417E+03  0.15766602374E+04  0.16062833397E+04  0.46999998093E+01 0.  1.
</event>
<event>
 5   0  0.5059249E-06  0.2900483E+04  0.7818609E-02  0.8272734E-01
       -1   -1    0    0    0  501  0.00000000000E+00  0.00000000000E+00  0.13896993741E+04  0.13896993741E+04  0.50400001928E-02 0. -1.
        1   -1    0    0  501    0  0.00000000000E+00  0.00000000000E+00 -0.15134207711E+04  0.15134207711E+04  0.50400001928E-02 0.  1.
    10030    2    1    2    0    0  0.00000000000E+00  0.00000000000E+00 -0.12372139695E+03  0.29031201452E+04  0.29004826484E+04 0.  0.
        1    1    3    3  502    0 -0.10011386559E+04 -0.67570745211E+03 -0.86529899676E+03  0.14857999606E+04  0.50400001928E-02 0.  1.
       -1    1    3    3    0  502  0.10011386559E+04  0.67570745211E+03  0.74157759981E+03  0.14173201846E+04  0.50400001928E-02 0. -1.
</event>
<event>
 5   0  0.5059249E-06  0.2917943E+04  0.7818609E-02  0.8267559E-01
        1   -1    0    0  501    0  0.00000000000E+00  0.00000000000E+00  0.19255670698E+04  0.19255670698E+04  0.50400001928E-02 0.  1.
       -1   -1    0    0    0  501  0.00000000000E+00  0.00000000000E+00 -0.11054395787E+04  0.11054395787E+04  0.50400001928E-02 0. -1.
    10030    2    1    2    0    0  0.00000000000E+00  0.00000000000E+00  0.82012749107E+03  0.30310066485E+04  0.29179431458E+04 0.  0.
        1    1    3    3  502    0 -0.10991645793E+04 -0.24082343754E+03  0.13747239107E+04  0.17765203436E+04  0.50400001928E-02 0.  1.
       -1    1    3    3    0  502  0.10991645793E+04  0.24082343754E+03 -0.55459641968E+03  0.12544863049E+04  0.50400001928E-02 0. -1.
</event>
<event>
 5   0  0.5154476E-06  0.2814973E+04  0.7818609E-02  0.8298635E-01
        1   -1    0    0  501    0  0.00000000000E+00  0.00000000000E+00  0.24213202302E+04  0.24213202302E+04  0.50400001928E-02 0. -1.
       -1   -1    0    0    0  501  0.00000000000E+00  0.00000000000E+00 -0.81815607982E+03  0.81815607983E+03  0.50400001928E-02 0.  1.
    10030    2    1    2    0    0  0.00000000000E+00  0.00000000000E+00  0.16031641504E+04  0.32394763100E+04  0.28149727299E+04 0.  0.
        3    1    3    3  502    0 -0.19391186298E+03 -0.12303976313E+04  0.47356477331E+02  0.12464841707E+04  0.10100000352E+00 0.  1.
       -3    1    3    3    0  502  0.19391186298E+03  0.12303976313E+04  0.15558076730E+04  0.19929921393E+04  0.10100000352E+00 0. -1.
</event>
<event>
 5   0  0.1307832E-05  0.2641738E+04  0.7818609E-02  0.8354161E-01
        2   -1    0    0  501    0  0.00000000000E+00  0.00000000000E+00  0.23065845489E+04  0.23065845489E+04  0.25500000920E-02 0.  1.
       -2   -1    0    0    0  501  0.00000000000E+00  0.00000000000E+00 -0.75639731381E+03  0.75639731382E+03  0.25500000920E-02 0. -1.
    10030    2    1    2    0    0  0.00000000000E+00  0.00000000000E+00  0.15501872351E+04  0.30629818628E+04  0.26417375774E+04 0.  0.
        4    1    3    3  502    0  0.83135045165E+03 -0.27791277598E+03  0.19207369558E+04  0.21113055560E+04  0.12699999809E+01 0.  1.
       -4    1    3    3    0  502 -0.83135045165E+03  0.27791277598E+03 -0.37054972066E+03  0.95167630678E+03  0.12699999809E+01 0. -1.
</event>
<event>
 5   0  0.1336899E-05  0.2954600E+04  0.7818609E-02  0.8256815E-01
        2   -1    0    0  501    0  0.00000000000E+00  0.00000000000E+00  0.20758435582E+04  0.20758435582E+04  0.25500000920E-02 0. -1.
       -2   -1    0    0    0  501  0.00000000000E+00  0.00000000000E+00 -0.10513392341E+04  0.10513392341E+04  0.25500000920E-02 0.  1.
    10030    2    1    2    0    0  0.00000000000E+00  0.00000000000E+00  0.10245043242E+04  0.31271827923E+04  0.29546003294E+04 0.  0.
        1    1    3    3  502    0 -0.87214154329E+03  0.11593770037E+04  0.80714820883E+03  0.16602030416E+04  0.50400001928E-02 0. -1.
       -1    1    3    3    0  502  0.87214154329E+03 -0.11593770037E+04  0.21735611532E+03  0.14669797507E+04  0.50400001928E-02 0.  1.
</event>
<event>
 5   0  0.1339837E-05  0.2894169E+04  0.7818609E-02  0.8274614E-01
       -2   -1    0    0    0  501  0.00000000000E+00  0.00000000000E+00  0.16413265902E+04  0.16413265902E+04  0.25500000920E-02 0. -1.
        2   -1    0    0  501    0  0.00000000000E+00  0.00000000000E+00 -0.12758299086E+04  0.12758299086E+04  0.25500000920E-02 0.  1.
    10030    2    1    2    0    0  0.00000000000E+00  0.00000000000E+00  0.36549668157E+03  0.29171564988E+04  0.28941690024E+04 0.  0.
        5    1    3    3  502    0  0.12521219928E+04  0.56368569315E+03 -0.27747482488E+03  0.14009159197E+04  0.46999998093E+01 0.  1.
       -5    1    3    3    0  502 -0.12521219928E+04 -0.56368569315E+03  0.64297150645E+03  0.15162405791E+04  0.46999998093E+01 0. -1.
</event>
<event>
 5   0  0.5352212E-06  0.2883745E+04  0.7818609E-02  0.8277730E-01
        1   -1    0    0  501    0  0.00000000000E+00  0.00000000000E+00  0.14769638210E+04  0.14769638210E+04  0.50400001928E-02 0. -1.
       -1   -1    0    0    0  501  0.00000000000E+00  0.00000000000E+00 -0.14076150639E+04  0.14076150639E+04  0.50400001928E-02 0.  1.
    10030    2    1    2    0    0  0.00000000000E+00  0.00000000000E+00  0.69348757152E+02  0.28845788849E+04  0.28837451506E+04 0.  0.
        2    1    3    3  502    0  0.56430312881E+03 -0.87400293517E+03  0.10333003165E+04  0.14662976150E+04  0.25500000920E-02 0. -1.
       -2    1    3    3    0  502 -0.56430312881E+03  0.87400293517E+03 -0.96395155931E+03  0.14182812699E+04  0.25500000920E-02 0.  1.
</event>
<event>
 5   0  0.5261878E-06  0.2888024E+04  0.7818609E-02  0.8276450E-01
        1   -1    0    0  501    0  0.00000000000E+00  0.00000000000E+00  0.32718462478E+04  0.32718462478E+04  0.50400001928E-02 0.  1.
       -1   -1    0    0    0  501  0.00000000000E+00  0.00000000000E+00 -0.63730720439E+03  0.63730720441E+03  0.50400001928E-02 0. -1.
    10030    2    1    2    0    0  0.00000000000E+00  0.00000000000E+00  0.26345390434E+04  0.39091534522E+04  0.28880243665E+04 0.  0.
        5    1    3    3  502    0  0.39838493449E+02 -0.12896594821E+04  0.21948408738E+04  0.25460080983E+04  0.46999998093E+01 0.  1.
       -5    1    3    3    0  502 -0.39838493449E+02  0.12896594821E+04  0.43969816957E+03  0.13631453539E+04  0.46999998093E+01 0. -1.
</event>
<event>
 5   0  0.1307832E-05  0.3185185E+04  0.7818609E-02  0.8192741E-01
       -2   -1    0    0    0  501  0.00000000000E+00  0.00000000000E+00  0.10634174498E+04  0.10634174498E+04  0.25500000920E-02 0. -1.
        2   -1    0    0  501    0  0.00000000000E+00  0.00000000000E+00 -0.23850937334E+04  0.23850937334E+04  0.25500000920E-02 0.  1.
    10030    2    1    2    0    0  0.00000000000E+00  0.00000000000E+00 -0.13216762836E+04  0.34485111831E+04  0.31851846386E+04 0.  0.
        4    1    3    3  502    0 -0.96750189599E+03  0.12381306464E+04 -0.94175199977E+03  0.18319186276E+04  0.12699999809E+01 0.  1.
       -4    1    3    3    0  502  0.96750189599E+03 -0.12381306464E+04 -0.37992428382E+03  0.16165925555E+04  0.12699999809E+01 0. -1.
</event>
<event>
 5   0  0.5154476E-06  0.3080187E+04  0.7818609E-02  0.8221197E-01
        1   -1    0    0  501    0  0.00000000000E+00  0.00000000000E+00  0.23201429903E+04  0.23201429903E+04  0.50400001928E-02 0. -1.
       -1   -1    0    0    0  501  0.00000000000E+00  0.00000000000E+00 -0.10223024737E+04  0.10223024737E+04  0.50400001928E-02 0.  1.
    10030    2    1    2    0    0  0.00000000000E+00  0.00000000000E+00  0.12978405166E+04  0.33424454641E+04  0.30801869543E+04 0.  0.
        3    1    3    3  502    0 -0.11684339085E+04 -0.73247632367E+03  0.13929590236E+04  0.19601260712E+04  0.10100000352E+00 0. -1.
       -3    1    3    3    0  502  0.11684339085E+04  0.73247632367E+03 -0.95118506988E+02  0.13823193929E+04  0.10100000352E+00 0.  1.
</event>
<event>
 5   0  0.1307832E-05  0.2681494E+04  0.7818609E-02  0.8341035E-01
       -2   -1    0    0    0  501  0.00000000000E+00  0.00000000000E+00  0.55771969164E+03  0.55771969165E+03  0.25500000920E-02 0.  1.
        2   -1    0    0  501    0  0.00000000000E+00  0.00000000000E+00 -0.32231291068E+04  0.32231291068E+04  0.25500000920E-02 0. -1.
    10030    2    1    2    0    0  0.00000000000E+00  0.00000000000E+00 -0.26654094152E+04  0.37808487985E+04  0.26814940400E+04 0.  0.
        4    1    3    3  502    0  0.11337244141E+03  0.93563863121E+03  0.11832285311E+02  0.94255746486E+03  0.12699999809E+01 0.  1.
       -4    1    3    3    0  502 -0.11337244141E+03 -0.93563863121E+03 -0.26772417005E+04  0.28382913336E+04  0.12699999809E+01 0. -1.
</event>
<event>
 5   0  0.5059249E-06  0.2928809E+04  0.7818609E-02  0.8264357E-01
        1   -1    0    0  501    0  0.00000000000E+00  0.00000000000E+00  0.16902125176E+04  0.16902125176E+04  0.50400001928E-02 0.  1.
       -1   -1    0    0    0  501  0.00000000000E+00  0.00000000000E+00 -0.12687641521E+04  0.12687641521E+04  0.50400001928E-02 0. -1.
    10030    2    1    2    0    0  0.00000000000E+00  0.00000000000E+00  0.42144836546E+03  0.29589766698E+04  0.29288093498E+04 0.  0.
        1    1    3    3  502    0 -0.44450415748E+03  0.99828713877E+03  0.11956087883E+04  0.16197658881E+04  0.50400001928E-02 0.  1.
       -1    1    3    3    0  502  0.44450415748E+03 -0.99828713877E+03 -0.77416042284E+03  0.13392107817E+04  0.50400001928E-02 0. -1.
</event>
<event>
 5   0  0.5059249E-06  0.2962617E+04  0.7818609E-02  0.8254487E-01
       -1   -1    0    0    0  501  0.00000000000E+00  0.00000000000E+00  0.16828510435E+04  0.16828510435E+04  0.50400001928E-02 0. -1.
        1   -1    0    0  501    0  0.00000000000E+00  0.00000000000E+00 -0.13039031655E+04  0.13039031655E+04  0.50400001928E-02 0.  1.
    10030    2    1    2    0    0  0.00000000000E+00  0.00000000000E+00  0.37894787807E+03  0.29867542090E+04  0.29626169531E+04 0.  0.
        1    1    3    3  502    0  0.10559686092E+04  0.91572828912E+03  0.68402828854E+03  0.15561242568E+04  0.50400001928E-02 0. -1.
       -1    1    3    3    0  502 -0.10559686092E+04 -0.91572828912E+03 -0.30508041047E+03  0.14306299522E+04  0.50400001928E-02 0.  1.
</event>
<event>
 5   0  0.1307832E-05  0.2872347E+04  0.7818609E-02  0.8281153E-01
       -2   -1    0    0    0  501  0.00000000000E+00  0.00000000000E+00  0.13556764654E+04  0.13556764654E+04  0.25500000920E-02 0. -1.
        2   -1    0    0  501    0  0.00000000000E+00  0.00000000000E+00 -0.15214498029E+04  0.15214498029E+04  0.25500000920E-02 0.  1.
    10030    2    1    2    0    0  0.00000000000E+00  0.00000000000E+00 -0.16577333753E+03  0.28771262683E+04  0.28723465607E+04 0.  0.
        4    1    3    3  502    0  0.68791556949E+03 -0.10726765410E+04  0.58058196604E+03  0.14003356114E+04  0.12699999809E+01 0. -1.
       -4    1    3    3    0  502 -0.68791556949E+03  0.10726765410E+04 -0.74635530356E+03  0.14767906569E+04  0.12699999809E+01 0.  1.
</event>
<event>
 5   0  0.1336899E-05  0.2517419E+04  0.7818609E-02  0.8396806E-01
       -2   -1    0    0    0  501  0.00000000000E+00  0.00000000000E+00  0.90219085484E+03  0.90219085485E+03  0.25500000920E-02 0.  1.
        2   -1    0    0  501    0  0.00000000000E+00  0.00000000000E+00 -0.17561142015E+04  0.17561142015E+04  0.25500000920E-02 0. -1.
    10030    2    1    2    0    0  0.00000000000E+00  0.00000000000E+00 -0.85392334663E+03  0.26583050563E+04  0.25174194507E+04 0.  0.
        1    1    3    3  502    0 -0.10259589991E+04  0.72856581582E+03 -0.45951136366E+03  0.13396084164E+04  0.50400001928E-02 0. -1.
       -1    1    3    3    0  502  0.10259589991E+04 -0.72856581582E+03 -0.39441198297E+03  0.13186966399E+04  0.50400001928E-02 0.  1.
</event>
<event>
 5   0  0.1307832E-05  0.2894842E+04  0.7818609E-02  0.8274414E-01
       -2   -1    0    0    0  501  0.00000000000E+00  0.00000000000E+00  0.18323604636E+04  0.18323604636E+04  0.25500000920E-02 0.  1.
        2   -1    0    0  501    0  0.00000000000E+00  0.00000000000E+00 -0.11433487444E+04  0.11433487444E+04  0.25500000920E-02 0. -1.
    10030    2    1    2    0    0  0.00000000000E+00  0.00000000000E+00  0.68901171917E+03  0.29757092080E+04  0.28948416436E+04 0.  0.
        4    1    3    3  502    0 -0.10795543181E+03  0.11661122994E+03  0.18233657227E+04  0.18302777729E+04  0.12699999809E+01 0.  1.
       -4    1    3    3    0  502  0.10795543181E+03 -0.11661122994E+03 -0.11343540036E+04  0.11454314351E+04  0.12699999809E+01 0. -1.
</event>
<event>
 5   0  0.1307832E-05  0.2880206E+04  0.7818609E-02  0.8278791E-01
        2   -1    0    0  501    0  0.00000000000E+00  0.00000000000E+00  0.12623725214E+04  0.12623725214E+04  0.25500000920E-02 0.  1.
       -2   -1    0    0    0  501  0.00000000000E+00  0.00000000000E+00 -0.16428558600E+04  0.16428558600E+04  0.25500000920E-02 0. -1.
    10030    2    1    2    0    0  0.00000000000E+00  0.00000000000E+00 -0.38048333862E+03  0.29052283813E+04  0.28802056136E+04 0.  0.
        4    1    3    3  502    0  0.33548690393E+03  0.93623889856E+03 -0.12408275808E+04  0.15902042120E+04  0.12699999809E+01 0. -1.
       -4    1    3    3    0  502 -0.33548690393E+03 -0.93623889856E+03  0.86034424216E+03  0.13150241693E+04  0.12699999809E+01 0.  1.
</event>
<event>
 5   0  0.5059249E-06  0.2858656E+04  0.7818609E-02  0.8285286E-01
       -1   -1    0    0    0  501  0.00000000000E+00  0.00000000000E+00  0.85824469923E+03  0.85824469924E+03  0.50400001928E-02 0. -1.
        1   -1    0    0  501    0  0.00000000000E+00  0.00000000000E+00 -0.23804150073E+04  0.23804150073E+04  0.50400001928E-02 0.  1.
    10030    2    1    2    0    0  0.00000000000E+00  0.00000000000E+00 -0.15221703081E+04  0.32386597065E+04  0.28586560213E+04 0.  0.
        1    1    3    3  502    0 -0.12477445554E+04  0.68389977874E+03 -0.91473488988E+03  0.16915452408E+04  0.50400001928E-02 0.  1.
       -1    1    3    3    0  502  0.12477445554E+04 -0.68389977874E+03 -0.60743541819E+03  0.15471144658E+04  0.50400001928E-02 0. -1.
</event>
<event>
 5   0  0.5154476E-06  0.3072241E+04  0.7818609E-02  0.8223398E-01
       -1   -1    0    0    0  501  0.00000000000E+00  0.00000000000E+00  0.12484633423E+04  0.12484633423E+04  0.50400001928E-02 0.  1.
        1   -1    0    0  501    0  0.00000000000E+00  0.00000000000E+00 -0.18900567946E+04  0.18900567946E+04  0.50400001928E-02 0. -1.
    10030    2    1    2    0    0  0.00000000000E+00  0.00000000000E+00 -0.64159345236E+03  0.31385201369E+04  0.30722412815E+04 0.  0.
        3    1    3    3  502    0 -0.10442912296E+04 -0.64517478268E+03 -0.12642307014E+04  0.17621220017E+04  0.10100000352E+00 0. -1.
       -3    1    3    3    0  502  0.10442912296E+04  0.64517478268E+03  0.62263724906E+03  0.13763981352E+04  0.10100000352E+00 0.  1.
</event>
<event>
 5   0  0.1382803E-05  0.2889604E+04  0.7818609E-02  0.8275977E-01
        2   -1    0    0  501    0  0.00000000000E+00  0.00000000000E+00  0.20242180686E+04  0.20242180686E+04  0.25500000920E-02 0.  1.
       -2   -1    0    0    0  501  0.00000000000E+00  0.00000000000E+00 -0.10312388710E+04  0.10312388710E+04  0.25500000920E-02 0. -1.
    10030    2    1    2    0    0  0.00000000000E+00  0.00000000000E+00  0.99297919754E+03  0.30554569396E+04  0.28896036792E+04 0.  0.
        2    1    3    3  502    0 -0.13049400190E+04  0.44145703365E+03  0.35945648149E+02  0.13780583643E+04  0.25500000920E-02 0. -1.
       -2    1    3    3    0  502  0.13049400190E+04 -0.44145703365E+03  0.95703354940E+03  0.16773985753E+04  0.25500000920E-02 0.  1.
</event>
<event>
 5   0  0.5352212E-06  0.2692963E+04  0.7818609E-02  0.8337292E-01
        1   -1    0    0  501    0  0.00000000000E+00  0.00000000000E+00  0.18405543656E+04  0.18405543656E+04  0.50400001928E-02 0. -1.
       -1   -1    0    0    0  501  0.00000000000E+00  0.00000000000E+00 -0.98503637552E+03  0.98503637554E+03  0.50400001928E-02 0.  1.
    10030    2    1    2    0    0  0.00000000000E+00  0.00000000000E+00  0.85551799011E+03  0.28255907412E+04  0.26929634244E+04 0.  0.
        2    1    3    3  502    0 -0.87174376172E+03 -0.91097650332E+03 -0.67946335405E+02  0.12627082324E+04  0.25500000920E-02 0.  1.
       -2    1    3    3    0  502  0.87174376172E+03  0.91097650332E+03  0.92346432552E+03  0.15628825088E+04  0.25500000920E-02 0. -1.
</event>
<event>
 5   0  0.5002240E-06  0.2882665E+04  0.7818609E-02  0.8278054E-01
        1   -1    0    0  501    0  0.00000000000E+00  0.00000000000E+00  0.14152398420E+04  0.14152398420E+04  0.50400001928E-02 0. -1.
       -1   -1    0    0    0  501  0.00000000000E+00  0.00000000000E+00 -0.14679066199E+04  0.14679066199E+04  0.50400001928E-02 0.  1.
    10030    2    1    2    0    0  0.00000000000E+00  0.00000000000E+00 -0.52666777904E+02  0.28831464620E+04  0.28826653867E+04 0.  0.
        4    1    3    3  502    0  0.71764910969E+03  0.35672117838E+03 -0.12245183221E+04  0.14634606171E+04  0.12699999809E+01 0.  1.
       -4    1    3    3    0  502 -0.71764910969E+03 -0.35672117838E+03  0.11718515442E+04  0.14196858449E+04  0.12699999809E+01 0. -1.
</event>
<event>
 5   0  0.5002240E-06  0.1908407E+04  0.7818609E-02  0.8650683E-01
        1   -1    0    0  501    0  0.00000000000E+00  0.00000000000E+00  0.18714921115E+04  0.18714921115E+04  0.50400001928E-02 0.  1.
       -1   -1    0    0    0  501  0.00000000000E+00  0.00000000000E+00 -0.48651266274E+03  0.48651266277E+03  0.50400001928E-02 0. -1.
    10030    2    1    2    0    0  0.00000000000E+00  0.00000000000E+00  0.13849794488E+04  0.23580047743E+04  0.19084073051E+04 0.  0.
        4    1    3    3  502    0 -0.53068807844E+03  0.78542867945E+03  0.82770024144E+03  0.12584185908E+04  0.12699999809E+01 0.  1.
       -4    1    3    3    0  502  0.53068807844E+03 -0.78542867945E+03  0.55727920734E+03  0.10995861835E+04  0.12699999809E+01 0. -1.
</event>
<event>
 5   0  0.1382803E-05  0.2983569E+04  0.7818609E-02  0.8248438E-01
       -2   -1    0    0    0  501  0.00000000000E+00  0.00000000000E+00  0.10711045073E+04  0.10711045073E+04  0.25500000920E-02 0. -1.
        2   -1    0    0  501    0  0.00000000000E+00  0.00000000000E+00 -0.20776882667E+04  0.20776882667E+04  0.25500000920E-02 0.  1.
    10030    2    1    2    0    0  0.00000000000E+00  0.00000000000E+00 -0.10065837594E+04  0.31487927740E+04  0.29835691828E+04 0.  0.
        2    1    3    3  502    0  0.87810272513E+02  0.47378182810E+03 -0.19932975364E+04  0.20507108361E+04  0.25500000920E-02 0.  1.
       -2    1    3    3    0  502 -0.87810272513E+02 -0.47378182810E+03  0.98671377700E+03  0.10980819379E+04  0.25500000920E-02 0. -1.
</event>
<event>
 5   0  0.5059249E-06  0.2716837E+04  0.7818609E-02  0.8329563E-01
       -1   -1    0    0    0  501  0.00000000000E+00  0.00000000000E+00  0.77250366395E+03  0.77250366396E+03  0.50400001928E-02 0. -1.
        1   -1    0    0  501    0  0.00000000000E+00  0.00000000000E+00 -0.23887276337E+04  0.23887276337E+04  0.50400001928E-02 0.  1.
    10030    2    1    2    0    0  0.00000000000E+00  0.00000000000E+00 -0.16162239697E+04  0.31612312976E+04  0.27168370207E+04 0.  0.
        1    1    3    3  502    0  0.31969064728E+03 -0.82036540425E+03  0.39555052860E+03  0.96522625698E+03  0.50400001928E-02 0. -1.
       -1    1    3    3    0  502 -0.31969064728E+03  0.82036540425E+03 -0.20117744983E+04  0.21960050406E+04  0.50400001928E-02 0.  1.
</event>
<event>
 5   0  0.1382803E-05  0.2839843E+04  0.7818609E-02  0.8291004E-01
       -2   -1    0    0    0  501  0.00000000000E+00  0.00000000000E+00  0.92275646564E+03  0.92275646565E+03  0.25500000920E-02 0. -1.
        2   -1    0    0  501    0  0.00000000000E+00  0.00000000000E+00 -0.21849508773E+04  0.21849508773E+04  0.25500000920E-02 0.  1.
    10030    2    1    2    0    0  0.00000000000E+00  0.00000000000E+00 -0.12621944117E+04  0.31077073430E+04  0.28398433402E+04 0.  0.
        2    1    3    3  502    0  0.11097039104E+04  0.60047069107E+03 -0.13438116611E+04  0.18433224352E+04  0.25500000920E-02 0.  1.
       -2    1    3    3    0  502 -0.11097039104E+04 -0.60047069107E+03  0.81617249367E+02  0.12643849078E+04  0.25500000920E-02 0. -1.
</event>
<event>
 5   0  0.1382803E-05  0.2828575E+04  0.7818609E-02  0.8294452E-01
       -2   -1    0    0    0  501  0.00000000000E+00  0.00000000000E+00  0.14538266409E+04  0.14538266409E+04  0.25500000920E-02 0. -1.
        2   -1    0    0  501    0  0.00000000000E+00  0.00000000000E+00 -0.13758236473E+04  0.13758236473E+04  0.25500000920E-02 0.  1.
    10030    2    1    2    0    0  0.00000000000E+00  0.00000000000E+00  0.78002993648E+02  0.28296502882E+04  0.28285749568E+04 0.  0.
        2    1    3    3  502    0 -0.47956283021E+03  0.12771147885E+04  0.41224705130E+03  0.14251141437E+04  0.25500000920E-02 0. -1.
       -2    1    3    3    0  502  0.47956283021E+03 -0.12771147885E+04 -0.33424405765E+03  0.14045361445E+04  0.25500000920E-02 0.  1.
</event>
<event>
 5   0  0.1382803E-05  0.2822711E+04  0.7818609E-02  0.8296252E-01
       -2   -1    0    0    0  501  0.00000000000E+00  0.00000000000E+00  0.12215579169E+04  0.12215579169E+04  0.25500000920E-02 0.  1.
        2   -1    0    0  501    0  0.00000000000E+00  0.00000000000E+00 -0.16306423219E+04  0.16306423219E+04  0.25500000920E-02 0. -1.
    10030    2    1    2    0    0  0.00000000000E+00  0.00000000000E+00 -0.40908440503E+03  0.28522002388E+04  0.28227107807E+04 0.  0.
        2    1    3    3  502    0  0.79707118171E+03  0.65336858660E+02 -0.13795896380E+04  0.15946344230E+04  0.25500000920E-02 0. -1.
       -2    1    3    3    0  502 -0.79707118171E+03 -0.65336858660E+02  0.97050523294E+03  0.12575658158E+04  0.25500000920E-02 0.  1.
</event>
<event>
 5   0  0.1336899E-05  0.2902826E+04  0.7818609E-02  0.8272037E-01
        2   -1    0    0  501    0  0.00000000000E+00  0.00000000000E+00  0.17943669858E+04  0.17943669858E+04  0.25500000920E-02 0. -1.
       -2   -1    0    0    0  501  0.00000000000E+00  0.00000000000E+00 -0.11740071909E+04  0.11740071909E+04  0.25500000920E-02 0.  1.
    10030    2    1    2    0    0  0.00000000000E+00  0.00000000000E+00  0.62035979488E+03  0.29683741768E+04  0.29028260331E+04 0.  0.
        1    1    3    3  502    0 -0.46432807860E+03 -0.30673681431E+01  0.17163641347E+04  0.17780651890E+04  0.50400001928E-02 0. -1.
       -1    1    3    3    0  502  0.46432807860E+03  0.30673681431E+01 -0.10960043399E+04  0.11903089878E+04  0.50400001928E-02 0.  1.
</event>
<event>
 5   0  0.5352212E-06  0.2945461E+04  0.7818609E-02  0.8259478E-01
       -1   -1    0    0    0  501  0.00000000000E+00  0.00000000000E+00  0.15934956878E+04  0.15934956878E+04  0.50400001928E-02 0.  1.
        1   -1    0    0  501    0  0.00000000000E+00  0.00000000000E+00 -0.13611179703E+04  0.13611179703E+04  0.50400001928E-02 0. -1.
    10030    2    1    2    0    0  0.00000000000E+00  0.00000000000E+00  0.23237771752E+03  0.29546136582E+04  0.29454613332E+04 0.  0.
        2    1    3    3  502    0 -0.88176151693E+03  0.78400255453E+03  0.10002742676E+04  0.15468393545E+04  0.25500000920E-02 0.  1.
       -2    1    3    3    0  502  0.88176151693E+03 -0.78400255453E+03 -0.76789655013E+03  0.14077743036E+04  0.25500000920E-02 0. -1.
</event>
<event>
 5   0  0.1307832E-05  0.2811134E+04  0.7818609E-02  0.8299820E-01
        2   -1    0    0  501    0  0.00000000000E+00  0.00000000000E+00  0.22241661432E+04  0.22241661432E+04  0.25500000920E-02 0.  1.
       -2   -1    0    0    0  501  0.00000000000E+00  0.00000000000E+00 -0.88825166656E+03  0.88825166657E+03  0.25500000920E-02 0. -1.
    10030    2    1    2    0    0  0.00000000000E+00  0.00000000000E+00  0.13359144766E+04  0.31124178097E+04  0.28111344923E+04 0.  0.
        4    1    3    3  502    0 -0.41953372340E+03 -0.11442640899E+04  0.14431922956E+04  0.18889559199E+04  0.12699999809E+01 0.  1.
       -4    1    3    3    0  502  0.41953372340E+03  0.11442640899E+04 -0.10727781900E+03  0.12234618898E+04  0.12699999809E+01 0. -1.
</event>
<event>
 5   0  0.1339837E-05  0.2872920E+04  0.7818609E-02  0.8280981E-01
       -2   -1    0    0    0  501  0.00000000000E+00  0.00000000000E+00  0.15084558489E+04  0.15084558489E+04  0.25500000920E-02 0. -1.
        2   -1    0    0  501    0  0.00000000000E+00  0.00000000000E+00 -0.13679001111E+04  0.13679001111E+04  0.25500000920E-02 0.  1.
    10030    2    1    2    0    0  0.00000000000E+00  0.00000000000E+00  0.14055573786E+03  0.28763559600E+04  0.28729197158E+04 0.  0.
        5    1    3    3  502    0 -0.43371542809E+03  0.10073306247E+04  0.99905697548E+03  0.14835636118E+04  0.46999998093E+01 0. -1.
       -5    1    3    3    0  502  0.43371542809E+03 -0.10073306247E+04 -0.85850123762E+03  0.13927923482E+04  0.46999998093E+01 0.  1.
</event>
<event>
 5   0  0.5154476E-06  0.2866686E+04  0.7818609E-02  0.8282859E-01
        1   -1    0    0  501    0  0.00000000000E+00  0.00000000000E+00  0.23187369385E+04  0.23187369385E+04  0.50400001928E-02 0. -1.
       -1   -1    0    0    0  501  0.00000000000E+00  0.00000000000E+00 -0.88603099639E+03  0.88603099641E+03  0.50400001928E-02 0.  1.
    10030    2    1    2    0    0  0.00000000000E+00  0.00000000000E+00  0.14327059421E+04  0.32047679349E+04  0.28666864496E+04 0.  0.
        3    1    3    3  502    0  0.67087094159E+03 -0.46106567108E+03  0.20352426284E+04  0.21919995301E+04  0.10100000352E+00 0. -1.
       -3    1    3    3    0  502 -0.67087094159E+03  0.46106567108E+03 -0.60253668628E+03  0.10127684048E+04  0.10100000352E+00 0.  1.
</event>
<event>
 5   0  0.1339837E-05  0.2904257E+04  0.7818609E-02  0.8271612E-01
       -2   -1    0    0    0  501  0.00000000000E+00  0.00000000000E+00  0.91414566011E+03  0.91414566012E+03  0.25500000920E-02 0. -1.
        2   -1    0    0  501    0  0.00000000000E+00  0.00000000000E+00 -0.23067187981E+04  0.23067187981E+04  0.25500000920E-02 0.  1.
    10030    2    1    2    0    0  0.00000000000E+00  0.00000000000E+00 -0.13925731380E+04  0.32208644582E+04  0.29042568608E+04 0.  0.
        5    1    3    3  502    0 -0.20917244912E+03  0.14302252263E+04 -0.85058550237E+03  0.16771449246E+04  0.46999998093E+01 0. -1.
       -5    1    3    3    0  502  0.20917244912E+03 -0.14302252263E+04 -0.54198763561E+03  0.15437195336E+04  0.46999998093E+01 0.  1.
</event>
<event>
 5   0  0.5261878E-06  0.2975181E+04  0.7818609E-02  0.8250854E-01
       -1   -1    0    0    0  501  0.00000000000E+00  0.00000000000E+00  0.12677806574E+04  0.12677806574E+04  0.50400001928E-02 0.  1.
        1   -1    0    0  501    0  0.00000000000E+00  0.00000000000E+00 -0.17455108563E+04  0.17455108563E+04  0.50400001928E-02 0. -1.
    10030    2    1    2    0    0  0.00000000000E+00  0.00000000000E+00 -0.47773019886E+03  0.30132915137E+04  0.29751806002E+04 0.  0.
        5    1    3    3  502    0 -0.92591147478E+03 -0.98014066893E+03  0.39760739689E+03  0.14057387816E+04  0.46999998093E+01 0.  1.
       -5    1    3    3    0  502  0.92591147478E+03  0.98014066893E+03 -0.87533759575E+03  0.16075527321E+04  0.46999998093E+01 0. -1.
</event>
<event>
 5   0  0.1339837E-05  0.2904973E+04  0.7818609E-02  0.8271399E-01
       -2   -1    0    0    0  501  0.00000000000E+00  0.00000000000E+00  0.15347291713E+04  0.15347291713E+04  0.25500000920E-02 0.  1.
        2   -1    0    0  501    0  0.00000000000E+00  0.00000000000E+00 -0.13746508141E+04  0.13746508141E+04  0.25500000920E-02 0. -1.
    10030    2    1    2    0    0  0.00000000000E+00  0.00000000000E+00  0.16007835715E+03  0.29093799854E+04  0.29049727743E+04 0.  0.
        5    1    3    3  502    0 -0.14710183735E+03 -0.51594340579E+03  0.14318491644E+04  0.15290685623E+04  0.46999998093E+01 0.  1.
       -5    1    3    3    0  502  0.14710183735E+03  0.51594340579E+03 -0.12717708073E+04  0.13803114231E+04  0.46999998093E+01 0. -1.
</event>
<event>
 5   0  0.1382803E-05  0.2897271E+04  0.7818609E-02  0.8273690E-01
        2   -1    0    0  501    0  0.00000000000E+00  0.00000000000E+00  0.18246401892E+04  0.18246401892E+04  0.25500000920E-02 0. -1.
       -2   -1    0    0    0  501  0.00000000000E+00  0.00000000000E+00 -0.11501143008E+04  0.11501143008E+04  0.25500000920E-02 0.  1.
    10030    2    1    2    0    0  0.00000000000E+00  0.00000000000E+00  0.67452588839E+03  0.29747544900E+04  0.28972709748E+04 0.  0.
        2    1    3    3  502    0 -0.10883018810E+04  0.72680273638E+03 -0.30056022006E+03  0.13427507765E+04  0.25500000920E-02 0.  1.
       -2    1    3    3    0  502  0.10883018810E+04 -0.72680273638E+03  0.97508610846E+03  0.16320037135E+04  0.25500000920E-02 0. -1.
</event>
<event>
 5   0  0.5059249E-06  0.2835273E+04  0.7818609E-02  0.8292400E-01
       -1   -1    0    0    0  501  0.00000000000E+00  0.00000000000E+00  0.21560889387E+04  0.21560889387E+04  0.50400001928E-02 0. -1.
        1   -1    0    0  501    0  0.00000000000E+00  0.00000000000E+00 -0.93210127524E+03  0.93210127526E+03  0.50400001928E-02 0.  1.
    10030    2    1    2    0    0  0.00000000000E+00  0.00000000000E+00  0.12239876635E+04  0.30881902140E+04  0.28352730023E+04 0.  0.
        1    1    3    3  502    0  0.92429547658E+03 -0.44327186149E+03  0.16785692175E+04  0.19668265529E+04  0.50400001928E-02 0. -1.
       -1    1    3    3    0  502 -0.92429547658E+03  0.44327186149E+03 -0.45458155400E+03  0.11213636611E+04  0.50400001928E-02 0.  1.
</event>
<event>
 5   0  0.5059249E-06  0.2908837E+04  0.7818609E-02  0.8270253E-01
        1   -1    0    0  501    0  0.00000000000E+00  0.00000000000E+00  0.31996252866E+04  0.31996252867E+04  0.50400001928E-02 0. -1.
       -1   -1    0    0    0  501  0.00000000000E+00  0.00000000000E+00 -0.66111910860E+03  0.66111910862E+03  0.50400001928E-02 0.  1.
    10030    2    1    2    0    0  0.00000000000E+00  0.00000000000E+00  0.25385061780E+04  0.38607443953E+04  0.29088371680E+04 0.  0.
        1    1    3    3  502    0 -0.69909918661E+03 -0.93714264296E+03  0.12108315334E+03  0.11754306173E+04  0.50400001928E-02 0.  1.
       -1    1    3    3    0  502  0.69909918661E+03  0.93714264296E+03  0.24174230247E+04  0.26853137780E+04  0.50400001928E-02 0. -1.
</event>
<event>
 5   0  0.1307832E-05  0.2924064E+04  0.7818609E-02  0.8265753E-01
        2   -1    0    0  501    0  0.00000000000E+00  0.00000000000E+00  0.18610002478E+04  0.18610002478E+04  0.25500000920E-02 0. -1.
       -2   -1    0    0    0  501  0.00000000000E+00  0.00000000000E+00 -0.11485964374E+04  0.11485964374E+04  0.25500000920E-02 0.  1.
    10030    2    1    2    0    0  0.00000000000E+00  0.00000000000E+00  0.71240381043E+03  0.30095966852E+04  0.29240644690E+04 0.  0.
        4    1    3    3  502    0  0.12698596556E+04  0.29366303086E+03  0.10379633788E+04  0.16661785947E+04  0.12699999809E+01 0. -1.
       -4    1    3    3    0  502 -0.12698596556E+04 -0.29366303086E+03 -0.32555956839E+03  0.13434180906E+04  0.12699999809E+01 0.  1.
</event>
<event>
 5   0  0.1307832E-05  0.2920904E+04  0.7818609E-02  0.8266685E-01
       -2   -1    0    0    0  501  0.00000000000E+00  0.00000000000E+00  0.10706663223E+04  0.10706663224E+04  0.25500000920E-02 0. -1.
        2   -1    0    0  501    0  0.00000000000E+00  0.00000000000E+00 -0.19921431594E+04  0.19921431594E+04  0.25500000920E-02 0.  1.
    10030    2    1    2    0    0  0.00000000000E+00  0.00000000000E+00 -0.92147683703E+03  0.30628094817E+04  0.29209043737E+04 0.  0.
        4    1    3    3  502    0 -0.25988527729E+03 -0.80114661318E+03 -0.17118265289E+04  0.19078071001E+04  0.12699999809E+01 0.  1.
       -4    1    3    3    0  502  0.25988527729E+03  0.80114661318E+03  0.79034969191E+03  0.11550023816E+04  0.12699999809E+01 0. -1.
</event>
<event>
 5   0  0.1336899E-05  0.2851778E+04  0.7818609E-02  0.8287371E-01
       -2   -1    0    0    0  501  0.00000000000E+00  0.00000000000E+00  0.10511797517E+04  0.10511797517E+04  0.25500000920E-02 0.  1.
        2   -1    0    0  501    0  0.00000000000E+00  0.00000000000E+00 -0.19341684690E+04  0.19341684690E+04  0.25500000920E-02 0. -1.
    10030    2    1    2    0    0  0.00000000000E+00  0.00000000000E+00 -0.88298871737E+03  0.29853482207E+04  0.28517775025E+04 0.  0.
        1    1    3    3  502    0  0.88959810052E+03  0.11039412639E+04 -0.28243138604E+03  0.14456274009E+04  0.50400001928E-02 0.  1.
       -1    1    3    3    0  502 -0.88959810052E+03 -0.11039412639E+04 -0.60055733133E+03  0.15397208197E+04  0.50400001928E-02 0. -1.
</event>
<event>
 5   0  0.1339837E-05  0.2878168E+04  0.7818609E-02  0.8279403E-01
        2   -1    0    0  501    0  0.00000000000E+00  0.00000000000E+00  0.12359135613E+04  0.12359135613E+04  0.25500000920E-02 0. -1.
       -2   -1    0    0    0  501  0.00000000000E+00  0.00000000000E+00 -0.16756534143E+04  0.16756534143E+04  0.25500000920E-02 0.  1.
    10030    2    1    2    0    0  0.00000000000E+00  0.00000000000E+00 -0.43973985306E+03  0.29115669756E+04  0.28781680137E+04 0.  0.
        5    1    3    3  502    0 -0.71377771601E+03 -0.27740802541E+03 -0.14524119773E+04  0.16419368083E+04  0.46999998093E+01 0.  1.
       -5    1    3    3    0  502  0.71377771601E+03  0.27740802541E+03  0.10126721243E+04  0.12696301673E+04  0.46999998093E+01 0. -1.
</event>
<event>
 5   0  0.5154476E-06  0.2888661E+04  0.7818609E-02  0.8276259E-01
        1   -1    0    0  501    0  0.00000000000E+00  0.00000000000E+00  0.71890476156E+03  0.71890476158E+03  0.50400001928E-02 0. -1.
       -1   -1    0    0    0  501  0.00000000000E+00  0.00000000000E+00 -0.29017621439E+04  0.29017621440E+04  0.50400001928E-02 0.  1.
    10030    2    1    2    0    0  0.00000000000E+00  0.00000000000E+00 -0.21828573824E+04  0.36206669055E+04  0.28886610201E+04 0.  0.
        3    1    3    3  502    0  0.86721535730E+03  0.17908115163E+03  0.33875062059E+03  0.94809521039E+03  0.10100000352E+00 0. -1.
       -3    1    3    3    0  502 -0.86721535730E+03 -0.17908115163E+03 -0.25216080030E+04  0.26725716951E+04  0.10100000352E+00 0.  1.
</event>
<event>
 5   0  0.5059249E-06  0.1868959E+04  0.7818609E-02  0.8670464E-01
        1   -1    0    0  501    0  0.00000000000E+00  0.00000000000E+00  0.79090925571E+03  0.79090925573E+03  0.50400001928E-02 0. -1.
       -1   -1    0    0    0  501  0.00000000000E+00  0.00000000000E+00 -0.11041109140E+04  0.11041109140E+04  0.50400001928E-02 0.  1.
    10030    2    1    2    0    0  0.00000000000E+00  0.00000000000E+00 -0.31320165826E+03  0.18950201697E+04  0.18689585776E+04 0.  0.
        1    1    3    3  502    0 -0.21816157484E+03 -0.72984944584E+03 -0.70542195063E+03  0.10382171328E+04  0.50400001928E-02 0.  1.
       -1    1    3    3    0  502  0.21816157484E+03  0.72984944584E+03  0.39222029237E+03  0.85680303694E+03  0.50400001928E-02 0. -1.
</event>
<event>
 5   0  0.1382803E-05  0.2941735E+04  0.7818609E-02  0.8260567E-01
       -2   -1    0    0    0  501  0.00000000000E+00  0.00000000000E+00  0.13948197963E+04  0.13948197963E+04  0.25500000920E-02 0. -1.
        2   -1    0    0  501    0  0.00000000000E+00  0.00000000000E+00 -0.15510612963E+04  0.15510612963E+04  0.25500000920E-02 0.  1.
    10030    2    1    2    0    0  0.00000000000E+00  0.00000000000E+00 -0.15624150004E+03  0.29458810926E+04  0.29417348632E+04 0.  0.
        2    1    3    3  502    0  0.54828128493E+03 -0.31614780682E+02 -0.14445361986E+04  0.15454114956E+04  0.25500000920E-02 0.  1.
       -2    1    3    3    0  502 -0.54828128493E+03  0.31614780682E+02  0.12882946985E+04  0.14004695970E+04  0.25500000920E-02 0. -1.
</event>
<event>
 5   0  0.5261878E-06  0.2836150E+04  0.7818609E-02  0.8292132E-01
        1   -1    0    0  501    0  0.00000000000E+00  0.00000000000E+00  0.16330678842E+04  0.16330678842E+04  0.50400001928E-02 0.  1.
       -1   -1    0    0    0  501  0.00000000000E+00  0.00000000000E+00 -0.12313855508E+04  0.12313855508E+04  0.50400001928E-02 0. -1.
    10030    2    1    2    0    0  0.00000000000E+00  0.00000000000E+00  0.40168233343E+03  0.28644534350E+04  0.28361496407E+04 0.  0.
        5    1    3    3  502    0  0.11227340902E+02  0.70214338225E+03 -0.10434368489E+04  0.12577415991E+04  0.46999998093E+01 0. -1.
       -5    1    3    3    0  502 -0.11227340902E+02 -0.70214338225E+03  0.14451191824E+04  0.16067118359E+04  0.46999998093E+01 0.  1.
</event>
<event>
 5   0  0.5059249E-06  0.2809905E+04  0.7818609E-02  0.8300200E-01
        1   -1    0    0  501    0  0.00000000000E+00  0.00000000000E+00  0.14107053919E+04  0.14107053919E+04  0.50400001928E-02 0.  1.
       -1   -1    0    0    0  501  0.00000000000E+00  0.00000000000E+00 -0.13992228663E+04  0.13992228663E+04  0.50400001928E-02 0. -1.
    10030    2    1    2    0    0  0.00000000000E+00  0.00000000000E+00  0.11482525533E+02  0.28099282582E+04  0.28099047970E+04 0.  0.
        1    1    3    3  502    0 -0.12649690402E+04 -0.84856718699E+02  0.61117501430E+03  0.14074381811E+04  0.50400001928E-02 0.  1.
       -1    1    3    3    0  502  0.12649690402E+04  0.84856718699E+02 -0.59969248876E+03  0.14024900772E+04  0.50400001928E-02 0. -1.
</event>
<event>
 5   0  0.5352212E-06  0.2920054E+04  0.7818609E-02  0.8266936E-01
        1   -1    0    0  501    0  0.00000000000E+00  0.00000000000E+00  0.89983876141E+03  0.89983876143E+03  0.50400001928E-02 0. -1.
       -1   -1    0    0    0  501  0.00000000000E+00  0.00000000000E+00 -0.23689564806E+04  0.23689564806E+04  0.50400001928E-02 0.  1.
    10030    2    1    2    0    0  0.00000000000E+00  0.00000000000E+00 -0.14691177191E+04  0.32687952420E+04  0.29200540169E+04 0.  0.
        2    1    3    3  502    0  0.13103570229E+04  0.20480590140E+03 -0.51158357711E+02  0.13272521095E+04  0.25500000920E-02 0. -1.
       -2    1    3    3    0  502 -0.13103570229E+04 -0.20480590140E+03 -0.14179593614E+04  0.19415431325E+04  0.25500000920E-02 0.  1.
</event>
<event>
 5   0  0.1382803E-05  0.2921174E+04  0.7818609E-02  0.8266605E-01
        2   -1    0    0  501    0  0.00000000000E+00  0.00000000000E+00  0.15704165831E+04  0.15704165831E+04  0.25500000920E-02 0.  1.
       -2   -1    0    0    0  501  0.00000000000E+00  0.00000000000E+00 -0.13584384540E+04  0.13584384540E+04  0.25500000920E-02 0. -1.
    10030    2    1    2    0    0  0.00000000000E+00  0.00000000000E+00  0.21197812907E+03  0.29288550372E+04  0.29211739252E+04 0.  0.
        2    1    3    3  502    0  0.39713136548E+01  0.65100645773E+03  0.14169013363E+04  0.15593057994E+04  0.25500000920E-02 0.  1.
       -2    1    3    3    0  502 -0.39713136548E+01 -0.65100645773E+03 -0.12049232072E+04  0.13695492377E+04  0.25500000920E-02 0. -1.
</event>
<event>
 5   0  0.1385669E-05  0.2794790E+04  0.7818609E-02  0.8304888E-01
       -2   -1    0    0    0  501  0.00000000000E+00  0.00000000000E+00  0.10431548695E+04  0.10431548695E+04  0.25500000920E-02 0.  1.
        2   -1    0    0  501    0  0.00000000000E+00  0.00000000000E+00 -0.18719304694E+04  0.18719304694E+04  0.25500000920E-02 0. -1.
    10030    2    1    2    0    0  0.00000000000E+00  0.00000000000E+00 -0.82877559989E+03  0.29150853388E+04  0.27947904282E+04 0.  0.
        3    1    3    3  502    0  0.90657462093E+03  0.10100129320E+04 -0.76144006164E+03  0.15562116320E+04  0.10100000352E+00 0. -1.
       -3    1    3    3    0  502 -0.90657462093E+03 -0.10100129320E+04 -0.67335538247E+02  0.13588737068E+04  0.10100000352E+00 0.  1.
</event>
<event>
 5   0  0.5261878E-06  0.2810297E+04  0.7818609E-02  0.8300079E-01
        1   -1    0    0  501    0  0.00000000000E+00  0.00000000000E+00  0.16071301011E+04  0.16071301011E+04  0.50400001928E-02 0.  1.
       -1   -1    0    0    0  501  0.00000000000E+00  0.00000000000E+00 -0.12285519967E+04  0.12285519967E+04  0.50400001928E-02 0. -1.
    10030    2    1    2    0    0  0.00000000000E+00  0.00000000000E+00  0.37857810443E+03  0.28356820978E+04  0.28102974182E+04 0.  0.
        5    1    3    3  502    0  0.98561419394E+03  0.74676874267E+03 -0.48406315609E+03  0.13279450754E+04  0.46999998093E+01 0. -1.
       -5    1    3    3    0  502 -0.98561419394E+03 -0.74676874267E+03  0.86264126053E+03  0.15077370224E+04  0.46999998093E+01 0.  1.
</event>
<event>
 5   0  0.5059249E-06  0.2378408E+04  0.7818609E-02  0.8447632E-01
        1   -1    0    0  501    0  0.00000000000E+00  0.00000000000E+00  0.69319511134E+03  0.69319511136E+03  0.50400001928E-02 0.  1.
       -1   -1    0    0    0  501  0.00000000000E+00  0.00000000000E+00 -0.20401279281E+04  0.20401279281E+04  0.50400001928E-02 0. -1.
    10030    2    1    2    0    0  0.00000000000E+00  0.00000000000E+00 -0.13469328168E+04  0.27333230395E+04  0.23784084648E+04 0.  0.
        1    1    3    3  502    0  0.76903102075E+03 -0.85794165397E+03 -0.10119202851E+04  0.15334455504E+04  0.50400001928E-02 0.  1.
       -1    1    3    3    0  502 -0.76903102075E+03  0.85794165397E+03 -0.33501253168E+03  0.11998774891E+04  0.50400001928E-02 0. -1.
</event>
<event>
 5   0  0.5154476E-06  0.2603483E+04  0.7818609E-02  0.8367019E-01
       -1   -1    0    0    0  501  0.00000000000E+00  0.00000000000E+00  0.92471345781E+03  0.92471345783E+03  0.50400001928E-02 0.  1.
        1   -1    0    0  501    0  0.00000000000E+00  0.00000000000E+00 -0.18324933649E+04  0.18324933649E+04  0.50400001928E-02 0. -1.
    10030    2    1    2    0    0  0.00000000000E+00  0.00000000000E+00 -0.90777990704E+03  0.27572068227E+04  0.26034832635E+04 0.  0.
        3    1    3    3  502    0 -0.20636540722E+03 -0.29812265997E+03  0.87015708994E+03  0.94267553965E+03  0.10100000352E+00 0.  1.
       -3    1    3    3    0  502  0.20636540722E+03  0.29812265997E+03 -0.17779369970E+04  0.18145312830E+04  0.10100000352E+00 0. -1.
</event>
<event>
 5   0  0.1339837E-05  0.2739685E+04  0.7818609E-02  0.8322242E-01
        2   -1    0    0  501    0  0.00000000000E+00  0.00000000000E+00  0.19134852481E+04  0.19134852481E+04  0.25500000920E-02 0. -1.
       -2   -1    0    0    0  501  0.00000000000E+00  0.00000000000E+00 -0.98065465754E+03  0.98065465755E+03  0.25500000920E-02 0.  1.
    10030    2    1    2    0    0  0.00000000000E+00  0.00000000000E+00  0.93283059055E+03  0.28941399056E+04  0.27396848145E+04 0.  0.
        5    1    3    3  502    0 -0.75370406649E+01 -0.11053887385E+04  0.13210399617E+04  0.17225300405E+04  0.46999998093E+01 0. -1.
       -5    1    3    3    0  502  0.75370406649E+01  0.11053887385E+04 -0.38820937112E+03  0.11716098651E+04  0.46999998093E+01 0.  1.
</event>
<event>
 5   0  0.5261878E-06  0.2910623E+04  0.7818609E-02  0.8269724E-01
       -1   -1    0    0    0  501  0.00000000000E+00  0.00000000000E+00  0.16300682756E+04  0.16300682756E+04  0.50400001928E-02 0. -1.
        1   -1    0    0  501    0  0.00000000000E+00  0.00000000000E+00 -0.12992900479E+04  0.12992900479E+04  0.50400001928E-02 0.  1.
    10030    2    1    2    0    0  0.00000000000E+00  0.00000000000E+00  0.33077822771E+03  0.29293583235E+04  0.29106229491E+04 0.  0.
        5    1    3    3  502    0  0.14323901389E+03 -0.14119680746E+04  0.48954639105E+03  0.15012824577E+04  0.46999998093E+01 0. -1.
       -5    1    3    3    0  502 -0.14323901389E+03  0.14119680746E+04 -0.15876816333E+03  0.14280758658E+04  0.46999998093E+01 0.  1.
</event>
<event>
 5   0  0.1382803E-05  0.2891278E+04  0.7818609E-02  0.8275477E-01
       -2   -1    0    0    0  501  0.00000000000E+00  0.00000000000E+00  0.89870665040E+03  0.89870665040E+03  0.25500000920E-02 0. -1.
        2   -1    0    0  501    0  0.00000000000E+00  0.00000000000E+00 -0.23254213760E+04  0.23254213760E+04  0.25500000920E-02 0.  1.
    10030    2    1    2    0    0  0.00000000000E+00  0.00000000000E+00 -0.14267147256E+04  0.32241280264E+04  0.28912776799E+04 0.  0.
        2    1    3    3  502    0 -0.10330159971E+04 -0.68550250085E+02 -0.18384988258E+04  0.21099523975E+04  0.25500000920E-02 0.  1.
       -2    1    3    3    0  502  0.10330159971E+04  0.68550250085E+02  0.41178410022E+03  0.11141756290E+04  0.25500000920E-02 0. -1.
</event>
<event>
 5   0  0.1382803E-05  0.2836450E+04  0.7818609E-02  0.8292040E-01
       -2   -1    0    0    0  501  0.00000000000E+00  0.00000000000E+00  0.12032565226E+04  0.12032565226E+04  0.25500000920E-02 0.  1.
        2   -1    0    0  501    0  0.00000000000E+00  0.00000000000E+00 -0.16715993236E+04  0.16715993236E+04  0.25500000920E-02 0. -1.
    10030    2    1    2    0    0  0.00000000000E+00  0.00000000000E+00 -0.46834280102E+03  0.28748558462E+04  0.28364504503E+04 0.  0.
        2    1    3    3  502    0 -0.42581872601E+03 -0.12717228169E+03  0.11308635159E+04  0.12150500682E+04  0.25500000920E-02 0.  1.
       -2    1    3    3    0  502  0.42581872601E+03  0.12717228169E+03 -0.15992063169E+04  0.16598057780E+04  0.25500000920E-02 0. -1.
</event>
<event>
 5   0  0.1339837E-05  0.2898524E+04  0.7818609E-02  0.8273317E-01
        2   -1    0    0  501    0  0.00000000000E+00  0.00000000000E+00  0.15453171824E+04  0.15453171824E+04  0.25500000920E-02 0.  1.
       -2   -1    0    0    0  501  0.00000000000E+00  0.00000000000E+00 -0.13591775977E+04  0.13591775977E+04  0.25500000920E-02 0. -1.
    10030    2    1    2    0    0  0.00000000000E+00  0.00000000000E+00  0.18613958462E+03  0.29044947801E+04  0.28985241042E+04 0.  0.
        5    1    3    3  502    0 -0.13237283497E+04 -0.30949189075E+02 -0.49731598381E+03  0.14144114938E+04  0.46999998093E+01 0. -1.
       -5    1    3    3    0  502  0.13237283497E+04  0.30949189075E+02  0.68345556843E+03  0.14900832863E+04  0.46999998093E+01 0.  1.
</event>
<event>
 5   0  0.1336899E-05  0.2833832E+04  0.7818609E-02  0.8292841E-01
       -2   -1    0    0    0  501  0.00000000000E+00  0.00000000000E+00  0.11711321221E+04  0.11711321221E+04  0.25500000920E-02 0.  1.
        2   -1    0    0  501    0  0.00000000000E+00  0.00000000000E+00 -0.17142820203E+04  0.17142820203E+04  0.25500000920E-02 0. -1.
    10030    2    1    2    0    0  0.00000000000E+00  0.00000000000E+00 -0.54314989825E+03  0.28854141424E+04  0.28338318513E+04 0.  0.
        1    1    3    3  502    0 -0.35306885094E+03  0.37216604407E+03 -0.16164061256E+04  0.16958578775E+04  0.50400001928E-02 0. -1.
       -1    1    3    3    0  502  0.35306885094E+03 -0.37216604407E+03  0.10732562273E+04  0.11895562649E+04  0.50400001928E-02 0.  1.
</event>
<event>
 5   0  0.1382803E-05  0.2906316E+04  0.7818609E-02  0.8271001E-01
        2   -1    0    0  501    0  0.00000000000E+00  0.00000000000E+00  0.13702332909E+04  0.13702332909E+04  0.25500000920E-02 0. -1.
       -2   -1    0    0    0  501  0.00000000000E+00  0.00000000000E+00 -0.15411016989E+04  0.15411016989E+04  0.25500000920E-02 0.  1.
    10030    2    1    2    0    0  0.00000000000E+00  0.00000000000E+00 -0.17086840793E+03  0.29113349898E+04  0.29063164676E+04 0.  0.
        2    1    3    3  502    0 -0.39393453332E+03  0.13724660679E+04 -0.35575445093E+03  0.14715327905E+04  0.25500000920E-02 0. -1.
       -2    1    3    3    0  502  0.39393453332E+03 -0.13724660679E+04  0.18488604299E+03  0.14398021993E+04  0.25500000920E-02 0.  1.
</event>
<event>
 5   0  0.1336899E-05  0.3070666E+04  0.7818609E-02  0.8223835E-01
       -2   -1    0    0    0  501  0.00000000000E+00  0.00000000000E+00  0.15200949353E+04  0.15200949353E+04  0.25500000920E-02 0. -1.
        2   -1    0    0  501    0  0.00000000000E+00  0.00000000000E+00 -0.15507240650E+04  0.15507240650E+04  0.25500000920E-02 0.  1.
    10030    2    1    2    0    0  0.00000000000E+00  0.00000000000E+00 -0.30629129733E+02  0.30708190003E+04  0.30706662452E+04 0.  0.
        1    1    3    3  502    0  0.47741804015E+03 -0.60414345533E+03 -0.13436616734E+04  0.15486587721E+04  0.50400001928E-02 0.  1.
       -1    1    3    3    0  502 -0.47741804015E+03  0.60414345533E+03  0.13130325437E+04  0.15221602283E+04  0.50400001928E-02 0. -1.
</event>
<event>
 5   0  0.5002240E-06  0.2857952E+04  0.7818609E-02  0.8285499E-01
       -1   -1    0    0    0  501  0.00000000000E+00  0.00000000000E+00  0.71911442672E+03  0.71911442674E+03  0.50400001928E-02 0. -1.
        1   -1    0    0  501    0  0.00000000000E+00  0.00000000000E+00 -0.28395649408E+04  0.28395649409E+04  0.50400001928E-02 0.  1.
    10030    2    1    2    0    0  0.00000000000E+00  0.00000000000E+00 -0.21204505141E+04  0.35586793676E+04  0.28579517943E+04 0.  0.
        4    1    3    3  502    0  0.11868686508E+03 -0.26438138856E+03  0.68213837632E+03  0.74114672496E+03  0.12699999809E+01 0. -1.
       -4    1    3    3    0  502 -0.11868686508E+03  0.26438138856E+03 -0.28025888904E+04  0.28175326426E+04  0.12699999809E+01 0.  1.
</event>
<event>
 5   0  0.5002240E-06  0.2919826E+04  0.7818609E-02  0.8267003E-01
       -1   -1    0    0    0  501  0.00000000000E+00  0.00000000000E+00  0.99726970213E+03  0.99726970214E+03  0.50400001928E-02 0.  1.
        1   -1    0    0  501    0  0.00000000000E+00  0.00000000000E+00 -0.21371807260E+04  0.21371807260E+04  0.50400001928E-02 0. -1.
    10030    2    1    2    0    0  0.00000000000E+00  0.00000000000E+00 -0.11399110239E+04  0.31344504281E+04  0.29198257387E+04 0.  0.
        4    1    3    3  502    0  0.53989301084E+03 -0.94651746799E+03 -0.16129505287E+04  0.19465330209E+04  0.12699999809E+01 0. -1.
       -4    1    3    3    0  502 -0.53989301084E+03  0.94651746799E+03  0.47303950487E+03  0.11879174072E+04  0.12699999809E+01 0.  1.
</event>
<event>
 5   0  0.5002240E-06  0.2831078E+04  0.7818609E-02  0.8293684E-01
        1   -1    0    0  501    0  0.00000000000E+00  0.00000000000E+00  0.18685897274E+04  0.18685897274E+04  0.50400001928E-02 0.  1.
       -1   -1    0    0    0  501  0.00000000000E+00  0.00000000000E+00 -0.10723333901E+04  0.10723333901E+04  0.50400001928E-02 0. -1.
    10030    2    1    2    0    0  0.00000000000E+00  0.00000000000E+00  0.79625633731E+03  0.29409231175E+04  0.28310783507E+04 0.  0.
        4    1    3    3  502    0 -0.24469390325E+03  0.81438449507E+01 -0.10501716556E+04  0.10783336903E+04  0.12699999809E+01 0. -1.
       -4    1    3    3    0  502  0.24469390325E+03 -0.81438449507E+01  0.18464279929E+04  0.18625894272E+04  0.12699999809E+01 0.  1.
</event>
<event>
 5   0  0.1307832E-05  0.1989150E+04  0.7818609E-02  0.8611710E-01
       -2   -1    0    0    0  501  0.00000000000E+00  0.00000000000E+00  0.51663491223E+03  0.51663491224E+03  0.25500000920E-02 0.  1.
        2   -1    0    0  501    0  0.00000000000E+00  0.00000000000E+00 -0.19146575662E+04  0.19146575662E+04  0.25500000920E-02 0. -1.
    10030    2    1    2    0    0  0.00000000000E+00  0.00000000000E+00 -0.13980226540E+04  0.24312924785E+04  0.19891495104E+04 0.  0.
        4    1    3    3  502    0  0.91181379135E+03  0.39488465098E+03 -0.64659495992E+03  0.11855061926E+04  0.12699999809E+01 0. -1.
       -4    1    3    3    0  502 -0.91181379135E+03 -0.39488465098E+03 -0.75142769410E+03  0.12457862859E+04  0.12699999809E+01 0.  1.
</event>
<event>
 5   0  0.5261878E-06  0.2495001E+04  0.7818609E-02  0.8404769E-01
        1   -1    0    0  501    0  0.00000000000E+00  0.00000000000E+00  0.21421728439E+04  0.21421728439E+04  0.50400001928E-02 0. -1.
       -1   -1    0    0    0  501  0.00000000000E+00  0.00000000000E+00 -0.72648523005E+03  0.72648523007E+03  0.50400001928E-02 0.  1.
    10030    2    1    2    0    0  0.00000000000E+00  0.00000000000E+00  0.14156876138E+04  0.28686580740E+04  0.24950005462E+04 0.  0.
        5    1    3    3  502    0  0.44446943284E+02  0.47724471317E+03 -0.61637954918E+03  0.78082256989E+03  0.46999998093E+01 0.  1.
       -5    1    3    3    0  502 -0.44446943284E+02 -0.47724471317E+03  0.20320671630E+04  0.20878355041E+04  0.46999998093E+01 0. -1.
</event>
<event>
 5   0  0.5352212E-06  0.2872147E+04  0.7818609E-02  0.8281213E-01
       -1   -1    0    0    0  501  0.00000000000E+00  0.00000000000E+00  0.22366566680E+04  0.22366566680E+04  0.50400001928E-02 0. -1.
        1   -1    0    0  501    0  0.00000000000E+00  0.00000000000E+00 -0.92204933793E+03  0.92204933795E+03  0.50400001928E-02 0.  1.
    10030    2    1    2    0    0  0.00000000000E+00  0.00000000000E+00  0.13146073301E+04  0.31587060060E+04  0.28721474892E+04 0.  0.
        2    1    3    3  502    0  0.26987981265E+03 -0.36043468798E+02 -0.89340286169E+03  0.93397158319E+03  0.25500000920E-02 0.  1.
       -2    1    3    3    0  502 -0.26987981265E+03  0.36043468798E+02  0.22080101918E+04  0.22247344228E+04  0.25500000920E-02 0. -1.
</event>
<event>
 5   0  0.5002240E-06  0.2883061E+04  0.7818609E-02  0.8277935E-01
       -1   -1    0    0    0  501  0.00000000000E+00  0.00000000000E+00  0.99304503586E+03  0.99304503588E+03  0.50400001928E-02 0.  1.
        1   -1    0    0  501    0  0.00000000000E+00  0.00000000000E+00 -0.20925645086E+04  0.20925645086E+04  0.50400001928E-02 0. -1.
    10030    2    1    2    0    0  0.00000000000E+00  0.00000000000E+00 -0.10995194727E+04  0.30856095445E+04  0.28830614267E+04 0.  0.
        4    1    3    3  502    0 -0.36337739042E+01  0.43356328192E+03 -0.20211237932E+04  0.20671074776E+04  0.12699999809E+01 0. -1.
       -4    1    3    3    0  502  0.36337739042E+01 -0.43356328192E+03  0.92160432047E+03  0.10185020668E+04  0.12699999809E+01 0.  1.
</event>
<event>
 5   0  0.5002240E-06  0.2913397E+04  0.7818609E-02  0.8268903E-01
        1   -1    0    0  501    0  0.00000000000E+00  0.00000000000E+00  0.99567402049E+03  0.99567402050E+03  0.50400001928E-02 0. -1.
       -1   -1    0    0    0  501  0.00000000000E+00  0.00000000000E+00 -0.21311898666E+04  0.21311898666E+04  0.50400001928E-02 0.  1.
    10030    2    1    2    0    0  0.00000000000E+00  0.00000000000E+00 -0.11355158461E+04  0.31268638871E+04  0.29133969060E+04 0.  0.
        4    1    3    3  502    0 -0.69250954117E+03 -0.53655843241E+03 -0.18168645855E+04  0.20170431207E+04  0.12699999809E+01 0.  1.
       -4    1    3    3    0  502  0.69250954117E+03  0.53655843241E+03  0.68134873935E+03  0.11098207664E+04  0.12699999809E+01 0. -1.
</event>
<event>
 5   0  0.1385669E-05  0.2939709E+04  0.7818609E-02  0.8261160E-01
       -2   -1    0    0    0  501  0.00000000000E+00  0.00000000000E+00  0.10111813527E+04  0.10111813527E+04  0.25500000920E-02 0. -1.
        2   -1    0    0  501    0  0.00000000000E+00  0.00000000000E+00 -0.21365824238E+04  0.21365824238E+04  0.25500000920E-02 0.  1.
    10030    2    1    2    0    0  0.00000000000E+00  0.00000000000E+00 -0.11254010711E+04  0.31477637765E+04  0.29397090369E+04 0.  0.
        3    1    3    3  502    0 -0.33044675033E+03 -0.35984056420E+03  0.92169957312E+03  0.10431732357E+04  0.10100000352E+00 0. -1.
       -3    1    3    3    0  502  0.33044675033E+03  0.35984056420E+03 -0.20471006442E+04  0.21045905408E+04  0.10100000352E+00 0.  1.
</event>
<event>
 5   0  0.5352212E-06  0.1958772E+04  0.7818609E-02  0.8626142E-01
        1   -1    0    0  501    0  0.00000000000E+00  0.00000000000E+00  0.10653140518E+04  0.10653140518E+04  0.50400001928E-02 0.  1.
       -1   -1    0    0    0  501  0.00000000000E+00  0.00000000000E+00 -0.90038879388E+03  0.90038879389E+03  0.50400001928E-02 0. -1.
    10030    2    1    2    0    0  0.00000000000E+00  0.00000000000E+00  0.16492525795E+03  0.19657028457E+04  0.19587718951E+04 0.  0.
        2    1    3    3  502    0  0.45023612416E+03 -0.15495430200E+03  0.94133758724E+03  0.10549122506E+04  0.25500000920E-02 0.  1.
       -2    1    3    3    0  502 -0.45023612416E+03  0.15495430200E+03 -0.77641232928E+03  0.91079059519E+03  0.25500000920E-02 0. -1.
</event>
<event>
 5   0  0.1385669E-05  0.2738887E+04  0.7818609E-02  0.8322497E-01
       -2   -1    0    0    0  501  0.00000000000E+00  0.00000000000E+00  0.12437902878E+04  0.12437902878E+04  0.25500000920E-02 0.  1.
        2   -1    0    0  501    0  0.00000000000E+00  0.00000000000E+00 -0.15077911418E+04  0.15077911419E+04  0.25500000920E-02 0. -1.
    10030    2    1    2    0    0  0.00000000000E+00  0.00000000000E+00 -0.26400085405E+03  0.27515814297E+04  0.27388873495E+04 0.  0.
        3    1    3    3  502    0 -0.41594255725E+02  0.56867909401E+03 -0.13828614673E+04  0.14958047473E+04  0.10100000352E+00 0. -1.
       -3    1    3    3    0  502  0.41594255725E+02 -0.56867909401E+03  0.11188606132E+04  0.12557766824E+04  0.10100000352E+00 0.  1.
</event>
<event>
 5   0  0.5261878E-06  0.2946680E+04  0.7818609E-02  0.8259123E-01
        1   -1    0    0  501    0  0.00000000000E+00  0.00000000000E+00  0.17066210643E+04  0.17066210644E+04  0.50400001928E-02 0.  1.
       -1   -1    0    0    0  501  0.00000000000E+00  0.00000000000E+00 -0.12719465613E+04  0.12719465613E+04  0.50400001928E-02 0. -1.
    10030    2    1    2    0    0  0.00000000000E+00  0.00000000000E+00  0.43467450309E+03  0.29785676256E+04  0.29466800262E+04 0.  0.
        5    1    3    3  502    0 -0.13094304080E+04 -0.67487711889E+03  0.24294088768E+03  0.14930202557E+04  0.46999998093E+01 0. -1.
       -5    1    3    3    0  502  0.13094304080E+04  0.67487711889E+03  0.19173361541E+03  0.14855473699E+04  0.46999998093E+01 0.  1.
</event>
<event>
 5   0  0.1385669E-05  0.2898305E+04  0.7818609E-02  0.8273382E-01
       -2   -1    0    0    0  501  0.00000000000E+00  0.00000000000E+00  0.90204768968E+03  0.90204768969E+03  0.25500000920E-02 0. -1.
        2   -1    0    0  501    0  0.00000000000E+00  0.00000000000E+00 -0.23280849258E+04  0.23280849258E+04  0.25500000920E-02 0.  1.
    10030    2    1    2    0    0  0.00000000000E+00  0.00000000000E+00 -0.14260372361E+04  0.32301326154E+04  0.28983054557E+04 0.  0.
        3    1    3    3  502    0  0.49414573386E+03 -0.55037863755E+03 -0.21018659573E+04  0.22282138954E+04  0.10100000352E+00 0.  1.
       -3    1    3    3    0  502 -0.49414573386E+03  0.55037863755E+03  0.67582872123E+03  0.10019187201E+04  0.10100000352E+00 0. -1.
</event>
<event>
 5   0  0.5059249E-06  0.2339571E+04  0.7818609E-02  0.8462480E-01
        1   -1    0    0  501    0  0.00000000000E+00  0.00000000000E+00  0.14443401629E+04  0.14443401629E+04  0.50400001928E-02 0.  1.
       -1   -1    0    0    0  501  0.00000000000E+00  0.00000000000E+00 -0.94742083927E+03  0.94742083928E+03  0.50400001928E-02 0. -1.
    10030    2    1    2    0    0  0.00000000000E+00  0.00000000000E+00  0.49691932359E+03  0.23917610021E+04  0.23395708746E+04 0.  0.
        1    1    3    3  502    0 -0.46265554829E+03  0.60604058475E+03  0.11554156621E+04  0.13843123560E+04  0.50400001928E-02 0.  1.
       -1    1    3    3    0  502  0.46265554829E+03 -0.60604058475E+03 -0.65849633852E+03  0.10074486461E+04  0.50400001928E-02 0. -1.
</event>
<event>
 5   0  0.5261878E-06  0.2898055E+04  0.7818609E-02  0.8273457E-01
        1   -1    0    0  501    0  0.00000000000E+00  0.00000000000E+00  0.14118944638E+04  0.14118944638E+04  0.50400001928E-02 0. -1.
       -1   -1    0    0    0  501  0.00000000000E+00  0.00000000000E+00 -0.14871366370E+04  0.14871366370E+04  0.50400001928E-02 0.  1.
    10030    2    1    2    0    0  0.00000000000E+00  0.00000000000E+00 -0.75242173181E+02  0.28990311009E+04  0.28980545093E+04 0.  0.
        5    1    3    3  502    0  0.18495974879E+03 -0.32714488587E+03  0.13622875313E+04  0.14131819745E+04  0.46999998093E+01 0. -1.
       -5    1    3    3    0  502 -0.18495974879E+03  0.32714488587E+03 -0.14375297045E+04  0.14858491264E+04  0.46999998093E+01 0.  1.
</event>
<event>
 5   0  0.1339837E-05  0.2922354E+04  0.7818609E-02  0.8266257E-01
       -2   -1    0    0    0  501  0.00000000000E+00  0.00000000000E+00  0.97984176494E+03  0.97984176494E+03  0.25500000920E-02 0. -1.
        2   -1    0    0  501    0  0.00000000000E+00  0.00000000000E+00 -0.21789623260E+04  0.21789623260E+04  0.25500000920E-02 0.  1.
    10030    2    1    2    0    0  0.00000000000E+00  0.00000000000E+00 -0.11991205611E+04  0.31588040910E+04  0.29223540452E+04 0.  0.
        5    1    3    3  502    0 -0.73486577290E+03 -0.75764985667E+03  0.49261716302E+03  0.11647981665E+04  0.46999998093E+01 0. -1.
       -5    1    3    3    0  502  0.73486577290E+03  0.75764985667E+03 -0.16917377241E+04  0.19940059244E+04  0.46999998093E+01 0.  1.
</event>
<event>
 5   0  0.5059249E-06  0.2899673E+04  0.7818609E-02  0.8272975E-01
        1   -1    0    0  501    0  0.00000000000E+00  0.00000000000E+00  0.20188966769E+04  0.20188966769E+04  0.50400001928E-02 0.  1.
       -1   -1    0    0    0  501  0.00000000000E+00  0.00000000000E+00 -0.10411758320E+04  0.10411758320E+04  0.50400001928E-02 0. -1.
    10030    2    1    2    0    0  0.00000000000E+00  0.00000000000E+00  0.97772084493E+03  0.30600725089E+04  0.28996733797E+04 0.  0.
        1    1    3    3  502    0 -0.36701726712E+03  0.11397936748E+04  0.13515097523E+04  0.18056605180E+04  0.50400001928E-02 0.  1.
       -1    1    3    3    0  502  0.36701726712E+03 -0.11397936748E+04 -0.37378890742E+03  0.12544119909E+04  0.50400001928E-02 0. -1.
</event>
<event>
 5   0  0.5352212E-06  0.2997684E+04  0.7818609E-02  0.8244393E-01
        1   -1    0    0  501    0  0.00000000000E+00  0.00000000000E+00  0.69021592683E+03  0.69021592685E+03  0.50400001928E-02 0. -1.
       -1   -1    0    0    0  501  0.00000000000E+00  0.00000000000E+00 -0.32548171229E+04  0.32548171229E+04  0.50400001928E-02 0.  1.
    10030    2    1    2    0    0  0.00000000000E+00  0.00000000000E+00 -0.25646011961E+04  0.39450330498E+04  0.29976835171E+04 0.  0.
        2    1    3    3  502    0 -0.25293399213E+03 -0.11374001893E+04 -0.25230510311E+04  0.27791080045E+04  0.25500000920E-02 0.  1.
       -2    1    3    3    0  502  0.25293399213E+03  0.11374001893E+04 -0.41550164946E+02  0.11659250453E+04  0.25500000920E-02 0. -1.
</event>
<event>
 5   0  0.1382803E-05  0.2890569E+04  0.7818609E-02  0.8275689E-01
       -2   -1    0    0    0  501  0.00000000000E+00  0.00000000000E+00  0.15329941297E+04  0.15329941297E+04  0.25500000920E-02 0.  1.
        2   -1    0    0  501    0  0.00000000000E+00  0.00000000000E+00 -0.13625932170E+04  0.13625932170E+04  0.25500000920E-02 0. -1.
    10030    2    1    2    0    0  0.00000000000E+00  0.00000000000E+00  0.17040091270E+03  0.28955873468E+04  0.28905690810E+04 0.  0.
        2    1    3    3  502    0 -0.12611154104E+03 -0.13787881586E+04 -0.33011127240E+03  0.14233532096E+04  0.25500000920E-02 0. -1.
       -2    1    3    3    0  502  0.12611154104E+03  0.13787881586E+04  0.50051218510E+03  0.14722341372E+04  0.25500000920E-02 0.  1.
</event>
<event>
 5   0  0.1382803E-05  0.2795749E+04  0.7818609E-02  0.8304589E-01
       -2   -1    0    0    0  501  0.00000000000E+00  0.00000000000E+00  0.13314968565E+04  0.13314968565E+04  0.25500000920E-02 0.  1.
        2   -1    0    0  501    0  0.00000000000E+00  0.00000000000E+00 -0.14675607467E+04  0.14675607467E+04  0.25500000920E-02 0. -1.
    10030    2    1    2    0    0  0.00000000000E+00  0.00000000000E+00 -0.13606389021E+03  0.27990576033E+04  0.27957485731E+04 0.  0.
        2    1    3    3  502    0 -0.22271014528E+03  0.27873976642E+03  0.12851434646E+04  0.13337501231E+04  0.25500000920E-02 0.  1.
       -2    1    3    3    0  502  0.22271014528E+03 -0.27873976642E+03 -0.14212073548E+04  0.14653074802E+04  0.25500000920E-02 0. -1.
</event>
<event>
 5   0  0.1307832E-05  0.2890640E+04  0.7818609E-02  0.8275668E-01
       -2   -1    0    0    0  501  0.00000000000E+00  0.00000000000E+00  0.15032485154E+04  0.15032485154E+04  0.25500000920E-02 0.  1.
        2   -1    0    0  501    0  0.00000000000E+00  0.00000000000E+00 -0.13896236852E+04  0.13896236852E+04  0.25500000920E-02 0. -1.
    10030    2    1    2    0    0  0.00000000000E+00  0.00000000000E+00  0.11362483021E+03  0.28928722007E+04  0.28906398889E+04 0.  0.
        4    1    3    3  502    0 -0.55876788925E+03 -0.12037581509E+04  0.62969914868E+03  0.14689376674E+04  0.12699999809E+01 0.  1.
       -4    1    3    3    0  502  0.55876788925E+03  0.12037581509E+04 -0.51607431848E+03  0.14239345333E+04  0.12699999809E+01 0. -1.
</event>
<event>
 5   0  0.1336899E-05  0.2963531E+04  0.7818609E-02  0.8254222E-01
        2   -1    0    0  501    0  0.00000000000E+00  0.00000000000E+00  0.16054180298E+04  0.16054180298E+04  0.25500000920E-02 0. -1.
       -2   -1    0    0    0  501  0.00000000000E+00  0.00000000000E+00 -0.13676366929E+04  0.13676366929E+04  0.25500000920E-02 0.  1.
    10030    2    1    2    0    0  0.00000000000E+00  0.00000000000E+00  0.23778133688E+03  0.29730547226E+04  0.29635307354E+04 0.  0.
        1    1    3    3  502    0  0.41321338643E+03 -0.90032818912E+03 -0.98660008737E+03  0.13981115418E+04  0.50400001928E-02 0.  1.
       -1    1    3    3    0  502 -0.41321338643E+03  0.90032818912E+03  0.12243814242E+04  0.15749431809E+04  0.50400001928E-02 0. -1.
</event>
<event>
 5   0  0.1339837E-05  0.2714410E+04  0.7818609E-02  0.8330344E-01
       -2   -1    0    0    0  501  0.00000000000E+00  0.00000000000E+00  0.12567819971E+04  0.12567819971E+04  0.25500000920E-02 0.  1.
        2   -1    0    0  501    0  0.00000000000E+00  0.00000000000E+00 -0.14656525576E+04  0.14656525576E+04  0.25500000920E-02 0. -1.
    10030    2    1    2    0    0  0.00000000000E+00  0.00000000000E+00 -0.20887056046E+03  0.27224345548E+04  0.27144102479E+04 0.  0.
        5    1    3    3  502    0 -0.16364266108E+02  0.28591925980E+03 -0.14349941881E+04  0.14633003869E+04  0.46999998093E+01 0. -1.
       -5    1    3    3    0  502  0.16364266108E+02 -0.28591925980E+03  0.12261236277E+04  0.12591341679E+04  0.46999998093E+01 0.  1.
</event>
<event>
 5   0  0.1307832E-05  0.2854704E+04  0.7818609E-02  0.8286483E-01
        2   -1    0    0  501    0  0.00000000000E+00  0.00000000000E+00  0.23156787123E+04  0.23156787123E+04  0.25500000920E-02 0. -1.
       -2   -1    0    0    0  501  0.00000000000E+00  0.00000000000E+00 -0.87979983694E+03  0.87979983695E+03  0.25500000920E-02 0.  1.
    10030    2    1    2    0    0  0.00000000000E+00  0.00000000000E+00  0.14358788753E+04  0.31954785492E+04  0.28547040151E+04 0.  0.
        4    1    3    3  502    0 -0.12209278363E+03 -0.13969952933E+04  0.42003131259E+03  0.14638751359E+04  0.12699999809E+01 0.  1.
       -4    1    3    3    0  502  0.12209278363E+03  0.13969952933E+04  0.10158475627E+04  0.17316034133E+04  0.12699999809E+01 0. -1.
</event>
<event>
 5   0  0.1336899E-05  0.2841660E+04  0.7818609E-02  0.8290450E-01
       -2   -1    0    0    0  501  0.00000000000E+00  0.00000000000E+00  0.17383701351E+04  0.17383701351E+04  0.25500000920E-02 0.  1.
        2   -1    0    0  501    0  0.00000000000E+00  0.00000000000E+00 -0.11612934928E+04  0.11612934928E+04  0.25500000920E-02 0. -1.
    10030    2    1    2    0    0  0.00000000000E+00  0.00000000000E+00  0.57707664224E+03  0.28996636279E+04  0.28416600261E+04 0.  0.
        1    1    3    3  502    0  0.46459342438E+03  0.57627827364E+03  0.15260645546E+04  0.16961181337E+04  0.50400001928E-02 0.  1.
       -1    1    3    3    0  502 -0.46459342438E+03 -0.57627827364E+03 -0.94898791239E+03  0.12035454942E+04  0.50400001928E-02 0. -1.
</event>
<event>
 5   0  0.4590125E-06  0.2921442E+04  0.7818609E-02  0.8266526E-01
        3   -1    0    0  501    0  0.00000000000E+00  0.00000000000E+00  0.19914689471E+04  0.19914689497E+04  0.10100000352E+00 0. -1.
       -3   -1    0    0    0  501  0.00000000000E+00  0.00000000000E+00 -0.10714229288E+04  0.10714229336E+04  0.10100000352E+00 0.  1.
    10030    2    1    2    0    0  0.00000000000E+00  0.00000000000E+00  0.92004601828E+03  0.30628918833E+04  0.29214417696E+04 0.  0.
        2    1    3    3  502    0  0.13516355331E+04 -0.61814888794E+02 -0.11705063769E+03  0.13581018174E+04  0.25500000920E-02 0.  1.
       -2    1    3    3    0  502 -0.13516355331E+04  0.61814888794E+02  0.10370966560E+04  0.17047900658E+04  0.25500000920E-02 0. -1.
</event>
<event>
 5   0  0.5261878E-06  0.1795540E+04  0.7818609E-02  0.8708675E-01
       -1   -1    0    0    0  501  0.00000000000E+00  0.00000000000E+00  0.75365198515E+03  0.75365198517E+03  0.50400001928E-02 0. -1.
        1   -1    0    0  501    0  0.00000000000E+00  0.00000000000E+00 -0.10694475719E+04  0.10694475719E+04  0.50400001928E-02 0.  1.
    10030    2    1    2    0    0  0.00000000000E+00  0.00000000000E+00 -0.31579558672E+03  0.18230995571E+04  0.17955403483E+04 0.  0.
        5    1    3    3  502    0 -0.21579718404E+03  0.40115707040E+03  0.62758699565E+03  0.77548884382E+03  0.46999998093E+01 0. -1.
       -5    1    3    3    0  502  0.21579718404E+03 -0.40115707040E+03 -0.94338258237E+03  0.10476107132E+04  0.46999998093E+01 0.  1.
</event>
<event>
 5   0  0.5154476E-06  0.2553389E+04  0.7818609E-02  0.8384209E-01
        1   -1    0    0  501    0  0.00000000000E+00  0.00000000000E+00  0.11904595398E+04  0.11904595399E+04  0.50400001928E-02 0.  1.
       -1   -1    0    0    0  501  0.00000000000E+00  0.00000000000E+00 -0.13691759770E+04  0.13691759770E+04  0.50400001928E-02 0. -1.
    10030    2    1    2    0    0  0.00000000000E+00  0.00000000000E+00 -0.17871643713E+03  0.25596355168E+04  0.25533888098E+04 0.  0.
        3    1    3    3  502    0 -0.77702895728E+03  0.64804221841E+03  0.69114523640E+03  0.12253221884E+04  0.10100000352E+00 0.  1.
       -3    1    3    3    0  502  0.77702895728E+03 -0.64804221841E+03 -0.86986167353E+03  0.13343133285E+04  0.10100000352E+00 0. -1.
</event>
<event>
 5   0  0.1339837E-05  0.2860367E+04  0.7818609E-02  0.8284768E-01
        2   -1    0    0  501    0  0.00000000000E+00  0.00000000000E+00  0.19384248659E+04  0.19384248659E+04  0.25500000920E-02 0. -1.
       -2   -1    0    0    0  501  0.00000000000E+00  0.00000000000E+00 -0.10551997983E+04  0.10551997983E+04  0.25500000920E-02 0.  1.
    10030    2    1    2    0    0  0.00000000000E+00  0.00000000000E+00  0.88322506763E+03  0.29936246642E+04  0.28603674781E+04 0.  0.
        5    1    3    3  502    0  0.36375854937E+03 -0.11016432284E+04  0.13169159435E+04  0.17550577703E+04  0.46999998093E+01 0. -1.
       -5    1    3    3    0  502 -0.36375854937E+03  0.11016432284E+04 -0.43369087588E+03  0.12385668939E+04  0.46999998093E+01 0.  1.
</event>
<event>
 5   0  0.5002240E-06  0.2877368E+04  0.7818609E-02  0.8279643E-01
       -1   -1    0    0    0  501  0.00000000000E+00  0.00000000000E+00  0.18853193457E+04  0.18853193457E+04  0.50400001928E-02 0.  1.
        1   -1    0    0  501    0  0.00000000000E+00  0.00000000000E+00 -0.10978575493E+04  0.10978575493E+04  0.50400001928E-02 0. -1.
    10030    2    1    2    0    0  0.00000000000E+00  0.00000000000E+00  0.78746179638E+03  0.29831768950E+04  0.28773682951E+04 0.  0.
        4    1    3    3  502    0 -0.10422804185E+04  0.73275018454E+03 -0.29907779456E+03  0.13087094574E+04  0.12699999809E+01 0. -1.
       -4    1    3    3    0  502  0.10422804185E+04 -0.73275018454E+03  0.10865395909E+04  0.16744674376E+04  0.12699999809E+01 0.  1.
</event>
<event>
 5   0  0.1336899E-05  0.2675011E+04  0.7818609E-02  0.8343159E-01
        2   -1    0    0  501    0  0.00000000000E+00  0.00000000000E+00  0.10399426567E+04  0.10399426567E+04  0.25500000920E-02 0. -1.
       -2   -1    0    0    0  501  0.00000000000E+00  0.00000000000E+00 -0.17202111314E+04  0.17202111314E+04  0.25500000920E-02 0.  1.
    10030    2    1    2    0    0  0.00000000000E+00  0.00000000000E+00 -0.68026847475E+03  0.27601537881E+04  0.26750109787E+04 0.  0.
        1    1    3    3  502    0 -0.85306025676E+03 -0.21343939590E+02  0.72257624007E+03  0.11181608955E+04  0.50400001928E-02 0. -1.
       -1    1    3    3    0  502  0.85306025676E+03  0.21343939590E+02 -0.14028447148E+04  0.16419928926E+04  0.50400001928E-02 0.  1.
</event>
<event>
 5   0  0.4590125E-06  0.2880340E+04  0.7818609E-02  0.8278751E-01
        3   -1    0    0  501    0  0.00000000000E+00  0.00000000000E+00  0.14152483922E+04  0.14152483958E+04  0.10100000352E+00 0. -1.
       -3   -1    0    0    0  501  0.00000000000E+00  0.00000000000E+00 -0.14655306704E+04  0.14655306738E+04  0.10100000352E+00 0.  1.
    10030    2    1    2    0    0  0.00000000000E+00  0.00000000000E+00 -0.50282278137E+02  0.28807790697E+04  0.28803402127E+04 0.  0.
        3    1    3    3  502    0  0.15398445547E+03 -0.13006389563E+04 -0.62416228778E+03  0.14508450912E+04  0.10100000352E+00 0. -1.
       -3    1    3    3    0  502 -0.15398445547E+03  0.13006389563E+04  0.57388000964E+03  0.14299339784E+04  0.10100000352E+00 0.  1.
</event>
<event>
 5   0  0.1382803E-05  0.3002306E+04  0.7818609E-02  0.8243073E-01
       -2   -1    0    0    0  501  0.00000000000E+00  0.00000000000E+00  0.12044784851E+04  0.12044784851E+04  0.25500000920E-02 0.  1.
        2   -1    0    0  501    0  0.00000000000E+00  0.00000000000E+00 -0.18709016899E+04  0.18709016899E+04  0.25500000920E-02 0. -1.
    10030    2    1    2    0    0  0.00000000000E+00  0.00000000000E+00 -0.66642320478E+03  0.30753801750E+04  0.30023063357E+04 0.  0.
        2    1    3    3  502    0 -0.14758642424E+03 -0.79664996672E+03  0.96128245441E+03  0.12571781414E+04  0.25500000920E-02 0.  1.
       -2    1    3    3    0  502  0.14758642424E+03  0.79664996672E+03 -0.16277056592E+04  0.18182020336E+04  0.25500000920E-02 0. -1.
</event>
<event>
 5   0  0.5261878E-06  0.2908018E+04  0.7818609E-02  0.8270496E-01
       -1   -1    0    0    0  501  0.00000000000E+00  0.00000000000E+00  0.15334065026E+04  0.15334065026E+04  0.50400001928E-02 0. -1.
        1   -1    0    0  501    0  0.00000000000E+00  0.00000000000E+00 -0.13787225415E+04  0.13787225415E+04  0.50400001928E-02 0.  1.
    10030    2    1    2    0    0  0.00000000000E+00  0.00000000000E+00  0.15468396107E+03  0.29121290441E+04  0.29080179575E+04 0.  0.
        5    1    3    3  502    0 -0.31186326463E+03  0.75252760923E+03 -0.11287541042E+04  0.13920001495E+04  0.46999998093E+01 0.  1.
       -5    1    3    3    0  502  0.31186326463E+03 -0.75252760923E+03  0.12834380653E+04  0.15201288945E+04  0.46999998093E+01 0. -1.
</event>
<event>
 5   0  0.1307832E-05  0.2848457E+04  0.7818609E-02  0.8288380E-01
        2   -1    0    0  501    0  0.00000000000E+00  0.00000000000E+00  0.18216339776E+04  0.18216339776E+04  0.25500000920E-02 0. -1.
       -2   -1    0    0    0  501  0.00000000000E+00  0.00000000000E+00 -0.11135207990E+04  0.11135207990E+04  0.25500000920E-02 0.  1.
    10030    2    1    2    0    0  0.00000000000E+00  0.00000000000E+00  0.70811317864E+03  0.29351547766E+04  0.28484573525E+04 0.  0.
        4    1    3    3  502    0  0.23188032085E+03 -0.12296566652E+03 -0.10883841624E+04  0.11195850733E+04  0.12699999809E+01 0.  1.
       -4    1    3    3    0  502 -0.23188032085E+03  0.12296566652E+03  0.17964973411E+04  0.18155697034E+04  0.12699999809E+01 0. -1.
</event>
<event>
 5   0  0.1339837E-05  0.2838295E+04  0.7818609E-02  0.8291477E-01
       -2   -1    0    0    0  501  0.00000000000E+00  0.00000000000E+00  0.10702075242E+04  0.10702075242E+04  0.25500000920E-02 0. -1.
        2   -1    0    0  501    0  0.00000000000E+00  0.00000000000E+00 -0.18818590630E+04  0.18818590630E+04  0.25500000920E-02 0.  1.
    10030    2    1    2    0    0  0.00000000000E+00  0.00000000000E+00 -0.81165153882E+03  0.29520665871E+04  0.28382950718E+04 0.  0.
        5    1    3    3  502    0 -0.84596973280E+03 -0.85817045800E+03  0.37377724473E+03  0.12616865072E+04  0.46999998093E+01 0. -1.
       -5    1    3    3    0  502  0.84596973280E+03  0.85817045800E+03 -0.11854287836E+04  0.16903800799E+04  0.46999998093E+01 0.  1.
</event>
<event>
 5   0  0.5002240E-06  0.2864685E+04  0.7818609E-02  0.8283463E-01
       -1   -1    0    0    0  501  0.00000000000E+00  0.00000000000E+00  0.13574964568E+04  0.13574964568E+04  0.50400001928E-02 0.  1.
        1   -1    0    0  501    0  0.00000000000E+00  0.00000000000E+00 -0.15113150510E+04  0.15113150510E+04  0.50400001928E-02 0. -1.
    10030    2    1    2    0    0  0.00000000000E+00  0.00000000000E+00 -0.15381859417E+03  0.28688115079E+04  0.28646848531E+04 0.  0.
        4    1    3    3  502    0 -0.48598609797E+03  0.35065360656E+03 -0.13797302219E+04  0.15042597972E+04  0.12699999809E+01 0. -1.
       -4    1    3    3    0  502  0.48598609797E+03 -0.35065360656E+03  0.12259116277E+04  0.13645517107E+04  0.12699999809E+01 0.  1.
</event>
<event>
 5   0  0.1336899E-05  0.2928671E+04  0.7818609E-02  0.8264398E-01
        2   -1    0    0  501    0  0.00000000000E+00  0.00000000000E+00  0.16153550552E+04  0.16153550552E+04  0.25500000920E-02 0.  1.
       -2   -1    0    0    0  501  0.00000000000E+00  0.00000000000E+00 -0.13274345638E+04  0.13274345638E+04  0.25500000920E-02 0. -1.
    10030    2    1    2    0    0  0.00000000000E+00  0.00000000000E+00  0.28792049147E+03  0.29427896190E+04  0.29286707791E+04 0.  0.
        1    1    3    3  502    0  0.13538149780E+04  0.24996073067E+03 -0.35742703188E+03  0.14223394267E+04  0.50400001928E-02 0. -1.
       -1    1    3    3    0  502 -0.13538149780E+04 -0.24996073067E+03  0.64534752336E+03  0.15204501923E+04  0.50400001928E-02 0.  1.
</event>
<event>
 5   0  0.5261878E-06  0.2883821E+04  0.7818609E-02  0.8277708E-01
        1   -1    0    0  501    0  0.00000000000E+00  0.00000000000E+00  0.14144839939E+04  0.14144839939E+04  0.50400001928E-02 0.  1.
       -1   -1    0    0    0  501  0.00000000000E+00  0.00000000000E+00 -0.14698687034E+04  0.14698687034E+04  0.50400001928E-02 0. -1.
    10030    2    1    2    0    0  0.00000000000E+00  0.00000000000E+00 -0.55384709556E+02  0.28843526973E+04  0.28838209058E+04 0.  0.
        5    1    3    3  502    0 -0.73945166390E+03 -0.12377125079E+04 -0.86455057753E+01  0.14418106152E+04  0.46999998093E+01 0. -1.
       -5    1    3    3    0  502  0.73945166390E+03  0.12377125079E+04 -0.46739203781E+02  0.14425420821E+04  0.46999998093E+01 0.  1.
</event>
<event>
 5   0  0.5059249E-06  0.2897897E+04  0.7818609E-02  0.8273503E-01
        1   -1    0    0  501    0  0.00000000000E+00  0.00000000000E+00  0.15464687722E+04  0.15464687722E+04  0.50400001928E-02 0.  1.
       -1   -1    0    0    0  501  0.00000000000E+00  0.00000000000E+00 -0.13575777285E+04  0.13575777285E+04  0.50400001928E-02 0. -1.
    10030    2    1    2    0    0  0.00000000000E+00  0.00000000000E+00  0.18889104368E+03  0.29040465007E+04  0.28978968670E+04 0.  0.
        1    1    3    3  502    0 -0.97717889033E+03 -0.40526290894E+02 -0.97690249692E+03  0.13823384001E+04  0.50400001928E-02 0. -1.
       -1    1    3    3    0  502  0.97717889033E+03  0.40526290894E+02  0.11657935406E+04  0.15217081006E+04  0.50400001928E-02 0.  1.
</event>
<event>
 5   0  0.5154476E-06  0.2841933E+04  0.7818609E-02  0.8290367E-01
        1   -1    0    0  501    0  0.00000000000E+00  0.00000000000E+00  0.71646953215E+03  0.71646953216E+03  0.50400001928E-02 0. -1.
       -1   -1    0    0    0  501  0.00000000000E+00  0.00000000000E+00 -0.28181875242E+04  0.28181875242E+04  0.50400001928E-02 0.  1.
    10030    2    1    2    0    0  0.00000000000E+00  0.00000000000E+00 -0.21017179920E+04  0.35346570563E+04  0.28419327909E+04 0.  0.
        3    1    3    3  502    0  0.75098016275E+02 -0.71895204412E+03  0.47069841435E+03  0.86260579714E+03  0.10100000352E+00 0. -1.
       -3    1    3    3    0  502 -0.75098016275E+02  0.71895204412E+03 -0.25724164064E+04  0.26720512592E+04  0.10100000352E+00 0.  1.
</event>
<event>
 5   0  0.5002240E-06  0.2919822E+04  0.7818609E-02  0.8267004E-01
        1   -1    0    0  501    0  0.00000000000E+00  0.00000000000E+00  0.14935216807E+04  0.14935216807E+04  0.50400001928E-02 0. -1.
       -1   -1    0    0    0  501  0.00000000000E+00  0.00000000000E+00 -0.14270565575E+04  0.14270565575E+04  0.50400001928E-02 0.  1.
    10030    2    1    2    0    0  0.00000000000E+00  0.00000000000E+00  0.66465123233E+02  0.29205782383E+04  0.29198218496E+04 0.  0.
        4    1    3    3  502    0  0.35113157909E+02 -0.75125432152E+03 -0.12183798469E+04  0.14318055223E+04  0.12699999809E+01 0.  1.
       -4    1    3    3    0  502 -0.35113157909E+02  0.75125432152E+03  0.12848449702E+04  0.14887727159E+04  0.12699999809E+01 0. -1.
</event>
<event>
 5   0  0.1385669E-05  0.2850285E+04  0.7818609E-02  0.8287825E-01
       -2   -1    0    0    0  501  0.00000000000E+00  0.00000000000E+00  0.11528978694E+04  0.11528978694E+04  0.25500000920E-02 0.  1.
        2   -1    0    0  501    0  0.00000000000E+00  0.00000000000E+00 -0.17616744183E+04  0.17616744183E+04  0.25500000920E-02 0. -1.
    10030    2    1    2    0    0  0.00000000000E+00  0.00000000000E+00 -0.60877654887E+03  0.29145722877E+04  0.28502846759E+04 0.  0.
        3    1    3    3  502    0  0.60814925801E+03  0.43567026950E+03  0.93597389314E+03  0.11982075123E+04  0.10100000352E+00 0.  1.
       -3    1    3    3    0  502 -0.60814925801E+03 -0.43567026950E+03 -0.15447504420E+04  0.17163647753E+04  0.10100000352E+00 0. -1.
</event>
<event>
 5   0  0.5261878E-06  0.2937999E+04  0.7818609E-02  0.8261661E-01
       -1   -1    0    0    0  501  0.00000000000E+00  0.00000000000E+00  0.25742280119E+04  0.25742280119E+04  0.50400001928E-02 0. -1.
        1   -1    0    0  501    0  0.00000000000E+00  0.00000000000E+00 -0.83829380982E+03  0.83829380983E+03  0.50400001928E-02 0.  1.
    10030    2    1    2    0    0  0.00000000000E+00  0.00000000000E+00  0.17359342020E+04  0.34125218217E+04  0.29379989159E+04 0.  0.
        5    1    3    3  502    0  0.29525250974E+03  0.49139989959E+03  0.24389267001E+04  0.25054008550E+04  0.46999998093E+01 0. -1.
       -5    1    3    3    0  502 -0.29525250974E+03 -0.49139989959E+03 -0.70299249807E+03  0.90712096667E+03  0.46999998093E+01 0.  1.
</event>
<event>
 5   0  0.1385669E-05  0.2053790E+04  0.7818609E-02  0.8581877E-01
        2   -1    0    0  501    0  0.00000000000E+00  0.00000000000E+00  0.87791178695E+03  0.87791178696E+03  0.25500000920E-02 0.  1.
       -2   -1    0    0    0  501  0.00000000000E+00  0.00000000000E+00 -0.12011607102E+04  0.12011607102E+04  0.25500000920E-02 0. -1.
    10030    2    1    2    0    0  0.00000000000E+00  0.00000000000E+00 -0.32324892322E+03  0.20790724971E+04  0.20537898096E+04 0.  0.
        3    1    3    3  502    0 -0.97974843245E+02 -0.82236345708E+03  0.45300078624E+03  0.94397587257E+03  0.10100000352E+00 0.  1.
       -3    1    3    3    0  502  0.97974843245E+02  0.82236345708E+03 -0.77624970947E+03  0.11350966246E+04  0.10100000352E+00 0. -1.
</event>
<event>
 5   0  0.1339837E-05  0.2903917E+04  0.7818609E-02  0.8271713E-01
       -2   -1    0    0    0  501  0.00000000000E+00  0.00000000000E+00  0.14719414387E+04  0.14719414387E+04  0.25500000920E-02 0.  1.
        2   -1    0    0  501    0  0.00000000000E+00  0.00000000000E+00 -0.14322468173E+04  0.14322468173E+04  0.25500000920E-02 0. -1.
    10030    2    1    2    0    0  0.00000000000E+00  0.00000000000E+00  0.39694621355E+02  0.29041882560E+04  0.29039169691E+04 0.  0.
        5    1    3    3  502    0 -0.10235313052E+04  0.53699224879E+03  0.89866960565E+03  0.14641059245E+04  0.46999998093E+01 0.  1.
       -5    1    3    3    0  502  0.10235313052E+04 -0.53699224879E+03 -0.85897498429E+03  0.14400823315E+04  0.46999998093E+01 0. -1.
</event>
<event>
 5   0  0.5352212E-06  0.2838746E+04  0.7818609E-02  0.8291339E-01
       -1   -1    0    0    0  501  0.00000000000E+00  0.00000000000E+00  0.11308147188E+04  0.11308147188E+04  0.50400001928E-02 0. -1.
        1   -1    0    0  501    0  0.00000000000E+00  0.00000000000E+00 -0.17815644150E+04  0.17815644150E+04  0.50400001928E-02 0.  1.
    10030    2    1    2    0    0  0.00000000000E+00  0.00000000000E+00 -0.65074969621E+03  0.29123791337E+04  0.28387456828E+04 0.  0.
        2    1    3    3  502    0  0.98165462767E+03  0.98132342279E+03 -0.21070638730E+02  0.13881950295E+04  0.25500000920E-02 0. -1.
       -2    1    3    3    0  502 -0.98165462767E+03 -0.98132342279E+03 -0.62967905748E+03  0.15241841042E+04  0.25500000920E-02 0.  1.
</event>
<event>
 5   0  0.5002240E-06  0.2890262E+04  0.7818609E-02  0.8275781E-01
        1   -1    0    0  501    0  0.00000000000E+00  0.00000000000E+00  0.15202777490E+04  0.15202777490E+04  0.50400001928E-02 0.  1.
       -1   -1    0    0    0  501  0.00000000000E+00  0.00000000000E+00 -0.13736985689E+04  0.13736985689E+04  0.50400001928E-02 0. -1.
    10030    2    1    2    0    0  0.00000000000E+00  0.00000000000E+00  0.14657918007E+03  0.28939763179E+04  0.28902618346E+04 0.  0.
        4    1    3    3  502    0 -0.14010807440E+02  0.85476202491E+03  0.12399425126E+04  0.15060788390E+04  0.12699999809E+01 0.  1.
       -4    1    3    3    0  502  0.14010807440E+02 -0.85476202491E+03 -0.10933633325E+04  0.13878974788E+04  0.12699999809E+01 0. -1.
</event>
<event>
 5   0  0.1382803E-05  0.2883315E+04  0.7818609E-02  0.8277859E-01
        2   -1    0    0  501    0  0.00000000000E+00  0.00000000000E+00  0.30323410316E+04  0.30323410316E+04  0.25500000920E-02 0. -1.
       -2   -1    0    0    0  501  0.00000000000E+00  0.00000000000E+00 -0.68540327809E+03  0.68540327810E+03  0.25500000920E-02 0.  1.
    10030    2    1    2    0    0  0.00000000000E+00  0.00000000000E+00  0.23469377535E+04  0.37177443097E+04  0.28833150944E+04 0.  0.
        2    1    3    3  502    0  0.48521691156E+03  0.87435300865E+03  0.25124886374E+04  0.27041685946E+04  0.25500000920E-02 0. -1.
       -2    1    3    3    0  502 -0.48521691156E+03 -0.87435300865E+03 -0.16555088392E+03  0.10135757151E+04  0.25500000920E-02 0.  1.
</event>
<event>
 5   0  0.1385669E-05  0.1846650E+04  0.7818609E-02  0.8681877E-01
       -2   -1    0    0    0  501  0.00000000000E+00  0.00000000000E+00  0.50201944218E+03  0.50201944218E+03  0.25500000920E-02 0.  1.
        2   -1    0    0  501    0  0.00000000000E+00  0.00000000000E+00 -0.16981995556E+04  0.16981995556E+04  0.25500000920E-02 0. -1.
    10030    2    1    2    0    0  0.00000000000E+00  0.00000000000E+00 -0.11961801134E+04  0.22002189978E+04  0.18466501495E+04 0.  0.
        3    1    3    3  502    0 -0.23028262909E+03 -0.89300660900E+03 -0.54429847441E+03  0.10708649459E+04  0.10100000352E+00 0. -1.
       -3    1    3    3    0  502  0.23028262909E+03  0.89300660900E+03 -0.65188163902E+03  0.11293540519E+04  0.10100000352E+00 0.  1.
</event>
<event>
 5   0  0.5059249E-06  0.2990946E+04  0.7818609E-02  0.8246321E-01
       -1   -1    0    0    0  501  0.00000000000E+00  0.00000000000E+00  0.14013304944E+04  0.14013304944E+04  0.50400001928E-02 0. -1.
        1   -1    0    0  501    0  0.00000000000E+00  0.00000000000E+00 -0.15959400917E+04  0.15959400917E+04  0.50400001928E-02 0.  1.
    10030    2    1    2    0    0  0.00000000000E+00  0.00000000000E+00 -0.19460959730E+03  0.29972705862E+04  0.29909460161E+04 0.  0.
        1    1    3    3  502    0  0.95412100734E+03 -0.35194998525E+03  0.10014734237E+04  0.14272927896E+04  0.50400001928E-02 0. -1.
       -1    1    3    3    0  502 -0.95412100734E+03  0.35194998525E+03 -0.11960830210E+04  0.15699777966E+04  0.50400001928E-02 0.  1.
</event>
<event>
 5   0  0.1339837E-05  0.2359818E+04  0.7818609E-02  0.8454702E-01
       -2   -1    0    0    0  501  0.00000000000E+00  0.00000000000E+00  0.99559821383E+03  0.99559821383E+03  0.25500000920E-02 0. -1.
        2   -1    0    0  501    0  0.00000000000E+00  0.00000000000E+00 -0.13983404556E+04  0.13983404556E+04  0.25500000920E-02 0.  1.
    10030    2    1    2    0    0  0.00000000000E+00  0.00000000000E+00 -0.40274224178E+03  0.23939386694E+04  0.23598180099E+04 0.  0.
        5    1    3    3  502    0  0.10493019573E+03 -0.67418199480E+03 -0.11779066067E+04  0.13612559540E+04  0.46999998093E+01 0.  1.
       -5    1    3    3    0  502 -0.10493019573E+03  0.67418199480E+03  0.77516436496E+03  0.10326827154E+04  0.46999998093E+01 0. -1.
</event>
<event>
 5   0  0.5002240E-06  0.2873842E+04  0.7818609E-02  0.8280703E-01
        1   -1    0    0  501    0  0.00000000000E+00  0.00000000000E+00  0.14113088783E+04  0.14113088783E+04  0.50400001928E-02 0.  1.
       -1   -1    0    0    0  501  0.00000000000E+00  0.00000000000E+00 -0.14629978463E+04  0.14629978463E+04  0.50400001928E-02 0. -1.
    10030    2    1    2    0    0  0.00000000000E+00  0.00000000000E+00 -0.51688967962E+02  0.28743067246E+04  0.28738419228E+04 0.  0.
        4    1    3    3  502    0 -0.38639904835E+02  0.92394866373E+03  0.10741361303E+04  0.14173722922E+04  0.12699999809E+01 0.  1.
       -4    1    3    3    0  502  0.38639904835E+02 -0.92394866373E+03 -0.11258250982E+04  0.14569344324E+04  0.12699999809E+01 0. -1.
</event>
<event>
 5   0  0.5261878E-06  0.2848200E+04  0.7818609E-02  0.8288458E-01
       -1   -1    0    0    0  501  0.00000000000E+00  0.00000000000E+00  0.12514826575E+04  0.12514826575E+04  0.50400001928E-02 0. -1.
        1   -1    0    0  501    0  0.00000000000E+00  0.00000000000E+00 -0.16205267375E+04  0.16205267375E+04  0.50400001928E-02 0.  1.
    10030    2    1    2    0    0  0.00000000000E+00  0.00000000000E+00 -0.36904408003E+03  0.28720093950E+04  0.28482002093E+04 0.  0.
        5    1    3    3  502    0  0.96097412286E+03 -0.10229030204E+04  0.58819051390E+02  0.14047361406E+04  0.46999998093E+01 0. -1.
       -5    1    3    3    0  502 -0.96097412286E+03  0.10229030204E+04 -0.42786313142E+03  0.14672732544E+04  0.46999998093E+01 0.  1.
</event>
<event>
 5   0  0.1382803E-05  0.2857515E+04  0.7818609E-02  0.8285631E-01
        2   -1    0    0  501    0  0.00000000000E+00  0.00000000000E+00  0.18164771516E+04  0.18164771516E+04  0.25500000920E-02 0. -1.
       -2   -1    0    0    0  501  0.00000000000E+00  0.00000000000E+00 -0.11237948824E+04  0.11237948824E+04  0.25500000920E-02 0.  1.
    10030    2    1    2    0    0  0.00000000000E+00  0.00000000000E+00  0.69268226922E+03  0.29402720341E+04  0.28575148133E+04 0.  0.
        2    1    3    3  502    0  0.82206395440E+03  0.45836435019E+03 -0.75971358415E+03  0.12095667624E+04  0.25500000920E-02 0.  1.
       -2    1    3    3    0  502 -0.82206395440E+03 -0.45836435019E+03  0.14523958534E+04  0.17307052717E+04  0.25500000920E-02 0. -1.
</event>
<event>
 5   0  0.5059249E-06  0.2382655E+04  0.7818609E-02  0.8446026E-01
        1   -1    0    0  501    0  0.00000000000E+00  0.00000000000E+00  0.16822738930E+04  0.16822738930E+04  0.50400001928E-02 0. -1.
       -1   -1    0    0    0  501  0.00000000000E+00  0.00000000000E+00 -0.84365677519E+03  0.84365677521E+03  0.50400001928E-02 0.  1.
    10030    2    1    2    0    0  0.00000000000E+00  0.00000000000E+00  0.83861711780E+03  0.25259306682E+04  0.23826554661E+04 0.  0.
        1    1    3    3  502    0 -0.83054641021E+03 -0.41912186975E+03  0.12082290517E+04  0.15248894788E+04  0.50400001928E-02 0. -1.
       -1    1    3    3    0  502  0.83054641021E+03  0.41912186975E+03 -0.36961193386E+03  0.10010411894E+04  0.50400001928E-02 0.  1.
</event>
<event>
 5   0  0.5352212E-06  0.2906678E+04  0.7818609E-02  0.8270893E-01
       -1   -1    0    0    0  501  0.00000000000E+00  0.00000000000E+00  0.10109372582E+04  0.10109372582E+04  0.50400001928E-02 0. -1.
        1   -1    0    0  501    0  0.00000000000E+00  0.00000000000E+00 -0.20893424793E+04  0.20893424793E+04  0.50400001928E-02 0.  1.
    10030    2    1    2    0    0  0.00000000000E+00  0.00000000000E+00 -0.10784052211E+04  0.31002797375E+04  0.29066779371E+04 0.  0.
        2    1    3    3  502    0 -0.10519873712E+04  0.93610693323E+03 -0.15578704488E+03  0.14167721140E+04  0.25500000920E-02 0. -1.
       -2    1    3    3    0  502  0.10519873712E+04 -0.93610693323E+03 -0.92261817624E+03  0.16835076236E+04  0.25500000920E-02 0.  1.
</event>
<event>
 5   0  0.1339837E-05  0.2949923E+04  0.7818609E-02  0.8258177E-01
        2   -1    0    0  501    0  0.00000000000E+00  0.00000000000E+00  0.11262003921E+04  0.11262003921E+04  0.25500000920E-02 0. -1.
       -2   -1    0    0    0  501  0.00000000000E+00  0.00000000000E+00 -0.19317260985E+04  0.19317260985E+04  0.25500000920E-02 0.  1.
    10030    2    1    2    0    0  0.00000000000E+00  0.00000000000E+00 -0.80552570634E+03  0.30579264906E+04  0.29499225004E+04 0.  0.
        5    1    3    3  502    0  0.95699316322E+02  0.77237682786E+03 -0.17015370611E+04  0.18710891971E+04  0.46999998093E+01 0.  1.
       -5    1    3    3    0  502 -0.95699316322E+02 -0.77237682786E+03  0.89601135476E+03  0.11868372935E+04  0.46999998093E+01 0. -1.
</event>
<event>
 5   0  0.1307832E-05  0.2150723E+04  0.7818609E-02  0.8539223E-01
        2   -1    0    0  501    0  0.00000000000E+00  0.00000000000E+00  0.13586570033E+04  0.13586570033E+04  0.25500000920E-02 0. -1.
       -2   -1    0    0    0  501  0.00000000000E+00  0.00000000000E+00 -0.85113608598E+03  0.85113608598E+03  0.25500000920E-02 0.  1.
    10030    2    1    2    0    0  0.00000000000E+00  0.00000000000E+00  0.50752091729E+03  0.22097930892E+04  0.21507226729E+04 0.  0.
        4    1    3    3  502    0  0.57541456416E+03 -0.31834686507E+03 -0.62046330348E+03  0.90411446787E+03  0.12699999809E+01 0.  1.
       -4    1    3    3    0  502 -0.57541456416E+03  0.31834686507E+03  0.11279842208E+04  0.13056786214E+04  0.12699999809E+01 0. -1.
</event>
<event>
 5   0  0.5352212E-06  0.1771681E+04  0.7818609E-02  0.8721506E-01
        1   -1    0    0  501    0  0.00000000000E+00  0.00000000000E+00  0.96656816025E+03  0.96656816027E+03  0.50400001928E-02 0.  1.
       -1   -1    0    0    0  501  0.00000000000E+00  0.00000000000E+00 -0.81185515130E+03  0.81185515132E+03  0.50400001928E-02 0. -1.
    10030    2    1    2    0    0  0.00000000000E+00  0.00000000000E+00  0.15471300895E+03  0.17784233116E+04  0.17716809419E+04 0.  0.
        2    1    3    3  502    0  0.25135523645E+03  0.13009299328E+03  0.91996132083E+03  0.96251362257E+03  0.25500000920E-02 0.  1.
       -2    1    3    3    0  502 -0.25135523645E+03 -0.13009299328E+03 -0.76524831188E+03  0.81590968902E+03  0.25500000920E-02 0. -1.
</event>
<event>
 5   0  0.5154476E-06  0.2894181E+04  0.7818609E-02  0.8274611E-01
       -1   -1    0    0    0  501  0.00000000000E+00  0.00000000000E+00  0.11559407849E+04  0.11559407849E+04  0.50400001928E-02 0. -1.
        1   -1    0    0  501    0  0.00000000000E+00  0.00000000000E+00 -0.18115730068E+04  0.18115730068E+04  0.50400001928E-02 0.  1.
    10030    2    1    2    0    0  0.00000000000E+00  0.00000000000E+00 -0.65563222198E+03  0.29675137917E+04  0.28941811439E+04 0.  0.
        3    1    3    3  502    0 -0.37433020632E+03  0.13964405977E+04 -0.26377009350E+03  0.14696067905E+04  0.10100000352E+00 0.  1.
       -3    1    3    3    0  502  0.37433020632E+03 -0.13964405977E+04 -0.39186212847E+03  0.14979070012E+04  0.10100000352E+00 0. -1.
</event>
<event>
 5   0  0.5352212E-06  0.2825711E+04  0.7818609E-02  0.8295330E-01
       -1   -1    0    0    0  501  0.00000000000E+00  0.00000000000E+00  0.11412137821E+04  0.11412137821E+04  0.50400001928E-02 0. -1.
        1   -1    0    0  501    0  0.00000000000E+00  0.00000000000E+00 -0.17491562144E+04  0.17491562144E+04  0.50400001928E-02 0.  1.
    10030    2    1    2    0    0  0.00000000000E+00  0.00000000000E+00 -0.60794243234E+03  0.28903699965E+04  0.28257113646E+04 0.  0.
        2    1    3    3  502    0  0.10484876164E+03 -0.70452127835E+03  0.94412021493E+03  0.11826692161E+04  0.25500000920E-02 0. -1.
       -2    1    3    3    0  502 -0.10484876164E+03  0.70452127835E+03 -0.15520626473E+04  0.17077007804E+04  0.25500000920E-02 0.  1.
</event>
<event>
 5   0  0.1385669E-05  0.2940337E+04  0.7818609E-02  0.8260976E-01
       -2   -1    0    0    0  501  0.00000000000E+00  0.00000000000E+00  0.12557411104E+04  0.12557411104E+04  0.25500000920E-02 0.  1.
        2   -1    0    0  501    0  0.00000000000E+00  0.00000000000E+00 -0.17212105723E+04  0.17212105723E+04  0.25500000920E-02 0. -1.
    10030    2    1    2    0    0  0.00000000000E+00  0.00000000000E+00 -0.46546946189E+03  0.29769516827E+04  0.29403366306E+04 0.  0.
        3    1    3    3  502    0 -0.12323676943E+04 -0.39235389912E+03 -0.94052760645E+03  0.15991447416E+04  0.10100000352E+00 0. -1.
       -3    1    3    3    0  502  0.12323676943E+04  0.39235389912E+03  0.47505814456E+03  0.13778069411E+04  0.10100000352E+00 0.  1.
</event>
<event>
 5   0  0.5261878E-06  0.2902801E+04  0.7818609E-02  0.8272045E-01
       -1   -1    0    0    0  501  0.00000000000E+00  0.00000000000E+00  0.12094499639E+04  0.12094499639E+04  0.50400001928E-02 0.  1.
        1   -1    0    0  501    0  0.00000000000E+00  0.00000000000E+00 -0.17417528603E+04  0.17417528603E+04  0.50400001928E-02 0. -1.
    10030    2    1    2    0    0  0.00000000000E+00  0.00000000000E+00 -0.53230289644E+03  0.29512028242E+04  0.29028006711E+04 0.  0.
        5    1    3    3  502    0 -0.94213171231E+03 -0.92810724827E+03 -0.87407304462E+03  0.15852510858E+04  0.46999998093E+01 0. -1.
       -5    1    3    3    0  502  0.94213171231E+03  0.92810724827E+03  0.34177014818E+03  0.13659517385E+04  0.46999998093E+01 0.  1.
</event>
<event>
 5   0  0.5002240E-06  0.2912714E+04  0.7818609E-02  0.8269105E-01
        1   -1    0    0  501    0  0.00000000000E+00  0.00000000000E+00  0.21527789295E+04  0.21527789295E+04  0.50400001928E-02 0.  1.
       -1   -1    0    0    0  501  0.00000000000E+00  0.00000000000E+00 -0.98522692541E+03  0.98522692542E+03  0.50400001928E-02 0. -1.
    10030    2    1    2    0    0  0.00000000000E+00  0.00000000000E+00  0.11675520041E+04  0.31380058549E+04  0.29127140373E+04 0.  0.
        4    1    3    3  502    0 -0.98133966607E+03 -0.87188331391E+03 -0.95693211989E+02  0.13161940803E+04  0.12699999809E+01 0. -1.
       -4    1    3    3    0  502  0.98133966607E+03  0.87188331391E+03  0.12632452160E+04  0.18218117746E+04  0.12699999809E+01 0.  1.
</event>
<event>
 5   0  0.5059249E-06  0.2923692E+04  0.7818609E-02  0.8265863E-01
        1   -1    0    0  501    0  0.00000000000E+00  0.00000000000E+00  0.12188362347E+04  0.12188362348E+04  0.50400001928E-02 0. -1.
       -1   -1    0    0    0  501  0.00000000000E+00  0.00000000000E+00 -0.17533061541E+04  0.17533061541E+04  0.50400001928E-02 0.  1.
    10030    2    1    2    0    0  0.00000000000E+00  0.00000000000E+00 -0.53446991932E+03  0.29721423888E+04  0.29236915509E+04 0.  0.
        1    1    3    3  502    0  0.37808744478E+03 -0.69002126973E+03  0.98521846736E+03  0.12608468967E+04  0.50400001928E-02 0. -1.
       -1    1    3    3    0  502 -0.37808744478E+03  0.69002126973E+03 -0.15196883867E+04  0.17112954921E+04  0.50400001928E-02 0.  1.
</event>
<event>
 5   0  0.1336899E-05  0.2926703E+04  0.7818609E-02  0.8264977E-01
       -2   -1    0    0    0  501  0.00000000000E+00  0.00000000000E+00  0.15484534602E+04  0.15484534602E+04  0.25500000920E-02 0.  1.
        2   -1    0    0  501    0  0.00000000000E+00  0.00000000000E+00 -0.13829269212E+04  0.13829269212E+04  0.25500000920E-02 0. -1.
    10030    2    1    2    0    0  0.00000000000E+00  0.00000000000E+00  0.16552653895E+03  0.29313803814E+04  0.29267032486E+04 0.  0.
        1    1    3    3  502    0  0.15361893629E+02 -0.12230448564E+04  0.88736719946E+03  0.15111238385E+04  0.50400001928E-02 0.  1.
       -1    1    3    3    0  502 -0.15361893629E+02  0.12230448564E+04 -0.72184066051E+03  0.14202565429E+04  0.50400001928E-02 0. -1.
</event>
<event>
 5   0  0.5059249E-06  0.2891536E+04  0.7818609E-02  0.8275400E-01
        1   -1    0    0  501    0  0.00000000000E+00  0.00000000000E+00  0.16319578438E+04  0.16319578439E+04  0.50400001928E-02 0.  1.
       -1   -1    0    0    0  501  0.00000000000E+00  0.00000000000E+00 -0.12808203555E+04  0.12808203555E+04  0.50400001928E-02 0. -1.
    10030    2    1    2    0    0  0.00000000000E+00  0.00000000000E+00  0.35113748833E+03  0.29127781994E+04  0.28915358035E+04 0.  0.
        1    1    3    3  502    0  0.13422198508E+04  0.53691113193E+03  0.15499483725E+03  0.14539089005E+04  0.50400001928E-02 0.  1.
       -1    1    3    3    0  502 -0.13422198508E+04 -0.53691113193E+03  0.19614265108E+03  0.14588692988E+04  0.50400001928E-02 0. -1.
</event>
<event>
 5   0  0.1385669E-05  0.2907506E+04  0.7818609E-02  0.8270648E-01
       -2   -1    0    0    0  501  0.00000000000E+00  0.00000000000E+00  0.16871880293E+04  0.16871880293E+04  0.25500000920E-02 0. -1.
        2   -1    0    0  501    0  0.00000000000E+00  0.00000000000E+00 -0.12526155015E+04  0.12526155015E+04  0.25500000920E-02 0.  1.
    10030    2    1    2    0    0  0.00000000000E+00  0.00000000000E+00  0.43457252784E+03  0.29398035309E+04  0.29075060650E+04 0.  0.
        3    1    3    3  502    0  0.89353129722E+03  0.57280012788E+03 -0.78717729869E+03  0.13214182818E+04  0.10100000352E+00 0.  1.
       -3    1    3    3    0  502 -0.89353129722E+03 -0.57280012788E+03  0.12217498265E+04  0.16183852491E+04  0.10100000352E+00 0. -1.
</event>
<event>
 5   0  0.1385669E-05  0.2882758E+04  0.7818609E-02  0.8278026E-01
       -2   -1    0    0    0  501  0.00000000000E+00  0.00000000000E+00  0.10974842791E+04  0.10974842791E+04  0.25500000920E-02 0.  1.
        2   -1    0    0  501    0  0.00000000000E+00  0.00000000000E+00 -0.18930329371E+04  0.18930329371E+04  0.25500000920E-02 0. -1.
    10030    2    1    2    0    0  0.00000000000E+00  0.00000000000E+00 -0.79554865802E+03  0.29905172162E+04  0.28827583238E+04 0.  0.
        3    1    3    3  502    0 -0.89702522506E+03 -0.97888504863E+03 -0.97972876969E+03  0.16500723212E+04  0.10100000352E+00 0. -1.
       -3    1    3    3    0  502  0.89702522506E+03  0.97888504863E+03  0.18418011168E+03  0.13404448950E+04  0.10100000352E+00 0.  1.
</event>
<event>
 5   0  0.1307832E-05  0.2929382E+04  0.7818609E-02  0.8264189E-01
        2   -1    0    0  501    0  0.00000000000E+00  0.00000000000E+00  0.10735677031E+04  0.10735677031E+04  0.25500000920E-02 0.  1.
       -2   -1    0    0    0  501  0.00000000000E+00  0.00000000000E+00 -0.19983092789E+04  0.19983092789E+04  0.25500000920E-02 0. -1.
    10030    2    1    2    0    0  0.00000000000E+00  0.00000000000E+00 -0.92474157580E+03  0.30718769820E+04  0.29293823940E+04 0.  0.
        4    1    3    3  502    0  0.47512575754E+03 -0.16217589523E+03 -0.19052646780E+04  0.19702996251E+04  0.12699999809E+01 0. -1.
       -4    1    3    3    0  502 -0.47512575754E+03  0.16217589523E+03  0.98052310219E+03  0.11015773569E+04  0.12699999809E+01 0.  1.
</event>
<event>
 5   0  0.5154476E-06  0.2892794E+04  0.7818609E-02  0.8275025E-01
       -1   -1    0    0    0  501  0.00000000000E+00  0.00000000000E+00  0.96052830702E+03  0.96052830704E+03  0.50400001928E-02 0. -1.
        1   -1    0    0  501    0  0.00000000000E+00  0.00000000000E+00 -0.21780346546E+04  0.21780346546E+04  0.50400001928E-02 0.  1.
    10030    2    1    2    0    0  0.00000000000E+00  0.00000000000E+00 -0.12175063475E+04  0.31385629616E+04  0.28927937634E+04 0.  0.
        3    1    3    3  502    0  0.44325002245E+03  0.95382450467E+03  0.46848183376E+03  0.11514021916E+04  0.10100000352E+00 0. -1.
       -3    1    3    3    0  502 -0.44325002245E+03 -0.95382450467E+03 -0.16859881813E+04  0.19871607700E+04  0.10100000352E+00 0.  1.
</event>
<event>
 5   0  0.1307832E-05  0.2824700E+04  0.7818609E-02  0.8295641E-01
       -2   -1    0    0    0  501  0.00000000000E+00  0.00000000000E+00  0.10202714890E+04  0.10202714890E+04  0.25500000920E-02 0.  1.
        2   -1    0    0  501    0  0.00000000000E+00  0.00000000000E+00 -0.19550992558E+04  0.19550992558E+04  0.25500000920E-02 0. -1.
    10030    2    1    2    0    0  0.00000000000E+00  0.00000000000E+00 -0.93482776677E+03  0.29753707448E+04  0.28246996505E+04 0.  0.
        4    1    3    3  502    0  0.11734097795E+04 -0.77647159441E+03 -0.33870028386E+03  0.14472450182E+04  0.12699999809E+01 0.  1.
       -4    1    3    3    0  502 -0.11734097795E+04  0.77647159441E+03 -0.59612748291E+03  0.15281257266E+04  0.12699999809E+01 0. -1.
</event>
<event>
 5   0  0.5261878E-06  0.2929326E+04  0.7818609E-02  0.8264205E-01
       -1   -1    0    0    0  501  0.00000000000E+00  0.00000000000E+00  0.19227108329E+04  0.19227108329E+04  0.50400001928E-02 0.  1.
        1   -1    0    0  501    0  0.00000000000E+00  0.00000000000E+00 -0.11157359407E+04  0.11157359407E+04  0.50400001928E-02 0. -1.
    10030    2    1    2    0    0  0.00000000000E+00  0.00000000000E+00  0.80697489215E+03  0.30384467736E+04  0.29293259155E+04 0.  0.
        5    1    3    3  502    0 -0.41672814234E+03 -0.13265724335E+04  0.88080190982E+03  0.16459923634E+04  0.46999998093E+01 0.  1.
       -5    1    3    3    0  502  0.41672814234E+03  0.13265724335E+04 -0.73827017678E+02  0.13924544102E+04  0.46999998093E+01 0. -1.
</event>
<event>
 5   0  0.1336899E-05  0.2587348E+04  0.7818609E-02  0.8372512E-01
       -2   -1    0    0    0  501  0.00000000000E+00  0.00000000000E+00  0.89234463143E+03  0.89234463144E+03  0.25500000920E-02 0. -1.
        2   -1    0    0  501    0  0.00000000000E+00  0.00000000000E+00 -0.18755000802E+04  0.18755000802E+04  0.25500000920E-02 0.  1.
    10030    2    1    2    0    0  0.00000000000E+00  0.00000000000E+00 -0.98315544881E+03  0.27678447117E+04  0.25873480074E+04 0.  0.
        1    1    3    3  502    0 -0.41453959189E+03  0.14731000547E+03  0.80986463453E+03  0.92164203314E+03  0.50400001928E-02 0. -1.
       -1    1    3    3    0  502  0.41453959189E+03 -0.14731000547E+03 -0.17930200833E+04  0.18462026785E+04  0.50400001928E-02 0.  1.
</event>
<event>
 5   0  0.5352212E-06  0.2959459E+04  0.7818609E-02  0.8255403E-01
        1   -1    0    0  501    0  0.00000000000E+00  0.00000000000E+00  0.14856778221E+04  0.14856778221E+04  0.50400001928E-02 0. -1.
       -1   -1    0    0    0  501  0.00000000000E+00  0.00000000000E+00 -0.14738049724E+04  0.14738049724E+04  0.50400001928E-02 0.  1.
    10030    2    1    2    0    0  0.00000000000E+00  0.00000000000E+00  0.11872849756E+02  0.29594827945E+04  0.29594589787E+04 0.  0.
        2    1    3    3  502    0  0.78789329958E+02  0.13690944302E+04 -0.54992058650E+03  0.14775114107E+04  0.25500000920E-02 0.  1.
       -2    1    3    3    0  502 -0.78789329958E+02 -0.13690944302E+04  0.56179343626E+03  0.14819713838E+04  0.25500000920E-02 0. -1.
</event>
<event>
 5   0  0.1339837E-05  0.2896652E+04  0.7818609E-02  0.8273874E-01
        2   -1    0    0  501    0  0.00000000000E+00  0.00000000000E+00  0.11081494702E+04  0.11081494702E+04  0.25500000920E-02 0. -1.
       -2   -1    0    0    0  501  0.00000000000E+00  0.00000000000E+00 -0.18929288130E+04  0.18929288130E+04  0.25500000920E-02 0.  1.
    10030    2    1    2    0    0  0.00000000000E+00  0.00000000000E+00 -0.78477934283E+03  0.30010782833E+04  0.28966519027E+04 0.  0.
        5    1    3    3  502    0  0.64321727810E+03 -0.12553124528E+04 -0.73300960391E+03  0.15896109557E+04  0.46999998093E+01 0.  1.
       -5    1    3    3    0  502 -0.64321727810E+03  0.12553124528E+04 -0.51769738922E+02  0.14114673276E+04  0.46999998093E+01 0. -1.
</event>
<event>
 5   0  0.5154476E-06  0.2894689E+04  0.7818609E-02  0.8274459E-01
        1   -1    0    0  501    0  0.00000000000E+00  0.00000000000E+00  0.18529242524E+04  0.18529242524E+04  0.50400001928E-02 0. -1.
       -1   -1    0    0    0  501  0.00000000000E+00  0.00000000000E+00 -0.11305409729E+04  0.11305409729E+04  0.50400001928E-02 0.  1.
    10030    2    1    2    0    0  0.00000000000E+00  0.00000000000E+00  0.72238327954E+03  0.29834652253E+04  0.28946894736E+04 0.  0.
        3    1    3    3  502    0  0.48465877302E+03  0.13391676344E+04  0.62706155681E+03  0.15561074145E+04  0.10100000352E+00 0. -1.
       -3    1    3    3    0  502 -0.48465877302E+03 -0.13391676344E+04  0.95321722725E+02  0.14273578109E+04  0.10100000352E+00 0.  1.
</event>
<event>
 5   0  0.5059249E-06  0.2871294E+04  0.7818609E-02  0.8281470E-01
       -1   -1    0    0    0  501  0.00000000000E+00  0.00000000000E+00  0.17049333125E+04  0.17049333125E+04  0.50400001928E-02 0. -1.
        1   -1    0    0  501    0  0.00000000000E+00  0.00000000000E+00 -0.12088931625E+04  0.12088931625E+04  0.50400001928E-02 0.  1.
    10030    2    1    2    0    0  0.00000000000E+00  0.00000000000E+00  0.49604014999E+03  0.29138264750E+04  0.28712939411E+04 0.  0.
        1    1    3    3  502    0  0.25802844205E+03  0.13898665593E+04  0.50227984075E+03  0.15001975763E+04  0.50400001928E-02 0. -1.
       -1    1    3    3    0  502 -0.25802844205E+03 -0.13898665593E+04 -0.62396907541E+01  0.14136288987E+04  0.50400001928E-02 0.  1.
</event>
<event>
 5   0  0.5261878E-06  0.2811757E+04  0.7818609E-02  0.8299628E-01
       -1   -1    0    0    0  501  0.00000000000E+00  0.00000000000E+00  0.14512591966E+04  0.14512591966E+04  0.50400001928E-02 0.  1.
        1   -1    0    0  501    0  0.00000000000E+00  0.00000000000E+00 -0.13619170128E+04  0.13619170128E+04  0.50400001928E-02 0. -1.
    10030    2    1    2    0    0  0.00000000000E+00  0.00000000000E+00  0.89342183767E+02  0.28131762095E+04  0.28117571658E+04 0.  0.
        5    1    3    3  502    0  0.98604562190E+01  0.10820214307E+04 -0.85333684176E+03  0.13780687430E+04  0.46999998093E+01 0. -1.
       -5    1    3    3    0  502 -0.98604562190E+01 -0.10820214307E+04  0.94267902553E+03  0.14351074664E+04  0.46999998093E+01 0.  1.
</event>
<event>
 5   0  0.5059249E-06  0.2885647E+04  0.7818609E-02  0.8277161E-01
       -1   -1    0    0    0  501  0.00000000000E+00  0.00000000000E+00  0.12586484812E+04  0.12586484812E+04  0.50400001928E-02 0. -1.
        1   -1    0    0  501    0  0.00000000000E+00  0.00000000000E+00 -0.16539480125E+04  0.16539480125E+04  0.50400001928E-02 0.  1.
    10030    2    1    2    0    0  0.00000000000E+00  0.00000000000E+00 -0.39529953131E+03  0.29125964937E+04  0.28856466547E+04 0.  0.
        1    1    3    3  502    0  0.10254958553E+03 -0.13809001650E+04 -0.60682135476E+03  0.15118312868E+04  0.50400001928E-02 0.  1.
       -1    1    3    3    0  502 -0.10254958553E+03  0.13809001650E+04  0.21152182345E+03  0.14007652069E+04  0.50400001928E-02 0. -1.
</event>
<event>
 5   0  0.5352212E-06  0.2949478E+04  0.7818609E-02  0.8258307E-01
       -1   -1    0    0    0  501  0.00000000000E+00  0.00000000000E+00  0.77943969634E+03  0.77943969635E+03  0.50400001928E-02 0.  1.
        1   -1    0    0  501    0  0.00000000000E+00  0.00000000000E+00 -0.27902795354E+04  0.27902795354E+04  0.50400001928E-02 0. -1.
    10030    2    1    2    0    0  0.00000000000E+00  0.00000000000E+00 -0.20108398391E+04  0.35697192318E+04  0.29494776716E+04 0.  0.
        2    1    3    3  502    0  0.80734371661E+03  0.24666025338E+03  0.45808350607E+03  0.96046116834E+03  0.25500000920E-02 0.  1.
       -2    1    3    3    0  502 -0.80734371661E+03 -0.24666025338E+03 -0.24689233452E+04  0.26092580634E+04  0.25500000920E-02 0. -1.
</event>
<event>
 5   0  0.5261878E-06  0.2481490E+04  0.7818609E-02  0.8409610E-01
        1   -1    0    0  501    0  0.00000000000E+00  0.00000000000E+00  0.10658622824E+04  0.10658622824E+04  0.50400001928E-02 0. -1.
       -1   -1    0    0    0  501  0.00000000000E+00  0.00000000000E+00 -0.14443215627E+04  0.14443215627E+04  0.50400001928E-02 0.  1.
    10030    2    1    2    0    0  0.00000000000E+00  0.00000000000E+00 -0.37845928028E+03  0.25101838451E+04  0.24814897762E+04 0.  0.
        5    1    3    3  502    0  0.34834990656E+03 -0.21809135949E+03 -0.13734562728E+04  0.14336372351E+04  0.46999998093E+01 0.  1.
       -5    1    3    3    0  502 -0.34834990656E+03  0.21809135949E+03  0.99499699251E+03  0.10765466100E+04  0.46999998093E+01 0. -1.
</event>
<event>
 5   0  0.1339837E-05  0.2035008E+04  0.7818609E-02  0.8590426E-01
        2   -1    0    0  501    0  0.00000000000E+00  0.00000000000E+00  0.11769678500E+04  0.11769678500E+04  0.25500000920E-02 0.  1.
       -2   -1    0    0    0  501  0.00000000000E+00  0.00000000000E+00 -0.87964582241E+03  0.87964582242E+03  0.25500000920E-02 0. -1.
    10030    2    1    2    0    0  0.00000000000E+00  0.00000000000E+00  0.29732202754E+03  0.20566136724E+04  0.20350084544E+04 0.  0.
        5    1    3    3  502    0 -0.92395906631E+03  0.32186251709E+03 -0.13358332833E+03  0.98750312999E+03  0.46999998093E+01 0. -1.
       -5    1    3    3    0  502  0.92395906631E+03 -0.32186251709E+03  0.43090535587E+03  0.10691105424E+04  0.46999998093E+01 0.  1.
</event>
<event>
 5   0  0.5261878E-06  0.2875466E+04  0.7818609E-02  0.8280215E-01
        1   -1    0    0  501    0  0.00000000000E+00  0.00000000000E+00  0.23102531845E+04  0.23102531845E+04  0.50400001928E-02 0. -1.
       -1   -1    0    0    0  501  0.00000000000E+00  0.00000000000E+00 -0.89474027607E+03  0.89474027609E+03  0.50400001928E-02 0.  1.
    10030    2    1    2    0    0  0.00000000000E+00  0.00000000000E+00  0.14155129084E+04  0.32049934606E+04  0.28754662732E+04 0.  0.
        5    1    3    3  502    0  0.90618882701E+03 -0.89507828990E+03  0.14510457480E+04  0.19307768354E+04  0.46999998093E+01 0. -1.
       -5    1    3    3    0  502 -0.90618882701E+03  0.89507828990E+03 -0.35532839595E+02  0.12742166252E+04  0.46999998093E+01 0.  1.
</event>
<event>
 5   0  0.1336899E-05  0.2925205E+04  0.7818609E-02  0.8265418E-01
        2   -1    0    0  501    0  0.00000000000E+00  0.00000000000E+00  0.22927466533E+04  0.22927466533E+04  0.25500000920E-02 0. -1.
       -2   -1    0    0    0  501  0.00000000000E+00  0.00000000000E+00 -0.93303209157E+03  0.93303209157E+03  0.25500000920E-02 0.  1.
    10030    2    1    2    0    0  0.00000000000E+00  0.00000000000E+00  0.13597145617E+04  0.32257787448E+04  0.29252050905E+04 0.  0.
        1    1    3    3  502    0  0.21656270324E+03  0.94697848099E+03 -0.52590043300E+03  0.11046442474E+04  0.50400001928E-02 0.  1.
       -1    1    3    3    0  502 -0.21656270324E+03 -0.94697848099E+03  0.18856149947E+04  0.21211344974E+04  0.50400001928E-02 0. -1.
</event>
<event>
 5   0  0.5059249E-06  0.2967769E+04  0.7818609E-02  0.8252995E-01
        1   -1    0    0  501    0  0.00000000000E+00  0.00000000000E+00  0.21476379566E+04  0.21476379566E+04  0.50400001928E-02 0. -1.
       -1   -1    0    0    0  501  0.00000000000E+00  0.00000000000E+00 -0.10252720770E+04  0.10252720770E+04  0.50400001928E-02 0.  1.
    10030    2    1    2    0    0  0.00000000000E+00  0.00000000000E+00  0.11223658796E+04  0.31729100336E+04  0.29677690129E+04 0.  0.
        1    1    3    3  502    0 -0.12825293024E+03  0.12123264835E+03 -0.10140118747E+04  0.10292551925E+04  0.50400001928E-02 0.  1.
       -1    1    3    3    0  502  0.12825293024E+03 -0.12123264835E+03  0.21363777543E+04  0.21436548412E+04  0.50400001928E-02 0. -1.
</event>
<event>
 5   0  0.1307832E-05  0.2886656E+04  0.7818609E-02  0.8276859E-01
        2   -1    0    0  501    0  0.00000000000E+00  0.00000000000E+00  0.16368439848E+04  0.16368439848E+04  0.25500000920E-02 0. -1.
       -2   -1    0    0    0  501  0.00000000000E+00  0.00000000000E+00 -0.12726902748E+04  0.12726902748E+04  0.25500000920E-02 0.  1.
    10030    2    1    2    0    0  0.00000000000E+00  0.00000000000E+00  0.36415370996E+03  0.29095342596E+04  0.28866557958E+04 0.  0.
        4    1    3    3  502    0  0.43744319325E+03  0.65632458279E+03  0.14004063923E+04  0.16072517481E+04  0.12699999809E+01 0. -1.
       -4    1    3    3    0  502 -0.43744319325E+03 -0.65632458279E+03 -0.10362526823E+04  0.13022825115E+04  0.12699999809E+01 0.  1.
</event>
<event>
 5   0  0.1385669E-05  0.2936656E+04  0.7818609E-02  0.8262054E-01
       -2   -1    0    0    0  501  0.00000000000E+00  0.00000000000E+00  0.12668091301E+04  0.12668091301E+04  0.25500000920E-02 0.  1.
        2   -1    0    0  501    0  0.00000000000E+00  0.00000000000E+00 -0.17019040711E+04  0.17019040711E+04  0.25500000920E-02 0. -1.
    10030    2    1    2    0    0  0.00000000000E+00  0.00000000000E+00 -0.43509494100E+03  0.29687132012E+04  0.29366563407E+04 0.  0.
        3    1    3    3  502    0 -0.21434131701E+03 -0.84737158499E+03  0.97516509827E+03  0.13095525122E+04  0.10100000352E+00 0.  1.
       -3    1    3    3    0  502  0.21434131701E+03  0.84737158499E+03 -0.14102600393E+04  0.16591606890E+04  0.10100000352E+00 0. -1.
</event>
<event>
 5   0  0.5154476E-06  0.2856725E+04  0.7818609E-02  0.8285871E-01
        1   -1    0    0  501    0  0.00000000000E+00  0.00000000000E+00  0.22367851883E+04  0.22367851883E+04  0.50400001928E-02 0. -1.
       -1   -1    0    0    0  501  0.00000000000E+00  0.00000000000E+00 -0.91212133346E+03  0.91212133348E+03  0.50400001928E-02 0.  1.
    10030    2    1    2    0    0  0.00000000000E+00  0.00000000000E+00  0.13246638548E+04  0.31489065218E+04  0.28567250401E+04 0.  0.
        3    1    3    3  502    0 -0.24530810434E+02 -0.11954675960E+04 -0.19891016812E+03  0.12121508977E+04  0.10100000352E+00 0.  1.
       -3    1    3    3    0  502  0.24530810434E+02  0.11954675960E+04  0.15235740230E+04  0.19367556240E+04  0.10100000352E+00 0. -1.
</event>
<event>
 5   0  0.5261878E-06  0.2842873E+04  0.7818609E-02  0.8290080E-01
       -1   -1    0    0    0  501  0.00000000000E+00  0.00000000000E+00  0.92103899131E+03  0.92103899132E+03  0.50400001928E-02 0.  1.
        1   -1    0    0  501    0  0.00000000000E+00  0.00000000000E+00 -0.21936985870E+04  0.21936985870E+04  0.50400001928E-02 0. -1.
    10030    2    1    2    0    0  0.00000000000E+00  0.00000000000E+00 -0.12726595957E+04  0.31147375783E+04  0.28428731479E+04 0.  0.
        5    1    3    3  502    0 -0.21988321028E+03  0.30175213243E+03 -0.21390043918E+04  0.21713509283E+04  0.46999998093E+01 0. -1.
       -5    1    3    3    0  502  0.21988321028E+03 -0.30175213243E+03  0.86634479615E+03  0.94338665001E+03  0.46999998093E+01 0.  1.
</event>
<event>
 5   0  0.4590125E-06  0.2871663E+04  0.7818609E-02  0.8281359E-01
       -3   -1    0    0    0  501  0.00000000000E+00  0.00000000000E+00  0.10317176735E+04  0.10317176784E+04  0.10100000352E+00 0. -1.
        3   -1    0    0  501    0  0.00000000000E+00  0.00000000000E+00 -0.19982326276E+04  0.19982326302E+04  0.10100000352E+00 0.  1.
    10030    2    1    2    0    0  0.00000000000E+00  0.00000000000E+00 -0.96651495420E+03  0.30299503086E+04  0.28716628834E+04 0.  0.
        4    1    3    3  502    0  0.50335234075E+03  0.13265870230E+04 -0.71541661072E+03  0.15890309148E+04  0.12699999809E+01 0.  1.
       -4    1    3    3    0  502 -0.50335234075E+03 -0.13265870230E+04 -0.25109834347E+03  0.14409193938E+04  0.12699999809E+01 0. -1.
</event>
<event>
 5   0  0.5352212E-06  0.2993494E+04  0.7818609E-02  0.8245591E-01
       -1   -1    0    0    0  501  0.00000000000E+00  0.00000000000E+00  0.20268623845E+04  0.20268623845E+04  0.50400001928E-02 0.  1.
        1   -1    0    0  501    0  0.00000000000E+00  0.00000000000E+00 -0.11052807501E+04  0.11052807501E+04  0.50400001928E-02 0. -1.
    10030    2    1    2    0    0  0.00000000000E+00  0.00000000000E+00  0.92158163443E+03  0.31321431346E+04  0.29934942636E+04 0.  0.
        2    1    3    3  502    0  0.49422873893E+03  0.15349595793E+03  0.19302713977E+04  0.19984420743E+04  0.25500000920E-02 0.  1.
       -2    1    3    3    0  502 -0.49422873893E+03 -0.15349595793E+03 -0.10086897633E+04  0.11337010603E+04  0.25500000920E-02 0. -1.
</event>
<event>
 5   0  0.1385669E-05  0.2622908E+04  0.7818609E-02  0.8360461E-01
       -2   -1    0    0    0  501  0.00000000000E+00  0.00000000000E+00  0.11576120566E+04  0.11576120566E+04  0.25500000920E-02 0.  1.
        2   -1    0    0  501    0  0.00000000000E+00  0.00000000000E+00 -0.14857405322E+04  0.14857405322E+04  0.25500000920E-02 0. -1.
    10030    2    1    2    0    0  0.00000000000E+00  0.00000000000E+00 -0.32812847566E+03  0.26433525888E+04  0.26229076637E+04 0.  0.
        3    1    3    3  502    0 -0.16295204988E+03 -0.68615185615E+03 -0.12783742008E+04  0.14599994342E+04  0.10100000352E+00 0. -1.
       -3    1    3    3    0  502  0.16295204988E+03  0.68615185615E+03  0.95024572513E+03  0.11833531546E+04  0.10100000352E+00 0.  1.
</event>
<event>
 5   0  0.1382803E-05  0.2935046E+04  0.7818609E-02  0.8262526E-01
       -2   -1    0    0    0  501  0.00000000000E+00  0.00000000000E+00  0.96777441497E+03  0.96777441497E+03  0.25500000920E-02 0.  1.
        2   -1    0    0  501    0  0.00000000000E+00  0.00000000000E+00 -0.22253363512E+04  0.22253363512E+04  0.25500000920E-02 0. -1.
    10030    2    1    2    0    0  0.00000000000E+00  0.00000000000E+00 -0.12575619362E+04  0.31931107661E+04  0.29350458840E+04 0.  0.
        2    1    3    3  502    0  0.46816540422E+01 -0.14668076673E+04 -0.57920051516E+03  0.15770288164E+04  0.25500000920E-02 0.  1.
       -2    1    3    3    0  502 -0.46816540422E+01  0.14668076673E+04 -0.67836142102E+03  0.16160819498E+04  0.25500000920E-02 0. -1.
</event>
<event>
 5   0  0.1385669E-05  0.2919273E+04  0.7818609E-02  0.8267166E-01
        2   -1    0    0  501    0  0.00000000000E+00  0.00000000000E+00  0.17393765474E+04  0.17393765474E+04  0.25500000920E-02 0.  1.
       -2   -1    0    0    0  501  0.00000000000E+00  0.00000000000E+00 -0.12248860629E+04  0.12248860629E+04  0.25500000920E-02 0. -1.
    10030    2    1    2    0    0  0.00000000000E+00  0.00000000000E+00  0.51449048454E+03  0.29642626103E+04  0.29192725745E+04 0.  0.
        3    1    3    3  502    0  0.89359175759E+03  0.10975187663E+04  0.61979746045E+03  0.15450574662E+04  0.10100000352E+00 0.  1.
       -3    1    3    3    0  502 -0.89359175759E+03 -0.10975187663E+04 -0.10530697591E+03  0.14192051441E+04  0.10100000352E+00 0. -1.
</event>
<event>
 5   0  0.1382803E-05  0.2731072E+04  0.7818609E-02  0.8324993E-01
       -2   -1    0    0    0  501  0.00000000000E+00  0.00000000000E+00  0.85678369910E+03  0.85678369910E+03  0.25500000920E-02 0. -1.
        2   -1    0    0  501    0  0.00000000000E+00  0.00000000000E+00 -0.21763814413E+04  0.21763814413E+04  0.25500000920E-02 0.  1.
    10030    2    1    2    0    0  0.00000000000E+00  0.00000000000E+00 -0.13195977422E+04  0.30331651404E+04  0.27310716885E+04 0.  0.
        2    1    3    3  502    0  0.88833639240E+03 -0.38788035990E+03 -0.17280078443E+04  0.19813136626E+04  0.25500000920E-02 0.  1.
       -2    1    3    3    0  502 -0.88833639240E+03  0.38788035990E+03  0.40841010217E+03  0.10518514777E+04  0.25500000920E-02 0. -1.
</event>
<event>
 5   0  0.1385669E-05  0.2891831E+04  0.7818609E-02  0.8275312E-01
       -2   -1    0    0    0  501  0.00000000000E+00  0.00000000000E+00  0.18780077839E+04  0.18780077839E+04  0.25500000920E-02 0.  1.
        2   -1    0    0  501    0  0.00000000000E+00  0.00000000000E+00 -0.11132390069E+04  0.11132390069E+04  0.25500000920E-02 0. -1.
    10030    2    1    2    0    0  0.00000000000E+00  0.00000000000E+00  0.76476877703E+03  0.29912467908E+04  0.28918309219E+04 0.  0.
        3    1    3    3  502    0 -0.13625841464E+04 -0.45134528757E+03  0.20226179490E+03  0.14495716500E+04  0.10100000352E+00 0. -1.
       -3    1    3    3    0  502  0.13625841464E+04  0.45134528757E+03  0.56250698213E+03  0.15416751408E+04  0.10100000352E+00 0.  1.
</event>
<event>
 5   0  0.1339837E-05  0.2953952E+04  0.7818609E-02  0.8257004E-01
       -2   -1    0    0    0  501  0.00000000000E+00  0.00000000000E+00  0.12748174409E+04  0.12748174409E+04  0.25500000920E-02 0. -1.
        2   -1    0    0  501    0  0.00000000000E+00  0.00000000000E+00 -0.17111925988E+04  0.17111925988E+04  0.25500000920E-02 0.  1.
    10030    2    1    2    0    0  0.00000000000E+00  0.00000000000E+00 -0.43637515789E+03  0.29860100396E+04  0.29539520440E+04 0.  0.
        5    1    3    3  502    0 -0.57776460947E+03  0.86839234896E+03 -0.12752508007E+04  0.16474841154E+04  0.46999998093E+01 0.  1.
       -5    1    3    3    0  502  0.57776460947E+03 -0.86839234896E+03  0.83887564284E+03  0.13385259242E+04  0.46999998093E+01 0. -1.
</event>
<event>
 5   0  0.1307832E-05  0.2956591E+04  0.7818609E-02  0.8256236E-01
       -2   -1    0    0    0  501  0.00000000000E+00  0.00000000000E+00  0.11025000233E+04  0.11025000233E+04  0.25500000920E-02 0.  1.
        2   -1    0    0  501    0  0.00000000000E+00  0.00000000000E+00 -0.19821830956E+04  0.19821830956E+04  0.25500000920E-02 0. -1.
    10030    2    1    2    0    0  0.00000000000E+00  0.00000000000E+00 -0.87968307234E+03  0.30846831189E+04  0.29565905426E+04 0.  0.
        4    1    3    3  502    0 -0.96056499178E+03  0.91019179789E+03 -0.11273448992E+04  0.17384022397E+04  0.12699999809E+01 0. -1.
       -4    1    3    3    0  502  0.96056499178E+03 -0.91019179789E+03  0.24766182687E+03  0.13462808792E+04  0.12699999809E+01 0.  1.
</event>
<event>
 5   0  0.1307832E-05  0.2865488E+04  0.7818609E-02  0.8283221E-01
       -2   -1    0    0    0  501  0.00000000000E+00  0.00000000000E+00  0.17379864250E+04  0.17379864250E+04  0.25500000920E-02 0. -1.
        2   -1    0    0  501    0  0.00000000000E+00  0.00000000000E+00 -0.11811109502E+04  0.11811109502E+04  0.25500000920E-02 0.  1.
    10030    2    1    2    0    0  0.00000000000E+00  0.00000000000E+00  0.55687547484E+03  0.29190973752E+04  0.28654876009E+04 0.  0.
        4    1    3    3  502    0 -0.11857194809E+04 -0.58738239952E+02  0.10955490701E+04  0.16154288118E+04  0.12699999809E+01 0.  1.
       -4    1    3    3    0  502  0.11857194809E+04  0.58738239952E+02 -0.53867359521E+03  0.13036685634E+04  0.12699999809E+01 0. -1.
</event>
<event>
 5   0  0.5059249E-06  0.2233185E+04  0.7818609E-02  0.8504741E-01
        1   -1    0    0  501    0  0.00000000000E+00  0.00000000000E+00  0.11869637778E+04  0.11869637778E+04  0.50400001928E-02 0. -1.
       -1   -1    0    0    0  501  0.00000000000E+00  0.00000000000E+00 -0.10503932390E+04  0.10503932390E+04  0.50400001928E-02 0.  1.
    10030    2    1    2    0    0  0.00000000000E+00  0.00000000000E+00  0.13657053877E+03  0.22373570169E+04  0.22331849249E+04 0.  0.
        1    1    3    3  502    0 -0.63454065526E+03 -0.91761114858E+03  0.22083347381E+02  0.11158582963E+04  0.50400001928E-02 0. -1.
       -1    1    3    3    0  502  0.63454065526E+03  0.91761114858E+03  0.11448719139E+03  0.11214987205E+04  0.50400001928E-02 0.  1.
</event>
<event>
 5   0  0.1382803E-05  0.2946438E+04  0.7818609E-02  0.8259193E-01
        2   -1    0    0  501    0  0.00000000000E+00  0.00000000000E+00  0.18214136805E+04  0.18214136805E+04  0.25500000920E-02 0. -1.
       -2   -1    0    0    0  501  0.00000000000E+00  0.00000000000E+00 -0.11915875974E+04  0.11915875974E+04  0.25500000920E-02 0.  1.
    10030    2    1    2    0    0  0.00000000000E+00  0.00000000000E+00  0.62982608310E+03  0.30130012779E+04  0.29464378164E+04 0.  0.
        2    1    3    3  502    0 -0.12624007176E+04 -0.30001899698E+03  0.10283175077E+04  0.16556279373E+04  0.25500000920E-02 0. -1.
       -2    1    3    3    0  502  0.12624007176E+04  0.30001899698E+03 -0.39849142458E+03  0.13573733406E+04  0.25500000920E-02 0.  1.
</event>
<event>
 5   0  0.5261878E-06  0.2852027E+04  0.7818609E-02  0.8287296E-01
       -1   -1    0    0    0  501  0.00000000000E+00  0.00000000000E+00  0.18357819116E+04  0.18357819116E+04  0.50400001928E-02 0. -1.
        1   -1    0    0  501    0  0.00000000000E+00  0.00000000000E+00 -0.11077105282E+04  0.11077105282E+04  0.50400001928E-02 0.  1.
    10030    2    1    2    0    0  0.00000000000E+00  0.00000000000E+00  0.72807138343E+03  0.29434924398E+04  0.28520273147E+04 0.  0.
        5    1    3    3  502    0 -0.74903940535E+03 -0.10039356355E+04 -0.33939876750E+03  0.12977520581E+04  0.46999998093E+01 0.  1.
       -5    1    3    3    0  502  0.74903940535E+03  0.10039356355E+04  0.10674701509E+04  0.16457403817E+04  0.46999998093E+01 0. -1.
</event>
<event>
 5   0  0.5002240E-06  0.2832537E+04  0.7818609E-02  0.8293238E-01
       -1   -1    0    0    0  501  0.00000000000E+00  0.00000000000E+00  0.13782718460E+04  0.13782718460E+04  0.50400001928E-02 0. -1.
        1   -1    0    0  501    0  0.00000000000E+00  0.00000000000E+00 -0.14553127064E+04  0.14553127065E+04  0.50400001928E-02 0.  1.
    10030    2    1    2    0    0  0.00000000000E+00  0.00000000000E+00 -0.77040860449E+02  0.28335845525E+04  0.28325370469E+04 0.  0.
        4    1    3    3  502    0  0.23705445566E+03  0.10887151274E+04 -0.91309740636E+03  0.14405706959E+04  0.12699999809E+01 0.  1.
       -4    1    3    3    0  502 -0.23705445566E+03 -0.10887151274E+04  0.83605654591E+03  0.13930138565E+04  0.12699999809E+01 0. -1.
</event>
<event>
 5   0  0.5261878E-06  0.2791068E+04  0.7818609E-02  0.8306047E-01
        1   -1    0    0  501    0  0.00000000000E+00  0.00000000000E+00  0.19420944994E+04  0.19420944994E+04  0.50400001928E-02 0. -1.
       -1   -1    0    0    0  501  0.00000000000E+00  0.00000000000E+00 -0.10027908222E+04  0.10027908222E+04  0.50400001928E-02 0.  1.
    10030    2    1    2    0    0  0.00000000000E+00  0.00000000000E+00  0.93930367719E+03  0.29448853216E+04  0.27910675662E+04 0.  0.
        5    1    3    3  502    0 -0.81419530027E+03 -0.12310910281E+03 -0.71912723721E+03  0.10932684535E+04  0.46999998093E+01 0.  1.
       -5    1    3    3    0  502  0.81419530027E+03  0.12310910281E+03  0.16584309144E+04  0.18516168680E+04  0.46999998093E+01 0. -1.
</event>
<event>
 5   0  0.1336899E-05  0.2966438E+04  0.7818609E-02  0.8253380E-01
       -2   -1    0    0    0  501  0.00000000000E+00  0.00000000000E+00  0.13147824604E+04  0.13147824604E+04  0.25500000920E-02 0.  1.
        2   -1    0    0  501    0  0.00000000000E+00  0.00000000000E+00 -0.16732344638E+04  0.16732344638E+04  0.25500000920E-02 0. -1.
    10030    2    1    2    0    0  0.00000000000E+00  0.00000000000E+00 -0.35845200337E+03  0.29880169242E+04  0.29664384876E+04 0.  0.
        1    1    3    3  502    0  0.25195534240E+03 -0.13774372499E+04  0.31333463353E+03  0.14349193234E+04  0.50400001928E-02 0.  1.
       -1    1    3    3    0  502 -0.25195534240E+03  0.13774372499E+04 -0.67178663691E+03  0.15530976008E+04  0.50400001928E-02 0. -1.
</event>
<event>
 5   0  0.1385669E-05  0.2919836E+04  0.7818609E-02  0.8267000E-01
       -2   -1    0    0    0  501  0.00000000000E+00  0.00000000000E+00  0.89343638295E+03  0.89343638295E+03  0.25500000920E-02 0. -1.
        2   -1    0    0  501    0  0.00000000000E+00  0.00000000000E+00 -0.23855764617E+04  0.23855764617E+04  0.25500000920E-02 0.  1.
    10030    2    1    2    0    0  0.00000000000E+00  0.00000000000E+00 -0.14921400788E+04  0.32790128447E+04  0.29198361634E+04 0.  0.
        3    1    3    3  502    0 -0.60672149585E+03 -0.12856299355E+04 -0.37292302539E+03  0.14697029964E+04  0.10100000352E+00 0. -1.
       -3    1    3    3    0  502  0.60672149585E+03  0.12856299355E+04 -0.11192170534E+04  0.18093098483E+04  0.10100000352E+00 0.  1.
</event>
<event>
 5   0  0.1339837E-05  0.2504268E+04  0.7818609E-02  0.8401467E-01
        2   -1    0    0  501    0  0.00000000000E+00  0.00000000000E+00  0.86897323307E+03  0.86897323308E+03  0.25500000920E-02 0. -1.
       -2   -1    0    0    0  501  0.00000000000E+00  0.00000000000E+00 -0.18042441457E+04  0.18042441457E+04  0.25500000920E-02 0.  1.
    10030    2    1    2    0    0  0.00000000000E+00  0.00000000000E+00 -0.93527091266E+03  0.26732173788E+04  0.25042682513E+04 0.  0.
        5    1    3    3  502    0  0.93171623729E+03  0.55551402153E+03 -0.11352291379E+04  0.15701777799E+04  0.46999998093E+01 0.  1.
       -5    1    3    3    0  502 -0.93171623729E+03 -0.55551402153E+03  0.19995822524E+03  0.11030395989E+04  0.46999998093E+01 0. -1.
</event>
<event>
 5   0  0.5261878E-06  0.2090839E+04  0.7818609E-02  0.8565290E-01
       -1   -1    0    0    0  501  0.00000000000E+00  0.00000000000E+00  0.10124647565E+04  0.10124647565E+04  0.50400001928E-02 0.  1.
        1   -1    0    0  501    0  0.00000000000E+00  0.00000000000E+00 -0.10794465672E+04  0.10794465672E+04  0.50400001928E-02 0. -1.
    10030    2    1    2    0    0  0.00000000000E+00  0.00000000000E+00 -0.66981810781E+02  0.20919113237E+04  0.20908386890E+04 0.  0.
        5    1    3    3  502    0  0.10348202153E+04 -0.98385446248E+02 -0.14466470405E+03  0.10495153837E+04  0.46999998093E+01 0. -1.
       -5    1    3    3    0  502 -0.10348202153E+04  0.98385446248E+02  0.77682893267E+02  0.10423959401E+04  0.46999998093E+01 0.  1.
</event>
<event>
 5   0  0.1385669E-05  0.2895488E+04  0.7818609E-02  0.8274221E-01
       -2   -1    0    0    0  501  0.00000000000E+00  0.00000000000E+00  0.14531912642E+04  0.14531912642E+04  0.25500000920E-02 0.  1.
        2   -1    0    0  501    0  0.00000000000E+00  0.00000000000E+00 -0.14423172188E+04  0.14423172188E+04  0.25500000920E-02 0. -1.
    10030    2    1    2    0    0  0.00000000000E+00  0.00000000000E+00  0.10874045378E+02  0.28955084830E+04  0.28954880643E+04 0.  0.
        3    1    3    3  502    0 -0.95601497825E+03 -0.12825468615E+03 -0.10741764767E+04  0.14436997667E+04  0.10100000352E+00 0. -1.
       -3    1    3    3    0  502  0.95601497825E+03  0.12825468615E+03  0.10850505220E+04  0.14518087163E+04  0.10100000352E+00 0.  1.
</event>
<event>
 5   0  0.1307832E-05  0.2849137E+04  0.7818609E-02  0.8288174E-01
        2   -1    0    0  501    0  0.00000000000E+00  0.00000000000E+00  0.19898830480E+04  0.19898830480E+04  0.25500000920E-02 0. -1.
       -2   -1    0    0    0  501  0.00000000000E+00  0.00000000000E+00 -0.10198567650E+04  0.10198567650E+04  0.25500000920E-02 0.  1.
    10030    2    1    2    0    0  0.00000000000E+00  0.00000000000E+00  0.97002628307E+03  0.30097398130E+04  0.28491371943E+04 0.  0.
        4    1    3    3  502    0 -0.34955456346E+03 -0.18114441171E+03 -0.96124509871E+03  0.10387470546E+04  0.12699999809E+01 0.  1.
       -4    1    3    3    0  502  0.34955456346E+03  0.18114441171E+03  0.19312713818E+04  0.19709927584E+04  0.12699999809E+01 0. -1.
</event>
<event>
 5   0  0.1339837E-05  0.2734061E+04  0.7818609E-02  0.8324037E-01
        2   -1    0    0  501    0  0.00000000000E+00  0.00000000000E+00  0.15232102463E+04  0.15232102463E+04  0.25500000920E-02 0. -1.
       -2   -1    0    0    0  501  0.00000000000E+00  0.00000000000E+00 -0.12268643657E+04  0.12268643657E+04  0.25500000920E-02 0.  1.
    10030    2    1    2    0    0  0.00000000000E+00  0.00000000000E+00  0.29634588058E+03  0.27500746120E+04  0.27340609888E+04 0.  0.
        5    1    3    3  502    0 -0.10306780520E+04 -0.89376638948E+03  0.23606134948E+03  0.13845080919E+04  0.46999998093E+01 0.  1.
       -5    1    3    3    0  502  0.10306780520E+04  0.89376638948E+03  0.60284531099E+02  0.13655665200E+04  0.46999998093E+01 0. -1.
</event>
<event>
 5   0  0.5261878E-06  0.2894947E+04  0.7818609E-02  0.8274382E-01
       -1   -1    0    0    0  501  0.00000000000E+00  0.00000000000E+00  0.12218560098E+04  0.12218560098E+04  0.50400001928E-02 0. -1.
        1   -1    0    0  501    0  0.00000000000E+00  0.00000000000E+00 -0.17147519523E+04  0.17147519523E+04  0.50400001928E-02 0.  1.
    10030    2    1    2    0    0  0.00000000000E+00  0.00000000000E+00 -0.49289594258E+03  0.29366079621E+04  0.28949473075E+04 0.  0.
        5    1    3    3  502    0  0.14937756147E+03 -0.75887228598E+03  0.99466119707E+03  0.12599895989E+04  0.46999998093E+01 0. -1.
       -5    1    3    3    0  502 -0.14937756147E+03  0.75887228598E+03 -0.14875571396E+04  0.16766183633E+04  0.46999998093E+01 0.  1.
</event>
<event>
 5   0  0.1385669E-05  0.2908325E+04  0.7818609E-02  0.8270405E-01
        2   -1    0    0  501    0  0.00000000000E+00  0.00000000000E+00  0.19945269330E+04  0.19945269330E+04  0.25500000920E-02 0.  1.
       -2   -1    0    0    0  501  0.00000000000E+00  0.00000000000E+00 -0.10601953734E+04  0.10601953734E+04  0.25500000920E-02 0. -1.
    10030    2    1    2    0    0  0.00000000000E+00  0.00000000000E+00  0.93433155968E+03  0.30547223064E+04  0.29083247593E+04 0.  0.
        3    1    3    3  502    0  0.33776090447E+03 -0.10551602325E+04  0.14564602245E+04  0.18299513492E+04  0.10100000352E+00 0.  1.
       -3    1    3    3    0  502 -0.33776090447E+03  0.10551602325E+04 -0.52212866481E+03  0.12247709572E+04  0.10100000352E+00 0. -1.
</event>
<event>
 5   0  0.1336899E-05  0.2809867E+04  0.7818609E-02  0.8300212E-01
        2   -1    0    0  501    0  0.00000000000E+00  0.00000000000E+00  0.20126747262E+04  0.20126747262E+04  0.25500000920E-02 0. -1.
       -2   -1    0    0    0  501  0.00000000000E+00  0.00000000000E+00 -0.98070384784E+03  0.98070384784E+03  0.25500000920E-02 0.  1.
    10030    2    1    2    0    0  0.00000000000E+00  0.00000000000E+00  0.10319708783E+04  0.29933785740E+04  0.28098667929E+04 0.  0.
        1    1    3    3  502    0  0.78189522689E+03 -0.11475289508E+04  0.28836034770E+03  0.14182152618E+04  0.50400001928E-02 0. -1.
       -1    1    3    3    0  502 -0.78189522689E+03  0.11475289508E+04  0.74361053063E+03  0.15751633122E+04  0.50400001928E-02 0.  1.
</event>
<event>
 5   0  0.1307832E-05  0.2898065E+04  0.7818609E-02  0.8273453E-01
        2   -1    0    0  501    0  0.00000000000E+00  0.00000000000E+00  0.30414198555E+04  0.30414198555E+04  0.25500000920E-02 0. -1.
       -2   -1    0    0    0  501  0.00000000000E+00  0.00000000000E+00 -0.69036680544E+03  0.69036680545E+03  0.25500000920E-02 0.  1.
    10030    2    1    2    0    0  0.00000000000E+00  0.00000000000E+00  0.23510530500E+04  0.37317866609E+04  0.28980650853E+04 0.  0.
        4    1    3    3  502    0  0.94867788608E+03 -0.10122377449E+04  0.63672930540E+03  0.15264471183E+04  0.12699999809E+01 0.  1.
       -4    1    3    3    0  502 -0.94867788608E+03  0.10122377449E+04  0.17143237446E+04  0.22053395426E+04  0.12699999809E+01 0. -1.
</event>
<event>
 5   0  0.1336899E-05  0.1907279E+04  0.7818609E-02  0.8651241E-01
       -2   -1    0    0    0  501  0.00000000000E+00  0.00000000000E+00  0.25519104086E+04  0.25519104086E+04  0.25500000920E-02 0.  1.
        2   -1    0    0  501    0  0.00000000000E+00  0.00000000000E+00 -0.35637169329E+03  0.35637169330E+03  0.25500000920E-02 0. -1.
    10030    2    1    2    0    0  0.00000000000E+00  0.00000000000E+00  0.21955387153E+04  0.29082821019E+04  0.19072793539E+04 0.  0.
        1    1    3    3  502    0  0.84222905116E+02 -0.87718040533E+03  0.54190626676E+03  0.10345053713E+04  0.50400001928E-02 0. -1.
       -1    1    3    3    0  502 -0.84222905116E+02  0.87718040533E+03  0.16536324486E+04  0.18737767306E+04  0.50400001928E-02 0.  1.
</event>
<event>
 5   0  0.1385669E-05  0.3032742E+04  0.7818609E-02  0.8234442E-01
        2   -1    0    0  501    0  0.00000000000E+00  0.00000000000E+00  0.17027799237E+04  0.17027799237E+04  0.25500000920E-02 0.  1.
       -2   -1    0    0    0  501  0.00000000000E+00  0.00000000000E+00 -0.13503691043E+04  0.13503691043E+04  0.25500000920E-02 0. -1.
    10030    2    1    2    0    0  0.00000000000E+00  0.00000000000E+00  0.35241081949E+03  0.30531490280E+04  0.30327422577E+04 0.  0.
        3    1    3    3  502    0 -0.12009365518E+04  0.43681606891E+03 -0.64557426410E+03  0.14317203010E+04  0.10100000352E+00 0. -1.
       -3    1    3    3    0  502  0.12009365518E+04 -0.43681606891E+03  0.99798508359E+03  0.16214287270E+04  0.10100000352E+00 0.  1.
</event>
<event>
 5   0  0.1382803E-05  0.2896118E+04  0.7818609E-02  0.8274033E-01
       -2   -1    0    0    0  501  0.00000000000E+00  0.00000000000E+00  0.10606262390E+04  0.10606262390E+04  0.25500000920E-02 0. -1.
        2   -1    0    0  501    0  0.00000000000E+00  0.00000000000E+00 -0.19770158558E+04  0.19770158558E+04  0.25500000920E-02 0.  1.
    10030    2    1    2    0    0  0.00000000000E+00  0.00000000000E+00 -0.91638961678E+03  0.30376420948E+04  0.28961180167E+04 0.  0.
        2    1    3    3  502    0  0.33387378956E+03  0.66505023237E+03 -0.17611185061E+04  0.19118843876E+04  0.25500000920E-02 0.  1.
       -2    1    3    3    0  502 -0.33387378956E+03 -0.66505023237E+03  0.84472888932E+03  0.11257577072E+04  0.25500000920E-02 0. -1.
</event>
<event>
 5   0  0.1336899E-05  0.2932001E+04  0.7818609E-02  0.8263419E-01
        2   -1    0    0  501    0  0.00000000000E+00  0.00000000000E+00  0.19979603675E+04  0.19979603675E+04  0.25500000920E-02 0.  1.
       -2   -1    0    0    0  501  0.00000000000E+00  0.00000000000E+00 -0.10756758229E+04  0.10756758229E+04  0.25500000920E-02 0. -1.
    10030    2    1    2    0    0  0.00000000000E+00  0.00000000000E+00  0.92228454453E+03  0.30736361904E+04  0.29320011340E+04 0.  0.
        1    1    3    3  502    0  0.84871212240E+03  0.44798068940E+03  0.16229000035E+04  0.18854186236E+04  0.50400001928E-02 0.  1.
       -1    1    3    3    0  502 -0.84871212240E+03 -0.44798068940E+03 -0.70061545897E+03  0.11882175668E+04  0.50400001928E-02 0. -1.
</event>
<event>
 5   0  0.1382803E-05  0.2906858E+04  0.7818609E-02  0.8270840E-01
        2   -1    0    0  501    0  0.00000000000E+00  0.00000000000E+00  0.16435181407E+04  0.16435181407E+04  0.25500000920E-02 0. -1.
       -2   -1    0    0    0  501  0.00000000000E+00  0.00000000000E+00 -0.12853255805E+04  0.12853255805E+04  0.25500000920E-02 0.  1.
    10030    2    1    2    0    0  0.00000000000E+00  0.00000000000E+00  0.35819256027E+03  0.29288437212E+04  0.29068580345E+04 0.  0.
        2    1    3    3  502    0  0.34712012941E+03 -0.61613984610E+03 -0.11002851608E+04  0.13079557062E+04  0.25500000920E-02 0.  1.
       -2    1    3    3    0  502 -0.34712012941E+03  0.61613984610E+03  0.14584777211E+04  0.16208880150E+04  0.25500000920E-02 0. -1.
</event>
<event>
 5   0  0.5059249E-06  0.1960075E+04  0.7818609E-02  0.8625518E-01
        1   -1    0    0  501    0  0.00000000000E+00  0.00000000000E+00  0.10409387479E+04  0.10409387479E+04  0.50400001928E-02 0. -1.
       -1   -1    0    0    0  501  0.00000000000E+00  0.00000000000E+00 -0.92269895758E+03  0.92269895759E+03  0.50400001928E-02 0.  1.
    10030    2    1    2    0    0  0.00000000000E+00  0.00000000000E+00  0.11823979034E+03  0.19636377055E+04  0.19600745880E+04 0.  0.
        1    1    3    3  502    0  0.84214244955E+03  0.15493998119E+03 -0.41846758781E+03  0.95306108156E+03  0.50400001928E-02 0.  1.
       -1    1    3    3    0  502 -0.84214244955E+03 -0.15493998119E+03  0.53670737815E+03  0.10105766240E+04  0.50400001928E-02 0. -1.
</event>
<event>
 5   0  0.5352212E-06  0.2830384E+04  0.7818609E-02  0.8293897E-01
       -1   -1    0    0    0  501  0.00000000000E+00  0.00000000000E+00  0.10070787638E+04  0.10070787638E+04  0.50400001928E-02 0.  1.
        1   -1    0    0  501    0  0.00000000000E+00  0.00000000000E+00 -0.19886913173E+04  0.19886913173E+04  0.50400001928E-02 0. -1.
    10030    2    1    2    0    0  0.00000000000E+00  0.00000000000E+00 -0.98161255355E+03  0.29957700812E+04  0.28303842802E+04 0.  0.
        2    1    3    3  502    0  0.12939850136E+02  0.11736010229E+04 -0.13277458262E+04  0.17721218298E+04  0.25500000920E-02 0. -1.
       -2    1    3    3    0  502 -0.12939850136E+02 -0.11736010229E+04  0.34613327266E+03  0.12236482514E+04  0.25500000920E-02 0.  1.
</event>
<event>
 5   0  0.5002240E-06  0.2948743E+04  0.7818609E-02  0.8258521E-01
       -1   -1    0    0    0  501  0.00000000000E+00  0.00000000000E+00  0.97717511394E+03  0.97717511396E+03  0.50400001928E-02 0.  1.
        1   -1    0    0  501    0  0.00000000000E+00  0.00000000000E+00 -0.22245460137E+04  0.22245460137E+04  0.50400001928E-02 0. -1.
    10030    2    1    2    0    0  0.00000000000E+00  0.00000000000E+00 -0.12473708998E+04  0.32017211277E+04  0.29487427860E+04 0.  0.
        4    1    3    3  502    0 -0.14089305637E+03  0.65499008476E+03  0.80234695101E+03  0.10452870932E+04  0.12699999809E+01 0.  1.
       -4    1    3    3    0  502  0.14089305637E+03 -0.65499008476E+03 -0.20497178508E+04  0.21564340345E+04  0.12699999809E+01 0. -1.
</event>
<event>
 5   0  0.5261878E-06  0.2719604E+04  0.7818609E-02  0.8328672E-01
        1   -1    0    0  501    0  0.00000000000E+00  0.00000000000E+00  0.23299104397E+04  0.23299104397E+04  0.50400001928E-02 0. -1.
       -1   -1    0    0    0  501  0.00000000000E+00  0.00000000000E+00 -0.79361923622E+03  0.79361923624E+03  0.50400001928E-02 0.  1.
    10030    2    1    2    0    0  0.00000000000E+00  0.00000000000E+00  0.15362912035E+04  0.31235296760E+04  0.27196041945E+04 0.  0.
        5    1    3    3  502    0  0.12061713437E+04 -0.30239815613E+03  0.13620112174E+03  0.12509463581E+04  0.46999998093E+01 0.  1.
       -5    1    3    3    0  502 -0.12061713437E+04  0.30239815613E+03  0.14000900818E+04  0.18725833179E+04  0.46999998093E+01 0. -1.
</event>
<event>
 5   0  0.1385669E-05  0.2748435E+04  0.7818609E-02  0.8319458E-01
       -2   -1    0    0    0  501  0.00000000000E+00  0.00000000000E+00  0.16918994841E+04  0.16918994841E+04  0.25500000920E-02 0.  1.
        2   -1    0    0  501    0  0.00000000000E+00  0.00000000000E+00 -0.11161853664E+04  0.11161853664E+04  0.25500000920E-02 0. -1.
    10030    2    1    2    0    0  0.00000000000E+00  0.00000000000E+00  0.57571411768E+03  0.28080848505E+04  0.27484347877E+04 0.  0.
        3    1    3    3  502    0  0.14679143724E+03  0.96462882494E+03  0.12765454168E+04  0.16067435102E+04  0.10100000352E+00 0.  1.
       -3    1    3    3    0  502 -0.14679143724E+03 -0.96462882494E+03 -0.70083129917E+03  0.12013413404E+04  0.10100000352E+00 0. -1.
</event>
<event>
 5   0  0.4590125E-06  0.2903276E+04  0.7818609E-02  0.8271903E-01
        3   -1    0    0  501    0  0.00000000000E+00  0.00000000000E+00  0.16249425954E+04  0.16249425986E+04  0.10100000352E+00 0. -1.
       -3   -1    0    0    0  501  0.00000000000E+00  0.00000000000E+00 -0.12968170291E+04  0.12968170330E+04  0.10100000352E+00 0.  1.
    10030    2    1    2    0    0  0.00000000000E+00  0.00000000000E+00  0.32812556636E+03  0.29217596316E+04  0.29032762454E+04 0.  0.
        4    1    3    3  502    0  0.11092304294E+04  0.92658101952E+03  0.27897672805E+02  0.14455879165E+04  0.12699999809E+01 0.  1.
       -4    1    3    3    0  502 -0.11092304294E+04 -0.92658101952E+03  0.30022789356E+03  0.14761717150E+04  0.12699999809E+01 0. -1.
</event>
<event>
 5   0  0.1385669E-05  0.2953819E+04  0.7818609E-02  0.8257043E-01
       -2   -1    0    0    0  501  0.00000000000E+00  0.00000000000E+00  0.17068708416E+04  0.17068708416E+04  0.25500000920E-02 0. -1.
        2   -1    0    0  501    0  0.00000000000E+00  0.00000000000E+00 -0.12779297081E+04  0.12779297081E+04  0.25500000920E-02 0.  1.
    10030    2    1    2    0    0  0.00000000000E+00  0.00000000000E+00  0.42894113346E+03  0.29848005497E+04  0.29538185160E+04 0.  0.
        3    1    3    3  502    0 -0.29239525126E+03  0.97894633250E+03  0.12921605710E+04  0.16472734613E+04  0.10100000352E+00 0. -1.
       -3    1    3    3    0  502  0.29239525126E+03 -0.97894633250E+03 -0.86321943749E+03  0.13375270885E+04  0.10100000352E+00 0.  1.
</event>
<event>
 5   0  0.5154476E-06  0.2789398E+04  0.7818609E-02  0.8306568E-01
        1   -1    0    0  501    0  0.00000000000E+00  0.00000000000E+00  0.26963298522E+04  0.26963298522E+04  0.50400001928E-02 0.  1.
       -1   -1    0    0    0  501  0.00000000000E+00  0.00000000000E+00 -0.72141946903E+03  0.72141946905E+03  0.50400001928E-02 0. -1.
    10030    2    1    2    0    0  0.00000000000E+00  0.00000000000E+00  0.19749103832E+04  0.34177493213E+04  0.27893976772E+04 0.  0.
        3    1    3    3  502    0  0.12068072692E+04  0.42186998222E+03  0.16705625771E+04  0.21036010556E+04  0.10100000352E+00 0. -1.
       -3    1    3    3    0  502 -0.12068072692E+04 -0.42186998222E+03  0.30434780611E+03  0.13141482657E+04  0.10100000352E+00 0.  1.
</event>
<event>
 5   0  0.5002240E-06  0.2868780E+04  0.7818609E-02  0.8282227E-01
       -1   -1    0    0    0  501  0.00000000000E+00  0.00000000000E+00  0.15182222455E+04  0.15182222455E+04  0.50400001928E-02 0.  1.
        1   -1    0    0  501    0  0.00000000000E+00  0.00000000000E+00 -0.13551869747E+04  0.13551869747E+04  0.50400001928E-02 0. -1.
    10030    2    1    2    0    0  0.00000000000E+00  0.00000000000E+00  0.16303527078E+03  0.28734092201E+04  0.28687802368E+04 0.  0.
        4    1    3    3  502    0 -0.25330892821E+03  0.13126707214E+04 -0.43913220097E+03  0.14071632950E+04  0.12699999809E+01 0. -1.
       -4    1    3    3    0  502  0.25330892821E+03 -0.13126707214E+04  0.60216747175E+03  0.14662459251E+04  0.12699999809E+01 0.  1.
</event>
<event>
 5   0  0.5261878E-06  0.2646443E+04  0.7818609E-02  0.8352595E-01
        1   -1    0    0  501    0  0.00000000000E+00  0.00000000000E+00  0.18112653980E+04  0.18112653980E+04  0.50400001928E-02 0.  1.
       -1   -1    0    0    0  501  0.00000000000E+00  0.00000000000E+00 -0.96668033429E+03  0.96668033431E+03  0.50400001928E-02 0. -1.
    10030    2    1    2    0    0  0.00000000000E+00  0.00000000000E+00  0.84458506375E+03  0.27779457324E+04  0.26464426240E+04 0.  0.
        5    1    3    3  502    0  0.58623494070E+03 -0.10306333336E+04 -0.19427541095E+03  0.12015163334E+04  0.46999998093E+01 0. -1.
       -5    1    3    3    0  502 -0.58623494070E+03  0.10306333336E+04  0.10388604747E+04  0.15764293990E+04  0.46999998093E+01 0.  1.
</event>
<event>
 5   0  0.1307832E-05  0.2880682E+04  0.7818609E-02  0.8278649E-01
       -2   -1    0    0    0  501  0.00000000000E+00  0.00000000000E+00  0.18823354316E+04  0.18823354316E+04  0.25500000920E-02 0. -1.
        2   -1    0    0  501    0  0.00000000000E+00  0.00000000000E+00 -0.11021317365E+04  0.11021317365E+04  0.25500000920E-02 0.  1.
    10030    2    1    2    0    0  0.00000000000E+00  0.00000000000E+00  0.78020369517E+03  0.29844671681E+04  0.28806815984E+04 0.  0.
        4    1    3    3  502    0 -0.36238689397E+03  0.10823254666E+04 -0.52008723736E+03  0.12542906457E+04  0.12699999809E+01 0.  1.
       -4    1    3    3    0  502  0.36238689397E+03 -0.10823254666E+04  0.13002909325E+04  0.17301765224E+04  0.12699999809E+01 0. -1.
</event>
<event>
 5   0  0.1307832E-05  0.2874240E+04  0.7818609E-02  0.8280583E-01
        2   -1    0    0  501    0  0.00000000000E+00  0.00000000000E+00  0.16337107838E+04  0.16337107838E+04  0.25500000920E-02 0. -1.
       -2   -1    0    0    0  501  0.00000000000E+00  0.00000000000E+00 -0.12641856454E+04  0.12641856454E+04  0.25500000920E-02 0.  1.
    10030    2    1    2    0    0  0.00000000000E+00  0.00000000000E+00  0.36952513836E+03  0.28978964292E+04  0.28742398798E+04 0.  0.
        4    1    3    3  502    0 -0.13309459756E+04 -0.46807618430E+02  0.72930410947E+03  0.15183854057E+04  0.12699999809E+01 0. -1.
       -4    1    3    3    0  502  0.13309459756E+04  0.46807618430E+02 -0.35977897111E+03  0.13795110235E+04  0.12699999809E+01 0.  1.
</event>
<event>
 5   0  0.1385669E-05  0.2865651E+04  0.7818609E-02  0.8283171E-01
        2   -1    0    0  501    0  0.00000000000E+00  0.00000000000E+00  0.22214463626E+04  0.22214463626E+04  0.25500000920E-02 0. -1.
       -2   -1    0    0    0  501  0.00000000000E+00  0.00000000000E+00 -0.92416784752E+03  0.92416784752E+03  0.25500000920E-02 0.  1.
    10030    2    1    2    0    0  0.00000000000E+00  0.00000000000E+00  0.12972785151E+04  0.31456142102E+04  0.28656512721E+04 0.  0.
        3    1    3    3  502    0  0.13276002332E+04  0.44031615308E+03  0.98978900427E+03  0.17135002121E+04  0.10100000352E+00 0.  1.
       -3    1    3    3    0  502 -0.13276002332E+04 -0.44031615308E+03  0.30748951086E+03  0.14321139980E+04  0.10100000352E+00 0. -1.
</event>
<event>
 5   0  0.5059249E-06  0.2966417E+04  0.7818609E-02  0.8253386E-01
       -1   -1    0    0    0  501  0.00000000000E+00  0.00000000000E+00  0.10123413158E+04  0.10123413158E+04  0.50400001928E-02 0. -1.
        1   -1    0    0  501    0  0.00000000000E+00  0.00000000000E+00 -0.21730882443E+04  0.21730882443E+04  0.50400001928E-02 0.  1.
    10030    2    1    2    0    0  0.00000000000E+00  0.00000000000E+00 -0.11607469286E+04  0.31854295601E+04  0.29664167020E+04 0.  0.
        1    1    3    3  502    0  0.77027302422E+03 -0.94404371513E+03 -0.14886133831E+04  0.19236706767E+04  0.50400001928E-02 0.  1.
       -1    1    3    3    0  502 -0.77027302422E+03  0.94404371513E+03  0.32786645453E+03  0.12617588834E+04  0.50400001928E-02 0. -1.
</event>
<event>
 5   0  0.1307832E-05  0.2920436E+04  0.7818609E-02  0.8266823E-01
       -2   -1    0    0    0  501  0.00000000000E+00  0.00000000000E+00  0.91088649053E+03  0.91088649054E+03  0.25500000920E-02 0. -1.
        2   -1    0    0  501    0  0.00000000000E+00  0.00000000000E+00 -0.23408367884E+04  0.23408367884E+04  0.25500000920E-02 0.  1.
    10030    2    1    2    0    0  0.00000000000E+00  0.00000000000E+00 -0.14299502979E+04  0.32517232790E+04  0.29204359997E+04 0.  0.
        4    1    3    3  502    0  0.65805343692E+03 -0.42253024049E+03  0.65806492782E+03  0.10220651604E+04  0.12699999809E+01 0. -1.
       -4    1    3    3    0  502 -0.65805343692E+03  0.42253024049E+03 -0.20880152257E+04  0.22296581186E+04  0.12699999809E+01 0.  1.
</event>
<event>
 5   0  0.5002240E-06  0.2061165E+04  0.7818609E-02  0.8578546E-01
       -1   -1    0    0    0  501  0.00000000000E+00  0.00000000000E+00  0.62171371846E+03  0.62171371848E+03  0.50400001928E-02 0.  1.
        1   -1    0    0  501    0  0.00000000000E+00  0.00000000000E+00 -0.17083433409E+04  0.17083433409E+04  0.50400001928E-02 0. -1.
    10030    2    1    2    0    0  0.00000000000E+00  0.00000000000E+00 -0.10866296224E+04  0.23300570594E+04  0.20611651956E+04 0.  0.
        4    1    3    3  502    0  0.78898233454E+03 -0.93453763022E+02  0.19872629938E+03  0.81897526520E+03  0.12699999809E+01 0.  1.
       -4    1    3    3    0  502 -0.78898233454E+03  0.93453763022E+02 -0.12853559218E+04  0.15110817942E+04  0.12699999809E+01 0. -1.
</event>
<event>
 5   0  0.1336899E-05  0.2829205E+04  0.7818609E-02  0.8294258E-01
       -2   -1    0    0    0  501  0.00000000000E+00  0.00000000000E+00  0.10839393235E+04  0.10839393235E+04  0.25500000920E-02 0. -1.
        2   -1    0    0  501    0  0.00000000000E+00  0.00000000000E+00 -0.18461362508E+04  0.18461362508E+04  0.25500000920E-02 0.  1.
    10030    2    1    2    0    0  0.00000000000E+00  0.00000000000E+00 -0.76219692730E+03  0.29300755743E+04  0.28292046082E+04 0.  0.
        1    1    3    3  502    0  0.29918741350E+03 -0.94436841197E+03 -0.14269315084E+04  0.17370890408E+04  0.50400001928E-02 0.  1.
       -1    1    3    3    0  502 -0.29918741350E+03  0.94436841197E+03  0.66473458106E+03  0.11929865335E+04  0.50400001928E-02 0. -1.
</event>
<event>
 5   0  0.1339837E-05  0.2753339E+04  0.7818609E-02  0.8317903E-01
        2   -1    0    0  501    0  0.00000000000E+00  0.00000000000E+00  0.19503271477E+04  0.19503271477E+04  0.25500000920E-02 0. -1.
       -2   -1    0    0    0  501  0.00000000000E+00  0.00000000000E+00 -0.97174390977E+03  0.97174390978E+03  0.25500000920E-02 0.  1.
    10030    2    1    2    0    0  0.00000000000E+00  0.00000000000E+00  0.97858323796E+03  0.29220710575E+04  0.27533387208E+04 0.  0.
        5    1    3    3  502    0 -0.11177782654E+04  0.55414347304E+03 -0.12834689304E+03  0.12541922717E+04  0.46999998093E+01 0. -1.
       -5    1    3    3    0  502  0.11177782654E+04 -0.55414347304E+03  0.11069301310E+04  0.16678787858E+04  0.46999998093E+01 0.  1.
</event>
<event>
 5   0  0.5002240E-06  0.2926412E+04  0.7818609E-02  0.8265062E-01
        1   -1    0    0  501    0  0.00000000000E+00  0.00000000000E+00  0.24592910735E+04  0.24592910735E+04  0.50400001928E-02 0.  1.
       -1   -1    0    0    0  501  0.00000000000E+00  0.00000000000E+00 -0.87056443886E+03  0.87056443888E+03  0.50400001928E-02 0. -1.
    10030    2    1    2    0    0  0.00000000000E+00  0.00000000000E+00  0.15887266346E+04  0.33298555124E+04  0.29264116959E+04 0.  0.
        4    1    3    3  502    0  0.97681034186E+03  0.86308268527E+03  0.15507637302E+04  0.20258183348E+04  0.12699999809E+01 0.  1.
       -4    1    3    3    0  502 -0.97681034186E+03 -0.86308268527E+03  0.37962904405E+02  0.13040371776E+04  0.12699999809E+01 0. -1.
</event>
<event>
 5   0  0.5059249E-06  0.2784669E+04  0.7818609E-02  0.8308044E-01
       -1   -1    0    0    0  501  0.00000000000E+00  0.00000000000E+00  0.12298119795E+04  0.12298119795E+04  0.50400001928E-02 0. -1.
        1   -1    0    0  501    0  0.00000000000E+00  0.00000000000E+00 -0.15763348899E+04  0.15763348900E+04  0.50400001928E-02 0.  1.
    10030    2    1    2    0    0  0.00000000000E+00  0.00000000000E+00 -0.34652291043E+03  0.28061468695E+04  0.27846691232E+04 0.  0.
        1    1    3    3  502    0  0.88787178594E+03 -0.94592108004E+03  0.33611973323E+03  0.13401714342E+04  0.50400001928E-02 0. -1.
       -1    1    3    3    0  502 -0.88787178594E+03  0.94592108004E+03 -0.68264264366E+03  0.14659754353E+04  0.50400001928E-02 0.  1.
</event>
<event>
 5   0  0.5002240E-06  0.2830382E+04  0.7818609E-02  0.8293898E-01
        1   -1    0    0  501    0  0.00000000000E+00  0.00000000000E+00  0.18612577631E+04  0.18612577631E+04  0.50400001928E-02 0.  1.
       -1   -1    0    0    0  501  0.00000000000E+00  0.00000000000E+00 -0.10760280967E+04  0.10760280967E+04  0.50400001928E-02 0. -1.
    10030    2    1    2    0    0  0.00000000000E+00  0.00000000000E+00  0.78522966634E+03  0.29372858598E+04  0.28303820578E+04 0.  0.
        4    1    3    3  502    0 -0.47756907559E+02 -0.63738504024E+03  0.17029300128E+04  0.18189317341E+04  0.12699999809E+01 0.  1.
       -4    1    3    3    0  502  0.47756907559E+02  0.63738504024E+03 -0.91770034648E+03  0.11183541257E+04  0.12699999809E+01 0. -1.
</event>
<event>
 5   0  0.1307832E-05  0.2829536E+04  0.7818609E-02  0.8294157E-01
        2   -1    0    0  501    0  0.00000000000E+00  0.00000000000E+00  0.72351541168E+03  0.72351541169E+03  0.25500000920E-02 0. -1.
       -2   -1    0    0    0  501  0.00000000000E+00  0.00000000000E+00 -0.27664485214E+04  0.27664485214E+04  0.25500000920E-02 0.  1.
    10030    2    1    2    0    0  0.00000000000E+00  0.00000000000E+00 -0.20429331098E+04  0.34899639331E+04  0.28295357505E+04 0.  0.
        4    1    3    3  502    0  0.73645133243E+03  0.10801024362E+03  0.46248937144E+03  0.87631319137E+03  0.12699999809E+01 0. -1.
       -4    1    3    3    0  502 -0.73645133243E+03 -0.10801024362E+03 -0.25054224812E+04  0.26136507418E+04  0.12699999809E+01 0.  1.
</event>
<event>
 5   0  0.5059249E-06  0.2539351E+04  0.7818609E-02  0.8389099E-01
       -1   -1    0    0    0  501  0.00000000000E+00  0.00000000000E+00  0.82635031817E+03  0.82635031818E+03  0.50400001928E-02 0. -1.
        1   -1    0    0  501    0  0.00000000000E+00  0.00000000000E+00 -0.19508381442E+04  0.19508381442E+04  0.50400001928E-02 0.  1.
    10030    2    1    2    0    0  0.00000000000E+00  0.00000000000E+00 -0.11244878261E+04  0.27771884624E+04  0.25393508786E+04 0.  0.
        1    1    3    3  502    0 -0.88160131461E+03 -0.73193795301E+03 -0.11603890566E+04  0.16307841082E+04  0.50400001928E-02 0.  1.
       -1    1    3    3    0  502  0.88160131461E+03  0.73193795301E+03  0.35901230507E+02  0.11464043542E+04  0.50400001928E-02 0. -1.
</event>
<event>
 5   0  0.1336899E-05  0.2937082E+04  0.7818609E-02  0.8261929E-01
       -2   -1    0    0    0  501  0.00000000000E+00  0.00000000000E+00  0.13569788644E+04  0.13569788644E+04  0.25500000920E-02 0. -1.
        2   -1    0    0  501    0  0.00000000000E+00  0.00000000000E+00 -0.15892750981E+04  0.15892750981E+04  0.25500000920E-02 0.  1.
    10030    2    1    2    0    0  0.00000000000E+00  0.00000000000E+00 -0.23229623367E+03  0.29462539625E+04  0.29370820334E+04 0.  0.
        1    1    3    3  502    0  0.24850416958E+03  0.11209419355E+04  0.80232438524E+03  0.14007103784E+04  0.50400001928E-02 0. -1.
       -1    1    3    3    0  502 -0.24850416958E+03 -0.11209419355E+04 -0.10346206189E+04  0.15455435840E+04  0.50400001928E-02 0.  1.
</event>
<event>
 5   0  0.4590125E-06  0.2624338E+04  0.7818609E-02  0.8359981E-01
       -3   -1    0    0    0  501  0.00000000000E+00  0.00000000000E+00  0.25633413052E+04  0.25633413072E+04  0.10100000352E+00 0.  1.
        3   -1    0    0  501    0  0.00000000000E+00  0.00000000000E+00 -0.67169628661E+03  0.67169629420E+03  0.10100000352E+00 0. -1.
    10030    2    1    2    0    0  0.00000000000E+00  0.00000000000E+00  0.18916450186E+04  0.32350376014E+04  0.26243375176E+04 0.  0.
        2    1    3    3  502    0 -0.61102160709E+02  0.19745810601E+02 -0.66975829652E+03  0.67282950801E+03  0.25500000920E-02 0. -1.
       -2    1    3    3    0  502  0.61102160709E+02 -0.19745810601E+02  0.25614033151E+04  0.25622080934E+04  0.25500000920E-02 0.  1.
</event>
<event>
 5   0  0.5261878E-06  0.2675452E+04  0.7818609E-02  0.8343014E-01
       -1   -1    0    0    0  501  0.00000000000E+00  0.00000000000E+00  0.96599170582E+03  0.96599170583E+03  0.50400001928E-02 0. -1.
        1   -1    0    0  501    0  0.00000000000E+00  0.00000000000E+00 -0.18525112283E+04  0.18525112283E+04  0.50400001928E-02 0.  1.
    10030    2    1    2    0    0  0.00000000000E+00  0.00000000000E+00 -0.88651952246E+03  0.28185029341E+04  0.26754517237E+04 0.  0.
        5    1    3    3  502    0  0.11461746114E+04 -0.61822178658E+03 -0.12100532127E+03  0.13078909722E+04  0.46999998093E+01 0. -1.
       -5    1    3    3    0  502 -0.11461746114E+04  0.61822178658E+03 -0.76551420120E+03  0.15106119619E+04  0.46999998093E+01 0.  1.
</event>
<event>
 5   0  0.1385669E-05  0.2801724E+04  0.7818609E-02  0.8302733E-01
       -2   -1    0    0    0  501  0.00000000000E+00  0.00000000000E+00  0.95740609030E+03  0.95740609030E+03  0.25500000920E-02 0.  1.
        2   -1    0    0  501    0  0.00000000000E+00  0.00000000000E+00 -0.20497192104E+04  0.20497192104E+04  0.25500000920E-02 0. -1.
    10030    2    1    2    0    0  0.00000000000E+00  0.00000000000E+00 -0.10923131201E+04  0.30071253007E+04  0.28017235092E+04 0.  0.
        3    1    3    3  502    0  0.81504529725E+03 -0.74325343323E+03  0.38068427584E+03  0.11668954669E+04  0.10100000352E+00 0.  1.
       -3    1    3    3    0  502 -0.81504529725E+03  0.74325343323E+03 -0.14729973960E+04  0.18402298338E+04  0.10100000352E+00 0. -1.
</event>
<event>
 5   0  0.5059249E-06  0.2310625E+04  0.7818609E-02  0.8473744E-01
        1   -1    0    0  501    0  0.00000000000E+00  0.00000000000E+00  0.85947503743E+03  0.85947503744E+03  0.50400001928E-02 0. -1.
       -1   -1    0    0    0  501  0.00000000000E+00  0.00000000000E+00 -0.15529793553E+04  0.15529793553E+04  0.50400001928E-02 0.  1.
    10030    2    1    2    0    0  0.00000000000E+00  0.00000000000E+00 -0.69350431784E+03  0.24124543927E+04  0.23106250146E+04 0.  0.
        1    1    3    3  502    0  0.78088836926E+03 -0.79969673216E+03 -0.65194489318E+03  0.12939604524E+04  0.50400001928E-02 0.  1.
       -1    1    3    3    0  502 -0.78088836926E+03  0.79969673216E+03 -0.41559424660E+02  0.11184939403E+04  0.50400001928E-02 0. -1.
</event>
<event>
 5   0  0.5261878E-06  0.2900388E+04  0.7818609E-02  0.8272762E-01
       -1   -1    0    0    0  501  0.00000000000E+00  0.00000000000E+00  0.17934593102E+04  0.17934593102E+04  0.50400001928E-02 0.  1.
        1   -1    0    0  501    0  0.00000000000E+00  0.00000000000E+00 -0.11726288489E+04  0.11726288489E+04  0.50400001928E-02 0. -1.
    10030    2    1    2    0    0  0.00000000000E+00  0.00000000000E+00  0.62083046128E+03  0.29660881591E+04  0.29003876475E+04 0.  0.
        5    1    3    3  502    0  0.11533605634E+03 -0.26769275378E+03  0.17631857089E+04  0.17871227575E+04  0.46999998093E+01 0.  1.
       -5    1    3    3    0  502 -0.11533605634E+03  0.26769275378E+03 -0.11423552476E+04  0.11789654016E+04  0.46999998093E+01 0. -1.
</event>
<event>
 5   0  0.4590125E-06  0.2883763E+04  0.7818609E-02  0.8277725E-01
        3   -1    0    0  501    0  0.00000000000E+00  0.00000000000E+00  0.15090710996E+04  0.15090711030E+04  0.10100000352E+00 0. -1.
       -3   -1    0    0    0  501  0.00000000000E+00  0.00000000000E+00 -0.13776835751E+04  0.13776835788E+04  0.10100000352E+00 0.  1.
    10030    2    1    2    0    0  0.00000000000E+00  0.00000000000E+00  0.13138752457E+03  0.28867546818E+04  0.28837631510E+04 0.  0.
        3    1    3    3  502    0  0.18870049675E+03 -0.19177750308E+03  0.14837210500E+04  0.15079173228E+04  0.10100000352E+00 0. -1.
       -3    1    3    3    0  502 -0.18870049675E+03  0.19177750308E+03 -0.13523335254E+04  0.13788373589E+04  0.10100000352E+00 0.  1.
</event>
<event>
 5   0  0.1339837E-05  0.2893627E+04  0.7818609E-02  0.8274776E-01
        2   -1    0    0  501    0  0.00000000000E+00  0.00000000000E+00  0.15281300518E+04  0.15281300518E+04  0.25500000920E-02 0.  1.
       -2   -1    0    0    0  501  0.00000000000E+00  0.00000000000E+00 -0.13698244632E+04  0.13698244632E+04  0.25500000920E-02 0. -1.
    10030    2    1    2    0    0  0.00000000000E+00  0.00000000000E+00  0.15830558859E+03  0.28979545150E+04  0.28936274314E+04 0.  0.
        5    1    3    3  502    0 -0.84778646785E+03  0.28938833453E+03 -0.10586624742E+04  0.13868222047E+04  0.46999998093E+01 0. -1.
       -5    1    3    3    0  502  0.84778646785E+03 -0.28938833453E+03  0.12169680628E+04  0.15111323103E+04  0.46999998093E+01 0.  1.
</event>
<event>
 5   0  0.5059249E-06  0.2684774E+04  0.7818609E-02  0.8339962E-01
       -1   -1    0    0    0  501  0.00000000000E+00  0.00000000000E+00  0.11465306527E+04  0.11465306527E+04  0.50400001928E-02 0.  1.
        1   -1    0    0  501    0  0.00000000000E+00  0.00000000000E+00 -0.15717011172E+04  0.15717011172E+04  0.50400001928E-02 0. -1.
    10030    2    1    2    0    0  0.00000000000E+00  0.00000000000E+00 -0.42517046458E+03  0.27182317699E+04  0.26847744842E+04 0.  0.
        1    1    3    3  502    0  0.47535037423E+03 -0.81058308106E+03  0.75800645941E+03  0.12073014131E+04  0.50400001928E-02 0.  1.
       -1    1    3    3    0  502 -0.47535037423E+03  0.81058308106E+03 -0.11831769240E+04  0.15109303568E+04  0.50400001928E-02 0. -1.
</event>
<event>
 5   0  0.5261878E-06  0.1953737E+04  0.7818609E-02  0.8628561E-01
       -1   -1    0    0    0  501  0.00000000000E+00  0.00000000000E+00  0.58552524430E+03  0.58552524432E+03  0.50400001928E-02 0.  1.
        1   -1    0    0  501    0  0.00000000000E+00  0.00000000000E+00 -0.16297704568E+04  0.16297704568E+04  0.50400001928E-02 0. -1.
    10030    2    1    2    0    0  0.00000000000E+00  0.00000000000E+00 -0.10442452125E+04  0.22152957011E+04  0.19537366710E+04 0.  0.
        5    1    3    3  502    0  0.81398594627E+03 -0.41461113161E+03 -0.12970614780E+03  0.92267073539E+03  0.46999998093E+01 0.  1.
       -5    1    3    3    0  502 -0.81398594627E+03  0.41461113161E+03 -0.91453906469E+03  0.12926249657E+04  0.46999998093E+01 0. -1.
</event>
<event>
 5   0  0.5154476E-06  0.2573964E+04  0.7818609E-02  0.8377099E-01
        1   -1    0    0  501    0  0.00000000000E+00  0.00000000000E+00  0.16677074443E+04  0.16677074443E+04  0.50400001928E-02 0.  1.
       -1   -1    0    0    0  501  0.00000000000E+00  0.00000000000E+00 -0.99317362851E+03  0.99317362852E+03  0.50400001928E-02 0. -1.
    10030    2    1    2    0    0  0.00000000000E+00  0.00000000000E+00  0.67453381576E+03  0.26608810728E+04  0.25739642995E+04 0.  0.
        3    1    3    3  502    0 -0.10579507325E+04 -0.67651330500E+03  0.62854925074E+03  0.14042806611E+04  0.10100000352E+00 0.  1.
       -3    1    3    3    0  502  0.10579507325E+04  0.67651330500E+03  0.45984565018E+02  0.12566004117E+04  0.10100000352E+00 0. -1.
</event>
<event>
 5   0  0.1307832E-05  0.3028221E+04  0.7818609E-02  0.8235718E-01
        2   -1    0    0  501    0  0.00000000000E+00  0.00000000000E+00  0.20948672066E+04  0.20948672066E+04  0.25500000920E-02 0.  1.
       -2   -1    0    0    0  501  0.00000000000E+00  0.00000000000E+00 -0.10943561793E+04  0.10943561793E+04  0.25500000920E-02 0. -1.
    10030    2    1    2    0    0  0.00000000000E+00  0.00000000000E+00  0.10005110273E+04  0.31892233860E+04  0.30282211759E+04 0.  0.
        4    1    3    3  502    0  0.13500041974E+04 -0.29465533975E+03  0.11521959528E+04  0.17991359673E+04  0.12699999809E+01 0. -1.
       -4    1    3    3    0  502 -0.13500041974E+04  0.29465533975E+03 -0.15168492553E+03  0.13900874187E+04  0.12699999809E+01 0.  1.
</event>
<event>
 5   0  0.5352212E-06  0.2722503E+04  0.7818609E-02  0.8327740E-01
        1   -1    0    0  501    0  0.00000000000E+00  0.00000000000E+00  0.13341979898E+04  0.13341979899E+04  0.50400001928E-02 0. -1.
       -1   -1    0    0    0  501  0.00000000000E+00  0.00000000000E+00 -0.13888533363E+04  0.13888533363E+04  0.50400001928E-02 0.  1.
    10030    2    1    2    0    0  0.00000000000E+00  0.00000000000E+00 -0.54655346472E+02  0.27230513262E+04  0.27225027673E+04 0.  0.
        2    1    3    3  502    0  0.71822168441E+03 -0.57479620305E+03 -0.10309102647E+04  0.13816689317E+04  0.25500000920E-02 0.  1.
       -2    1    3    3    0  502 -0.71822168441E+03  0.57479620305E+03  0.97625491818E+03  0.13413823945E+04  0.25500000920E-02 0. -1.
</event>
<event>
 5   0  0.5261878E-06  0.2883841E+04  0.7818609E-02  0.8277702E-01
       -1   -1    0    0    0  501  0.00000000000E+00  0.00000000000E+00  0.14515697823E+04  0.14515697823E+04  0.50400001928E-02 0. -1.
        1   -1    0    0  501    0  0.00000000000E+00  0.00000000000E+00 -0.14323351704E+04  0.14323351705E+04  0.50400001928E-02 0.  1.
    10030    2    1    2    0    0  0.00000000000E+00  0.00000000000E+00  0.19234611813E+02  0.28839049527E+04  0.28838408080E+04 0.  0.
        5    1    3    3  502    0  0.14613350587E+03 -0.43383469028E+03  0.13769607120E+04  0.14510721665E+04  0.46999998093E+01 0. -1.
       -5    1    3    3    0  502 -0.14613350587E+03  0.43383469028E+03 -0.13577261002E+04  0.14328327862E+04  0.46999998093E+01 0.  1.
</event>
<event>
 5   0  0.1336899E-05  0.2384419E+04  0.7818609E-02  0.8445360E-01
        2   -1    0    0  501    0  0.00000000000E+00  0.00000000000E+00  0.20324673956E+04  0.20324673956E+04  0.25500000920E-02 0.  1.
       -2   -1    0    0    0  501  0.00000000000E+00  0.00000000000E+00 -0.69932894145E+03  0.69932894145E+03  0.25500000920E-02 0. -1.
    10030    2    1    2    0    0  0.00000000000E+00  0.00000000000E+00  0.13331384542E+04  0.27317963371E+04  0.23844188158E+04 0.  0.
        1    1    3    3  502    0 -0.40373485211E+03  0.42050930807E+03  0.18580464341E+04  0.19473485719E+04  0.50400001928E-02 0.  1.
       -1    1    3    3    0  502  0.40373485211E+03 -0.42050930807E+03 -0.52490797991E+03  0.78444776524E+03  0.50400001928E-02 0. -1.
</event>
<event>
 5   0  0.1307832E-05  0.2845240E+04  0.7818609E-02  0.8289359E-01
        2   -1    0    0  501    0  0.00000000000E+00  0.00000000000E+00  0.23137425621E+04  0.23137425621E+04  0.25500000920E-02 0.  1.
       -2   -1    0    0    0  501  0.00000000000E+00  0.00000000000E+00 -0.87470726657E+03  0.87470726658E+03  0.25500000920E-02 0. -1.
    10030    2    1    2    0    0  0.00000000000E+00  0.00000000000E+00  0.14390352955E+04  0.31884498286E+04  0.28452398367E+04 0.  0.
        4    1    3    3  502    0 -0.80004433362E+03 -0.11239848957E+04  0.11084133703E+04  0.17697442736E+04  0.12699999809E+01 0.  1.
       -4    1    3    3    0  502  0.80004433362E+03  0.11239848957E+04  0.33062192519E+03  0.14187055550E+04  0.12699999809E+01 0. -1.
</event>
<event>
 5   0  0.1307832E-05  0.2900366E+04  0.7818609E-02  0.8272769E-01
        2   -1    0    0  501    0  0.00000000000E+00  0.00000000000E+00  0.96185427175E+03  0.96185427176E+03  0.25500000920E-02 0.  1.
       -2   -1    0    0    0  501  0.00000000000E+00  0.00000000000E+00 -0.21864338132E+04  0.21864338132E+04  0.25500000920E-02 0. -1.
    10030    2    1    2    0    0  0.00000000000E+00  0.00000000000E+00 -0.12245795415E+04  0.31482880850E+04  0.29003659791E+04 0.  0.
        4    1    3    3  502    0 -0.81695760895E+03 -0.16537330017E+03 -0.19004302968E+04  0.20751879407E+04  0.12699999809E+01 0. -1.
       -4    1    3    3    0  502  0.81695760895E+03  0.16537330017E+03  0.67585075536E+03  0.10731001443E+04  0.12699999809E+01 0.  1.
</event>
<event>
 5   0  0.1382803E-05  0.2900565E+04  0.7818609E-02  0.8272709E-01
       -2   -1    0    0    0  501  0.00000000000E+00  0.00000000000E+00  0.99842700536E+03  0.99842700537E+03  0.25500000920E-02 0.  1.
        2   -1    0    0  501    0  0.00000000000E+00  0.00000000000E+00 -0.21066335216E+04  0.21066335216E+04  0.25500000920E-02 0. -1.
    10030    2    1    2    0    0  0.00000000000E+00  0.00000000000E+00 -0.11082065162E+04  0.31050605270E+04  0.29005653231E+04 0.  0.
        2    1    3    3  502    0  0.67504618620E+03 -0.65473107263E+03 -0.17360069459E+04  0.19743556537E+04  0.25500000920E-02 0.  1.
       -2    1    3    3    0  502 -0.67504618620E+03  0.65473107263E+03  0.62780042967E+03  0.11307048733E+04  0.25500000920E-02 0. -1.
</event>
<event>
 5   0  0.1385669E-05  0.2775093E+04  0.7818609E-02  0.8311043E-01
       -2   -1    0    0    0  501  0.00000000000E+00  0.00000000000E+00  0.14625365678E+04  0.14625365678E+04  0.25500000920E-02 0. -1.
        2   -1    0    0  501    0  0.00000000000E+00  0.00000000000E+00 -0.13164012760E+04  0.13164012760E+04  0.25500000920E-02 0.  1.
    10030    2    1    2    0    0  0.00000000000E+00  0.00000000000E+00  0.14613529178E+03  0.27789378437E+04  0.27750927941E+04 0.  0.
        3    1    3    3  502    0 -0.11125839705E+04  0.76638391731E+03 -0.24375275689E+03  0.13728083686E+04  0.10100000352E+00 0.  1.
       -3    1    3    3    0  502  0.11125839705E+04 -0.76638391731E+03  0.38988804867E+03  0.14061294751E+04  0.10100000352E+00 0. -1.
</event>
<event>
 5   0  0.5154476E-06  0.2701211E+04  0.7818609E-02  0.8334612E-01
       -1   -1    0    0    0  501  0.00000000000E+00  0.00000000000E+00  0.15028188797E+04  0.15028188797E+04  0.50400001928E-02 0.  1.
        1   -1    0    0  501    0  0.00000000000E+00  0.00000000000E+00 -0.12138087599E+04  0.12138087600E+04  0.50400001928E-02 0. -1.
    10030    2    1    2    0    0  0.00000000000E+00  0.00000000000E+00  0.28901011979E+03  0.27166276397E+04  0.27012106329E+04 0.  0.
        3    1    3    3  502    0 -0.35336018963E+03  0.99252515106E+03 -0.70540110510E+03  0.12678960243E+04  0.10100000352E+00 0. -1.
       -3    1    3    3    0  502  0.35336018963E+03 -0.99252515106E+03  0.99441122489E+03  0.14487316154E+04  0.10100000352E+00 0.  1.
</event>
<event>
 5   0  0.5002240E-06  0.2857093E+04  0.7818609E-02  0.8285759E-01
       -1   -1    0    0    0  501  0.00000000000E+00  0.00000000000E+00  0.16817094757E+04  0.16817094757E+04  0.50400001928E-02 0. -1.
        1   -1    0    0  501    0  0.00000000000E+00  0.00000000000E+00 -0.12134946327E+04  0.12134946327E+04  0.50400001928E-02 0.  1.
    10030    2    1    2    0    0  0.00000000000E+00  0.00000000000E+00  0.46821484302E+03  0.28952041084E+04  0.28570932239E+04 0.  0.
        4    1    3    3  502    0  0.12410401808E+04  0.70002350881E+03  0.33809282709E+03  0.14644186614E+04  0.12699999809E+01 0. -1.
       -4    1    3    3    0  502 -0.12410401808E+04 -0.70002350881E+03  0.13012201593E+03  0.14307854470E+04  0.12699999809E+01 0.  1.
</event>
<event>
 5   0  0.1385669E-05  0.2446203E+04  0.7818609E-02  0.8422406E-01
       -2   -1    0    0    0  501  0.00000000000E+00  0.00000000000E+00  0.10113074728E+04  0.10113074728E+04  0.25500000920E-02 0. -1.
        2   -1    0    0  501    0  0.00000000000E+00  0.00000000000E+00 -0.14792503102E+04  0.14792503102E+04  0.25500000920E-02 0.  1.
    10030    2    1    2    0    0  0.00000000000E+00  0.00000000000E+00 -0.46794283736E+03  0.24905577830E+04  0.24462026841E+04 0.  0.
        3    1    3    3  502    0 -0.11248993778E+04 -0.45347445342E+03 -0.73186474520E+02  0.12150695290E+04  0.10100000352E+00 0. -1.
       -3    1    3    3    0  502  0.11248993778E+04  0.45347445342E+03 -0.39475636284E+03  0.12754882540E+04  0.10100000352E+00 0.  1.
</event>
<event>
 5   0  0.1382803E-05  0.2919267E+04  0.7818609E-02  0.8267168E-01
        2   -1    0    0  501    0  0.00000000000E+00  0.00000000000E+00  0.93153268272E+03  0.93153268273E+03  0.25500000920E-02 0.  1.
       -2   -1    0    0    0  501  0.00000000000E+00  0.00000000000E+00 -0.22871226140E+04  0.22871226140E+04  0.25500000920E-02 0. -1.
    10030    2    1    2    0    0  0.00000000000E+00  0.00000000000E+00 -0.13555899313E+04  0.32186552968E+04  0.29192666643E+04 0.  0.
        2    1    3    3  502    0  0.27407658645E+03  0.12546312652E+04 -0.14427113962E+04  0.19314848588E+04  0.25500000920E-02 0. -1.
       -2    1    3    3    0  502 -0.27407658645E+03 -0.12546312652E+04  0.87121464920E+02  0.12871704380E+04  0.25500000920E-02 0.  1.
</event>
<event>
 5   0  0.5059249E-06  0.2902759E+04  0.7818609E-02  0.8272057E-01
       -1   -1    0    0    0  501  0.00000000000E+00  0.00000000000E+00  0.15197815802E+04  0.15197815803E+04  0.50400001928E-02 0. -1.
        1   -1    0    0  501    0  0.00000000000E+00  0.00000000000E+00 -0.13860557395E+04  0.13860557395E+04  0.50400001928E-02 0.  1.
    10030    2    1    2    0    0  0.00000000000E+00  0.00000000000E+00  0.13372584072E+03  0.29058373198E+04  0.29027586756E+04 0.  0.
        1    1    3    3  502    0 -0.30608409348E+03  0.14174853954E+04  0.72206772569E+01  0.14501739401E+04  0.50400001928E-02 0.  1.
       -1    1    3    3    0  502  0.30608409348E+03 -0.14174853954E+04  0.12650516347E+03  0.14556633797E+04  0.50400001928E-02 0. -1.
</event>
<event>
 5   0  0.1336899E-05  0.3556679E+04  0.7818609E-02  0.8100488E-01
       -2   -1    0    0    0  501  0.00000000000E+00  0.00000000000E+00  0.23128581294E+04  0.23128581294E+04  0.25500000920E-02 0.  1.
        2   -1    0    0  501    0  0.00000000000E+00  0.00000000000E+00 -0.13673521890E+04  0.13673521890E+04  0.25500000920E-02 0. -1.
    10030    2    1    2    0    0  0.00000000000E+00  0.00000000000E+00  0.94550594035E+03  0.36802103184E+04  0.35566791399E+04 0.  0.
        1    1    3    3  502    0 -0.11728723317E+04 -0.63827111531E+03 -0.74254958771E+03  0.15278741484E+04  0.50400001928E-02 0. -1.
       -1    1    3    3    0  502  0.11728723317E+04  0.63827111531E+03  0.16880555281E+04  0.21523361700E+04  0.50400001928E-02 0.  1.
</event>
<event>
 5   0  0.5352212E-06  0.2723716E+04  0.7818609E-02  0.8327351E-01
       -1   -1    0    0    0  501  0.00000000000E+00  0.00000000000E+00  0.10573358414E+04  0.10573358414E+04  0.50400001928E-02 0. -1.
        1   -1    0    0  501    0  0.00000000000E+00  0.00000000000E+00 -0.17540858143E+04  0.17540858144E+04  0.50400001928E-02 0.  1.
    10030    2    1    2    0    0  0.00000000000E+00  0.00000000000E+00 -0.69674997298E+03  0.28114216557E+04  0.27237164319E+04 0.  0.
        2    1    3    3  502    0  0.43362810913E+03 -0.83590961924E+03 -0.13638628953E+04  0.16573775146E+04  0.25500000920E-02 0.  1.
       -2    1    3    3    0  502 -0.43362810913E+03  0.83590961924E+03  0.66711292236E+03  0.11540441412E+04  0.25500000920E-02 0. -1.
</event>
<event>
 5   0  0.1339837E-05  0.2303839E+04  0.7818609E-02  0.8476409E-01
       -2   -1    0    0    0  501  0.00000000000E+00  0.00000000000E+00  0.12529685609E+04  0.12529685609E+04  0.25500000920E-02 0.  1.
        2   -1    0    0  501    0  0.00000000000E+00  0.00000000000E+00 -0.10590198401E+04  0.10590198401E+04  0.25500000920E-02 0. -1.
    10030    2    1    2    0    0  0.00000000000E+00  0.00000000000E+00  0.19394872080E+03  0.23119884011E+04  0.23038390266E+04 0.  0.
        5    1    3    3  502    0  0.70934469970E+03  0.49795724743E+03 -0.66450161860E+03  0.10921152935E+04  0.46999998093E+01 0. -1.
       -5    1    3    3    0  502 -0.70934469970E+03 -0.49795724743E+03  0.85845033940E+03  0.12198731075E+04  0.46999998093E+01 0.  1.
</event>
<event>
 5   0  0.5352212E-06  0.2937520E+04  0.7818609E-02  0.8261801E-01
       -1   -1    0    0    0  501  0.00000000000E+00  0.00000000000E+00  0.12917967582E+04  0.12917967582E+04  0.50400001928E-02 0.  1.
        1   -1    0    0  501    0  0.00000000000E+00  0.00000000000E+00 -0.16699652553E+04  0.16699652553E+04  0.50400001928E-02 0. -1.
    10030    2    1    2    0    0  0.00000000000E+00  0.00000000000E+00 -0.37816849717E+03  0.29617620135E+04  0.29375198403E+04 0.  0.
        2    1    3    3  502    0  0.58267202862E+03 -0.54069252182E+03  0.10561793917E+04  0.13218812366E+04  0.25500000920E-02 0.  1.
       -2    1    3    3    0  502 -0.58267202862E+03  0.54069252182E+03 -0.14343478889E+04  0.16398807769E+04  0.25500000920E-02 0. -1.
</event>
<event>
 5   0  0.5059249E-06  0.1972589E+04  0.7818609E-02  0.8619545E-01
       -1   -1    0    0    0  501  0.00000000000E+00  0.00000000000E+00  0.53322132894E+03  0.53322132896E+03  0.50400001928E-02 0.  1.
        1   -1    0    0  501    0  0.00000000000E+00  0.00000000000E+00 -0.18243388897E+04  0.18243388897E+04  0.50400001928E-02 0. -1.
    10030    2    1    2    0    0  0.00000000000E+00  0.00000000000E+00 -0.12911175607E+04  0.23575602186E+04  0.19725885605E+04 0.  0.
        1    1    3    3  502    0  0.22754494309E+03  0.63666343749E+03  0.21267922544E+03  0.70876617211E+03  0.50400001928E-02 0.  1.
       -1    1    3    3    0  502 -0.22754494309E+03 -0.63666343749E+03 -0.15037967862E+04  0.16487940465E+04  0.50400001928E-02 0. -1.
</event>
<event>
 5   0  0.5261878E-06  0.2881491E+04  0.7818609E-02  0.8278406E-01
        1   -1    0    0  501    0  0.00000000000E+00  0.00000000000E+00  0.13407511426E+04  0.13407511426E+04  0.50400001928E-02 0.  1.
       -1   -1    0    0    0  501  0.00000000000E+00  0.00000000000E+00 -0.15481980570E+04  0.15481980570E+04  0.50400001928E-02 0. -1.
    10030    2    1    2    0    0  0.00000000000E+00  0.00000000000E+00 -0.20744691442E+03  0.28889491996E+04  0.28814914985E+04 0.  0.
        5    1    3    3  502    0  0.10792316950E+01 -0.54859374149E+03  0.12319294010E+04  0.13485653106E+04  0.46999998093E+01 0.  1.
       -5    1    3    3    0  502 -0.10792316950E+01  0.54859374149E+03 -0.14393763155E+04  0.15403838890E+04  0.46999998093E+01 0. -1.
</event>
<event>
 5   0  0.1336899E-05  0.2117201E+04  0.7818609E-02  0.8553704E-01
        2   -1    0    0  501    0  0.00000000000E+00  0.00000000000E+00  0.14484926219E+04  0.14484926219E+04  0.25500000920E-02 0. -1.
       -2   -1    0    0    0  501  0.00000000000E+00  0.00000000000E+00 -0.77365584257E+03  0.77365584257E+03  0.25500000920E-02 0.  1.
    10030    2    1    2    0    0  0.00000000000E+00  0.00000000000E+00  0.67483677935E+03  0.22221484645E+04  0.21172007745E+04 0.  0.
        1    1    3    3  502    0 -0.28003512710E+03 -0.25947558624E+03  0.13737250378E+04  0.14257867062E+04  0.50400001928E-02 0. -1.
       -1    1    3    3    0  502  0.28003512710E+03  0.25947558624E+03 -0.69888825841E+03  0.79636175827E+03  0.50400001928E-02 0.  1.
</event>
<event>
 5   0  0.5154476E-06  0.2893269E+04  0.7818609E-02  0.8274883E-01
       -1   -1    0    0    0  501  0.00000000000E+00  0.00000000000E+00  0.17400853712E+04  0.17400853712E+04  0.50400001928E-02 0.  1.
        1   -1    0    0  501    0  0.00000000000E+00  0.00000000000E+00 -0.12026714915E+04  0.12026714915E+04  0.50400001928E-02 0. -1.
    10030    2    1    2    0    0  0.00000000000E+00  0.00000000000E+00  0.53741387970E+03  0.29427568627E+04  0.28932687872E+04 0.  0.
        3    1    3    3  502    0  0.62891336855E+03  0.32907922627E+03  0.15507937165E+04  0.17055164390E+04  0.10100000352E+00 0.  1.
       -3    1    3    3    0  502 -0.62891336855E+03 -0.32907922627E+03 -0.10133798368E+04  0.12372404237E+04  0.10100000352E+00 0. -1.
</event>
<event>
 5   0  0.1382803E-05  0.2825038E+04  0.7818609E-02  0.8295537E-01
       -2   -1    0    0    0  501  0.00000000000E+00  0.00000000000E+00  0.96966597007E+03  0.96966597008E+03  0.25500000920E-02 0. -1.
        2   -1    0    0  501    0  0.00000000000E+00  0.00000000000E+00 -0.20576256010E+04  0.20576256010E+04  0.25500000920E-02 0.  1.
    10030    2    1    2    0    0  0.00000000000E+00  0.00000000000E+00 -0.10879596309E+04  0.30272915711E+04  0.28250377162E+04 0.  0.
        2    1    3    3  502    0  0.93068979091E+03  0.79524685571E+03 -0.12991364898E+04  0.17850368813E+04  0.25500000920E-02 0.  1.
       -2    1    3    3    0  502 -0.93068979091E+03 -0.79524685571E+03  0.21117685894E+03  0.12422546897E+04  0.25500000920E-02 0. -1.
</event>
<event>
 5   0  0.5002240E-06  0.2901374E+04  0.7818609E-02  0.8272469E-01
       -1   -1    0    0    0  501  0.00000000000E+00  0.00000000000E+00  0.19834548779E+04  0.19834548779E+04  0.50400001928E-02 0.  1.
        1   -1    0    0  501    0  0.00000000000E+00  0.00000000000E+00 -0.10610239928E+04  0.10610239928E+04  0.50400001928E-02 0. -1.
    10030    2    1    2    0    0  0.00000000000E+00  0.00000000000E+00  0.92243088513E+03  0.30444788707E+04  0.29013743048E+04 0.  0.
        4    1    3    3  502    0 -0.58449922653E+03  0.55952286365E+03 -0.80224374422E+03  0.11394304800E+04  0.12699999809E+01 0. -1.
       -4    1    3    3    0  502  0.58449922653E+03 -0.55952286365E+03  0.17246746294E+04  0.19050483907E+04  0.12699999809E+01 0.  1.
</event>
<event>
 5   0  0.5261878E-06  0.2848681E+04  0.7818609E-02  0.8288312E-01
       -1   -1    0    0    0  501  0.00000000000E+00  0.00000000000E+00  0.17025305559E+04  0.17025305559E+04  0.50400001928E-02 0.  1.
        1   -1    0    0  501    0  0.00000000000E+00  0.00000000000E+00 -0.11916064243E+04  0.11916064243E+04  0.50400001928E-02 0. -1.
    10030    2    1    2    0    0  0.00000000000E+00  0.00000000000E+00  0.51092413154E+03  0.28941369802E+04  0.28486813426E+04 0.  0.
        5    1    3    3  502    0  0.14070603914E+04 -0.13252044936E+03  0.75595704228E+02  0.14153153059E+04  0.46999998093E+01 0. -1.
       -5    1    3    3    0  502 -0.14070603914E+04  0.13252044936E+03  0.43532842731E+03  0.14788216743E+04  0.46999998093E+01 0.  1.
</event>
<event>
 5   0  0.1339837E-05  0.3165734E+04  0.7818609E-02  0.8197926E-01
       -2   -1    0    0    0  501  0.00000000000E+00  0.00000000000E+00  0.14382463793E+04  0.14382463793E+04  0.25500000920E-02 0.  1.
        2   -1    0    0  501    0  0.00000000000E+00  0.00000000000E+00 -0.17420301843E+04  0.17420301843E+04  0.25500000920E-02 0. -1.
    10030    2    1    2    0    0  0.00000000000E+00  0.00000000000E+00 -0.30378380508E+03  0.31802765636E+04  0.31657344204E+04 0.  0.
        5    1    3    3  502    0 -0.62252322269E+03 -0.10211339700E+04  0.88978824066E+03  0.14906357539E+04  0.46999998093E+01 0.  1.
       -5    1    3    3    0  502  0.62252322269E+03  0.10211339700E+04 -0.11935720457E+04  0.16896408097E+04  0.46999998093E+01 0. -1.
</event>
<event>
 5   0  0.5261878E-06  0.2912359E+04  0.7818609E-02  0.8269210E-01
       -1   -1    0    0    0  501  0.00000000000E+00  0.00000000000E+00  0.16423221020E+04  0.16423221020E+04  0.50400001928E-02 0.  1.
        1   -1    0    0  501    0  0.00000000000E+00  0.00000000000E+00 -0.12911347323E+04  0.12911347323E+04  0.50400001928E-02 0. -1.
    10030    2    1    2    0    0  0.00000000000E+00  0.00000000000E+00  0.35118736967E+03  0.29334568343E+04  0.29123592550E+04 0.  0.
        5    1    3    3  502    0 -0.13418301768E+04  0.40042433424E+03  0.57797372684E+03  0.15149005214E+04  0.46999998093E+01 0.  1.
       -5    1    3    3    0  502  0.13418301768E+04 -0.40042433424E+03 -0.22678635717E+03  0.14185563129E+04  0.46999998093E+01 0. -1.
</event>
<event>
 5   0  0.5352212E-06  0.2877767E+04  0.7818609E-02  0.8279523E-01
       -1   -1    0    0    0  501  0.00000000000E+00  0.00000000000E+00  0.91074091432E+03  0.91074091433E+03  0.50400001928E-02 0.  1.
        1   -1    0    0  501    0  0.00000000000E+00  0.00000000000E+00 -0.22732975848E+04  0.22732975848E+04  0.50400001928E-02 0. -1.
    10030    2    1    2    0    0  0.00000000000E+00  0.00000000000E+00 -0.13625566705E+04  0.31840384991E+04  0.28777665791E+04 0.  0.
        2    1    3    3  502    0  0.62124632218E+03 -0.64040270082E+03 -0.19302782905E+04  0.21265081450E+04  0.25500000920E-02 0. -1.
       -2    1    3    3    0  502 -0.62124632218E+03  0.64040270082E+03  0.56772162001E+03  0.10575303541E+04  0.25500000920E-02 0.  1.
</event>
<event>
 5   0  0.1336899E-05  0.2902065E+04  0.7818609E-02  0.8272263E-01
        2   -1    0    0  501    0  0.00000000000E+00  0.00000000000E+00  0.13849277622E+04  0.13849277622E+04  0.25500000920E-02 0. -1.
       -2   -1    0    0    0  501  0.00000000000E+00  0.00000000000E+00 -0.15202928497E+04  0.15202928498E+04  0.25500000920E-02 0.  1.
    10030    2    1    2    0    0  0.00000000000E+00  0.00000000000E+00 -0.13536508757E+03  0.29052206119E+04  0.29020653158E+04 0.  0.
        1    1    3    3  502    0  0.99403828684E+03 -0.20215018562E+03  0.97099986344E+03  0.14042142102E+04  0.50400001928E-02 0. -1.
       -1    1    3    3    0  502 -0.99403828684E+03  0.20215018562E+03 -0.11063649510E+04  0.15010064018E+04  0.50400001928E-02 0.  1.
</event>
<event>
 5   0  0.5002240E-06  0.2487226E+04  0.7818609E-02  0.8407550E-01
       -1   -1    0    0    0  501  0.00000000000E+00  0.00000000000E+00  0.11185623592E+04  0.11185623592E+04  0.50400001928E-02 0.  1.
        1   -1    0    0  501    0  0.00000000000E+00  0.00000000000E+00 -0.13826438434E+04  0.13826438434E+04  0.50400001928E-02 0. -1.
    10030    2    1    2    0    0  0.00000000000E+00  0.00000000000E+00 -0.26408148413E+03  0.25012062026E+04  0.24872260528E+04 0.  0.
        4    1    3    3  502    0  0.72730202782E+03 -0.98184051532E+03 -0.36484295025E+03  0.12751827432E+04  0.12699999809E+01 0. -1.
       -4    1    3    3    0  502 -0.72730202782E+03  0.98184051532E+03  0.10076146612E+03  0.12260234595E+04  0.12699999809E+01 0.  1.
</event>
<event>
 5   0  0.1336899E-05  0.3043497E+04  0.7818609E-02  0.8231418E-01
       -2   -1    0    0    0  501  0.00000000000E+00  0.00000000000E+00  0.16570163319E+04  0.16570163319E+04  0.25500000920E-02 0. -1.
        2   -1    0    0  501    0  0.00000000000E+00  0.00000000000E+00 -0.13975228948E+04  0.13975228948E+04  0.25500000920E-02 0.  1.
    10030    2    1    2    0    0  0.00000000000E+00  0.00000000000E+00  0.25949343711E+03  0.30545392267E+04  0.30434968446E+04 0.  0.
        1    1    3    3  502    0  0.98557109394E+03  0.31750223810E+03 -0.98944956515E+03  0.14321901041E+04  0.50400001928E-02 0.  1.
       -1    1    3    3    0  502 -0.98557109394E+03 -0.31750223810E+03  0.12489430023E+04  0.16223491225E+04  0.50400001928E-02 0. -1.
</event>
<event>
 5   0  0.1336899E-05  0.2899855E+04  0.7818609E-02  0.8272921E-01
       -2   -1    0    0    0  501  0.00000000000E+00  0.00000000000E+00  0.85110524507E+03  0.85110524507E+03  0.25500000920E-02 0.  1.
        2   -1    0    0  501    0  0.00000000000E+00  0.00000000000E+00 -0.24700697046E+04  0.24700697046E+04  0.25500000920E-02 0. -1.
    10030    2    1    2    0    0  0.00000000000E+00  0.00000000000E+00 -0.16189644595E+04  0.33211749496E+04  0.28998546731E+04 0.  0.
        1    1    3    3  502    0 -0.44253167273E+03 -0.36066263726E+03  0.71696975197E+03  0.91649192279E+03  0.50400001928E-02 0.  1.
       -1    1    3    3    0  502  0.44253167273E+03  0.36066263726E+03 -0.23359342115E+04  0.24046830268E+04  0.50400001928E-02 0. -1.
</event>
<event>
 5   0  0.5002240E-06  0.2901418E+04  0.7818609E-02  0.8272456E-01
       -1   -1    0    0    0  501  0.00000000000E+00  0.00000000000E+00  0.14796120239E+04  0.14796120239E+04  0.50400001928E-02 0.  1.
        1   -1    0    0  501    0  0.00000000000E+00  0.00000000000E+00 -0.14223705063E+04  0.14223705063E+04  0.50400001928E-02 0. -1.
    10030    2    1    2    0    0  0.00000000000E+00  0.00000000000E+00  0.57241517615E+02  0.29019825302E+04  0.29014179317E+04 0.  0.
        4    1    3    3  502    0  0.92109490130E+03 -0.43020878734E+03  0.10637421801E+04  0.14714090038E+04  0.12699999809E+01 0.  1.
       -4    1    3    3    0  502 -0.92109490130E+03  0.43020878734E+03 -0.10065006625E+04  0.14305735264E+04  0.12699999809E+01 0. -1.
</event>
<event>
 5   0  0.5154476E-06  0.2964243E+04  0.7818609E-02  0.8254016E-01
        1   -1    0    0  501    0  0.00000000000E+00  0.00000000000E+00  0.24032056181E+04  0.24032056182E+04  0.50400001928E-02 0.  1.
       -1   -1    0    0    0  501  0.00000000000E+00  0.00000000000E+00 -0.91406413517E+03  0.91406413518E+03  0.50400001928E-02 0. -1.
    10030    2    1    2    0    0  0.00000000000E+00  0.00000000000E+00  0.14891414830E+04  0.33172697533E+04  0.29642429489E+04 0.  0.
        3    1    3    3  502    0  0.14129430519E+03  0.12683475815E+04  0.15879961133E+04  0.20372533799E+04  0.10100000352E+00 0.  1.
       -3    1    3    3    0  502 -0.14129430519E+03 -0.12683475815E+04 -0.98854630299E+02  0.12800163734E+04  0.10100000352E+00 0. -1.
</event>
<event>
 5   0  0.1307832E-05  0.2890489E+04  0.7818609E-02  0.8275713E-01
        2   -1    0    0  501    0  0.00000000000E+00  0.00000000000E+00  0.19337019560E+04  0.19337019560E+04  0.25500000920E-02 0. -1.
       -2   -1    0    0    0  501  0.00000000000E+00  0.00000000000E+00 -0.10801726198E+04  0.10801726198E+04  0.25500000920E-02 0.  1.
    10030    2    1    2    0    0  0.00000000000E+00  0.00000000000E+00  0.85352933620E+03  0.30138745758E+04  0.28904891681E+04 0.  0.
        4    1    3    3  502    0  0.24515688830E+03 -0.79439121832E+03  0.16594174690E+04  0.18560245842E+04  0.12699999809E+01 0. -1.
       -4    1    3    3    0  502 -0.24515688830E+03  0.79439121832E+03 -0.80588813282E+03  0.11578499916E+04  0.12699999809E+01 0.  1.
</event>
<event>
 5   0  0.5002240E-06  0.2922687E+04  0.7818609E-02  0.8266159E-01
        1   -1    0    0  501    0  0.00000000000E+00  0.00000000000E+00  0.19240649119E+04  0.19240649119E+04  0.50400001928E-02 0.  1.
       -1   -1    0    0    0  501  0.00000000000E+00  0.00000000000E+00 -0.11099023555E+04  0.11099023555E+04  0.50400001928E-02 0. -1.
    10030    2    1    2    0    0  0.00000000000E+00  0.00000000000E+00  0.81416255641E+03  0.30339672674E+04  0.29226865571E+04 0.  0.
        4    1    3    3  502    0 -0.63231424137E+03 -0.11029099698E+04  0.11551370700E+04  0.17177237743E+04  0.12699999809E+01 0.  1.
       -4    1    3    3    0  502  0.63231424137E+03  0.11029099698E+04 -0.34097451362E+03  0.13162434931E+04  0.12699999809E+01 0. -1.
</event>
<event>
 5   0  0.5059249E-06  0.2916373E+04  0.7818609E-02  0.8268023E-01
       -1   -1    0    0    0  501  0.00000000000E+00  0.00000000000E+00  0.91652578004E+03  0.91652578006E+03  0.50400001928E-02 0.  1.
        1   -1    0    0  501    0  0.00000000000E+00  0.00000000000E+00 -0.23199644275E+04  0.23199644275E+04  0.50400001928E-02 0. -1.
    10030    2    1    2    0    0  0.00000000000E+00  0.00000000000E+00 -0.14034386474E+04  0.32364902075E+04  0.29163725459E+04 0.  0.
        1    1    3    3  502    0 -0.11974091719E+04  0.29662536049E+03  0.16114179398E+03  0.12440827976E+04  0.50400001928E-02 0.  1.
       -1    1    3    3    0  502  0.11974091719E+04 -0.29662536049E+03 -0.15645804414E+04  0.19924074099E+04  0.50400001928E-02 0. -1.
</event>
<event>
 5   0  0.5261878E-06  0.2827215E+04  0.7818609E-02  0.8294869E-01
        1   -1    0    0  501    0  0.00000000000E+00  0.00000000000E+00  0.26143174867E+04  0.26143174867E+04  0.50400001928E-02 0.  1.
       -1   -1    0    0    0  501  0.00000000000E+00  0.00000000000E+00 -0.76436246984E+03  0.76436246986E+03  0.50400001928E-02 0. -1.
    10030    2    1    2    0    0  0.00000000000E+00  0.00000000000E+00  0.18499550168E+04  0.33786799565E+04  0.28272150050E+04 0.  0.
        5    1    3    3  502    0  0.10304276522E+04 -0.88076739636E+03  0.14040916896E+04  0.19516731067E+04  0.46999998093E+01 0.  1.
       -5    1    3    3    0  502 -0.10304276522E+04  0.88076739636E+03  0.44586332727E+03  0.14270068498E+04  0.46999998093E+01 0. -1.
</event>
<event>
 5   0  0.1307832E-05  0.2318961E+04  0.7818609E-02  0.8470482E-01
       -2   -1    0    0    0  501  0.00000000000E+00  0.00000000000E+00  0.88558210683E+03  0.88558210683E+03  0.25500000920E-02 0.  1.
        2   -1    0    0  501    0  0.00000000000E+00  0.00000000000E+00 -0.15180915823E+04  0.15180915823E+04  0.25500000920E-02 0. -1.
    10030    2    1    2    0    0  0.00000000000E+00  0.00000000000E+00 -0.63250947550E+03  0.24036736892E+04  0.23189607516E+04 0.  0.
        4    1    3    3  502    0 -0.34557865158E+03  0.69287152821E+03  0.57834834447E+03  0.96642846579E+03  0.12699999809E+01 0.  1.
       -4    1    3    3    0  502  0.34557865158E+03 -0.69287152821E+03 -0.12108578200E+04  0.14372452234E+04  0.12699999809E+01 0. -1.
</event>
<event>
 5   0  0.1382803E-05  0.2878552E+04  0.7818609E-02  0.8279288E-01
        2   -1    0    0  501    0  0.00000000000E+00  0.00000000000E+00  0.12930164949E+04  0.12930164949E+04  0.25500000920E-02 0. -1.
       -2   -1    0    0    0  501  0.00000000000E+00  0.00000000000E+00 -0.16020794949E+04  0.16020794949E+04  0.25500000920E-02 0.  1.
    10030    2    1    2    0    0  0.00000000000E+00  0.00000000000E+00 -0.30906299998E+03  0.28950959899E+04  0.28785518673E+04 0.  0.
        2    1    3    3  502    0  0.29903808943E+03  0.10835106061E+04 -0.10586397683E+04  0.15440651449E+04  0.25500000920E-02 0.  1.
       -2    1    3    3    0  502 -0.29903808943E+03 -0.10835106061E+04  0.74957676834E+03  0.13510308450E+04  0.25500000920E-02 0. -1.
</event>
<event>
 5   0  0.5261878E-06  0.2891919E+04  0.7818609E-02  0.8275286E-01
        1   -1    0    0  501    0  0.00000000000E+00  0.00000000000E+00  0.24325089266E+04  0.24325089266E+04  0.50400001928E-02 0. -1.
       -1   -1    0    0    0  501  0.00000000000E+00  0.00000000000E+00 -0.85952383261E+03  0.85952383262E+03  0.50400001928E-02 0.  1.
    10030    2    1    2    0    0  0.00000000000E+00  0.00000000000E+00  0.15729850940E+04  0.32920327592E+04  0.28919193595E+04 0.  0.
        5    1    3    3  502    0  0.82934651623E+03  0.44941994362E+03 -0.46102443891E+03  0.10499331183E+04  0.46999998093E+01 0.  1.
       -5    1    3    3    0  502 -0.82934651623E+03 -0.44941994362E+03  0.20340095329E+04  0.22420996409E+04  0.46999998093E+01 0. -1.
</event>
<event>
 5   0  0.5059249E-06  0.3130646E+04  0.7818609E-02  0.8207377E-01
        1   -1    0    0  501    0  0.00000000000E+00  0.00000000000E+00  0.23083972007E+04  0.23083972007E+04  0.50400001928E-02 0. -1.
       -1   -1    0    0    0  501  0.00000000000E+00  0.00000000000E+00 -0.10614445673E+04  0.10614445673E+04  0.50400001928E-02 0.  1.
    10030    2    1    2    0    0  0.00000000000E+00  0.00000000000E+00  0.12469526334E+04  0.33698417680E+04  0.31306457275E+04 0.  0.
        1    1    3    3  502    0 -0.12917508842E+04  0.77710566817E+03  0.16969532014E+03  0.15170069439E+04  0.50400001928E-02 0.  1.
       -1    1    3    3    0  502  0.12917508842E+04 -0.77710566817E+03  0.10772573133E+04  0.18528348241E+04  0.50400001928E-02 0. -1.
</event>
<event>
 5   0  0.1385669E-05  0.2698209E+04  0.7818609E-02  0.8335586E-01
        2   -1    0    0  501    0  0.00000000000E+00  0.00000000000E+00  0.30220731191E+04  0.30220731191E+04  0.25500000920E-02 0.  1.
       -2   -1    0    0    0  501  0.00000000000E+00  0.00000000000E+00 -0.60226290714E+03  0.60226290714E+03  0.25500000920E-02 0. -1.
    10030    2    1    2    0    0  0.00000000000E+00  0.00000000000E+00  0.24198102120E+04  0.36243360263E+04  0.26982086964E+04 0.  0.
        3    1    3    3  502    0 -0.57760175267E+03  0.94245550297E+03  0.22488423745E+04  0.25058208626E+04  0.10100000352E+00 0.  1.
       -3    1    3    3    0  502  0.57760175267E+03 -0.94245550297E+03  0.17096783750E+03  0.11185151637E+04  0.10100000352E+00 0. -1.
</event>
<event>
 5   0  0.1307832E-05  0.2885517E+04  0.7818609E-02  0.8277200E-01
        2   -1    0    0  501    0  0.00000000000E+00  0.00000000000E+00  0.14776706965E+04  0.14776706965E+04  0.25500000920E-02 0. -1.
       -2   -1    0    0    0  501  0.00000000000E+00  0.00000000000E+00 -0.14086711617E+04  0.14086711617E+04  0.25500000920E-02 0.  1.
    10030    2    1    2    0    0  0.00000000000E+00  0.00000000000E+00  0.68999534853E+02  0.28863418582E+04  0.28855170051E+04 0.  0.
        4    1    3    3  502    0  0.12722494534E+04 -0.48385411915E+03  0.51298471108E+03  0.14546093658E+04  0.12699999809E+01 0. -1.
       -4    1    3    3    0  502 -0.12722494534E+04  0.48385411915E+03 -0.44398517622E+03  0.14317324924E+04  0.12699999809E+01 0.  1.
</event>
<event>
 5   0  0.1307832E-05  0.2844149E+04  0.7818609E-02  0.8289691E-01
       -2   -1    0    0    0  501  0.00000000000E+00  0.00000000000E+00  0.82396228215E+03  0.82396228216E+03  0.25500000920E-02 0.  1.
        2   -1    0    0  501    0  0.00000000000E+00  0.00000000000E+00 -0.24543554467E+04  0.24543554467E+04  0.25500000920E-02 0. -1.
    10030    2    1    2    0    0  0.00000000000E+00  0.00000000000E+00 -0.16303931646E+04  0.32783177289E+04  0.28441493035E+04 0.  0.
        4    1    3    3  502    0  0.11685685088E+04 -0.55786090131E+03 -0.13764281075E+03  0.13021936496E+04  0.12699999809E+01 0.  1.
       -4    1    3    3    0  502 -0.11685685088E+04  0.55786090131E+03 -0.14927503538E+04  0.19761240792E+04  0.12699999809E+01 0. -1.
</event>
<event>
 5   0  0.5154476E-06  0.2888402E+04  0.7818609E-02  0.8276336E-01
       -1   -1    0    0    0  501  0.00000000000E+00  0.00000000000E+00  0.12342859744E+04  0.12342859744E+04  0.50400001928E-02 0. -1.
        1   -1    0    0  501    0  0.00000000000E+00  0.00000000000E+00 -0.16898167280E+04  0.16898167281E+04  0.50400001928E-02 0.  1.
    10030    2    1    2    0    0  0.00000000000E+00  0.00000000000E+00 -0.45553075366E+03  0.29241027025E+04  0.28884023866E+04 0.  0.
        3    1    3    3  502    0  0.10008728390E+04 -0.50236426745E+03 -0.11509580962E+04  0.16058707441E+04  0.10100000352E+00 0.  1.
       -3    1    3    3    0  502 -0.10008728390E+04  0.50236426745E+03  0.69542734258E+03  0.13182319584E+04  0.10100000352E+00 0. -1.
</event>
<event>
 5   0  0.5154476E-06  0.2844342E+04  0.7818609E-02  0.8289633E-01
        1   -1    0    0  501    0  0.00000000000E+00  0.00000000000E+00  0.15441904366E+04  0.15441904366E+04  0.50400001928E-02 0. -1.
       -1   -1    0    0    0  501  0.00000000000E+00  0.00000000000E+00 -0.13097931939E+04  0.13097931939E+04  0.50400001928E-02 0.  1.
    10030    2    1    2    0    0  0.00000000000E+00  0.00000000000E+00  0.23439724262E+03  0.28539836305E+04  0.28443418388E+04 0.  0.
        3    1    3    3  502    0  0.48813686328E+02  0.14008625163E+04 -0.12397327104E+03  0.14071844043E+04  0.10100000352E+00 0.  1.
       -3    1    3    3    0  502 -0.48813686328E+02 -0.14008625163E+04  0.35837051366E+03  0.14467992262E+04  0.10100000352E+00 0. -1.
</event>
<event>
 5   0  0.5059249E-06  0.1978229E+04  0.7818609E-02  0.8616868E-01
        1   -1    0    0  501    0  0.00000000000E+00  0.00000000000E+00  0.19023105009E+04  0.19023105009E+04  0.50400001928E-02 0. -1.
       -1   -1    0    0    0  501  0.00000000000E+00  0.00000000000E+00 -0.51429411647E+03  0.51429411650E+03  0.50400001928E-02 0.  1.
    10030    2    1    2    0    0  0.00000000000E+00  0.00000000000E+00  0.13880163844E+04  0.24166046174E+04  0.19782285999E+04 0.  0.
        1    1    3    3  502    0 -0.51108767002E+03 -0.12522034264E+03  0.17171349728E+04  0.17959519079E+04  0.50400001928E-02 0. -1.
       -1    1    3    3    0  502  0.51108767002E+03  0.12522034264E+03 -0.32911858833E+03  0.62065270954E+03  0.50400001928E-02 0.  1.
</event>
<event>
 5   0  0.5352212E-06  0.2936719E+04  0.7818609E-02  0.8262036E-01
        1   -1    0    0  501    0  0.00000000000E+00  0.00000000000E+00  0.19014980360E+04  0.19014980360E+04  0.50400001928E-02 0.  1.
       -1   -1    0    0    0  501  0.00000000000E+00  0.00000000000E+00 -0.11338846084E+04  0.11338846084E+04  0.50400001928E-02 0. -1.
    10030    2    1    2    0    0  0.00000000000E+00  0.00000000000E+00  0.76761342754E+03  0.30353826444E+04  0.29367188193E+04 0.  0.
        2    1    3    3  502    0  0.11920502179E+04  0.52871301507E+03  0.10814332722E+04  0.16941130708E+04  0.25500000920E-02 0. -1.
       -2    1    3    3    0  502 -0.11920502179E+04 -0.52871301507E+03 -0.31381984466E+03  0.13412695737E+04  0.25500000920E-02 0.  1.
</event>
<event>
 5   0  0.1385669E-05  0.2838701E+04  0.7818609E-02  0.8291353E-01
       -2   -1    0    0    0  501  0.00000000000E+00  0.00000000000E+00  0.11109310485E+04  0.11109310485E+04  0.25500000920E-02 0.  1.
        2   -1    0    0  501    0  0.00000000000E+00  0.00000000000E+00 -0.18133943360E+04  0.18133943360E+04  0.25500000920E-02 0. -1.
    10030    2    1    2    0    0  0.00000000000E+00  0.00000000000E+00 -0.70246328759E+03  0.29243253845E+04  0.28387011614E+04 0.  0.
        3    1    3    3  502    0 -0.25106569714E+03  0.77738725172E+02 -0.17881075627E+04  0.18073201043E+04  0.10100000352E+00 0. -1.
       -3    1    3    3    0  502  0.25106569714E+03 -0.77738725172E+02  0.10856442751E+04  0.11170052802E+04  0.10100000352E+00 0.  1.
</event>
<event>
 5   0  0.1385669E-05  0.2870683E+04  0.7818609E-02  0.8281654E-01
        2   -1    0    0  501    0  0.00000000000E+00  0.00000000000E+00  0.12125782764E+04  0.12125782764E+04  0.25500000920E-02 0.  1.
       -2   -1    0    0    0  501  0.00000000000E+00  0.00000000000E+00 -0.16990286999E+04  0.16990286999E+04  0.25500000920E-02 0. -1.
    10030    2    1    2    0    0  0.00000000000E+00  0.00000000000E+00 -0.48645042346E+03  0.29116069763E+04  0.28706830494E+04 0.  0.
        3    1    3    3  502    0  0.25563186335E+03 -0.13183127506E+04 -0.75731298008E+03  0.15416935875E+04  0.10100000352E+00 0. -1.
       -3    1    3    3    0  502 -0.25563186335E+03  0.13183127506E+04  0.27086255662E+03  0.13699133887E+04  0.10100000352E+00 0.  1.
</event>
<event>
 5   0  0.5154476E-06  0.2893204E+04  0.7818609E-02  0.8274902E-01
       -1   -1    0    0    0  501  0.00000000000E+00  0.00000000000E+00  0.13888069287E+04  0.13888069287E+04  0.50400001928E-02 0. -1.
        1   -1    0    0  501    0  0.00000000000E+00  0.00000000000E+00 -0.15068019628E+04  0.15068019628E+04  0.50400001928E-02 0.  1.
    10030    2    1    2    0    0  0.00000000000E+00  0.00000000000E+00 -0.11799503407E+03  0.28956088915E+04  0.28932037648E+04 0.  0.
        3    1    3    3  502    0  0.76262914556E+03  0.34968874911E+03 -0.12384386976E+04  0.14958662550E+04  0.10100000352E+00 0.  1.
       -3    1    3    3    0  502 -0.76262914556E+03 -0.34968874911E+03  0.11204436636E+04  0.13997426365E+04  0.10100000352E+00 0. -1.
</event>
<event>
 5   0  0.1382803E-05  0.1933632E+04  0.7818609E-02  0.8638294E-01
       -2   -1    0    0    0  501  0.00000000000E+00  0.00000000000E+00  0.82204677080E+03  0.82204677081E+03  0.25500000920E-02 0.  1.
        2   -1    0    0  501    0  0.00000000000E+00  0.00000000000E+00 -0.11370807925E+04  0.11370807925E+04  0.25500000920E-02 0. -1.
    10030    2    1    2    0    0  0.00000000000E+00  0.00000000000E+00 -0.31503402166E+03  0.19591275633E+04  0.19336324300E+04 0.  0.
        2    1    3    3  502    0 -0.70384403657E+03  0.65439626533E+03 -0.50758385551E+02  0.96239665087E+03  0.25500000920E-02 0.  1.
       -2    1    3    3    0  502  0.70384403657E+03 -0.65439626533E+03 -0.26427563611E+03  0.99673091241E+03  0.25500000920E-02 0. -1.
</event>
<event>
 5   0  0.1336899E-05  0.2905954E+04  0.7818609E-02  0.8271108E-01
       -2   -1    0    0    0  501  0.00000000000E+00  0.00000000000E+00  0.18530050329E+04  0.18530050329E+04  0.25500000920E-02 0.  1.
        2   -1    0    0  501    0  0.00000000000E+00  0.00000000000E+00 -0.11393069864E+04  0.11393069864E+04  0.25500000920E-02 0. -1.
    10030    2    1    2    0    0  0.00000000000E+00  0.00000000000E+00  0.71369804651E+03  0.29923120194E+04  0.29059535990E+04 0.  0.
        1    1    3    3  502    0  0.15293981532E+03  0.64009770326E+02  0.18432328694E+04  0.18506742686E+04  0.50400001928E-02 0.  1.
       -1    1    3    3    0  502 -0.15293981532E+03 -0.64009770326E+02 -0.11295348229E+04  0.11416377507E+04  0.50400001928E-02 0. -1.
</event>
<event>
 5   0  0.1307832E-05  0.2902446E+04  0.7818609E-02  0.8272150E-01
        2   -1    0    0  501    0  0.00000000000E+00  0.00000000000E+00  0.85093817551E+03  0.85093817551E+03  0.25500000920E-02 0. -1.
       -2   -1    0    0    0  501  0.00000000000E+00  0.00000000000E+00 -0.24749722922E+04  0.24749722922E+04  0.25500000920E-02 0.  1.
    10030    2    1    2    0    0  0.00000000000E+00  0.00000000000E+00 -0.16240341167E+04  0.33259104677E+04  0.29024461454E+04 0.  0.
        4    1    3    3  502    0 -0.13649033264E+04 -0.66110582175E+02 -0.25214818326E+03  0.13895726029E+04  0.12699999809E+01 0. -1.
       -4    1    3    3    0  502  0.13649033264E+04  0.66110582175E+02 -0.13718859334E+04  0.19363378648E+04  0.12699999809E+01 0.  1.
</event>
<event>
 5   0  0.5261878E-06  0.2955628E+04  0.7818609E-02  0.8256516E-01
        1   -1    0    0  501    0  0.00000000000E+00  0.00000000000E+00  0.10038287110E+04  0.10038287110E+04  0.50400001928E-02 0. -1.
       -1   -1    0    0    0  501  0.00000000000E+00  0.00000000000E+00 -0.21756049530E+04  0.21756049530E+04  0.50400001928E-02 0.  1.
    10030    2    1    2    0    0  0.00000000000E+00  0.00000000000E+00 -0.11717762420E+04  0.31794336640E+04  0.29556283363E+04 0.  0.
        5    1    3    3  502    0  0.63579117575E+03  0.33946585246E+03 -0.19737130668E+04  0.21011979546E+04  0.46999998093E+01 0.  1.
       -5    1    3    3    0  502 -0.63579117575E+03 -0.33946585246E+03  0.80193682476E+03  0.10782357094E+04  0.46999998093E+01 0. -1.
</event>
<event>
 5   0  0.1336899E-05  0.2837609E+04  0.7818609E-02  0.8291687E-01
       -2   -1    0    0    0  501  0.00000000000E+00  0.00000000000E+00  0.11348547386E+04  0.11348547386E+04  0.25500000920E-02 0.  1.
        2   -1    0    0  501    0  0.00000000000E+00  0.00000000000E+00 -0.17738004899E+04  0.17738004899E+04  0.25500000920E-02 0. -1.
    10030    2    1    2    0    0  0.00000000000E+00  0.00000000000E+00 -0.63894575126E+03  0.29086552286E+04  0.28376087760E+04 0.  0.
        1    1    3    3  502    0 -0.88494612258E+03 -0.22727090133E+03  0.79316462836E+03  0.12099139764E+04  0.50400001928E-02 0.  1.
       -1    1    3    3    0  502  0.88494612258E+03  0.22727090133E+03 -0.14321103796E+04  0.16987412522E+04  0.50400001928E-02 0. -1.
</event>
<event>
 5   0  0.1385669E-05  0.2103510E+04  0.7818609E-02  0.8559699E-01
       -2   -1    0    0    0  501  0.00000000000E+00  0.00000000000E+00  0.19992919191E+04  0.19992919191E+04  0.25500000920E-02 0.  1.
        2   -1    0    0  501    0  0.00000000000E+00  0.00000000000E+00 -0.55329014746E+03  0.55329014747E+03  0.25500000920E-02 0. -1.
    10030    2    1    2    0    0  0.00000000000E+00  0.00000000000E+00  0.14460017717E+04  0.25525820666E+04  0.21035099437E+04 0.  0.
        3    1    3    3  502    0 -0.76519172404E+03 -0.25528988298E+03 -0.95987995501E+02  0.81234537260E+03  0.10100000352E+00 0. -1.
       -3    1    3    3    0  502  0.76519172404E+03  0.25528988298E+03  0.15419897672E+04  0.17402366940E+04  0.10100000352E+00 0.  1.
</event>
<event>
 5   0  0.5002240E-06  0.2219777E+04  0.7818609E-02  0.8510241E-01
       -1   -1    0    0    0  501  0.00000000000E+00  0.00000000000E+00  0.98957506930E+03  0.98957506932E+03  0.50400001928E-02 0.  1.
        1   -1    0    0  501    0  0.00000000000E+00  0.00000000000E+00 -0.12448301400E+04  0.12448301400E+04  0.50400001928E-02 0. -1.
    10030    2    1    2    0    0  0.00000000000E+00  0.00000000000E+00 -0.25525507069E+03  0.22344052093E+04  0.22197773511E+04 0.  0.
        4    1    3    3  502    0 -0.15933229684E+03 -0.64599678906E+03  0.76656908191E+03  0.10150509359E+04  0.12699999809E+01 0.  1.
       -4    1    3    3    0  502  0.15933229684E+03  0.64599678906E+03 -0.10218241526E+04  0.12193542734E+04  0.12699999809E+01 0. -1.
</event>
<event>
 5   0  0.1339837E-05  0.2708743E+04  0.7818609E-02  0.8332174E-01
       -2   -1    0    0    0  501  0.00000000000E+00  0.00000000000E+00  0.10967629737E+04  0.10967629737E+04  0.25500000920E-02 0. -1.
        2   -1    0    0  501    0  0.00000000000E+00  0.00000000000E+00 -0.16724878274E+04  0.16724878274E+04  0.25500000920E-02 0.  1.
    10030    2    1    2    0    0  0.00000000000E+00  0.00000000000E+00 -0.57572485369E+03  0.27692508011E+04  0.27087434157E+04 0.  0.
        5    1    3    3  502    0 -0.39177167882E+03 -0.68084051949E+03 -0.14158081369E+04  0.16191243411E+04  0.46999998093E+01 0.  1.
       -5    1    3    3    0  502  0.39177167882E+03  0.68084051949E+03  0.84008328324E+03  0.11501264600E+04  0.46999998093E+01 0. -1.
</event>
<event>
 5   0  0.1382803E-05  0.2881300E+04  0.7818609E-02  0.8278463E-01
        2   -1    0    0  501    0  0.00000000000E+00  0.00000000000E+00  0.16385177218E+04  0.16385177218E+04  0.25500000920E-02 0. -1.
       -2   -1    0    0    0  501  0.00000000000E+00  0.00000000000E+00 -0.12666771998E+04  0.12666771998E+04  0.25500000920E-02 0.  1.
    10030    2    1    2    0    0  0.00000000000E+00  0.00000000000E+00  0.37184052207E+03  0.29051949216E+04  0.28813004284E+04 0.  0.
        2    1    3    3  502    0 -0.10341665327E+03  0.79202271113E+03  0.13948118196E+04  0.16073254155E+04  0.25500000920E-02 0. -1.
       -2    1    3    3    0  502  0.10341665327E+03 -0.79202271113E+03 -0.10229712976E+04  0.12978695061E+04  0.25500000920E-02 0.  1.
</event>
<event>
 5   0  0.1382803E-05  0.2905964E+04  0.7818609E-02  0.8271105E-01
       -2   -1    0    0    0  501  0.00000000000E+00  0.00000000000E+00  0.14287685634E+04  0.14287685634E+04  0.25500000920E-02 0.  1.
        2   -1    0    0  501    0  0.00000000000E+00  0.00000000000E+00 -0.14776059175E+04  0.14776059175E+04  0.25500000920E-02 0. -1.
    10030    2    1    2    0    0  0.00000000000E+00  0.00000000000E+00 -0.48837354118E+02  0.29063744809E+04  0.29059641320E+04 0.  0.
        2    1    3    3  502    0 -0.72681398683E+03  0.12560940878E+04 -0.96024563576E+02  0.14543904722E+04  0.25500000920E-02 0.  1.
       -2    1    3    3    0  502  0.72681398683E+03 -0.12560940878E+04  0.47187209458E+02  0.14519840087E+04  0.25500000920E-02 0. -1.
</event>
<event>
 5   0  0.5154476E-06  0.2887698E+04  0.7818609E-02  0.8276547E-01
        1   -1    0    0  501    0  0.00000000000E+00  0.00000000000E+00  0.17163720884E+04  0.17163720884E+04  0.50400001928E-02 0.  1.
       -1   -1    0    0    0  501  0.00000000000E+00  0.00000000000E+00 -0.12145968280E+04  0.12145968281E+04  0.50400001928E-02 0. -1.
    10030    2    1    2    0    0  0.00000000000E+00  0.00000000000E+00  0.50177526038E+03  0.29309689165E+04  0.28876981105E+04 0.  0.
        3    1    3    3  502    0  0.49465111509E+03 -0.11593309736E+04 -0.46391810172E+03  0.13431113310E+04  0.10100000352E+00 0. -1.
       -3    1    3    3    0  502 -0.49465111509E+03  0.11593309736E+04  0.96569336210E+03  0.15878575855E+04  0.10100000352E+00 0.  1.
</event>
<event>
 5   0  0.5352212E-06  0.2891445E+04  0.7818609E-02  0.8275427E-01
        1   -1    0    0  501    0  0.00000000000E+00  0.00000000000E+00  0.16583640200E+04  0.16583640200E+04  0.50400001928E-02 0.  1.
       -1   -1    0    0    0  501  0.00000000000E+00  0.00000000000E+00 -0.12603468706E+04  0.12603468706E+04  0.50400001928E-02 0. -1.
    10030    2    1    2    0    0  0.00000000000E+00  0.00000000000E+00  0.39801714946E+03  0.29187108906E+04  0.28914452462E+04 0.  0.
        2    1    3    3  502    0 -0.92761593935E+03  0.94090793140E+03 -0.39332532354E+03  0.13785803845E+04  0.25500000920E-02 0. -1.
       -2    1    3    3    0  502  0.92761593935E+03 -0.94090793140E+03  0.79134247300E+03  0.15401305061E+04  0.25500000920E-02 0.  1.
</event>
<event>
 5   0  0.1336899E-05  0.2908972E+04  0.7818609E-02  0.8270213E-01
       -2   -1    0    0    0  501  0.00000000000E+00  0.00000000000E+00  0.12996234464E+04  0.12996234464E+04  0.25500000920E-02 0. -1.
        2   -1    0    0  501    0  0.00000000000E+00  0.00000000000E+00 -0.16278015245E+04  0.16278015245E+04  0.25500000920E-02 0.  1.
    10030    2    1    2    0    0  0.00000000000E+00  0.00000000000E+00 -0.32817807809E+03  0.29274249708E+04  0.29089716583E+04 0.  0.
        1    1    3    3  502    0 -0.11832849778E+04  0.34436381576E+03 -0.94150444093E+03  0.15508644005E+04  0.50400001928E-02 0.  1.
       -1    1    3    3    0  502  0.11832849778E+04 -0.34436381576E+03  0.61332636284E+03  0.13765605703E+04  0.50400001928E-02 0. -1.
</event>
<event>
 5   0  0.4590125E-06  0.2416934E+04  0.7818609E-02  0.8433191E-01
       -4   -1    0    0    0  501  0.00000000000E+00  0.00000000000E+00  0.93230091564E+03  0.93230178065E+03  0.12699999809E+01 0.  1.
        4   -1    0    0  501    0  0.00000000000E+00  0.00000000000E+00 -0.15664377604E+04  0.15664382752E+04  0.12699999809E+01 0. -1.
    10030    2    1    2    0    0  0.00000000000E+00  0.00000000000E+00 -0.63413684476E+03  0.24987400559E+04  0.24169344900E+04 0.  0.
        5    1    3    3  502    0 -0.70290340681E+03 -0.49184743693E+03  0.56284631524E+03  0.10260629440E+04  0.46999998093E+01 0.  1.
       -5    1    3    3    0  502  0.70290340681E+03  0.49184743693E+03 -0.11969831600E+04  0.14726771119E+04  0.46999998093E+01 0. -1.
</event>
<event>
 5   0  0.5261878E-06  0.2966251E+04  0.7818609E-02  0.8253434E-01
        1   -1    0    0  501    0  0.00000000000E+00  0.00000000000E+00  0.20944128990E+04  0.20944128990E+04  0.50400001928E-02 0.  1.
       -1   -1    0    0    0  501  0.00000000000E+00  0.00000000000E+00 -0.10502516414E+04  0.10502516414E+04  0.50400001928E-02 0. -1.
    10030    2    1    2    0    0  0.00000000000E+00  0.00000000000E+00  0.10441612576E+04  0.31446645404E+04  0.29662505525E+04 0.  0.
        5    1    3    3  502    0  0.22590522555E+03 -0.12252030054E+04 -0.33098147537E+03  0.12890796727E+04  0.46999998093E+01 0. -1.
       -5    1    3    3    0  502 -0.22590522555E+03  0.12252030054E+04  0.13751427330E+04  0.18555848678E+04  0.46999998093E+01 0.  1.
</event>
<event>
 5   0  0.1339837E-05  0.2969341E+04  0.7818609E-02  0.8252540E-01
        2   -1    0    0  501    0  0.00000000000E+00  0.00000000000E+00  0.19544283160E+04  0.19544283160E+04  0.25500000920E-02 0.  1.
       -2   -1    0    0    0  501  0.00000000000E+00  0.00000000000E+00 -0.11278219449E+04  0.11278219449E+04  0.25500000920E-02 0. -1.
    10030    2    1    2    0    0  0.00000000000E+00  0.00000000000E+00  0.82660637111E+03  0.30822502609E+04  0.29693414384E+04 0.  0.
        5    1    3    3  502    0  0.97259416968E+03  0.85387981781E+03 -0.34180186307E+03  0.13386189771E+04  0.46999998093E+01 0. -1.
       -5    1    3    3    0  502 -0.97259416968E+03 -0.85387981781E+03  0.11684082342E+04  0.17436312838E+04  0.46999998093E+01 0.  1.
</event>
<event>
 5   0  0.5352212E-06  0.2886752E+04  0.7818609E-02  0.8276830E-01
       -1   -1    0    0    0  501  0.00000000000E+00  0.00000000000E+00  0.16499460395E+04  0.16499460395E+04  0.50400001928E-02 0.  1.
        1   -1    0    0  501    0  0.00000000000E+00  0.00000000000E+00 -0.12626684716E+04  0.12626684716E+04  0.50400001928E-02 0. -1.
    10030    2    1    2    0    0  0.00000000000E+00  0.00000000000E+00  0.38727756791E+03  0.29126145111E+04  0.28867523925E+04 0.  0.
        2    1    3    3  502    0  0.37776431643E+03 -0.12730119828E+04  0.76445406503E+03  0.15322060581E+04  0.25500000920E-02 0. -1.
       -2    1    3    3    0  502 -0.37776431643E+03  0.12730119828E+04 -0.37717649712E+03  0.13804084530E+04  0.25500000920E-02 0.  1.
</event>
<event>
 5   0  0.5154476E-06  0.2873841E+04  0.7818609E-02  0.8280703E-01
       -1   -1    0    0    0  501  0.00000000000E+00  0.00000000000E+00  0.18546514538E+04  0.18546514538E+04  0.50400001928E-02 0. -1.
        1   -1    0    0  501    0  0.00000000000E+00  0.00000000000E+00 -0.11132768170E+04  0.11132768170E+04  0.50400001928E-02 0.  1.
    10030    2    1    2    0    0  0.00000000000E+00  0.00000000000E+00  0.74137463680E+03  0.29679282708E+04  0.28738409609E+04 0.  0.
        3    1    3    3  502    0 -0.42676470706E+02  0.88955498137E+03 -0.79388865850E+03  0.11930584891E+04  0.10100000352E+00 0.  1.
       -3    1    3    3    0  502  0.42676470706E+02 -0.88955498137E+03  0.15352632953E+04  0.17748697817E+04  0.10100000352E+00 0. -1.
</event>
<event>
 5   0  0.5154476E-06  0.2828793E+04  0.7818609E-02  0.8294385E-01
        1   -1    0    0  501    0  0.00000000000E+00  0.00000000000E+00  0.15905650462E+04  0.15905650462E+04  0.50400001928E-02 0.  1.
       -1   -1    0    0    0  501  0.00000000000E+00  0.00000000000E+00 -0.12577402092E+04  0.12577402092E+04  0.50400001928E-02 0. -1.
    10030    2    1    2    0    0  0.00000000000E+00  0.00000000000E+00  0.33282483701E+03  0.28483052553E+04  0.28287931093E+04 0.  0.
        3    1    3    3  502    0 -0.80816509710E+03  0.20266819992E+03  0.13172363039E+04  0.15586265473E+04  0.10100000352E+00 0.  1.
       -3    1    3    3    0  502  0.80816509710E+03 -0.20266819992E+03 -0.98441146694E+03  0.12896787080E+04  0.10100000352E+00 0. -1.
</event>
<event>
 5   0  0.1382803E-05  0.2931423E+04  0.7818609E-02  0.8263589E-01
       -2   -1    0    0    0  501  0.00000000000E+00  0.00000000000E+00  0.13708735730E+04  0.13708735730E+04  0.25500000920E-02 0.  1.
        2   -1    0    0  501    0  0.00000000000E+00  0.00000000000E+00 -0.15671100748E+04  0.15671100748E+04  0.25500000920E-02 0. -1.
    10030    2    1    2    0    0  0.00000000000E+00  0.00000000000E+00 -0.19623650188E+03  0.29379836478E+04  0.29314227178E+04 0.  0.
        2    1    3    3  502    0 -0.80809110507E+03  0.82065963168E+03 -0.10066880703E+04  0.15296778537E+04  0.25500000920E-02 0. -1.
       -2    1    3    3    0  502  0.80809110507E+03 -0.82065963168E+03  0.81045156838E+03  0.14083057942E+04  0.25500000920E-02 0.  1.
</event>
<event>
 5   0  0.1336899E-05  0.2980387E+04  0.7818609E-02  0.8249354E-01
       -2   -1    0    0    0  501  0.00000000000E+00  0.00000000000E+00  0.18143799642E+04  0.18143799642E+04  0.25500000920E-02 0. -1.
        2   -1    0    0  501    0  0.00000000000E+00  0.00000000000E+00 -0.12239317687E+04  0.12239317687E+04  0.25500000920E-02 0.  1.
    10030    2    1    2    0    0  0.00000000000E+00  0.00000000000E+00  0.59044819545E+03  0.30383117329E+04  0.29803874102E+04 0.  0.
        1    1    3    3  502    0  0.20872563045E+02 -0.98347572124E+03 -0.84591375881E+03  0.12973936355E+04  0.50400001928E-02 0.  1.
       -1    1    3    3    0  502 -0.20872563045E+02  0.98347572124E+03  0.14363619543E+04  0.17409180974E+04  0.50400001928E-02 0. -1.
</event>
<event>
 5   0  0.5059249E-06  0.2956174E+04  0.7818609E-02  0.8256358E-01
       -1   -1    0    0    0  501  0.00000000000E+00  0.00000000000E+00  0.10407587201E+04  0.10407587201E+04  0.50400001928E-02 0.  1.
        1   -1    0    0  501    0  0.00000000000E+00  0.00000000000E+00 -0.20991808535E+04  0.20991808535E+04  0.50400001928E-02 0. -1.
    10030    2    1    2    0    0  0.00000000000E+00  0.00000000000E+00 -0.10584221334E+04  0.31399395736E+04  0.29561737286E+04 0.  0.
        1    1    3    3  502    0  0.52187974070E+02 -0.11874798848E+04  0.40398803043E+03  0.12554036762E+04  0.50400001928E-02 0.  1.
       -1    1    3    3    0  502 -0.52187974070E+02  0.11874798848E+04 -0.14624101638E+04  0.18845358975E+04  0.50400001928E-02 0. -1.
</event>
<event>
 5   0  0.1336899E-05  0.2883308E+04  0.7818609E-02  0.8277861E-01
        2   -1    0    0  501    0  0.00000000000E+00  0.00000000000E+00  0.16488579544E+04  0.16488579544E+04  0.25500000920E-02 0. -1.
       -2   -1    0    0    0  501  0.00000000000E+00  0.00000000000E+00 -0.12604879994E+04  0.12604879994E+04  0.25500000920E-02 0.  1.
    10030    2    1    2    0    0  0.00000000000E+00  0.00000000000E+00  0.38836995491E+03  0.29093459538E+04  0.28833075897E+04 0.  0.
        1    1    3    3  502    0  0.46477945168E+03 -0.76906747544E+03 -0.94332921905E+03  0.13028256737E+04  0.50400001928E-02 0.  1.
       -1    1    3    3    0  502 -0.46477945168E+03  0.76906747544E+03  0.13316991740E+04  0.16065202801E+04  0.50400001928E-02 0. -1.
</event>
<event>
 5   0  0.1336899E-05  0.1808314E+04  0.7818609E-02  0.8701891E-01
       -2   -1    0    0    0  501  0.00000000000E+00  0.00000000000E+00  0.41556785391E+03  0.41556785392E+03  0.25500000920E-02 0.  1.
        2   -1    0    0  501    0  0.00000000000E+00  0.00000000000E+00 -0.19671865157E+04  0.19671865157E+04  0.25500000920E-02 0. -1.
    10030    2    1    2    0    0  0.00000000000E+00  0.00000000000E+00 -0.15516186618E+04  0.23827543696E+04  0.18083135553E+04 0.  0.
        1    1    3    3  502    0  0.51312020955E+03  0.18415092102E+03  0.17464356842E+03  0.57245461582E+03  0.50400001928E-02 0.  1.
       -1    1    3    3    0  502 -0.51312020955E+03 -0.18415092102E+03 -0.17262622302E+04  0.18102997538E+04  0.50400001928E-02 0. -1.
</event>
<event>
 5   0  0.1339837E-05  0.2694163E+04  0.7818609E-02  0.8336901E-01
        2   -1    0    0  501    0  0.00000000000E+00  0.00000000000E+00  0.14953960559E+04  0.14953960559E+04  0.25500000920E-02 0.  1.
       -2   -1    0    0    0  501  0.00000000000E+00  0.00000000000E+00 -0.12134770259E+04  0.12134770259E+04  0.25500000920E-02 0. -1.
    10030    2    1    2    0    0  0.00000000000E+00  0.00000000000E+00  0.28191902995E+03  0.27088730818E+04  0.26941631417E+04 0.  0.
        5    1    3    3  502    0  0.12585309885E+04 -0.16504957121E+03 -0.31257431346E+03  0.13072361690E+04  0.46999998093E+01 0.  1.
       -5    1    3    3    0  502 -0.12585309885E+04  0.16504957121E+03  0.59449334340E+03  0.14016369128E+04  0.46999998093E+01 0. -1.
</event>
<event>
 5   0  0.1336899E-05  0.2916482E+04  0.7818609E-02  0.8267991E-01
        2   -1    0    0  501    0  0.00000000000E+00  0.00000000000E+00  0.14245416255E+04  0.14245416255E+04  0.25500000920E-02 0.  1.
       -2   -1    0    0    0  501  0.00000000000E+00  0.00000000000E+00 -0.14927371047E+04  0.14927371047E+04  0.25500000920E-02 0. -1.
    10030    2    1    2    0    0  0.00000000000E+00  0.00000000000E+00 -0.68195479204E+02  0.29172787302E+04  0.29164815388E+04 0.  0.
        1    1    3    3  502    0  0.48491764301E+03 -0.59726563401E+03 -0.12732239764E+04  0.14876056777E+04  0.50400001928E-02 0. -1.
       -1    1    3    3    0  502 -0.48491764301E+03  0.59726563401E+03  0.12050284972E+04  0.14296730525E+04  0.50400001928E-02 0.  1.
</event>
<event>
 5   0  0.5002240E-06  0.2753391E+04  0.7818609E-02  0.8317887E-01
        1   -1    0    0  501    0  0.00000000000E+00  0.00000000000E+00  0.24256316159E+04  0.24256316159E+04  0.50400001928E-02 0. -1.
       -1   -1    0    0    0  501  0.00000000000E+00  0.00000000000E+00 -0.78135931249E+03  0.78135931251E+03  0.50400001928E-02 0.  1.
    10030    2    1    2    0    0  0.00000000000E+00  0.00000000000E+00  0.16442723034E+04  0.32069909284E+04  0.27533905294E+04 0.  0.
        4    1    3    3  502    0  0.11900125931E+04 -0.69180600146E+03  0.79450636837E+03  0.15893292603E+04  0.12699999809E+01 0. -1.
       -4    1    3    3    0  502 -0.11900125931E+04  0.69180600146E+03  0.84976593505E+03  0.16176616681E+04  0.12699999809E+01 0.  1.
</event>
<event>
 5   0  0.5059249E-06  0.2972819E+04  0.7818609E-02  0.8251535E-01
       -1   -1    0    0    0  501  0.00000000000E+00  0.00000000000E+00  0.12737747104E+04  0.12737747104E+04  0.50400001928E-02 0. -1.
        1   -1    0    0  501    0  0.00000000000E+00  0.00000000000E+00 -0.17345400643E+04  0.17345400643E+04  0.50400001928E-02 0.  1.
    10030    2    1    2    0    0  0.00000000000E+00  0.00000000000E+00 -0.46076535389E+03  0.30083147747E+04  0.29728190447E+04 0.  0.
        1    1    3    3  502    0  0.13314009344E+04  0.41059417286E+03  0.29367846446E+03  0.14238901164E+04  0.50400001928E-02 0. -1.
       -1    1    3    3    0  502 -0.13314009344E+04 -0.41059417286E+03 -0.75444381835E+03  0.15844246584E+04  0.50400001928E-02 0.  1.
</event>
<event>
 5   0  0.5059249E-06  0.2821208E+04  0.7818609E-02  0.8296714E-01
       -1   -1    0    0    0  501  0.00000000000E+00  0.00000000000E+00  0.12034645428E+04  0.12034645428E+04  0.50400001928E-02 0.  1.
        1   -1    0    0  501    0  0.00000000000E+00  0.00000000000E+00 -0.16533961057E+04  0.16533961057E+04  0.50400001928E-02 0. -1.
    10030    2    1    2    0    0  0.00000000000E+00  0.00000000000E+00 -0.44993156294E+03  0.28568606486E+04  0.28212079601E+04 0.  0.
        1    1    3    3  502    0  0.12590453996E+04  0.63431344319E+03 -0.27304980942E+03  0.14360031549E+04  0.50400001928E-02 0. -1.
       -1    1    3    3    0  502 -0.12590453996E+04 -0.63431344319E+03 -0.17688175352E+03  0.14208574936E+04  0.50400001928E-02 0.  1.
</event>
<event>
 5   0  0.1339837E-05  0.2998849E+04  0.7818609E-02  0.8244060E-01
        2   -1    0    0  501    0  0.00000000000E+00  0.00000000000E+00  0.21187603882E+04  0.21187603882E+04  0.25500000920E-02 0. -1.
       -2   -1    0    0    0  501  0.00000000000E+00  0.00000000000E+00 -0.10611271906E+04  0.10611271906E+04  0.25500000920E-02 0.  1.
    10030    2    1    2    0    0  0.00000000000E+00  0.00000000000E+00  0.10576331976E+04  0.31798875787E+04  0.29988492848E+04 0.  0.
        5    1    3    3  502    0 -0.96869371938E+03  0.73566778386E+03 -0.40085428052E+03  0.12807344980E+04  0.46999998093E+01 0.  1.
       -5    1    3    3    0  502  0.96869371938E+03 -0.73566778386E+03  0.14584874781E+04  0.18991530807E+04  0.46999998093E+01 0. -1.
</event>
<event>
 5   0  0.1336899E-05  0.2927992E+04  0.7818609E-02  0.8264597E-01
        2   -1    0    0  501    0  0.00000000000E+00  0.00000000000E+00  0.21332424161E+04  0.21332424161E+04  0.25500000920E-02 0. -1.
       -2   -1    0    0    0  501  0.00000000000E+00  0.00000000000E+00 -0.10047074260E+04  0.10047074260E+04  0.25500000920E-02 0.  1.
    10030    2    1    2    0    0  0.00000000000E+00  0.00000000000E+00  0.11285349901E+04  0.31379498420E+04  0.29279921426E+04 0.  0.
        1    1    3    3  502    0  0.10712992298E+04 -0.90946670215E+03  0.10041543201E+04  0.17271761985E+04  0.50400001928E-02 0. -1.
       -1    1    3    3    0  502 -0.10712992298E+04  0.90946670215E+03  0.12438066994E+03  0.14107736435E+04  0.50400001928E-02 0.  1.
</event>
<event>
 5   0  0.5154476E-06  0.2967272E+04  0.7818609E-02  0.8253139E-01
        1   -1    0    0  501    0  0.00000000000E+00  0.00000000000E+00  0.26941944001E+04  0.26941944001E+04  0.50400001928E-02 0.  1.
       -1   -1    0    0    0  501  0.00000000000E+00  0.00000000000E+00 -0.81700704145E+03  0.81700704146E+03  0.50400001928E-02 0. -1.
    10030    2    1    2    0    0  0.00000000000E+00  0.00000000000E+00  0.18771873586E+04  0.35112014415E+04  0.29672720104E+04 0.  0.
        3    1    3    3  502    0  0.94420157912E+03  0.21357222712E+03 -0.39179897129E+03  0.10443352729E+04  0.10100000352E+00 0. -1.
       -3    1    3    3    0  502 -0.94420157912E+03 -0.21357222712E+03  0.22689863299E+04  0.24668661686E+04  0.10100000352E+00 0.  1.
</event>
<event>
 5   0  0.5154476E-06  0.2901233E+04  0.7818609E-02  0.8272511E-01
       -1   -1    0    0    0  501  0.00000000000E+00  0.00000000000E+00  0.14900551398E+04  0.14900551398E+04  0.50400001928E-02 0.  1.
        1   -1    0    0  501    0  0.00000000000E+00  0.00000000000E+00 -0.14122219953E+04  0.14122219953E+04  0.50400001928E-02 0. -1.
    10030    2    1    2    0    0  0.00000000000E+00  0.00000000000E+00  0.77833144446E+02  0.29022771351E+04  0.29012332844E+04 0.  0.
        3    1    3    3  502    0  0.70923005636E+03  0.37191287060E+03  0.12488814891E+04  0.14835873551E+04  0.10100000352E+00 0.  1.
       -3    1    3    3    0  502 -0.70923005636E+03 -0.37191287060E+03 -0.11710483447E+04  0.14186897800E+04  0.10100000352E+00 0. -1.
</event>
<event>
 5   0  0.1336899E-05  0.2906067E+04  0.7818609E-02  0.8271075E-01
       -2   -1    0    0    0  501  0.00000000000E+00  0.00000000000E+00  0.12458726140E+04  0.12458726140E+04  0.25500000920E-02 0. -1.
        2   -1    0    0  501    0  0.00000000000E+00  0.00000000000E+00 -0.16946410575E+04  0.16946410575E+04  0.25500000920E-02 0.  1.
    10030    2    1    2    0    0  0.00000000000E+00  0.00000000000E+00 -0.44876844350E+03  0.29405136716E+04  0.29060673662E+04 0.  0.
        1    1    3    3  502    0  0.11304850011E+04  0.54154007169E+03 -0.96797236950E+03  0.15837400339E+04  0.50400001928E-02 0. -1.
       -1    1    3    3    0  502 -0.11304850011E+04 -0.54154007169E+03  0.51920392600E+03  0.13567736376E+04  0.50400001928E-02 0.  1.
</event>
<event>
 5   0  0.5059249E-06  0.2866083E+04  0.7818609E-02  0.8283041E-01
       -1   -1    0    0    0  501  0.00000000000E+00  0.00000000000E+00  0.12364976834E+04  0.12364976834E+04  0.50400001928E-02 0. -1.
        1   -1    0    0  501    0  0.00000000000E+00  0.00000000000E+00 -0.16608266487E+04  0.16608266487E+04  0.50400001928E-02 0.  1.
    10030    2    1    2    0    0  0.00000000000E+00  0.00000000000E+00 -0.42432896527E+03  0.28973243321E+04  0.28660832532E+04 0.  0.
        1    1    3    3  502    0  0.10503081705E+04 -0.55411115641E+03 -0.10230438010E+04  0.15674198689E+04  0.50400001928E-02 0.  1.
       -1    1    3    3    0  502 -0.10503081705E+04  0.55411115641E+03  0.59871483574E+03  0.13299044632E+04  0.50400001928E-02 0. -1.
</event>
<event>
 5   0  0.5352212E-06  0.2530651E+04  0.7818609E-02  0.8392147E-01
        1   -1    0    0  501    0  0.00000000000E+00  0.00000000000E+00  0.13174130044E+04  0.13174130044E+04  0.50400001928E-02 0.  1.
       -1   -1    0    0    0  501  0.00000000000E+00  0.00000000000E+00 -0.12152972493E+04  0.12152972493E+04  0.50400001928E-02 0. -1.
    10030    2    1    2    0    0  0.00000000000E+00  0.00000000000E+00  0.10211575508E+03  0.25327102537E+04  0.25306508257E+04 0.  0.
        2    1    3    3  502    0 -0.31851293784E+03  0.35456255706E+03 -0.11220236743E+04  0.12190579248E+04  0.25500000920E-02 0. -1.
       -2    1    3    3    0  502  0.31851293784E+03 -0.35456255706E+03  0.12241394294E+04  0.13136523288E+04  0.25500000920E-02 0.  1.
</event>
<event>
 5   0  0.5002240E-06  0.2870880E+04  0.7818609E-02  0.8281595E-01
        1   -1    0    0  501    0  0.00000000000E+00  0.00000000000E+00  0.17989287418E+04  0.17989287418E+04  0.50400001928E-02 0.  1.
       -1   -1    0    0    0  501  0.00000000000E+00  0.00000000000E+00 -0.11453969017E+04  0.11453969017E+04  0.50400001928E-02 0. -1.
    10030    2    1    2    0    0  0.00000000000E+00  0.00000000000E+00  0.65353184006E+03  0.29443256435E+04  0.28708795915E+04 0.  0.
        4    1    3    3  502    0 -0.74551339358E+03  0.49374663223E+03  0.14783956821E+04  0.17277822092E+04  0.12699999809E+01 0.  1.
       -4    1    3    3    0  502  0.74551339358E+03 -0.49374663223E+03 -0.82486384199E+03  0.12165434343E+04  0.12699999809E+01 0. -1.
</event>
<event>
 5   0  0.5002240E-06  0.2060593E+04  0.7818609E-02  0.8578804E-01
        1   -1    0    0  501    0  0.00000000000E+00  0.00000000000E+00  0.13668987794E+04  0.13668987794E+04  0.50400001928E-02 0. -1.
       -1   -1    0    0    0  501  0.00000000000E+00  0.00000000000E+00 -0.77658331925E+03  0.77658331927E+03  0.50400001928E-02 0.  1.
    10030    2    1    2    0    0  0.00000000000E+00  0.00000000000E+00  0.59031546013E+03  0.21434820987E+04  0.20605929158E+04 0.  0.
        4    1    3    3  502    0  0.23457514024E+03 -0.34596083224E+01  0.13387442128E+04  0.13591450053E+04  0.12699999809E+01 0. -1.
       -4    1    3    3    0  502 -0.23457514024E+03  0.34596083224E+01 -0.74842875265E+03  0.78433709335E+03  0.12699999809E+01 0.  1.
</event>
<event>
 5   0  0.5059249E-06  0.2614711E+04  0.7818609E-02  0.8363221E-01
       -1   -1    0    0    0  501  0.00000000000E+00  0.00000000000E+00  0.91105165834E+03  0.91105165835E+03  0.50400001928E-02 0.  1.
        1   -1    0    0  501    0  0.00000000000E+00  0.00000000000E+00 -0.18760505854E+04  0.18760505855E+04  0.50400001928E-02 0. -1.
    10030    2    1    2    0    0  0.00000000000E+00  0.00000000000E+00 -0.96499892711E+03  0.27871022438E+04  0.26147114541E+04 0.  0.
        1    1    3    3  502    0 -0.16520332746E+03  0.71136082016E+02 -0.18627985418E+04  0.18714622328E+04  0.50400001928E-02 0. -1.
       -1    1    3    3    0  502  0.16520332746E+03 -0.71136082016E+02  0.89779961468E+03  0.91564001098E+03  0.50400001928E-02 0.  1.
</event>
<event>
 5   0  0.5154476E-06  0.2895452E+04  0.7818609E-02  0.8274232E-01
       -1   -1    0    0    0  501  0.00000000000E+00  0.00000000000E+00  0.16968012403E+04  0.16968012403E+04  0.50400001928E-02 0. -1.
        1   -1    0    0  501    0  0.00000000000E+00  0.00000000000E+00 -0.12352125568E+04  0.12352125569E+04  0.50400001928E-02 0.  1.
    10030    2    1    2    0    0  0.00000000000E+00  0.00000000000E+00  0.46158868347E+03  0.29320137972E+04  0.28954517427E+04 0.  0.
        3    1    3    3  502    0  0.38384202663E+03  0.10612707862E+03  0.16402438493E+04  0.16878973765E+04  0.10100000352E+00 0. -1.
       -3    1    3    3    0  502 -0.38384202663E+03 -0.10612707862E+03 -0.11786551658E+04  0.12441164207E+04  0.10100000352E+00 0.  1.
</event>
<event>
 5   0  0.5002240E-06  0.2336951E+04  0.7818609E-02  0.8463493E-01
        1   -1    0    0  501    0  0.00000000000E+00  0.00000000000E+00  0.14227551874E+04  0.14227551874E+04  0.50400001928E-02 0. -1.
       -1   -1    0    0    0  501  0.00000000000E+00  0.00000000000E+00 -0.95964171614E+03  0.95964171615E+03  0.50400001928E-02 0.  1.
    10030    2    1    2    0    0  0.00000000000E+00  0.00000000000E+00  0.46311347127E+03  0.23823969036E+04  0.23369512016E+04 0.  0.
        4    1    3    3  502    0 -0.70220813800E+03 -0.12884078703E+03  0.11745516522E+04  0.13745069713E+04  0.12699999809E+01 0. -1.
       -4    1    3    3    0  502  0.70220813800E+03  0.12884078703E+03 -0.71143818092E+03  0.10078899323E+04  0.12699999809E+01 0.  1.
</event>
<event>
 5   0  0.1385669E-05  0.2989177E+04  0.7818609E-02  0.8246828E-01
       -2   -1    0    0    0  501  0.00000000000E+00  0.00000000000E+00  0.14271373865E+04  0.14271373865E+04  0.25500000920E-02 0.  1.
        2   -1    0    0  501    0  0.00000000000E+00  0.00000000000E+00 -0.15652271444E+04  0.15652271444E+04  0.25500000920E-02 0. -1.
    10030    2    1    2    0    0  0.00000000000E+00  0.00000000000E+00 -0.13808975794E+03  0.29923645309E+04  0.29891765931E+04 0.  0.
        3    1    3    3  502    0  0.70514824576E+03 -0.17215097110E+03 -0.13769313227E+04  0.15565377872E+04  0.10100000352E+00 0. -1.
       -3    1    3    3    0  502 -0.70514824576E+03  0.17215097110E+03  0.12388415647E+04  0.14358267437E+04  0.10100000352E+00 0.  1.
</event>
<event>
 5   0  0.5352212E-06  0.2840888E+04  0.7818609E-02  0.8290686E-01
       -1   -1    0    0    0  501  0.00000000000E+00  0.00000000000E+00  0.12231668349E+04  0.12231668349E+04  0.50400001928E-02 0. -1.
        1   -1    0    0  501    0  0.00000000000E+00  0.00000000000E+00 -0.16495383118E+04  0.16495383118E+04  0.50400001928E-02 0.  1.
    10030    2    1    2    0    0  0.00000000000E+00  0.00000000000E+00 -0.42637147695E+03  0.28727051467E+04  0.28408875768E+04 0.  0.
        2    1    3    3  502    0 -0.95668584135E+03 -0.18467956319E+03  0.83197932090E+03  0.12812275093E+04  0.25500000920E-02 0. -1.
       -2    1    3    3    0  502  0.95668584135E+03  0.18467956319E+03 -0.12583507979E+04  0.15914776375E+04  0.25500000920E-02 0.  1.
</event>
<event>
 5   0  0.5154476E-06  0.2870186E+04  0.7818609E-02  0.8281804E-01
        1   -1    0    0  501    0  0.00000000000E+00  0.00000000000E+00  0.10764035365E+04  0.10764035365E+04  0.50400001928E-02 0. -1.
       -1   -1    0    0    0  501  0.00000000000E+00  0.00000000000E+00 -0.19133080608E+04  0.19133080608E+04  0.50400001928E-02 0.  1.
    10030    2    1    2    0    0  0.00000000000E+00  0.00000000000E+00 -0.83690452425E+03  0.29897115973E+04  0.28701857523E+04 0.  0.
        3    1    3    3  502    0 -0.14002832503E+03 -0.10288812043E+04 -0.14503040812E+04  0.17837001997E+04  0.10100000352E+00 0.  1.
       -3    1    3    3    0  502  0.14002832503E+03  0.10288812043E+04  0.61339955694E+03  0.12060113976E+04  0.10100000352E+00 0. -1.
</event>
<event>
 5   0  0.5352212E-06  0.2282371E+04  0.7818609E-02  0.8484905E-01
        1   -1    0    0  501    0  0.00000000000E+00  0.00000000000E+00  0.23454148386E+04  0.23454148386E+04  0.50400001928E-02 0.  1.
       -1   -1    0    0    0  501  0.00000000000E+00  0.00000000000E+00 -0.55525547345E+03  0.55525547347E+03  0.50400001928E-02 0. -1.
    10030    2    1    2    0    0  0.00000000000E+00  0.00000000000E+00  0.17901593652E+04  0.29006703121E+04  0.22823710712E+04 0.  0.
        2    1    3    3  502    0  0.83976916299E+03 -0.37277012866E+03  0.17552979628E+04  0.19812220355E+04  0.25500000920E-02 0.  1.
       -2    1    3    3    0  502 -0.83976916299E+03  0.37277012866E+03  0.34861402417E+02  0.91944827659E+03  0.25500000920E-02 0. -1.
</event>
<event>
 5   0  0.1336899E-05  0.2852284E+04  0.7818609E-02  0.8287218E-01
       -2   -1    0    0    0  501  0.00000000000E+00  0.00000000000E+00  0.11572564817E+04  0.11572564817E+04  0.25500000920E-02 0.  1.
        2   -1    0    0  501    0  0.00000000000E+00  0.00000000000E+00 -0.17575027987E+04  0.17575027987E+04  0.25500000920E-02 0. -1.
    10030    2    1    2    0    0  0.00000000000E+00  0.00000000000E+00 -0.60024631697E+03  0.29147592804E+04  0.28522843514E+04 0.  0.
        1    1    3    3  502    0  0.13270616675E+03 -0.17213990866E+03 -0.17404773165E+04  0.17539966831E+04  0.50400001928E-02 0. -1.
       -1    1    3    3    0  502 -0.13270616675E+03  0.17213990866E+03  0.11402309996E+04  0.11607625973E+04  0.50400001928E-02 0.  1.
</event>
<event>
 5   0  0.5059249E-06  0.3015093E+04  0.7818609E-02  0.8239434E-01
       -1   -1    0    0    0  501  0.00000000000E+00  0.00000000000E+00  0.12571964552E+04  0.12571964552E+04  0.50400001928E-02 0.  1.
        1   -1    0    0  501    0  0.00000000000E+00  0.00000000000E+00 -0.18077502035E+04  0.18077502035E+04  0.50400001928E-02 0. -1.
    10030    2    1    2    0    0  0.00000000000E+00  0.00000000000E+00 -0.55055374833E+03  0.30649466587E+04  0.30150934630E+04 0.  0.
        1    1    3    3  502    0  0.11361233192E+04  0.30094504071E+03 -0.12350023317E+04  0.17048679929E+04  0.50400001928E-02 0. -1.
       -1    1    3    3    0  502 -0.11361233192E+04 -0.30094504071E+03  0.68444858337E+03  0.13600786658E+04  0.50400001928E-02 0.  1.
</event>
<event>
 5   0  0.1382803E-05  0.2911242E+04  0.7818609E-02  0.8269541E-01
        2   -1    0    0  501    0  0.00000000000E+00  0.00000000000E+00  0.26974575523E+04  0.26974575523E+04  0.25500000920E-02 0.  1.
       -2   -1    0    0    0  501  0.00000000000E+00  0.00000000000E+00 -0.78549229883E+03  0.78549229884E+03  0.25500000920E-02 0. -1.
    10030    2    1    2    0    0  0.00000000000E+00  0.00000000000E+00  0.19119652535E+04  0.34829498511E+04  0.29112417514E+04 0.  0.
        2    1    3    3  502    0 -0.38484533952E+03 -0.37153125288E+03 -0.66363890394E+03  0.85238371761E+03  0.25500000920E-02 0. -1.
       -2    1    3    3    0  502  0.38484533952E+03  0.37153125288E+03  0.25756041574E+04  0.26305661335E+04  0.25500000920E-02 0.  1.
</event>
<event>
 5   0  0.5261878E-06  0.2362839E+04  0.7818609E-02  0.8453548E-01
       -1   -1    0    0    0  501  0.00000000000E+00  0.00000000000E+00  0.82786125355E+03  0.82786125356E+03  0.50400001928E-02 0.  1.
        1   -1    0    0  501    0  0.00000000000E+00  0.00000000000E+00 -0.16859736358E+04  0.16859736358E+04  0.50400001928E-02 0. -1.
    10030    2    1    2    0    0  0.00000000000E+00  0.00000000000E+00 -0.85811238222E+03  0.25138348893E+04  0.23628391800E+04 0.  0.
        5    1    3    3  502    0  0.22278194147E+02 -0.96080261352E+03  0.30194147107E+03  0.10073870766E+04  0.46999998093E+01 0.  1.
       -5    1    3    3    0  502 -0.22278194147E+02  0.96080261352E+03 -0.11600538533E+04  0.15064478128E+04  0.46999998093E+01 0. -1.
</event>
<event>
 5   0  0.5002240E-06  0.2892541E+04  0.7818609E-02  0.8275100E-01
        1   -1    0    0  501    0  0.00000000000E+00  0.00000000000E+00  0.19987850738E+04  0.19987850738E+04  0.50400001928E-02 0.  1.
       -1   -1    0    0    0  501  0.00000000000E+00  0.00000000000E+00 -0.10464847547E+04  0.10464847547E+04  0.50400001928E-02 0. -1.
    10030    2    1    2    0    0  0.00000000000E+00  0.00000000000E+00  0.95230031916E+03  0.30452698285E+04  0.28925408261E+04 0.  0.
        4    1    3    3  502    0 -0.17841381736E+03  0.14189101081E+04  0.70331892404E+03  0.15936739023E+04  0.12699999809E+01 0.  1.
       -4    1    3    3    0  502  0.17841381736E+03 -0.14189101081E+04  0.24898139512E+03  0.14515959262E+04  0.12699999809E+01 0. -1.
</event>
<event>
 5   0  0.5154476E-06  0.2874649E+04  0.7818609E-02  0.8280460E-01
        1   -1    0    0  501    0  0.00000000000E+00  0.00000000000E+00  0.22974502421E+04  0.22974502421E+04  0.50400001928E-02 0.  1.
       -1   -1    0    0    0  501  0.00000000000E+00  0.00000000000E+00 -0.89921521121E+03  0.89921521122E+03  0.50400001928E-02 0. -1.
    10030    2    1    2    0    0  0.00000000000E+00  0.00000000000E+00  0.13982350309E+04  0.31966654533E+04  0.28746493384E+04 0.  0.
        3    1    3    3  502    0 -0.63872352861E+03 -0.85786178297E+03  0.17668920648E+04  0.20653818445E+04  0.10100000352E+00 0. -1.
       -3    1    3    3    0  502  0.63872352861E+03  0.85786178297E+03 -0.36865703395E+03  0.11312836088E+04  0.10100000352E+00 0.  1.
</event>
<event>
 5   0  0.4590125E-06  0.2822959E+04  0.7818609E-02  0.8296176E-01
       -3   -1    0    0    0  501  0.00000000000E+00  0.00000000000E+00  0.87237158475E+03  0.87237159060E+03  0.10100000352E+00 0.  1.
        3   -1    0    0  501    0  0.00000000000E+00  0.00000000000E+00 -0.22837458679E+04  0.22837458701E+04  0.10100000352E+00 0. -1.
    10030    2    1    2    0    0  0.00000000000E+00  0.00000000000E+00 -0.14113742831E+04  0.31561174607E+04  0.28229594504E+04 0.  0.
        3    1    3    3  502    0 -0.13210545802E+04 -0.45701379074E+03 -0.92428223933E+03  0.16758115876E+04  0.10100000352E+00 0.  1.
       -3    1    3    3    0  502  0.13210545802E+04  0.45701379074E+03 -0.48709204382E+03  0.14803058732E+04  0.10100000352E+00 0. -1.
</event>
<event>
 5   0  0.1385669E-05  0.2563661E+04  0.7818609E-02  0.8380650E-01
        2   -1    0    0  501    0  0.00000000000E+00  0.00000000000E+00  0.10782003489E+04  0.10782003489E+04  0.25500000920E-02 0.  1.
       -2   -1    0    0    0  501  0.00000000000E+00  0.00000000000E+00 -0.15239188049E+04  0.15239188049E+04  0.25500000920E-02 0. -1.
    10030    2    1    2    0    0  0.00000000000E+00  0.00000000000E+00 -0.44571845602E+03  0.26021191539E+04  0.25636612781E+04 0.  0.
        3    1    3    3  502    0  0.10208309196E+04  0.42426276107E+03 -0.88143396435E+03  0.14138672146E+04  0.10100000352E+00 0. -1.
       -3    1    3    3    0  502 -0.10208309196E+04 -0.42426276107E+03  0.43571550833E+03  0.11882519393E+04  0.10100000352E+00 0.  1.
</event>
<event>
 5   0  0.1307832E-05  0.2868514E+04  0.7818609E-02  0.8282308E-01
       -2   -1    0    0    0  501  0.00000000000E+00  0.00000000000E+00  0.11739597068E+04  0.11739597068E+04  0.25500000920E-02 0.  1.
        2   -1    0    0  501    0  0.00000000000E+00  0.00000000000E+00 -0.17522690038E+04  0.17522690038E+04  0.25500000920E-02 0. -1.
    10030    2    1    2    0    0  0.00000000000E+00  0.00000000000E+00 -0.57830929707E+03  0.29262287106E+04  0.28685140446E+04 0.  0.
        4    1    3    3  502    0 -0.20015475886E+03  0.94532295908E+03  0.79207356360E+03  0.12494316978E+04  0.12699999809E+01 0.  1.
       -4    1    3    3    0  502  0.20015475886E+03 -0.94532295908E+03 -0.13703828607E+04  0.16767970128E+04  0.12699999809E+01 0. -1.
</event>
<event>
 5   0  0.5002240E-06  0.2904397E+04  0.7818609E-02  0.8271571E-01
        1   -1    0    0  501    0  0.00000000000E+00  0.00000000000E+00  0.31359349698E+04  0.31359349698E+04  0.50400001928E-02 0.  1.
       -1   -1    0    0    0  501  0.00000000000E+00  0.00000000000E+00 -0.67248844659E+03  0.67248844660E+03  0.50400001928E-02 0. -1.
    10030    2    1    2    0    0  0.00000000000E+00  0.00000000000E+00  0.24634465232E+04  0.38084234164E+04  0.29043966922E+04 0.  0.
        4    1    3    3  502    0  0.12295384854E+04  0.77268539890E+03  0.12206890982E+04  0.18970743528E+04  0.12699999809E+01 0.  1.
       -4    1    3    3    0  502 -0.12295384854E+04 -0.77268539890E+03  0.12427574250E+04  0.19113490636E+04  0.12699999809E+01 0. -1.
</event>
<event>
 5   0  0.5261878E-06  0.2939959E+04  0.7818609E-02  0.8261087E-01
       -1   -1    0    0    0  501  0.00000000000E+00  0.00000000000E+00  0.11447941479E+04  0.11447941480E+04  0.50400001928E-02 0.  1.
        1   -1    0    0  501    0  0.00000000000E+00  0.00000000000E+00 -0.18875357878E+04  0.18875357878E+04  0.50400001928E-02 0. -1.
    10030    2    1    2    0    0  0.00000000000E+00  0.00000000000E+00 -0.74274163983E+03  0.30323299357E+04  0.29399591316E+04 0.  0.
        5    1    3    3  502    0  0.10405003275E+03 -0.12664877786E+04  0.39076352568E+03  0.13294870912E+04  0.46999998093E+01 0.  1.
       -5    1    3    3    0  502 -0.10405003275E+03  0.12664877786E+04 -0.11335051655E+04  0.17028428445E+04  0.46999998093E+01 0. -1.
</event>
<event>
 5   0  0.1385669E-05  0.2550136E+04  0.7818609E-02  0.8385339E-01
        2   -1    0    0  501    0  0.00000000000E+00  0.00000000000E+00  0.12887469349E+04  0.12887469349E+04  0.25500000920E-02 0. -1.
       -2   -1    0    0    0  501  0.00000000000E+00  0.00000000000E+00 -0.12615338383E+04  0.12615338383E+04  0.25500000920E-02 0.  1.
    10030    2    1    2    0    0  0.00000000000E+00  0.00000000000E+00  0.27213096580E+02  0.25502807731E+04  0.25501355786E+04 0.  0.
        3    1    3    3  502    0 -0.63295930752E+03  0.74972181274E+03 -0.80073556885E+03  0.12664508450E+04  0.10100000352E+00 0.  1.
       -3    1    3    3    0  502  0.63295930752E+03 -0.74972181274E+03  0.82794866543E+03  0.12838299281E+04  0.10100000352E+00 0. -1.
</event>
<event>
 5   0  0.5002240E-06  0.2900207E+04  0.7818609E-02  0.8272816E-01
       -1   -1    0    0    0  501  0.00000000000E+00  0.00000000000E+00  0.85457566678E+03  0.85457566680E+03  0.50400001928E-02 0. -1.
        1   -1    0    0  501    0  0.00000000000E+00  0.00000000000E+00 -0.24606361842E+04  0.24606361842E+04  0.50400001928E-02 0.  1.
    10030    2    1    2    0    0  0.00000000000E+00  0.00000000000E+00 -0.16060605174E+04  0.33152118510E+04  0.29002067566E+04 0.  0.
        4    1    3    3  502    0 -0.12629418424E+04 -0.51867851173E+03 -0.13615683972E+04  0.19281907605E+04  0.12699999809E+01 0.  1.
       -4    1    3    3    0  502  0.12629418424E+04  0.51867851173E+03 -0.24449212022E+03  0.13870210905E+04  0.12699999809E+01 0. -1.
</event>
<event>
 5   0  0.1385669E-05  0.2712783E+04  0.7818609E-02  0.8330869E-01
        2   -1    0    0  501    0  0.00000000000E+00  0.00000000000E+00  0.15061687010E+04  0.15061687010E+04  0.25500000920E-02 0. -1.
       -2   -1    0    0    0  501  0.00000000000E+00  0.00000000000E+00 -0.12215085511E+04  0.12215085512E+04  0.25500000920E-02 0.  1.
    10030    2    1    2    0    0  0.00000000000E+00  0.00000000000E+00  0.28466014981E+03  0.27276772521E+04  0.27127830342E+04 0.  0.
        3    1    3    3  502    0 -0.32156402921E+03 -0.90948428384E+02 -0.11794683599E+04  0.12258958617E+04  0.10100000352E+00 0.  1.
       -3    1    3    3    0  502  0.32156402921E+03  0.90948428384E+02  0.14641285097E+04  0.15017813904E+04  0.10100000352E+00 0. -1.
</event>
<event>
 5   0  0.5261878E-06  0.2525428E+04  0.7818609E-02  0.8393982E-01
       -1   -1    0    0    0  501  0.00000000000E+00  0.00000000000E+00  0.14419179207E+04  0.14419179207E+04  0.50400001928E-02 0. -1.
        1   -1    0    0  501    0  0.00000000000E+00  0.00000000000E+00 -0.11057820064E+04  0.11057820064E+04  0.50400001928E-02 0.  1.
    10030    2    1    2    0    0  0.00000000000E+00  0.00000000000E+00  0.33613591430E+03  0.25476999271E+04  0.25254281945E+04 0.  0.
        5    1    3    3  502    0  0.61380884088E+03 -0.18279467998E+03 -0.92976148998E+03  0.11290056273E+04  0.46999998093E+01 0.  1.
       -5    1    3    3    0  502 -0.61380884088E+03  0.18279467998E+03  0.12658974043E+04  0.14186942998E+04  0.46999998093E+01 0. -1.
</event>
<event>
 5   0  0.5352212E-06  0.2939458E+04  0.7818609E-02  0.8261233E-01
        1   -1    0    0  501    0  0.00000000000E+00  0.00000000000E+00  0.15276118869E+04  0.15276118869E+04  0.50400001928E-02 0.  1.
       -1   -1    0    0    0  501  0.00000000000E+00  0.00000000000E+00 -0.14140398209E+04  0.14140398209E+04  0.50400001928E-02 0. -1.
    10030    2    1    2    0    0  0.00000000000E+00  0.00000000000E+00  0.11357206595E+03  0.29416517078E+04  0.29394584800E+04 0.  0.
        2    1    3    3  502    0 -0.79747730380E+03  0.38865596839E+03 -0.11158734631E+04  0.14255515064E+04  0.25500000920E-02 0. -1.
       -2    1    3    3    0  502  0.79747730380E+03 -0.38865596839E+03  0.12294455290E+04  0.15161002014E+04  0.25500000920E-02 0.  1.
</event>
<event>
 5   0  0.1339837E-05  0.2902780E+04  0.7818609E-02  0.8272051E-01
        2   -1    0    0  501    0  0.00000000000E+00  0.00000000000E+00  0.27865208194E+04  0.27865208194E+04  0.25500000920E-02 0.  1.
       -2   -1    0    0    0  501  0.00000000000E+00  0.00000000000E+00 -0.75597260427E+03  0.75597260427E+03  0.25500000920E-02 0. -1.
    10030    2    1    2    0    0  0.00000000000E+00  0.00000000000E+00  0.20305482151E+04  0.35424934237E+04  0.29027803229E+04 0.  0.
        5    1    3    3  502    0  0.92650901760E+02 -0.58213139567E+03 -0.60330523751E+03  0.84348115037E+03  0.46999998093E+01 0. -1.
       -5    1    3    3    0  502 -0.92650901760E+02  0.58213139567E+03  0.26338534526E+04  0.26990122733E+04  0.46999998093E+01 0.  1.
</event>
<event>
 5   0  0.5059249E-06  0.2875495E+04  0.7818609E-02  0.8280206E-01
        1   -1    0    0  501    0  0.00000000000E+00  0.00000000000E+00  0.98025037891E+03  0.98025037893E+03  0.50400001928E-02 0. -1.
       -1   -1    0    0    0  501  0.00000000000E+00  0.00000000000E+00 -0.21087654017E+04  0.21087654017E+04  0.50400001928E-02 0.  1.
    10030    2    1    2    0    0  0.00000000000E+00  0.00000000000E+00 -0.11285150228E+04  0.30890157806E+04  0.28754951463E+04 0.  0.
        1    1    3    3  502    0  0.61666194964E+03  0.12538307699E+04 -0.20034884643E+03  0.14115605619E+04  0.50400001928E-02 0. -1.
       -1    1    3    3    0  502 -0.61666194964E+03 -0.12538307699E+04 -0.92816617635E+03  0.16774552187E+04  0.50400001928E-02 0.  1.
</event>
<event>
 5   0  0.5059249E-06  0.2713625E+04  0.7818609E-02  0.8330598E-01
       -1   -1    0    0    0  501  0.00000000000E+00  0.00000000000E+00  0.13478714900E+04  0.13478714900E+04  0.50400001928E-02 0.  1.
        1   -1    0    0  501    0  0.00000000000E+00  0.00000000000E+00 -0.13658126073E+04  0.13658126073E+04  0.50400001928E-02 0. -1.
    10030    2    1    2    0    0  0.00000000000E+00  0.00000000000E+00 -0.17941117312E+02  0.27136840973E+04  0.27136247892E+04 0.  0.
        1    1    3    3  502    0 -0.57195538971E+03  0.11235388056E+03  0.12162841623E+04  0.13487414600E+04  0.50400001928E-02 0.  1.
       -1    1    3    3    0  502  0.57195538971E+03 -0.11235388056E+03 -0.12342252797E+04  0.13649426373E+04  0.50400001928E-02 0. -1.
</event>
<event>
 5   0  0.1385669E-05  0.2274969E+04  0.7818609E-02  0.8487856E-01
        2   -1    0    0  501    0  0.00000000000E+00  0.00000000000E+00  0.16191693758E+04  0.16191693758E+04  0.25500000920E-02 0.  1.
       -2   -1    0    0    0  501  0.00000000000E+00  0.00000000000E+00 -0.79909556802E+03  0.79909556802E+03  0.25500000920E-02 0. -1.
    10030    2    1    2    0    0  0.00000000000E+00  0.00000000000E+00  0.82007380774E+03  0.24182649438E+04  0.22749690741E+04 0.  0.
        3    1    3    3  502    0  0.91130374987E+03 -0.27938091351E+03  0.10698972512E+04  0.14329020754E+04  0.10100000352E+00 0.  1.
       -3    1    3    3    0  502 -0.91130374987E+03  0.27938091351E+03 -0.24982344342E+03  0.98536286841E+03  0.10100000352E+00 0. -1.
</event>
<event>
 5   0  0.5002240E-06  0.2675919E+04  0.7818609E-02  0.8342861E-01
       -1   -1    0    0    0  501  0.00000000000E+00  0.00000000000E+00  0.15688251596E+04  0.15688251596E+04  0.50400001928E-02 0. -1.
        1   -1    0    0  501    0  0.00000000000E+00  0.00000000000E+00 -0.11410678889E+04  0.11410678889E+04  0.50400001928E-02 0.  1.
    10030    2    1    2    0    0  0.00000000000E+00  0.00000000000E+00  0.42775727064E+03  0.27098930485E+04  0.26759192910E+04 0.  0.
        4    1    3    3  502    0 -0.12594025649E+04  0.44729165951E+03  0.27768452526E+03  0.13650182994E+04  0.12699999809E+01 0. -1.
       -4    1    3    3    0  502  0.12594025649E+04 -0.44729165951E+03  0.15007274538E+03  0.13448747492E+04  0.12699999809E+01 0.  1.
</event>
<event>
 5   0  0.5059249E-06  0.2881854E+04  0.7818609E-02  0.8278297E-01
       -1   -1    0    0    0  501  0.00000000000E+00  0.00000000000E+00  0.11348159118E+04  0.11348159118E+04  0.50400001928E-02 0. -1.
        1   -1    0    0  501    0  0.00000000000E+00  0.00000000000E+00 -0.18296102128E+04  0.18296102128E+04  0.50400001928E-02 0.  1.
    10030    2    1    2    0    0  0.00000000000E+00  0.00000000000E+00 -0.69479430094E+03  0.29644261246E+04  0.28818541128E+04 0.  0.
        1    1    3    3  502    0 -0.88922579322E+03 -0.50146837577E+03  0.69863548512E+03  0.12370467187E+04  0.50400001928E-02 0. -1.
       -1    1    3    3    0  502  0.88922579322E+03  0.50146837577E+03 -0.13934297861E+04  0.17273794059E+04  0.50400001928E-02 0.  1.
</event>
<event>
 5   0  0.1339837E-05  0.2919100E+04  0.7818609E-02  0.8267217E-01
       -2   -1    0    0    0  501  0.00000000000E+00  0.00000000000E+00  0.13101963544E+04  0.13101963545E+04  0.25500000920E-02 0. -1.
        2   -1    0    0  501    0  0.00000000000E+00  0.00000000000E+00 -0.16259295094E+04  0.16259295094E+04  0.25500000920E-02 0.  1.
    10030    2    1    2    0    0  0.00000000000E+00  0.00000000000E+00 -0.31573315496E+03  0.29361258639E+04  0.29191004887E+04 0.  0.
        5    1    3    3  502    0 -0.78603512381E+03 -0.95954939094E+03  0.61582620464E+03  0.13848647060E+04  0.46999998093E+01 0. -1.
       -5    1    3    3    0  502  0.78603512381E+03  0.95954939094E+03 -0.93155935960E+03  0.15512611579E+04  0.46999998093E+01 0.  1.
</event>
<event>
 5   0  0.5261878E-06  0.2940097E+04  0.7818609E-02  0.8261046E-01
        1   -1    0    0  501    0  0.00000000000E+00  0.00000000000E+00  0.21323755027E+04  0.21323755027E+04  0.50400001928E-02 0. -1.
       -1   -1    0    0    0  501  0.00000000000E+00  0.00000000000E+00 -0.10134437462E+04  0.10134437462E+04  0.50400001928E-02 0.  1.
    10030    2    1    2    0    0  0.00000000000E+00  0.00000000000E+00  0.11189317565E+04  0.31458192489E+04  0.29400970173E+04 0.  0.
        5    1    3    3  502    0  0.36673492760E+03 -0.41882528658E+03  0.20152211842E+04  0.20907050579E+04  0.46999998093E+01 0. -1.
       -5    1    3    3    0  502 -0.36673492760E+03  0.41882528658E+03 -0.89628942773E+03  0.10551141910E+04  0.46999998093E+01 0.  1.
</event>
<event>
 5   0  0.1385669E-05  0.2912822E+04  0.7818609E-02  0.8269073E-01
        2   -1    0    0  501    0  0.00000000000E+00  0.00000000000E+00  0.15413589795E+04  0.15413589795E+04  0.25500000920E-02 0.  1.
       -2   -1    0    0    0  501  0.00000000000E+00  0.00000000000E+00 -0.13761451184E+04  0.13761451184E+04  0.25500000920E-02 0. -1.
    10030    2    1    2    0    0  0.00000000000E+00  0.00000000000E+00  0.16521386109E+03  0.29175040980E+04  0.29128224357E+04 0.  0.
        3    1    3    3  502    0 -0.64923682774E+03 -0.46225858894E+03 -0.11383445805E+04  0.13896114046E+04  0.10100000352E+00 0. -1.
       -3    1    3    3    0  502  0.64923682774E+03  0.46225858894E+03  0.13035584416E+04  0.15278926934E+04  0.10100000352E+00 0.  1.
</event>
<event>
 5   0  0.5352212E-06  0.2964750E+04  0.7818609E-02  0.8253869E-01
       -1   -1    0    0    0  501  0.00000000000E+00  0.00000000000E+00  0.12424926358E+04  0.12424926358E+04  0.50400001928E-02 0.  1.
        1   -1    0    0  501    0  0.00000000000E+00  0.00000000000E+00 -0.17685699805E+04  0.17685699805E+04  0.50400001928E-02 0. -1.
    10030    2    1    2    0    0  0.00000000000E+00  0.00000000000E+00 -0.52607734467E+03  0.30110626163E+04  0.29647496870E+04 0.  0.
        2    1    3    3  502    0 -0.73053136551E+02 -0.60346184626E+03  0.11100917795E+04  0.12656250312E+04  0.25500000920E-02 0.  1.
       -2    1    3    3    0  502  0.73053136551E+02  0.60346184626E+03 -0.16361691241E+04  0.17454375851E+04  0.25500000920E-02 0. -1.
</event>
<event>
 5   0  0.5002240E-06  0.2893501E+04  0.7818609E-02  0.8274814E-01
       -1   -1    0    0    0  501  0.00000000000E+00  0.00000000000E+00  0.12012677293E+04  0.12012677293E+04  0.50400001928E-02 0.  1.
        1   -1    0    0  501    0  0.00000000000E+00  0.00000000000E+00 -0.17423982471E+04  0.17423982471E+04  0.50400001928E-02 0. -1.
    10030    2    1    2    0    0  0.00000000000E+00  0.00000000000E+00 -0.54113051776E+03  0.29436659764E+04  0.28935008456E+04 0.  0.
        4    1    3    3  502    0 -0.78055257788E+03 -0.11959152406E+04 -0.35013619425E+02  0.14285318183E+04  0.12699999809E+01 0.  1.
       -4    1    3    3    0  502  0.78055257788E+03  0.11959152406E+04 -0.50611689833E+03  0.15151341581E+04  0.12699999809E+01 0. -1.
</event>
<event>
 5   0  0.5059249E-06  0.2851501E+04  0.7818609E-02  0.8287455E-01
       -1   -1    0    0    0  501  0.00000000000E+00  0.00000000000E+00  0.14988368376E+04  0.14988368376E+04  0.50400001928E-02 0. -1.
        1   -1    0    0  501    0  0.00000000000E+00  0.00000000000E+00 -0.13562280046E+04  0.13562280046E+04  0.50400001928E-02 0.  1.
    10030    2    1    2    0    0  0.00000000000E+00  0.00000000000E+00  0.14260883306E+03  0.28550648422E+04  0.28515010037E+04 0.  0.
        1    1    3    3  502    0 -0.90286531713E+03 -0.10963662410E+04  0.19627939879E+03  0.14337748490E+04  0.50400001928E-02 0. -1.
       -1    1    3    3    0  502  0.90286531713E+03  0.10963662410E+04 -0.53670565734E+02  0.14212899932E+04  0.50400001928E-02 0.  1.
</event>
<event>
 5   0  0.5002240E-06  0.2950970E+04  0.7818609E-02  0.8257872E-01
        1   -1    0    0  501    0  0.00000000000E+00  0.00000000000E+00  0.20332676374E+04  0.20332676374E+04  0.50400001928E-02 0. -1.
       -1   -1    0    0    0  501  0.00000000000E+00  0.00000000000E+00 -0.10707176427E+04  0.10707176427E+04  0.50400001928E-02 0.  1.
    10030    2    1    2    0    0  0.00000000000E+00  0.00000000000E+00  0.96254999469E+03  0.31039852801E+04  0.29509696926E+04 0.  0.
        4    1    3    3  502    0  0.62257835962E+03 -0.91163144885E+03  0.15110050042E+04  0.18713132950E+04  0.12699999809E+01 0. -1.
       -4    1    3    3    0  502 -0.62257835962E+03  0.91163144885E+03 -0.54845500951E+03  0.12326719851E+04  0.12699999809E+01 0.  1.
</event>
<event>
 5   0  0.1382803E-05  0.2684933E+04  0.7818609E-02  0.8339910E-01
        2   -1    0    0  501    0  0.00000000000E+00  0.00000000000E+00  0.17139737680E+04  0.17139737680E+04  0.25500000920E-02 0. -1.
       -2   -1    0    0    0  501  0.00000000000E+00  0.00000000000E+00 -0.10514843246E+04  0.10514843246E+04  0.25500000920E-02 0.  1.
    10030    2    1    2    0    0  0.00000000000E+00  0.00000000000E+00  0.66248944341E+03  0.27654580926E+04  0.26849331834E+04 0.  0.
        2    1    3    3  502    0  0.83098534137E+03  0.30132079845E+03  0.13719365802E+04  0.16320357966E+04  0.25500000920E-02 0. -1.
       -2    1    3    3    0  502 -0.83098534137E+03 -0.30132079845E+03 -0.70944713683E+03  0.11334222960E+04  0.25500000920E-02 0.  1.
</event>
<event>
 5   0  0.1336899E-05  0.2831042E+04  0.7818609E-02  0.8293695E-01
       -2   -1    0    0    0  501  0.00000000000E+00  0.00000000000E+00  0.10072751304E+04  0.10072751304E+04  0.25500000920E-02 0. -1.
        2   -1    0    0  501    0  0.00000000000E+00  0.00000000000E+00 -0.19892277590E+04  0.19892277590E+04  0.25500000920E-02 0.  1.
    10030    2    1    2    0    0  0.00000000000E+00  0.00000000000E+00 -0.98195262856E+03  0.29965028894E+04  0.28310419639E+04 0.  0.
        1    1    3    3  502    0 -0.22417437635E+03  0.94101182216E+03  0.60283466444E+03  0.11398100864E+04  0.50400001928E-02 0. -1.
       -1    1    3    3    0  502  0.22417437635E+03 -0.94101182216E+03 -0.15847872930E+04  0.18566928030E+04  0.50400001928E-02 0.  1.
</event>
<event>
 5   0  0.1385669E-05  0.2820762E+04  0.7818609E-02  0.8296852E-01
       -2   -1    0    0    0  501  0.00000000000E+00  0.00000000000E+00  0.16577175771E+04  0.16577175771E+04  0.25500000920E-02 0. -1.
        2   -1    0    0  501    0  0.00000000000E+00  0.00000000000E+00 -0.11999476325E+04  0.11999476325E+04  0.25500000920E-02 0.  1.
    10030    2    1    2    0    0  0.00000000000E+00  0.00000000000E+00  0.45776994459E+03  0.28576652095E+04  0.28207617992E+04 0.  0.
        3    1    3    3  502    0 -0.75949221654E+03 -0.22501739338E+03  0.14110761899E+04  0.16182080454E+04  0.10100000352E+00 0. -1.
       -3    1    3    3    0  502  0.75949221654E+03  0.22501739338E+03 -0.95330624529E+03  0.12394571642E+04  0.10100000352E+00 0.  1.
</event>
<event>
 5   0  0.1336899E-05  0.2886196E+04  0.7818609E-02  0.8276996E-01
        2   -1    0    0  501    0  0.00000000000E+00  0.00000000000E+00  0.22122541068E+04  0.22122541068E+04  0.25500000920E-02 0. -1.
       -2   -1    0    0    0  501  0.00000000000E+00  0.00000000000E+00 -0.94136208044E+03  0.94136208044E+03  0.25500000920E-02 0.  1.
    10030    2    1    2    0    0  0.00000000000E+00  0.00000000000E+00  0.12708920263E+04  0.31536161872E+04  0.28861962015E+04 0.  0.
        1    1    3    3  502    0 -0.42396499685E+02 -0.13866904149E+04  0.10695262381E+04  0.17517403187E+04  0.50400001928E-02 0. -1.
       -1    1    3    3    0  502  0.42396499685E+02  0.13866904149E+04  0.20136578821E+03  0.14018758685E+04  0.50400001928E-02 0.  1.
</event>
<event>
 5   0  0.1307832E-05  0.2883170E+04  0.7818609E-02  0.8277902E-01
       -2   -1    0    0    0  501  0.00000000000E+00  0.00000000000E+00  0.10594082852E+04  0.10594082852E+04  0.25500000920E-02 0. -1.
        2   -1    0    0  501    0  0.00000000000E+00  0.00000000000E+00 -0.19616307857E+04  0.19616307858E+04  0.25500000920E-02 0.  1.
    10030    2    1    2    0    0  0.00000000000E+00  0.00000000000E+00 -0.90222250051E+03  0.30210390710E+04  0.28831704126E+04 0.  0.
        4    1    3    3  502    0 -0.94103373109E+03  0.94909386600E+03 -0.10171685633E+04  0.16795705250E+04  0.12699999809E+01 0.  1.
       -4    1    3    3    0  502  0.94103373109E+03 -0.94909386600E+03  0.11494606277E+03  0.13414685460E+04  0.12699999809E+01 0. -1.
</event>
<event>
 5   0  0.5154476E-06  0.2885673E+04  0.7818609E-02  0.8277153E-01
       -1   -1    0    0    0  501  0.00000000000E+00  0.00000000000E+00  0.11447061914E+04  0.11447061914E+04  0.50400001928E-02 0. -1.
        1   -1    0    0  501    0  0.00000000000E+00  0.00000000000E+00 -0.18186127598E+04  0.18186127598E+04  0.50400001928E-02 0.  1.
    10030    2    1    2    0    0  0.00000000000E+00  0.00000000000E+00 -0.67390656841E+03  0.29633189513E+04  0.28856730834E+04 0.  0.
        3    1    3    3  502    0 -0.81210467846E+03  0.91478847274E+03 -0.11226718585E+04  0.16603445638E+04  0.10100000352E+00 0.  1.
       -3    1    3    3    0  502  0.81210467846E+03 -0.91478847274E+03  0.44876529005E+03  0.13029743875E+04  0.10100000352E+00 0. -1.
</event>
<event>
 5   0  0.5059249E-06  0.2911402E+04  0.7818609E-02  0.8269493E-01
        1   -1    0    0  501    0  0.00000000000E+00  0.00000000000E+00  0.17591722180E+04  0.17591722180E+04  0.50400001928E-02 0. -1.
       -1   -1    0    0    0  501  0.00000000000E+00  0.00000000000E+00 -0.12045809952E+04  0.12045809952E+04  0.50400001928E-02 0.  1.
    10030    2    1    2    0    0  0.00000000000E+00  0.00000000000E+00  0.55459122282E+03  0.29637532132E+04  0.29114020135E+04 0.  0.
        1    1    3    3  502    0 -0.83224826736E+03 -0.25346527979E+03  0.14654084328E+04  0.17042017784E+04  0.50400001928E-02 0. -1.
       -1    1    3    3    0  502  0.83224826736E+03  0.25346527979E+03 -0.91081721002E+03  0.12595514347E+04  0.50400001928E-02 0.  1.
</event>
<event>
 5   0  0.5261878E-06  0.2845454E+04  0.7818609E-02  0.8289294E-01
        1   -1    0    0  501    0  0.00000000000E+00  0.00000000000E+00  0.13038456551E+04  0.13038456551E+04  0.50400001928E-02 0. -1.
       -1   -1    0    0    0  501  0.00000000000E+00  0.00000000000E+00 -0.15524481613E+04  0.15524481613E+04  0.50400001928E-02 0.  1.
    10030    2    1    2    0    0  0.00000000000E+00  0.00000000000E+00 -0.24860250623E+03  0.28562938164E+04  0.28454544733E+04 0.  0.
        5    1    3    3  502    0  0.10234312050E+04  0.24474231093E+03  0.83685365700E+03  0.13444911169E+04  0.46999998093E+01 0. -1.
       -5    1    3    3    0  502 -0.10234312050E+04 -0.24474231093E+03 -0.10854561632E+04  0.15118026996E+04  0.46999998093E+01 0.  1.
</event>
<event>
 5   0  0.5059249E-06  0.2857906E+04  0.7818609E-02  0.8285513E-01
       -1   -1    0    0    0  501  0.00000000000E+00  0.00000000000E+00  0.81786926120E+03  0.81786926122E+03  0.50400001928E-02 0. -1.
        1   -1    0    0  501    0  0.00000000000E+00  0.00000000000E+00 -0.24966170054E+04  0.24966170054E+04  0.50400001928E-02 0.  1.
    10030    2    1    2    0    0  0.00000000000E+00  0.00000000000E+00 -0.16787477442E+04  0.33144862666E+04  0.28579057407E+04 0.  0.
        1    1    3    3  502    0 -0.91932193161E+03 -0.71210995871E+03 -0.18025009786E+04  0.21450555203E+04  0.50400001928E-02 0.  1.
       -1    1    3    3    0  502  0.91932193161E+03  0.71210995871E+03  0.12375323447E+03  0.11694307463E+04  0.50400001928E-02 0. -1.
</event>
<event>
 5   0  0.5002240E-06  0.2871615E+04  0.7818609E-02  0.8281373E-01
       -1   -1    0    0    0  501  0.00000000000E+00  0.00000000000E+00  0.14939489863E+04  0.14939489863E+04  0.50400001928E-02 0.  1.
        1   -1    0    0  501    0  0.00000000000E+00  0.00000000000E+00 -0.13799284691E+04  0.13799284691E+04  0.50400001928E-02 0. -1.
    10030    2    1    2    0    0  0.00000000000E+00  0.00000000000E+00  0.11402051713E+03  0.28738774554E+04  0.28716146939E+04 0.  0.
        4    1    3    3  502    0 -0.44611873589E+03 -0.13610717784E+04 -0.43082610280E+02  0.14329675630E+04  0.12699999809E+01 0.  1.
       -4    1    3    3    0  502  0.44611873589E+03  0.13610717784E+04  0.15710312741E+03  0.14409098924E+04  0.12699999809E+01 0. -1.
</event>
<event>
 5   0  0.5154476E-06  0.2937387E+04  0.7818609E-02  0.8261840E-01
        1   -1    0    0  501    0  0.00000000000E+00  0.00000000000E+00  0.21938554283E+04  0.21938554283E+04  0.50400001928E-02 0. -1.
       -1   -1    0    0    0  501  0.00000000000E+00  0.00000000000E+00 -0.98322815711E+03  0.98322815712E+03  0.50400001928E-02 0.  1.
    10030    2    1    2    0    0  0.00000000000E+00  0.00000000000E+00  0.12106272712E+04  0.31770835855E+04  0.29373868862E+04 0.  0.
        3    1    3    3  502    0 -0.97993528744E+03 -0.10932263095E+04  0.56146553462E+03  0.15718334798E+04  0.10100000352E+00 0. -1.
       -3    1    3    3    0  502  0.97993528744E+03  0.10932263095E+04  0.64916173661E+03  0.16052501057E+04  0.10100000352E+00 0.  1.
</event>
<event>
 5   0  0.1307832E-05  0.2891447E+04  0.7818609E-02  0.8275427E-01
       -2   -1    0    0    0  501  0.00000000000E+00  0.00000000000E+00  0.10802479334E+04  0.10802479334E+04  0.25500000920E-02 0. -1.
        2   -1    0    0  501    0  0.00000000000E+00  0.00000000000E+00 -0.19348487440E+04  0.19348487440E+04  0.25500000920E-02 0.  1.
    10030    2    1    2    0    0  0.00000000000E+00  0.00000000000E+00 -0.85460081066E+03  0.30150966774E+04  0.28914469438E+04 0.  0.
        4    1    3    3  502    0 -0.11364093896E+04  0.64067220925E+03  0.22242402615E+03  0.13233900562E+04  0.12699999809E+01 0. -1.
       -4    1    3    3    0  502  0.11364093896E+04 -0.64067220925E+03 -0.10770248368E+04  0.16917066213E+04  0.12699999809E+01 0.  1.
</event>
<event>
 5   0  0.5352212E-06  0.2859250E+04  0.7818609E-02  0.8285106E-01
        1   -1    0    0  501    0  0.00000000000E+00  0.00000000000E+00  0.18963332092E+04  0.18963332092E+04  0.50400001928E-02 0.  1.
       -1   -1    0    0    0  501  0.00000000000E+00  0.00000000000E+00 -0.10777785919E+04  0.10777785919E+04  0.50400001928E-02 0. -1.
    10030    2    1    2    0    0  0.00000000000E+00  0.00000000000E+00  0.81855461731E+03  0.29741118011E+04  0.28592497869E+04 0.  0.
        2    1    3    3  502    0  0.13899354266E+04 -0.24209724797E+03  0.16914446891E+03  0.14209649605E+04  0.25500000920E-02 0.  1.
       -2    1    3    3    0  502 -0.13899354266E+04  0.24209724797E+03  0.64941014840E+03  0.15531468406E+04  0.25500000920E-02 0. -1.
</event>
<event>
 5   0  0.5154476E-06  0.2868727E+04  0.7818609E-02  0.8282243E-01
       -1   -1    0    0    0  501  0.00000000000E+00  0.00000000000E+00  0.10838457325E+04  0.10838457326E+04  0.50400001928E-02 0.  1.
        1   -1    0    0  501    0  0.00000000000E+00  0.00000000000E+00 -0.18982398099E+04  0.18982398099E+04  0.50400001928E-02 0. -1.
    10030    2    1    2    0    0  0.00000000000E+00  0.00000000000E+00 -0.81439407733E+03  0.29820855424E+04  0.28687273257E+04 0.  0.
        3    1    3    3  502    0 -0.10709314977E+04 -0.94428463005E+03 -0.54984704859E+03  0.15299998439E+04  0.10100000352E+00 0.  1.
       -3    1    3    3    0  502  0.10709314977E+04  0.94428463005E+03 -0.26454702874E+03  0.14520856985E+04  0.10100000352E+00 0. -1.
</event>
<event>
 5   0  0.1339837E-05  0.2706134E+04  0.7818609E-02  0.8333017E-01
       -2   -1    0    0    0  501  0.00000000000E+00  0.00000000000E+00  0.13233109806E+04  0.13233109806E+04  0.25500000920E-02 0. -1.
        2   -1    0    0  501    0  0.00000000000E+00  0.00000000000E+00 -0.13834922221E+04  0.13834922221E+04  0.25500000920E-02 0.  1.
    10030    2    1    2    0    0  0.00000000000E+00  0.00000000000E+00 -0.60181241424E+02  0.27068032027E+04  0.27061341054E+04 0.  0.
        5    1    3    3  502    0 -0.97375755076E+03  0.68984179779E+03  0.60778398818E+03  0.13392195264E+04  0.46999998093E+01 0.  1.
       -5    1    3    3    0  502  0.97375755076E+03 -0.68984179779E+03 -0.66796522961E+03  0.13675836763E+04  0.46999998093E+01 0. -1.
</event>
<event>
 5   0  0.5352212E-06  0.2885275E+04  0.7818609E-02  0.8277272E-01
        1   -1    0    0  501    0  0.00000000000E+00  0.00000000000E+00  0.15218099016E+04  0.15218099016E+04  0.50400001928E-02 0.  1.
       -1   -1    0    0    0  501  0.00000000000E+00  0.00000000000E+00 -0.13675841581E+04  0.13675841581E+04  0.50400001928E-02 0. -1.
    10030    2    1    2    0    0  0.00000000000E+00  0.00000000000E+00  0.15422574353E+03  0.28893940597E+04  0.28852751086E+04 0.  0.
        2    1    3    3  502    0  0.13238028953E+04  0.50957418841E+03 -0.18609909194E+03  0.14306476963E+04  0.25500000920E-02 0. -1.
       -2    1    3    3    0  502 -0.13238028953E+04 -0.50957418841E+03  0.34032483547E+03  0.14587463634E+04  0.25500000920E-02 0.  1.
</event>
<event>
 5   0  0.5154476E-06  0.2489993E+04  0.7818609E-02  0.8406559E-01
       -1   -1    0    0    0  501  0.00000000000E+00  0.00000000000E+00  0.13170198514E+04  0.13170198514E+04  0.50400001928E-02 0.  1.
        1   -1    0    0  501    0  0.00000000000E+00  0.00000000000E+00 -0.11769115522E+04  0.11769115522E+04  0.50400001928E-02 0. -1.
    10030    2    1    2    0    0  0.00000000000E+00  0.00000000000E+00  0.14010829912E+03  0.24939314036E+04  0.24899926728E+04 0.  0.
        3    1    3    3  502    0  0.83128975814E+03  0.62228693702E+03 -0.61785990655E+03  0.12083189017E+04  0.10100000352E+00 0.  1.
       -3    1    3    3    0  502 -0.83128975814E+03 -0.62228693702E+03  0.75796820567E+03  0.12856125019E+04  0.10100000352E+00 0. -1.
</event>
<event>
 5   0  0.5261878E-06  0.2868452E+04  0.7818609E-02  0.8282326E-01
       -1   -1    0    0    0  501  0.00000000000E+00  0.00000000000E+00  0.15580233821E+04  0.15580233821E+04  0.50400001928E-02 0.  1.
        1   -1    0    0  501    0  0.00000000000E+00  0.00000000000E+00 -0.13202653685E+04  0.13202653685E+04  0.50400001928E-02 0. -1.
    10030    2    1    2    0    0  0.00000000000E+00  0.00000000000E+00  0.23775801357E+03  0.28782887507E+04  0.28684520667E+04 0.  0.
        5    1    3    3  502    0 -0.20519233753E+03 -0.32393180099E+02 -0.13050818784E+04  0.13215195848E+04  0.46999998093E+01 0. -1.
       -5    1    3    3    0  502  0.20519233753E+03  0.32393180099E+02  0.15428398920E+04  0.15567691659E+04  0.46999998093E+01 0.  1.
</event>
<event>
 5   0  0.1382803E-05  0.2880494E+04  0.7818609E-02  0.8278705E-01
       -2   -1    0    0    0  501  0.00000000000E+00  0.00000000000E+00  0.13673472918E+04  0.13673472918E+04  0.25500000920E-02 0. -1.
        2   -1    0    0  501    0  0.00000000000E+00  0.00000000000E+00 -0.15170331897E+04  0.15170331897E+04  0.25500000920E-02 0.  1.
    10030    2    1    2    0    0  0.00000000000E+00  0.00000000000E+00 -0.14968589791E+03  0.28843804815E+04  0.28804938629E+04 0.  0.
        2    1    3    3  502    0 -0.11725506691E+04 -0.64750401172E+03  0.45518656927E+03  0.14146841802E+04  0.25500000920E-02 0. -1.
       -2    1    3    3    0  502  0.11725506691E+04  0.64750401172E+03 -0.60487246717E+03  0.14696963014E+04  0.25500000920E-02 0.  1.
</event>
<event>
 5   0  0.1382803E-05  0.2994697E+04  0.7818609E-02  0.8245247E-01
       -2   -1    0    0    0  501  0.00000000000E+00  0.00000000000E+00  0.93781720840E+03  0.93781720840E+03  0.25500000920E-02 0. -1.
        2   -1    0    0  501    0  0.00000000000E+00  0.00000000000E+00 -0.23907132988E+04  0.23907132988E+04  0.25500000920E-02 0.  1.
    10030    2    1    2    0    0  0.00000000000E+00  0.00000000000E+00 -0.14528960904E+04  0.33285305072E+04  0.29946966938E+04 0.  0.
        2    1    3    3  502    0 -0.12865156904E+04  0.42361169965E+03 -0.14359510210E+04  0.19739617090E+04  0.25500000920E-02 0.  1.
       -2    1    3    3    0  502  0.12865156904E+04 -0.42361169965E+03 -0.16945069345E+02  0.13545687982E+04  0.25500000920E-02 0. -1.
</event>
<event>
 5   0  0.1385669E-05  0.2912226E+04  0.7818609E-02  0.8269249E-01
       -2   -1    0    0    0  501  0.00000000000E+00  0.00000000000E+00  0.13758551822E+04  0.13758551822E+04  0.25500000920E-02 0.  1.
        2   -1    0    0  501    0  0.00000000000E+00  0.00000000000E+00 -0.15410527661E+04  0.15410527661E+04  0.25500000920E-02 0. -1.
    10030    2    1    2    0    0  0.00000000000E+00  0.00000000000E+00 -0.16519758391E+03  0.29169079482E+04  0.29122262509E+04 0.  0.
        3    1    3    3  502    0  0.26322172663E+03  0.12024037623E+04  0.69660102766E+03  0.14143243924E+04  0.10100000352E+00 0.  1.
       -3    1    3    3    0  502 -0.26322172663E+03 -0.12024037623E+04 -0.86179861157E+03  0.15025835558E+04  0.10100000352E+00 0. -1.
</event>
<event>
 5   0  0.1307832E-05  0.2880357E+04  0.7818609E-02  0.8278746E-01
        2   -1    0    0  501    0  0.00000000000E+00  0.00000000000E+00  0.13830287094E+04  0.13830287094E+04  0.25500000920E-02 0.  1.
       -2   -1    0    0    0  501  0.00000000000E+00  0.00000000000E+00 -0.14996895262E+04  0.14996895262E+04  0.25500000920E-02 0. -1.
    10030    2    1    2    0    0  0.00000000000E+00  0.00000000000E+00 -0.11666081681E+03  0.28827182356E+04  0.28803566931E+04 0.  0.
        4    1    3    3  502    0  0.12506671324E+03 -0.12811462473E+04 -0.70471956922E+03  0.14675178615E+04  0.12699999809E+01 0. -1.
       -4    1    3    3    0  502 -0.12506671324E+03  0.12811462473E+04  0.58805875242E+03  0.14152003741E+04  0.12699999809E+01 0.  1.
</event>
<event>
 5   0  0.5059249E-06  0.2938620E+04  0.7818609E-02  0.8261479E-01
        1   -1    0    0  501    0  0.00000000000E+00  0.00000000000E+00  0.22319580393E+04  0.22319580393E+04  0.50400001928E-02 0. -1.
       -1   -1    0    0    0  501  0.00000000000E+00  0.00000000000E+00 -0.96725451073E+03  0.96725451075E+03  0.50400001928E-02 0.  1.
    10030    2    1    2    0    0  0.00000000000E+00  0.00000000000E+00  0.12647035286E+04  0.31992125501E+04  0.29386197313E+04 0.  0.
        1    1    3    3  502    0  0.13900244946E+04 -0.45511734664E+03  0.78465625921E+03  0.16598148511E+04  0.50400001928E-02 0.  1.
       -1    1    3    3    0  502 -0.13900244946E+04  0.45511734664E+03  0.48004726939E+03  0.15393976990E+04  0.50400001928E-02 0. -1.
</event>
<event>
 5   0  0.1307832E-05  0.3123260E+04  0.7818609E-02  0.8209383E-01
       -2   -1    0    0    0  501  0.00000000000E+00  0.00000000000E+00  0.14382013336E+04  0.14382013336E+04  0.25500000920E-02 0.  1.
        2   -1    0    0  501    0  0.00000000000E+00  0.00000000000E+00 -0.16956517923E+04  0.16956517923E+04  0.25500000920E-02 0. -1.
    10030    2    1    2    0    0  0.00000000000E+00  0.00000000000E+00 -0.25745045872E+03  0.31338531259E+04  0.31232602639E+04 0.  0.
        4    1    3    3  502    0  0.12481696427E+04 -0.46204089251E+03 -0.94836647568E+03  0.16342612485E+04  0.12699999809E+01 0. -1.
       -4    1    3    3    0  502 -0.12481696427E+04  0.46204089251E+03  0.69091601696E+03  0.14995918774E+04  0.12699999809E+01 0.  1.
</event>
<event>
 5   0  0.5002240E-06  0.2054377E+04  0.7818609E-02  0.8581611E-01
       -1   -1    0    0    0  501  0.00000000000E+00  0.00000000000E+00  0.69933939625E+03  0.69933939627E+03  0.50400001928E-02 0. -1.
        1   -1    0    0  501    0  0.00000000000E+00  0.00000000000E+00 -0.15087321817E+04  0.15087321817E+04  0.50400001928E-02 0.  1.
    10030    2    1    2    0    0  0.00000000000E+00  0.00000000000E+00 -0.80939278545E+03  0.22080715780E+04  0.20543766481E+04 0.  0.
        4    1    3    3  502    0  0.23203072083E+03  0.89400771428E+03  0.78403472417E+02  0.92695025000E+03  0.12699999809E+01 0.  1.
       -4    1    3    3    0  502 -0.23203072083E+03 -0.89400771428E+03 -0.88779625786E+03  0.12811213280E+04  0.12699999809E+01 0. -1.
</event>
<event>
 5   0  0.1336899E-05  0.2920917E+04  0.7818609E-02  0.8266681E-01
       -2   -1    0    0    0  501  0.00000000000E+00  0.00000000000E+00  0.10723669118E+04  0.10723669118E+04  0.25500000920E-02 0.  1.
        2   -1    0    0  501    0  0.00000000000E+00  0.00000000000E+00 -0.19890018074E+04  0.19890018074E+04  0.25500000920E-02 0. -1.
    10030    2    1    2    0    0  0.00000000000E+00  0.00000000000E+00 -0.91663489561E+03  0.30613687192E+04  0.29209174763E+04 0.  0.
        1    1    3    3  502    0  0.88137676255E+03  0.10005695147E+04 -0.10827642791E+04  0.17176562041E+04  0.50400001928E-02 0. -1.
       -1    1    3    3    0  502 -0.88137676255E+03 -0.10005695147E+04  0.16612938352E+03  0.13437125151E+04  0.50400001928E-02 0.  1.
</event>
<event>
 5   0  0.5154476E-06  0.1935711E+04  0.7818609E-02  0.8637282E-01
        1   -1    0    0  501    0  0.00000000000E+00  0.00000000000E+00  0.25331721587E+04  0.25331721587E+04  0.50400001928E-02 0.  1.
       -1   -1    0    0    0  501  0.00000000000E+00  0.00000000000E+00 -0.36979102440E+03  0.36979102444E+03  0.50400001928E-02 0. -1.
    10030    2    1    2    0    0  0.00000000000E+00  0.00000000000E+00  0.21633811343E+04  0.29029631831E+04  0.19357110607E+04 0.  0.
        3    1    3    3  502    0 -0.40650026390E+03 -0.21771961948E+02  0.23985397076E+04  0.24328397444E+04  0.10100000352E+00 0.  1.
       -3    1    3    3    0  502  0.40650026390E+03  0.21771961948E+02 -0.23515857327E+03  0.47012343875E+03  0.10100000352E+00 0. -1.
</event>
<event>
 5   0  0.1385669E-05  0.2141369E+04  0.7818609E-02  0.8543236E-01
       -2   -1    0    0    0  501  0.00000000000E+00  0.00000000000E+00  0.11191379515E+04  0.11191379515E+04  0.25500000920E-02 0.  1.
        2   -1    0    0  501    0  0.00000000000E+00  0.00000000000E+00 -0.10243288404E+04  0.10243288404E+04  0.25500000920E-02 0. -1.
    10030    2    1    2    0    0  0.00000000000E+00  0.00000000000E+00  0.94809111117E+02  0.21434667918E+04  0.21413689827E+04 0.  0.
        3    1    3    3  502    0  0.14078265545E+03 -0.85939500144E+03  0.67089978750E+03  0.10993116299E+04  0.10100000352E+00 0.  1.
       -3    1    3    3    0  502 -0.14078265545E+03  0.85939500144E+03 -0.57609067638E+03  0.10441551619E+04  0.10100000352E+00 0. -1.
</event>
<event>
 5   0  0.5261878E-06  0.2934518E+04  0.7818609E-02  0.8262681E-01
        1   -1    0    0  501    0  0.00000000000E+00  0.00000000000E+00  0.16908930000E+04  0.16908930000E+04  0.50400001928E-02 0. -1.
       -1   -1    0    0    0  501  0.00000000000E+00  0.00000000000E+00 -0.12732023320E+04  0.12732023320E+04  0.50400001928E-02 0.  1.
    10030    2    1    2    0    0  0.00000000000E+00  0.00000000000E+00  0.41769066800E+03  0.29640953321E+04  0.29345179576E+04 0.  0.
        5    1    3    3  502    0  0.43009329033E+03 -0.13505579404E+04 -0.17423951837E+03  0.14280645953E+04  0.46999998093E+01 0.  1.
       -5    1    3    3    0  502 -0.43009329033E+03  0.13505579404E+04  0.59193018637E+03  0.15360307368E+04  0.46999998093E+01 0. -1.
</event>
<event>
 5   0  0.1336899E-05  0.2933644E+04  0.7818609E-02  0.8262937E-01
       -2   -1    0    0    0  501  0.00000000000E+00  0.00000000000E+00  0.94986941601E+03  0.94986941601E+03  0.25500000920E-02 0. -1.
        2   -1    0    0  501    0  0.00000000000E+00  0.00000000000E+00 -0.22651185005E+04  0.22651185005E+04  0.25500000920E-02 0.  1.
    10030    2    1    2    0    0  0.00000000000E+00  0.00000000000E+00 -0.13152490845E+04  0.32149879165E+04  0.29336440052E+04 0.  0.
        1    1    3    3  502    0 -0.25163350279E+03  0.63329026436E+02 -0.22397665565E+04  0.22547470397E+04  0.50400001928E-02 0.  1.
       -1    1    3    3    0  502  0.25163350279E+03 -0.63329026436E+02  0.92451747205E+03  0.96024087679E+03  0.50400001928E-02 0. -1.
</event>
<event>
 5   0  0.1385669E-05  0.2747956E+04  0.7818609E-02  0.8319611E-01
        2   -1    0    0  501    0  0.00000000000E+00  0.00000000000E+00  0.17272254098E+04  0.17272254098E+04  0.25500000920E-02 0.  1.
       -2   -1    0    0    0  501  0.00000000000E+00  0.00000000000E+00 -0.10929758630E+04  0.10929758630E+04  0.25500000920E-02 0. -1.
    10030    2    1    2    0    0  0.00000000000E+00  0.00000000000E+00  0.63424954672E+03  0.28202012728E+04  0.27479561008E+04 0.  0.
        3    1    3    3  502    0 -0.56085988479E+02  0.31653505260E+03 -0.10538378671E+04  0.11017778079E+04  0.10100000352E+00 0. -1.
       -3    1    3    3    0  502  0.56085988479E+02 -0.31653505260E+03  0.16880874139E+04  0.17184234649E+04  0.10100000352E+00 0.  1.
</event>
<event>
 5   0  0.5261878E-06  0.1951547E+04  0.7818609E-02  0.8629615E-01
        1   -1    0    0  501    0  0.00000000000E+00  0.00000000000E+00  0.13501597420E+04  0.13501597420E+04  0.50400001928E-02 0.  1.
       -1   -1    0    0    0  501  0.00000000000E+00  0.00000000000E+00 -0.70520072975E+03  0.70520072976E+03  0.50400001928E-02 0. -1.
    10030    2    1    2    0    0  0.00000000000E+00  0.00000000000E+00  0.64495901225E+03  0.20553604718E+04  0.19515467049E+04 0.  0.
        5    1    3    3  502    0  0.87970017760E+03  0.40870153924E+03  0.43395017553E+03  0.10626590213E+04  0.46999998093E+01 0. -1.
       -5    1    3    3    0  502 -0.87970017760E+03 -0.40870153924E+03  0.21100883672E+03  0.99270145050E+03  0.46999998093E+01 0.  1.
</event>
<event>
 5   0  0.5002240E-06  0.2268049E+04  0.7818609E-02  0.8490627E-01
       -1   -1    0    0    0  501  0.00000000000E+00  0.00000000000E+00  0.14444010408E+04  0.14444010408E+04  0.50400001928E-02 0. -1.
        1   -1    0    0  501    0  0.00000000000E+00  0.00000000000E+00 -0.89034213147E+03  0.89034213149E+03  0.50400001928E-02 0.  1.
    10030    2    1    2    0    0  0.00000000000E+00  0.00000000000E+00  0.55405890936E+03  0.23347431723E+04  0.22680485898E+04 0.  0.
        4    1    3    3  502    0 -0.97415937666E+03 -0.57751643772E+03  0.33791046620E+03  0.11818192853E+04  0.12699999809E+01 0. -1.
       -4    1    3    3    0  502  0.97415937666E+03  0.57751643772E+03  0.21614844316E+03  0.11529238871E+04  0.12699999809E+01 0.  1.
</event>
<event>
 5   0  0.5352212E-06  0.2865351E+04  0.7818609E-02  0.8283262E-01
        1   -1    0    0  501    0  0.00000000000E+00  0.00000000000E+00  0.14028252155E+04  0.14028252155E+04  0.50400001928E-02 0.  1.
       -1   -1    0    0    0  501  0.00000000000E+00  0.00000000000E+00 -0.14631604871E+04  0.14631604871E+04  0.50400001928E-02 0. -1.
    10030    2    1    2    0    0  0.00000000000E+00  0.00000000000E+00 -0.60335271636E+02  0.28659857026E+04  0.28653505374E+04 0.  0.
        2    1    3    3  502    0  0.32787851116E+02 -0.14275337419E+04 -0.14694452550E+03  0.14354512604E+04  0.25500000920E-02 0. -1.
       -2    1    3    3    0  502 -0.32787851116E+02  0.14275337419E+04  0.86609253862E+02  0.14305344422E+04  0.25500000920E-02 0.  1.
</event>
<event>
 5   0  0.1307832E-05  0.2797713E+04  0.7818609E-02  0.8303979E-01
       -2   -1    0    0    0  501  0.00000000000E+00  0.00000000000E+00  0.13202657386E+04  0.13202657386E+04  0.25500000920E-02 0.  1.
        2   -1    0    0  501    0  0.00000000000E+00  0.00000000000E+00 -0.14821256557E+04  0.14821256557E+04  0.25500000920E-02 0. -1.
    10030    2    1    2    0    0  0.00000000000E+00  0.00000000000E+00 -0.16185991707E+03  0.28023913943E+04  0.27977131544E+04 0.  0.
        4    1    3    3  502    0  0.45030614554E+03 -0.46971595566E+03 -0.13213016193E+04  0.14728368157E+04  0.12699999809E+01 0. -1.
       -4    1    3    3    0  502 -0.45030614554E+03  0.46971595566E+03  0.11594417022E+04  0.13295545786E+04  0.12699999809E+01 0.  1.
</event>
<event>
 5   0  0.1336899E-05  0.2368201E+04  0.7818609E-02  0.8451505E-01
        2   -1    0    0  501    0  0.00000000000E+00  0.00000000000E+00  0.12683247269E+04  0.12683247269E+04  0.25500000920E-02 0.  1.
       -2   -1    0    0    0  501  0.00000000000E+00  0.00000000000E+00 -0.11054696739E+04  0.11054696739E+04  0.25500000920E-02 0. -1.
    10030    2    1    2    0    0  0.00000000000E+00  0.00000000000E+00  0.16285505297E+03  0.23737944008E+04  0.23682014460E+04 0.  0.
        1    1    3    3  502    0 -0.19672488161E+03  0.57601975606E+02 -0.10875496304E+04  0.11066990852E+04  0.50400001928E-02 0. -1.
       -1    1    3    3    0  502  0.19672488161E+03 -0.57601975606E+02  0.12504046833E+04  0.12670953156E+04  0.50400001928E-02 0.  1.
</event>
<event>
 5   0  0.5059249E-06  0.2162452E+04  0.7818609E-02  0.8534221E-01
       -1   -1    0    0    0  501  0.00000000000E+00  0.00000000000E+00  0.10353787287E+04  0.10353787287E+04  0.50400001928E-02 0. -1.
        1   -1    0    0  501    0  0.00000000000E+00  0.00000000000E+00 -0.11291031491E+04  0.11291031491E+04  0.50400001928E-02 0.  1.
    10030    2    1    2    0    0  0.00000000000E+00  0.00000000000E+00 -0.93724420448E+02  0.21644818778E+04  0.21624517410E+04 0.  0.
        1    1    3    3  502    0 -0.51404092364E+03 -0.31840343369E+03 -0.94404659191E+03  0.11210899988E+04  0.50400001928E-02 0.  1.
       -1    1    3    3    0  502  0.51404092364E+03  0.31840343369E+03  0.85032217147E+03  0.10433918790E+04  0.50400001928E-02 0. -1.
</event>
<event>
 5   0  0.1339837E-05  0.2425307E+04  0.7818609E-02  0.8430089E-01
        2   -1    0    0  501    0  0.00000000000E+00  0.00000000000E+00  0.15608752202E+04  0.15608752202E+04  0.25500000920E-02 0.  1.
       -2   -1    0    0    0  501  0.00000000000E+00  0.00000000000E+00 -0.94211772556E+03  0.94211772557E+03  0.25500000920E-02 0. -1.
    10030    2    1    2    0    0  0.00000000000E+00  0.00000000000E+00  0.61875749463E+03  0.25029929458E+04  0.24253067537E+04 0.  0.
        5    1    3    3  502    0 -0.86401544931E+03  0.30788784021E+03  0.11280006096E+04  0.14538655660E+04  0.46999998093E+01 0.  1.
       -5    1    3    3    0  502  0.86401544931E+03 -0.30788784021E+03 -0.50924311496E+03  0.10491273797E+04  0.46999998093E+01 0. -1.
</event>
<event>
 5   0  0.5002240E-06  0.2865026E+04  0.7818609E-02  0.8283360E-01
       -1   -1    0    0    0  501  0.00000000000E+00  0.00000000000E+00  0.13725233919E+04  0.13725233919E+04  0.50400001928E-02 0.  1.
        1   -1    0    0  501    0  0.00000000000E+00  0.00000000000E+00 -0.14951248738E+04  0.14951248738E+04  0.50400001928E-02 0. -1.
    10030    2    1    2    0    0  0.00000000000E+00  0.00000000000E+00 -0.12260148185E+03  0.28676482657E+04  0.28650262568E+04 0.  0.
        4    1    3    3  502    0 -0.31458372681E+03 -0.12007628340E+04  0.65440466709E+03  0.14032253510E+04  0.12699999809E+01 0.  1.
       -4    1    3    3    0  502  0.31458372681E+03  0.12007628340E+04 -0.77700614894E+03  0.14644229147E+04  0.12699999809E+01 0. -1.
</event>
<event>
 5   0  0.5154476E-06  0.2370869E+04  0.7818609E-02  0.8450491E-01
        1   -1    0    0  501    0  0.00000000000E+00  0.00000000000E+00  0.18014810479E+04  0.18014810479E+04  0.50400001928E-02 0. -1.
       -1   -1    0    0    0  501  0.00000000000E+00  0.00000000000E+00 -0.78005515524E+03  0.78005515525E+03  0.50400001928E-02 0.  1.
    10030    2    1    2    0    0  0.00000000000E+00  0.00000000000E+00  0.10214258926E+04  0.25815362031E+04  0.23708686834E+04 0.  0.
        3    1    3    3  502    0  0.41263543475E+03  0.21075882898E+03  0.16987984355E+04  0.17608530377E+04  0.10100000352E+00 0. -1.
       -3    1    3    3    0  502 -0.41263543475E+03 -0.21075882898E+03 -0.67737254282E+03  0.82068316540E+03  0.10100000352E+00 0.  1.
</event>
<event>
 5   0  0.4590125E-06  0.2969799E+04  0.7818609E-02  0.8252408E-01
        3   -1    0    0  501    0  0.00000000000E+00  0.00000000000E+00  0.20568438036E+04  0.20568438061E+04  0.10100000352E+00 0.  1.
       -3   -1    0    0    0  501  0.00000000000E+00  0.00000000000E+00 -0.10719949686E+04  0.10719949734E+04  0.10100000352E+00 0. -1.
    10030    2    1    2    0    0  0.00000000000E+00  0.00000000000E+00  0.98484883501E+03  0.31288387795E+04  0.29697987946E+04 0.  0.
        3    1    3    3  502    0 -0.45105376859E+03  0.28284909438E+03  0.19528294244E+04  0.20241037235E+04  0.10100000352E+00 0.  1.
       -3    1    3    3    0  502  0.45105376859E+03 -0.28284909438E+03 -0.96798058940E+03  0.11047350560E+04  0.10100000352E+00 0. -1.
</event>
<event>
 5   0  0.5352212E-06  0.2827768E+04  0.7818609E-02  0.8294699E-01
        1   -1    0    0  501    0  0.00000000000E+00  0.00000000000E+00  0.15281141908E+04  0.15281141908E+04  0.50400001928E-02 0. -1.
       -1   -1    0    0    0  501  0.00000000000E+00  0.00000000000E+00 -0.13081930572E+04  0.13081930572E+04  0.50400001928E-02 0.  1.
    10030    2    1    2    0    0  0.00000000000E+00  0.00000000000E+00  0.21992113356E+03  0.28363072481E+04  0.28277682897E+04 0.  0.
        2    1    3    3  502    0 -0.83436947541E+03  0.26604946059E+02  0.12545410096E+04  0.15069019176E+04  0.25500000920E-02 0. -1.
       -2    1    3    3    0  502  0.83436947541E+03 -0.26604946059E+02 -0.10346198760E+04  0.13294053304E+04  0.25500000920E-02 0.  1.
</event>
<event>
 5   0  0.1307832E-05  0.2893971E+04  0.7818609E-02  0.8274673E-01
       -2   -1    0    0    0  501  0.00000000000E+00  0.00000000000E+00  0.96482290562E+03  0.96482290563E+03  0.25500000920E-02 0.  1.
        2   -1    0    0  501    0  0.00000000000E+00  0.00000000000E+00 -0.21701057082E+04  0.21701057082E+04  0.25500000920E-02 0. -1.
    10030    2    1    2    0    0  0.00000000000E+00  0.00000000000E+00 -0.12052828026E+04  0.31349286139E+04  0.28939714545E+04 0.  0.
        4    1    3    3  502    0 -0.13993840611E+04 -0.35102380222E+03 -0.72264715997E+03  0.16136027984E+04  0.12699999809E+01 0.  1.
       -4    1    3    3    0  502  0.13993840611E+04  0.35102380222E+03 -0.48263564263E+03  0.15213258154E+04  0.12699999809E+01 0. -1.
</event>
<event>
 5   0  0.5059249E-06  0.2855229E+04  0.7818609E-02  0.8286324E-01
       -1   -1    0    0    0  501  0.00000000000E+00  0.00000000000E+00  0.12178035767E+04  0.12178035768E+04  0.50400001928E-02 0. -1.
        1   -1    0    0  501    0  0.00000000000E+00  0.00000000000E+00 -0.16735728267E+04  0.16735728267E+04  0.50400001928E-02 0.  1.
    10030    2    1    2    0    0  0.00000000000E+00  0.00000000000E+00 -0.45576925000E+03  0.28913764035E+04  0.28552288695E+04 0.  0.
        1    1    3    3  502    0 -0.35288897080E+03 -0.27594567284E+03 -0.16005551582E+04  0.16620630116E+04  0.50400001928E-02 0.  1.
       -1    1    3    3    0  502  0.35288897080E+03  0.27594567284E+03  0.11447859082E+04  0.12293133919E+04  0.50400001928E-02 0. -1.
</event>
<event>
 5   0  0.5154476E-06  0.2869287E+04  0.7818609E-02  0.8282075E-01
        1   -1    0    0  501    0  0.00000000000E+00  0.00000000000E+00  0.13298609575E+04  0.13298609575E+04  0.50400001928E-02 0.  1.
       -1   -1    0    0    0  501  0.00000000000E+00  0.00000000000E+00 -0.15476817138E+04  0.15476817138E+04  0.50400001928E-02 0. -1.
    10030    2    1    2    0    0  0.00000000000E+00  0.00000000000E+00 -0.21782075630E+03  0.28775426712E+04  0.28692866610E+04 0.  0.
        3    1    3    3  502    0  0.38182362710E+03 -0.38239984705E+02  0.12774383343E+04  0.13338291820E+04  0.10100000352E+00 0.  1.
       -3    1    3    3    0  502 -0.38182362710E+03  0.38239984705E+02 -0.14952590906E+04  0.15437134892E+04  0.10100000352E+00 0. -1.
</event>
<event>
 5   0  0.1382803E-05  0.2721752E+04  0.7818609E-02  0.8327981E-01
       -2   -1    0    0    0  501  0.00000000000E+00  0.00000000000E+00  0.85366154768E+03  0.85366154768E+03  0.25500000920E-02 0.  1.
        2   -1    0    0  501    0  0.00000000000E+00  0.00000000000E+00 -0.21694590433E+04  0.21694590433E+04  0.25500000920E-02 0. -1.
    10030    2    1    2    0    0  0.00000000000E+00  0.00000000000E+00 -0.13157974956E+04  0.30231205910E+04  0.27217522037E+04 0.  0.
        2    1    3    3  502    0 -0.81152689215E+03  0.45207644874E+03 -0.17625181422E+04  0.19923401351E+04  0.25500000920E-02 0. -1.
       -2    1    3    3    0  502  0.81152689215E+03 -0.45207644874E+03  0.44672064660E+03  0.10307804559E+04  0.25500000920E-02 0.  1.
</event>
<event>
 5   0  0.1307832E-05  0.2900567E+04  0.7818609E-02  0.8272709E-01
        2   -1    0    0  501    0  0.00000000000E+00  0.00000000000E+00  0.12526035167E+04  0.12526035167E+04  0.25500000920E-02 0. -1.
       -2   -1    0    0    0  501  0.00000000000E+00  0.00000000000E+00 -0.16791598590E+04  0.16791598590E+04  0.25500000920E-02 0.  1.
    10030    2    1    2    0    0  0.00000000000E+00  0.00000000000E+00 -0.42655634232E+03  0.29317633757E+04  0.29005665270E+04 0.  0.
        4    1    3    3  502    0  0.13798114514E+04 -0.39901971747E+03 -0.10562972878E+02  0.14363876795E+04  0.12699999809E+01 0. -1.
       -4    1    3    3    0  502 -0.13798114514E+04  0.39901971747E+03 -0.41599336945E+03  0.14953756962E+04  0.12699999809E+01 0.  1.
</event>
<event>
 5   0  0.5261878E-06  0.2849075E+04  0.7818609E-02  0.8288192E-01
       -1   -1    0    0    0  501  0.00000000000E+00  0.00000000000E+00  0.12657213697E+04  0.12657213697E+04  0.50400001928E-02 0.  1.
        1   -1    0    0  501    0  0.00000000000E+00  0.00000000000E+00 -0.16032814213E+04  0.16032814213E+04  0.50400001928E-02 0. -1.
    10030    2    1    2    0    0  0.00000000000E+00  0.00000000000E+00 -0.33756005162E+03  0.28690027910E+04  0.28490753283E+04 0.  0.
        5    1    3    3  502    0 -0.79572834526E+03  0.59603077790E+03 -0.11961359764E+04  0.15553776556E+04  0.46999998093E+01 0. -1.
       -5    1    3    3    0  502  0.79572834526E+03 -0.59603077790E+03  0.85857592476E+03  0.13136251354E+04  0.46999998093E+01 0.  1.
</event>
<event>
 5   0  0.1307832E-05  0.2771457E+04  0.7818609E-02  0.8312185E-01
       -2   -1    0    0    0  501  0.00000000000E+00  0.00000000000E+00  0.16120759836E+04  0.16120759836E+04  0.25500000920E-02 0. -1.
        2   -1    0    0  501    0  0.00000000000E+00  0.00000000000E+00 -0.11911617792E+04  0.11911617792E+04  0.25500000920E-02 0.  1.
    10030    2    1    2    0    0  0.00000000000E+00  0.00000000000E+00  0.42091420441E+03  0.28032377628E+04  0.27714568709E+04 0.  0.
        4    1    3    3  502    0 -0.27539163945E+03 -0.13500421358E+04  0.61159057776E+02  0.13792013511E+04  0.12699999809E+01 0.  1.
       -4    1    3    3    0  502  0.27539163945E+03  0.13500421358E+04  0.35975514663E+03  0.14240364117E+04  0.12699999809E+01 0. -1.
</event>
<event>
 5   0  0.5352212E-06  0.2597952E+04  0.7818609E-02  0.8368897E-01
       -1   -1    0    0    0  501  0.00000000000E+00  0.00000000000E+00  0.10995301860E+04  0.10995301860E+04  0.50400001928E-02 0.  1.
        1   -1    0    0  501    0  0.00000000000E+00  0.00000000000E+00 -0.15346002298E+04  0.15346002298E+04  0.50400001928E-02 0. -1.
    10030    2    1    2    0    0  0.00000000000E+00  0.00000000000E+00 -0.43507004375E+03  0.26341304158E+04  0.25979524831E+04 0.  0.
        2    1    3    3  502    0  0.83190471734E+03  0.26103097202E+03  0.75875296173E+03  0.11558151600E+04  0.25500000920E-02 0.  1.
       -2    1    3    3    0  502 -0.83190471734E+03 -0.26103097202E+03 -0.11938230055E+04  0.14783152558E+04  0.25500000920E-02 0. -1.
</event>
<event>
 5   0  0.1339837E-05  0.2861547E+04  0.7818609E-02  0.8284411E-01
       -2   -1    0    0    0  501  0.00000000000E+00  0.00000000000E+00  0.15590260698E+04  0.15590260698E+04  0.25500000920E-02 0.  1.
        2   -1    0    0  501    0  0.00000000000E+00  0.00000000000E+00 -0.13130717006E+04  0.13130717006E+04  0.25500000920E-02 0. -1.
    10030    2    1    2    0    0  0.00000000000E+00  0.00000000000E+00  0.24595436915E+03  0.28720977704E+04  0.28615471429E+04 0.  0.
        5    1    3    3  502    0 -0.77758237428E+03  0.59536830267E+03 -0.92393775399E+03  0.13463954946E+04  0.46999998093E+01 0. -1.
       -5    1    3    3    0  502  0.77758237428E+03 -0.59536830267E+03  0.11698921231E+04  0.15257022758E+04  0.46999998093E+01 0.  1.
</event>
<event>
 5   0  0.5002240E-06  0.2862146E+04  0.7818609E-02  0.8284230E-01
        1   -1    0    0  501    0  0.00000000000E+00  0.00000000000E+00  0.17125846755E+04  0.17125846755E+04  0.50400001928E-02 0. -1.
       -1   -1    0    0    0  501  0.00000000000E+00  0.00000000000E+00 -0.11958358478E+04  0.11958358478E+04  0.50400001928E-02 0.  1.
    10030    2    1    2    0    0  0.00000000000E+00  0.00000000000E+00  0.51674882778E+03  0.29084205233E+04  0.28621461510E+04 0.  0.
        4    1    3    3  502    0  0.81260717383E+03 -0.94436759667E+03 -0.45714618422E+03  0.13270813175E+04  0.12699999809E+01 0.  1.
       -4    1    3    3    0  502 -0.81260717383E+03  0.94436759667E+03  0.97389501199E+03  0.15813392058E+04  0.12699999809E+01 0. -1.
</event>
<event>
 5   0  0.1385669E-05  0.2877179E+04  0.7818609E-02  0.8279700E-01
        2   -1    0    0  501    0  0.00000000000E+00  0.00000000000E+00  0.20755235013E+04  0.20755235013E+04  0.25500000920E-02 0.  1.
       -2   -1    0    0    0  501  0.00000000000E+00  0.00000000000E+00 -0.99711683474E+03  0.99711683475E+03  0.25500000920E-02 0. -1.
    10030    2    1    2    0    0  0.00000000000E+00  0.00000000000E+00  0.10784066666E+04  0.30726403360E+04  0.28771787738E+04 0.  0.
        3    1    3    3  502    0 -0.10926142568E+04  0.47086348867E+03 -0.32445258078E+03  0.12332022650E+04  0.10100000352E+00 0. -1.
       -3    1    3    3    0  502  0.10926142568E+04 -0.47086348867E+03  0.14028592473E+04  0.18394380710E+04  0.10100000352E+00 0.  1.
</event>
<event>
 5   0  0.1339837E-05  0.2887654E+04  0.7818609E-02  0.8276560E-01
        2   -1    0    0  501    0  0.00000000000E+00  0.00000000000E+00  0.13127096541E+04  0.13127096541E+04  0.25500000920E-02 0.  1.
       -2   -1    0    0    0  501  0.00000000000E+00  0.00000000000E+00 -0.15880405046E+04  0.15880405046E+04  0.25500000920E-02 0. -1.
    10030    2    1    2    0    0  0.00000000000E+00  0.00000000000E+00 -0.27533085049E+03  0.29007501586E+04  0.28876537891E+04 0.  0.
        5    1    3    3  502    0 -0.11600947381E+04  0.32849090055E+03  0.66022143653E+03  0.13746419564E+04  0.46999998093E+01 0. -1.
       -5    1    3    3    0  502  0.11600947381E+04 -0.32849090055E+03 -0.93555228702E+03  0.15261082022E+04  0.46999998093E+01 0.  1.
</event>
<event>
 5   0  0.1382803E-05  0.2894874E+04  0.7818609E-02  0.8274404E-01
       -2   -1    0    0    0  501  0.00000000000E+00  0.00000000000E+00  0.79820564570E+03  0.79820564570E+03  0.25500000920E-02 0.  1.
        2   -1    0    0  501    0  0.00000000000E+00  0.00000000000E+00 -0.26247290645E+04  0.26247290645E+04  0.25500000920E-02 0. -1.
    10030    2    1    2    0    0  0.00000000000E+00  0.00000000000E+00 -0.18265234188E+04  0.34229347102E+04  0.28948737850E+04 0.  0.
        2    1    3    3  502    0  0.13897190755E+04  0.29062462957E+03 -0.58030862046E+03  0.15337991651E+04  0.25500000920E-02 0. -1.
       -2    1    3    3    0  502 -0.13897190755E+04 -0.29062462957E+03 -0.12462147984E+04  0.18891355451E+04  0.25500000920E-02 0.  1.
</event>
<event>
 5   0  0.5261878E-06  0.2686072E+04  0.7818609E-02  0.8339538E-01
        1   -1    0    0  501    0  0.00000000000E+00  0.00000000000E+00  0.12422553870E+04  0.12422553870E+04  0.50400001928E-02 0. -1.
       -1   -1    0    0    0  501  0.00000000000E+00  0.00000000000E+00 -0.14519930743E+04  0.14519930743E+04  0.50400001928E-02 0.  1.
    10030    2    1    2    0    0  0.00000000000E+00  0.00000000000E+00 -0.20973768727E+03  0.26942484613E+04  0.26860723880E+04 0.  0.
        5    1    3    3  502    0  0.86523224762E+03  0.50158799869E+03  0.79424503205E+03  0.12771314042E+04  0.46999998093E+01 0. -1.
       -5    1    3    3    0  502 -0.86523224762E+03 -0.50158799869E+03 -0.10039827193E+04  0.14171170571E+04  0.46999998093E+01 0.  1.
</event>
<event>
 5   0  0.1307832E-05  0.2811355E+04  0.7818609E-02  0.8299752E-01
       -2   -1    0    0    0  501  0.00000000000E+00  0.00000000000E+00  0.12769681876E+04  0.12769681876E+04  0.25500000920E-02 0.  1.
        2   -1    0    0  501    0  0.00000000000E+00  0.00000000000E+00 -0.15473592902E+04  0.15473592902E+04  0.25500000920E-02 0. -1.
    10030    2    1    2    0    0  0.00000000000E+00  0.00000000000E+00 -0.27039110257E+03  0.28243274778E+04  0.28113545407E+04 0.  0.
        4    1    3    3  502    0  0.13544960159E+04 -0.82425876405E+02  0.23320288406E+03  0.13768945784E+04  0.12699999809E+01 0.  1.
       -4    1    3    3    0  502 -0.13544960159E+04  0.82425876405E+02 -0.50359398664E+03  0.14474328994E+04  0.12699999809E+01 0. -1.
</event>
<event>
 5   0  0.1339837E-05  0.2818572E+04  0.7818609E-02  0.8297525E-01
       -2   -1    0    0    0  501  0.00000000000E+00  0.00000000000E+00  0.86484712969E+03  0.86484712969E+03  0.25500000920E-02 0. -1.
        2   -1    0    0  501    0  0.00000000000E+00  0.00000000000E+00 -0.22964607683E+04  0.22964607683E+04  0.25500000920E-02 0.  1.
    10030    2    1    2    0    0  0.00000000000E+00  0.00000000000E+00 -0.14316136386E+04  0.31613078980E+04  0.28185723364E+04 0.  0.
        5    1    3    3  502    0 -0.18633264764E+02 -0.79326647734E+02 -0.22938075190E+04  0.22952592315E+04  0.46999998093E+01 0.  1.
       -5    1    3    3    0  502  0.18633264764E+02  0.79326647734E+02  0.86219388032E+03  0.86604866656E+03  0.46999998093E+01 0. -1.
</event>
<event>
 5   0  0.5002240E-06  0.2882039E+04  0.7818609E-02  0.8278241E-01
       -1   -1    0    0    0  501  0.00000000000E+00  0.00000000000E+00  0.12206823043E+04  0.12206823043E+04  0.50400001928E-02 0. -1.
        1   -1    0    0  501    0  0.00000000000E+00  0.00000000000E+00 -0.17011285781E+04  0.17011285781E+04  0.50400001928E-02 0.  1.
    10030    2    1    2    0    0  0.00000000000E+00  0.00000000000E+00 -0.48044627383E+03  0.29218108824E+04  0.28820392451E+04 0.  0.
        4    1    3    3  502    0 -0.13618055894E+04  0.43705486598E+03 -0.41873402914E+03  0.14902587760E+04  0.12699999809E+01 0. -1.
       -4    1    3    3    0  502  0.13618055894E+04 -0.43705486598E+03 -0.61712244688E+02  0.14315521064E+04  0.12699999809E+01 0.  1.
</event>
<event>
 5   0  0.4590125E-06  0.2911454E+04  0.7818609E-02  0.8269478E-01
       -4   -1    0    0    0  501  0.00000000000E+00  0.00000000000E+00  0.84079035255E+03  0.84079131170E+03  0.12699999809E+01 0. -1.
        4   -1    0    0  501    0  0.00000000000E+00  0.00000000000E+00 -0.25204129930E+04  0.25204133129E+04  0.12699999809E+01 0.  1.
    10030    2    1    2    0    0  0.00000000000E+00  0.00000000000E+00 -0.16796226404E+04  0.33612046246E+04  0.29114539863E+04 0.  0.
        3    1    3    3  502    0  0.45084137785E+03  0.26126398543E+03  0.72943763639E+03  0.89643521442E+03  0.10100000352E+00 0. -1.
       -3    1    3    3    0  502 -0.45084137785E+03 -0.26126398543E+03 -0.24090602768E+04  0.24647694102E+04  0.10100000352E+00 0.  1.
</event>
<event>
 5   0  0.1339837E-05  0.2844185E+04  0.7818609E-02  0.8289680E-01
        2   -1    0    0  501    0  0.00000000000E+00  0.00000000000E+00  0.16417228889E+04  0.16417228889E+04  0.25500000920E-02 0. -1.
       -2   -1    0    0    0  501  0.00000000000E+00  0.00000000000E+00 -0.12318445389E+04  0.12318445389E+04  0.25500000920E-02 0.  1.
    10030    2    1    2    0    0  0.00000000000E+00  0.00000000000E+00  0.40987834998E+03  0.28735674278E+04  0.28441852086E+04 0.  0.
        5    1    3    3  502    0  0.75510460384E+03 -0.91343903665E+03 -0.58916491924E+03  0.13235147254E+04  0.46999998093E+01 0.  1.
       -5    1    3    3    0  502 -0.75510460384E+03  0.91343903665E+03  0.99904326922E+03  0.15500527024E+04  0.46999998093E+01 0. -1.
</event>
<event>
 5   0  0.5154476E-06  0.2918628E+04  0.7818609E-02  0.8267357E-01
       -1   -1    0    0    0  501  0.00000000000E+00  0.00000000000E+00  0.19761117950E+04  0.19761117950E+04  0.50400001928E-02 0.  1.
        1   -1    0    0  501    0  0.00000000000E+00  0.00000000000E+00 -0.10776704831E+04  0.10776704831E+04  0.50400001928E-02 0. -1.
    10030    2    1    2    0    0  0.00000000000E+00  0.00000000000E+00  0.89844131189E+03  0.30537822780E+04  0.29186280014E+04 0.  0.
        3    1    3    3  502    0  0.22828245906E+03  0.12860210768E+04 -0.23179149166E+03  0.13265332249E+04  0.10100000352E+00 0. -1.
       -3    1    3    3    0  502 -0.22828245906E+03 -0.12860210768E+04  0.11302328036E+04  0.17272490531E+04  0.10100000352E+00 0.  1.
</event>
<event>
 5   0  0.1336899E-05  0.2944750E+04  0.7818609E-02  0.8259686E-01
        2   -1    0    0  501    0  0.00000000000E+00  0.00000000000E+00  0.18414414902E+04  0.18414414902E+04  0.25500000920E-02 0.  1.
       -2   -1    0    0    0  501  0.00000000000E+00  0.00000000000E+00 -0.11772778975E+04  0.11772778975E+04  0.25500000920E-02 0. -1.
    10030    2    1    2    0    0  0.00000000000E+00  0.00000000000E+00  0.66416359277E+03  0.30187193877E+04  0.29447501530E+04 0.  0.
        1    1    3    3  502    0 -0.34975771175E+03 -0.12370545269E+04 -0.40376089326E+03  0.13474632531E+04  0.50400001928E-02 0. -1.
       -1    1    3    3    0  502  0.34975771175E+03  0.12370545269E+04  0.10679244860E+04  0.16712561346E+04  0.50400001928E-02 0.  1.
</event>
<event>
 5   0  0.5059249E-06  0.2812608E+04  0.7818609E-02  0.8299365E-01
       -1   -1    0    0    0  501  0.00000000000E+00  0.00000000000E+00  0.13610148469E+04  0.13610148469E+04  0.50400001928E-02 0.  1.
        1   -1    0    0  501    0  0.00000000000E+00  0.00000000000E+00 -0.14531003730E+04  0.14531003730E+04  0.50400001928E-02 0. -1.
    10030    2    1    2    0    0  0.00000000000E+00  0.00000000000E+00 -0.92085526112E+02  0.28141152199E+04  0.28126081716E+04 0.  0.
        1    1    3    3  502    0 -0.99389794739E+03  0.23007517792E+03 -0.10145094769E+04  0.14387484825E+04  0.50400001928E-02 0. -1.
       -1    1    3    3    0  502  0.99389794739E+03 -0.23007517792E+03  0.92242395074E+03  0.13753667374E+04  0.50400001928E-02 0.  1.
</event>
<event>
 5   0  0.1336899E-05  0.2898426E+04  0.7818609E-02  0.8273346E-01
        2   -1    0    0  501    0  0.00000000000E+00  0.00000000000E+00  0.19863386503E+04  0.19863386503E+04  0.25500000920E-02 0.  1.
       -2   -1    0    0    0  501  0.00000000000E+00  0.00000000000E+00 -0.10573317838E+04  0.10573317838E+04  0.25500000920E-02 0. -1.
    10030    2    1    2    0    0  0.00000000000E+00  0.00000000000E+00  0.92900686648E+03  0.30436704341E+04  0.28984264616E+04 0.  0.
        1    1    3    3  502    0 -0.18978809564E+03  0.31672112659E+02  0.19728655607E+04  0.19822263152E+04  0.50400001928E-02 0.  1.
       -1    1    3    3    0  502  0.18978809564E+03 -0.31672112659E+02 -0.10438586942E+04  0.10614441189E+04  0.50400001928E-02 0. -1.
</event>
<event>
 5   0  0.1336899E-05  0.2797349E+04  0.7818609E-02  0.8304092E-01
       -2   -1    0    0    0  501  0.00000000000E+00  0.00000000000E+00  0.13238058843E+04  0.13238058843E+04  0.25500000920E-02 0.  1.
        2   -1    0    0  501    0  0.00000000000E+00  0.00000000000E+00 -0.14777778794E+04  0.14777778794E+04  0.25500000920E-02 0. -1.
    10030    2    1    2    0    0  0.00000000000E+00  0.00000000000E+00 -0.15397199510E+03  0.28015837637E+04  0.27973494973E+04 0.  0.
        1    1    3    3  502    0  0.46291761878E+03  0.13064261030E+04  0.11104580881E+03  0.13904578584E+04  0.50400001928E-02 0.  1.
       -1    1    3    3    0  502 -0.46291761878E+03 -0.13064261030E+04 -0.26501780390E+03  0.14111259053E+04  0.50400001928E-02 0. -1.
</event>
<event>
 5   0  0.1339837E-05  0.2548522E+04  0.7818609E-02  0.8385900E-01
       -2   -1    0    0    0  501  0.00000000000E+00  0.00000000000E+00  0.76077319005E+03  0.76077319005E+03  0.25500000920E-02 0.  1.
        2   -1    0    0  501    0  0.00000000000E+00  0.00000000000E+00 -0.21343306039E+04  0.21343306039E+04  0.25500000920E-02 0. -1.
    10030    2    1    2    0    0  0.00000000000E+00  0.00000000000E+00 -0.13735574138E+04  0.28951037940E+04  0.25485223186E+04 0.  0.
        5    1    3    3  502    0 -0.10837312840E+04 -0.62744264106E+03 -0.95454953277E+03  0.15745934918E+04  0.46999998093E+01 0. -1.
       -5    1    3    3    0  502  0.10837312840E+04  0.62744264106E+03 -0.41900788108E+03  0.13205103022E+04  0.46999998093E+01 0.  1.
</event>
<event>
 5   0  0.1385669E-05  0.2502875E+04  0.7818609E-02  0.8401962E-01
        2   -1    0    0  501    0  0.00000000000E+00  0.00000000000E+00  0.15224351132E+04  0.15224351132E+04  0.25500000920E-02 0. -1.
       -2   -1    0    0    0  501  0.00000000000E+00  0.00000000000E+00 -0.10286785577E+04  0.10286785577E+04  0.25500000920E-02 0.  1.
    10030    2    1    2    0    0  0.00000000000E+00  0.00000000000E+00  0.49375655545E+03  0.25511136709E+04  0.25028754315E+04 0.  0.
        3    1    3    3  502    0 -0.61592224641E+03  0.78219871560E+03 -0.52595750311E+03  0.11259779525E+04  0.10100000352E+00 0.  1.
       -3    1    3    3    0  502  0.61592224641E+03 -0.78219871560E+03  0.10197140586E+04  0.14251357184E+04  0.10100000352E+00 0. -1.
</event>
<event>
 5   0  0.5352212E-06  0.2878580E+04  0.7818609E-02  0.8279279E-01
        1   -1    0    0  501    0  0.00000000000E+00  0.00000000000E+00  0.16407372029E+04  0.16407372029E+04  0.50400001928E-02 0. -1.
       -1   -1    0    0    0  501  0.00000000000E+00  0.00000000000E+00 -0.12625764444E+04  0.12625764445E+04  0.50400001928E-02 0.  1.
    10030    2    1    2    0    0  0.00000000000E+00  0.00000000000E+00  0.37816075840E+03  0.29033136473E+04  0.28785803056E+04 0.  0.
        2    1    3    3  502    0 -0.10910335762E+04 -0.43744704054E+03 -0.64862327761E+03  0.13425447233E+04  0.25500000920E-02 0.  1.
       -2    1    3    3    0  502  0.10910335762E+04  0.43744704054E+03  0.10267840360E+04  0.15607689241E+04  0.25500000920E-02 0. -1.
</event>
<event>
 5   0  0.5154476E-06  0.2867802E+04  0.7818609E-02  0.8282522E-01
        1   -1    0    0  501    0  0.00000000000E+00  0.00000000000E+00  0.16151277965E+04  0.16151277965E+04  0.50400001928E-02 0. -1.
       -1   -1    0    0    0  501  0.00000000000E+00  0.00000000000E+00 -0.12730092729E+04  0.12730092729E+04  0.50400001928E-02 0.  1.
    10030    2    1    2    0    0  0.00000000000E+00  0.00000000000E+00  0.34211852361E+03  0.28881370694E+04  0.28678024073E+04 0.  0.
        3    1    3    3  502    0  0.34777227845E+03  0.11076548331E+04  0.10185892634E+04  0.15444639473E+04  0.10100000352E+00 0. -1.
       -3    1    3    3    0  502 -0.34777227845E+03 -0.11076548331E+04 -0.67647073978E+03  0.13436731220E+04  0.10100000352E+00 0.  1.
</event>
<event>
 5   0  0.4590125E-06  0.2918582E+04  0.7818609E-02  0.8267370E-01
       -3   -1    0    0    0  501  0.00000000000E+00  0.00000000000E+00  0.86900623894E+03  0.86900624481E+03  0.10100000352E+00 0.  1.
        3   -1    0    0  501    0  0.00000000000E+00  0.00000000000E+00 -0.24505342043E+04  0.24505342064E+04  0.10100000352E+00 0. -1.
    10030    2    1    2    0    0  0.00000000000E+00  0.00000000000E+00 -0.15815279654E+04  0.33195404512E+04  0.29185815222E+04 0.  0.
        2    1    3    3  502    0 -0.79718389349E+03 -0.33951350310E+03 -0.21262832286E+04  0.22960513816E+04  0.25500000920E-02 0. -1.
       -2    1    3    3    0  502  0.79718389349E+03  0.33951350310E+03  0.54475526320E+03  0.10234890696E+04  0.25500000920E-02 0.  1.
</event>
<event>
 5   0  0.5352212E-06  0.2742606E+04  0.7818609E-02  0.8321312E-01
       -1   -1    0    0    0  501  0.00000000000E+00  0.00000000000E+00  0.12986980291E+04  0.12986980291E+04  0.50400001928E-02 0.  1.
        1   -1    0    0  501    0  0.00000000000E+00  0.00000000000E+00 -0.14479665071E+04  0.14479665071E+04  0.50400001928E-02 0. -1.
    10030    2    1    2    0    0  0.00000000000E+00  0.00000000000E+00 -0.14926847796E+03  0.27466645362E+04  0.27426055123E+04 0.  0.
        2    1    3    3  502    0  0.24848800730E+03  0.13102054070E+04  0.24534880556E+03  0.13559426738E+04  0.25500000920E-02 0. -1.
       -2    1    3    3    0  502 -0.24848800730E+03 -0.13102054070E+04 -0.39461728352E+03  0.13907218624E+04  0.25500000920E-02 0.  1.
</event>
<event>
 5   0  0.5059249E-06  0.1996319E+04  0.7818609E-02  0.8608344E-01
       -1   -1    0    0    0  501  0.00000000000E+00  0.00000000000E+00  0.68105498003E+03  0.68105498005E+03  0.50400001928E-02 0.  1.
        1   -1    0    0  501    0  0.00000000000E+00  0.00000000000E+00 -0.14629099823E+04  0.14629099823E+04  0.50400001928E-02 0. -1.
    10030    2    1    2    0    0  0.00000000000E+00  0.00000000000E+00 -0.78185500224E+03  0.21439649623E+04  0.19963187409E+04 0.  0.
        1    1    3    3  502    0 -0.26665774225E+03 -0.65519514862E+03 -0.11472381595E+04  0.13477916860E+04  0.50400001928E-02 0. -1.
       -1    1    3    3    0  502  0.26665774225E+03  0.65519514862E+03  0.36538315725E+03  0.79617327631E+03  0.50400001928E-02 0.  1.
</event>
<event>
 5   0  0.1307832E-05  0.2967518E+04  0.7818609E-02  0.8253068E-01
       -2   -1    0    0    0  501  0.00000000000E+00  0.00000000000E+00  0.14165966328E+04  0.14165966328E+04  0.25500000920E-02 0.  1.
        2   -1    0    0  501    0  0.00000000000E+00  0.00000000000E+00 -0.15541057246E+04  0.15541057246E+04  0.25500000920E-02 0. -1.
    10030    2    1    2    0    0  0.00000000000E+00  0.00000000000E+00 -0.13750909178E+03  0.29707023573E+04  0.29675181121E+04 0.  0.
        4    1    3    3  502    0 -0.12749231479E+04 -0.71369052721E+03 -0.32740384865E+03  0.14973236439E+04  0.12699999809E+01 0.  1.
       -4    1    3    3    0  502  0.12749231479E+04  0.71369052721E+03  0.18989475687E+03  0.14733787134E+04  0.12699999809E+01 0. -1.
</event>
<event>
 5   0  0.5154476E-06  0.2941666E+04  0.7818609E-02  0.8260587E-01
        1   -1    0    0  501    0  0.00000000000E+00  0.00000000000E+00  0.15236606423E+04  0.15236606423E+04  0.50400001928E-02 0.  1.
       -1   -1    0    0    0  501  0.00000000000E+00  0.00000000000E+00 -0.14198369800E+04  0.14198369800E+04  0.50400001928E-02 0. -1.
    10030    2    1    2    0    0  0.00000000000E+00  0.00000000000E+00  0.10382366227E+03  0.29434976223E+04  0.29416660075E+04 0.  0.
        3    1    3    3  502    0  0.12690092667E+04 -0.29682340809E+03 -0.63031989462E+03  0.14476849914E+04  0.10100000352E+00 0. -1.
       -3    1    3    3    0  502 -0.12690092667E+04  0.29682340809E+03  0.73414355689E+03  0.14958126309E+04  0.10100000352E+00 0.  1.
</event>
<event>
 5   0  0.1382803E-05  0.2427470E+04  0.7818609E-02  0.8429290E-01
        2   -1    0    0  501    0  0.00000000000E+00  0.00000000000E+00  0.11916203525E+04  0.11916203525E+04  0.25500000920E-02 0.  1.
       -2   -1    0    0    0  501  0.00000000000E+00  0.00000000000E+00 -0.12362599217E+04  0.12362599217E+04  0.25500000920E-02 0. -1.
    10030    2    1    2    0    0  0.00000000000E+00  0.00000000000E+00 -0.44639569191E+02  0.24278802743E+04  0.24274698629E+04 0.  0.
        2    1    3    3  502    0 -0.19693682521E+03  0.23203183584E+03 -0.11974778372E+04  0.12355468653E+04  0.25500000920E-02 0. -1.
       -2    1    3    3    0  502  0.19693682521E+03 -0.23203183584E+03  0.11528382680E+04  0.11923334089E+04  0.25500000920E-02 0.  1.
</event>
<event>
 5   0  0.5261878E-06  0.2936731E+04  0.7818609E-02  0.8262032E-01
        1   -1    0    0  501    0  0.00000000000E+00  0.00000000000E+00  0.17078806397E+04  0.17078806398E+04  0.50400001928E-02 0. -1.
       -1   -1    0    0    0  501  0.00000000000E+00  0.00000000000E+00 -0.12624405536E+04  0.12624405537E+04  0.50400001928E-02 0.  1.
    10030    2    1    2    0    0  0.00000000000E+00  0.00000000000E+00  0.44544008610E+03  0.29703211934E+04  0.29367313670E+04 0.  0.
        5    1    3    3  502    0 -0.61550863291E+03 -0.14620273032E+03  0.15629608761E+04  0.16861479490E+04  0.46999998093E+01 0. -1.
       -5    1    3    3    0  502  0.61550863291E+03  0.14620273032E+03 -0.11175207900E+04  0.12841732444E+04  0.46999998093E+01 0.  1.
</event>
<event>
 5   0  0.1307832E-05  0.2881473E+04  0.7818609E-02  0.8278411E-01
        2   -1    0    0  501    0  0.00000000000E+00  0.00000000000E+00  0.20003367768E+04  0.20003367768E+04  0.25500000920E-02 0.  1.
       -2   -1    0    0    0  501  0.00000000000E+00  0.00000000000E+00 -0.10376859287E+04  0.10376859287E+04  0.25500000920E-02 0. -1.
    10030    2    1    2    0    0  0.00000000000E+00  0.00000000000E+00  0.96265084816E+03  0.30380227055E+04  0.28814727664E+04 0.  0.
        4    1    3    3  502    0  0.96725495598E+03 -0.65569412205E+03 -0.40719554271E+03  0.12374678802E+04  0.12699999809E+01 0. -1.
       -4    1    3    3    0  502 -0.96725495598E+03  0.65569412205E+03  0.13698463909E+04  0.18005548253E+04  0.12699999809E+01 0.  1.
</event>
<event>
 5   0  0.1336899E-05  0.2840798E+04  0.7818609E-02  0.8290713E-01
       -2   -1    0    0    0  501  0.00000000000E+00  0.00000000000E+00  0.16855811163E+04  0.16855811163E+04  0.25500000920E-02 0. -1.
        2   -1    0    0  501    0  0.00000000000E+00  0.00000000000E+00 -0.11969367387E+04  0.11969367387E+04  0.25500000920E-02 0.  1.
    10030    2    1    2    0    0  0.00000000000E+00  0.00000000000E+00  0.48864437757E+03  0.28825178550E+04  0.28407984541E+04 0.  0.
        1    1    3    3  502    0  0.78318281234E+03  0.98352768115E+03  0.91496114820E+03  0.15549456324E+04  0.50400001928E-02 0. -1.
       -1    1    3    3    0  502 -0.78318281234E+03 -0.98352768115E+03 -0.42631677063E+03  0.13275722225E+04  0.50400001928E-02 0.  1.
</event>
<event>
 5   0  0.1336899E-05  0.2853612E+04  0.7818609E-02  0.8286815E-01
        2   -1    0    0  501    0  0.00000000000E+00  0.00000000000E+00  0.14393369940E+04  0.14393369940E+04  0.25500000920E-02 0.  1.
       -2   -1    0    0    0  501  0.00000000000E+00  0.00000000000E+00 -0.14143843381E+04  0.14143843381E+04  0.25500000920E-02 0. -1.
    10030    2    1    2    0    0  0.00000000000E+00  0.00000000000E+00  0.24952655953E+02  0.28537213321E+04  0.28536122382E+04 0.  0.
        1    1    3    3  502    0 -0.83277425070E+03  0.33199873124E+03  0.11224915509E+04  0.14365665289E+04  0.50400001928E-02 0.  1.
       -1    1    3    3    0  502  0.83277425070E+03 -0.33199873124E+03 -0.10975388949E+04  0.14171548032E+04  0.50400001928E-02 0. -1.
</event>
<event>
 5   0  0.5002240E-06  0.2918889E+04  0.7818609E-02  0.8267280E-01
       -1   -1    0    0    0  501  0.00000000000E+00  0.00000000000E+00  0.11587258798E+04  0.11587258798E+04  0.50400001928E-02 0.  1.
        1   -1    0    0  501    0  0.00000000000E+00  0.00000000000E+00 -0.18382071315E+04  0.18382071315E+04  0.50400001928E-02 0. -1.
    10030    2    1    2    0    0  0.00000000000E+00  0.00000000000E+00 -0.67948125170E+03  0.29969330112E+04  0.29188889500E+04 0.  0.
        4    1    3    3  502    0 -0.83146634354E+03 -0.81576882542E+03 -0.12425469126E+04  0.17031557474E+04  0.12699999809E+01 0. -1.
       -4    1    3    3    0  502  0.83146634354E+03  0.81576882542E+03  0.56306566093E+03  0.12937772638E+04  0.12699999809E+01 0.  1.
</event>
<event>
 5   0  0.1307832E-05  0.2932719E+04  0.7818609E-02  0.8263209E-01
        2   -1    0    0  501    0  0.00000000000E+00  0.00000000000E+00  0.11607682564E+04  0.11607682564E+04  0.25500000920E-02 0.  1.
       -2   -1    0    0    0  501  0.00000000000E+00  0.00000000000E+00 -0.18524030543E+04  0.18524030543E+04  0.25500000920E-02 0. -1.
    10030    2    1    2    0    0  0.00000000000E+00  0.00000000000E+00 -0.69163479791E+03  0.30131713108E+04  0.29327193276E+04 0.  0.
        4    1    3    3  502    0 -0.37737145624E+02  0.41661060370E+03 -0.17897972111E+04  0.18380326866E+04  0.12699999809E+01 0. -1.
       -4    1    3    3    0  502  0.37737145624E+02 -0.41661060370E+03  0.10981624132E+04  0.11751386241E+04  0.12699999809E+01 0.  1.
</event>
<event>
 5   0  0.1307832E-05  0.2874371E+04  0.7818609E-02  0.8280544E-01
       -2   -1    0    0    0  501  0.00000000000E+00  0.00000000000E+00  0.13500862398E+04  0.13500862398E+04  0.25500000920E-02 0.  1.
        2   -1    0    0  501    0  0.00000000000E+00  0.00000000000E+00 -0.15299039159E+04  0.15299039159E+04  0.25500000920E-02 0. -1.
    10030    2    1    2    0    0  0.00000000000E+00  0.00000000000E+00 -0.17981767607E+03  0.28799901557E+04  0.28743710443E+04 0.  0.
        4    1    3    3  502    0 -0.52531677337E+03  0.99863822697E+02  0.12467043016E+04  0.13565410882E+04  0.12699999809E+01 0.  1.
       -4    1    3    3    0  502  0.52531677337E+03 -0.99863822697E+02 -0.14265219777E+04  0.15234490675E+04  0.12699999809E+01 0. -1.
</event>
<event>
 5   0  0.5352212E-06  0.2924898E+04  0.7818609E-02  0.8265508E-01
       -1   -1    0    0    0  501  0.00000000000E+00  0.00000000000E+00  0.96384617484E+03  0.96384617485E+03  0.50400001928E-02 0.  1.
        1   -1    0    0  501    0  0.00000000000E+00  0.00000000000E+00 -0.22189817697E+04  0.22189817697E+04  0.50400001928E-02 0. -1.
    10030    2    1    2    0    0  0.00000000000E+00  0.00000000000E+00 -0.12551355949E+04  0.31828279446E+04  0.29248980090E+04 0.  0.
        2    1    3    3  502    0 -0.98480420380E+03 -0.10670847098E+04 -0.43831133517E+03  0.15167814359E+04  0.25500000920E-02 0. -1.
       -2    1    3    3    0  502  0.98480420380E+03  0.10670847098E+04 -0.81682425974E+03  0.16660465087E+04  0.25500000920E-02 0.  1.
</event>
<event>
 5   0  0.1307832E-05  0.2903480E+04  0.7818609E-02  0.8271843E-01
       -2   -1    0    0    0  501  0.00000000000E+00  0.00000000000E+00  0.10416273674E+04  0.10416273674E+04  0.25500000920E-02 0.  1.
        2   -1    0    0  501    0  0.00000000000E+00  0.00000000000E+00 -0.20233228361E+04  0.20233228361E+04  0.25500000920E-02 0. -1.
    10030    2    1    2    0    0  0.00000000000E+00  0.00000000000E+00 -0.98169546874E+03  0.30649502034E+04  0.29034795946E+04 0.  0.
        4    1    3    3  502    0  0.11759807560E+03  0.57323471078E+03  0.91161619182E+03  0.10832696041E+04  0.12699999809E+01 0.  1.
       -4    1    3    3    0  502 -0.11759807560E+03 -0.57323471078E+03 -0.18933116606E+04  0.19816805994E+04  0.12699999809E+01 0. -1.
</event>
<event>
 5   0  0.5154476E-06  0.2959567E+04  0.7818609E-02  0.8255372E-01
        1   -1    0    0  501    0  0.00000000000E+00  0.00000000000E+00  0.27955308468E+04  0.27955308468E+04  0.50400001928E-02 0. -1.
       -1   -1    0    0    0  501  0.00000000000E+00  0.00000000000E+00 -0.78330706258E+03  0.78330706260E+03  0.50400001928E-02 0.  1.
    10030    2    1    2    0    0  0.00000000000E+00  0.00000000000E+00  0.20122237842E+04  0.35788379094E+04  0.29595668980E+04 0.  0.
        3    1    3    3  502    0 -0.89154413331E+03  0.11283007180E+04  0.58400855821E+03  0.15520887404E+04  0.10100000352E+00 0. -1.
       -3    1    3    3    0  502  0.89154413331E+03 -0.11283007180E+04  0.14282152260E+04  0.20267491689E+04  0.10100000352E+00 0.  1.
</event>
<event>
 5   0  0.5261878E-06  0.2921842E+04  0.7818609E-02  0.8266408E-01
        1   -1    0    0  501    0  0.00000000000E+00  0.00000000000E+00  0.13890155118E+04  0.13890155118E+04  0.50400001928E-02 0. -1.
       -1   -1    0    0    0  501  0.00000000000E+00  0.00000000000E+00 -0.15365489716E+04  0.15365489716E+04  0.50400001928E-02 0.  1.
    10030    2    1    2    0    0  0.00000000000E+00  0.00000000000E+00 -0.14753345975E+03  0.29255644834E+04  0.29218421287E+04 0.  0.
        5    1    3    3  502    0  0.33780610779E+03 -0.22924356177E+03  0.13307329096E+04  0.13919546486E+04  0.46999998093E+01 0. -1.
       -5    1    3    3    0  502 -0.33780610779E+03  0.22924356177E+03 -0.14782663693E+04  0.15336098349E+04  0.46999998093E+01 0.  1.
</event>
<event>
 5   0  0.5154476E-06  0.2868941E+04  0.7818609E-02  0.8282179E-01
        1   -1    0    0  501    0  0.00000000000E+00  0.00000000000E+00  0.23941727858E+04  0.23941727858E+04  0.50400001928E-02 0.  1.
       -1   -1    0    0    0  501  0.00000000000E+00  0.00000000000E+00 -0.85946412417E+03  0.85946412419E+03  0.50400001928E-02 0. -1.
    10030    2    1    2    0    0  0.00000000000E+00  0.00000000000E+00  0.15347086616E+04  0.32536369099E+04  0.28689410008E+04 0.  0.
        3    1    3    3  502    0  0.96235606386E+02  0.11240500585E+04 -0.23742354780E+03  0.11528745713E+04  0.10100000352E+00 0. -1.
       -3    1    3    3    0  502 -0.96235606386E+02 -0.11240500585E+04  0.17721322094E+04  0.21007623387E+04  0.10100000352E+00 0.  1.
</event>
<event>
 5   0  0.5352212E-06  0.2865467E+04  0.7818609E-02  0.8283227E-01
        1   -1    0    0  501    0  0.00000000000E+00  0.00000000000E+00  0.16014297777E+04  0.16014297777E+04  0.50400001928E-02 0. -1.
       -1   -1    0    0    0  501  0.00000000000E+00  0.00000000000E+00 -0.12818079920E+04  0.12818079920E+04  0.50400001928E-02 0.  1.
    10030    2    1    2    0    0  0.00000000000E+00  0.00000000000E+00  0.31962178567E+03  0.28832377697E+04  0.28654671435E+04 0.  0.
        2    1    3    3  502    0 -0.10877956364E+04  0.33148623987E+03  0.10367333906E+04  0.15388302691E+04  0.25500000920E-02 0. -1.
       -2    1    3    3    0  502  0.10877956364E+04 -0.33148623987E+03 -0.71711160496E+03  0.13444075006E+04  0.25500000920E-02 0.  1.
</event>
<event>
 5   0  0.1385669E-05  0.2649948E+04  0.7818609E-02  0.8351430E-01
        2   -1    0    0  501    0  0.00000000000E+00  0.00000000000E+00  0.18302108756E+04  0.18302108756E+04  0.25500000920E-02 0. -1.
       -2   -1    0    0    0  501  0.00000000000E+00  0.00000000000E+00 -0.95921005212E+03  0.95921005212E+03  0.25500000920E-02 0.  1.
    10030    2    1    2    0    0  0.00000000000E+00  0.00000000000E+00  0.87100082348E+03  0.27894209277E+04  0.26499484292E+04 0.  0.
        3    1    3    3  502    0 -0.70472210404E+03  0.24982108076E+03  0.15869245109E+04  0.17542443473E+04  0.10100000352E+00 0. -1.
       -3    1    3    3    0  502  0.70472210404E+03 -0.24982108076E+03 -0.71592368744E+03  0.10351765805E+04  0.10100000352E+00 0.  1.
</event>
<event>
 5   0  0.1339837E-05  0.2902653E+04  0.7818609E-02  0.8272089E-01
       -2   -1    0    0    0  501  0.00000000000E+00  0.00000000000E+00  0.13960898310E+04  0.13960898310E+04  0.25500000920E-02 0.  1.
        2   -1    0    0  501    0  0.00000000000E+00  0.00000000000E+00 -0.15087486295E+04  0.15087486295E+04  0.25500000920E-02 0. -1.
    10030    2    1    2    0    0  0.00000000000E+00  0.00000000000E+00 -0.11265879849E+03  0.29048384605E+04  0.29026530066E+04 0.  0.
        5    1    3    3  502    0  0.26244667200E+03  0.13634532397E+03  0.13656057019E+04  0.13972721017E+04  0.46999998093E+01 0.  1.
       -5    1    3    3    0  502 -0.26244667200E+03 -0.13634532397E+03 -0.14782645004E+04  0.15075663588E+04  0.46999998093E+01 0. -1.
</event>
<event>
 5   0  0.1382803E-05  0.1896603E+04  0.7818609E-02  0.8656549E-01
       -2   -1    0    0    0  501  0.00000000000E+00  0.00000000000E+00  0.87500618441E+03  0.87500618442E+03  0.25500000920E-02 0. -1.
        2   -1    0    0  501    0  0.00000000000E+00  0.00000000000E+00 -0.10277368236E+04  0.10277368236E+04  0.25500000920E-02 0.  1.
    10030    2    1    2    0    0  0.00000000000E+00  0.00000000000E+00 -0.15273063917E+03  0.19027430080E+04  0.18966033603E+04 0.  0.
        2    1    3    3  502    0  0.59799704829E+03 -0.20720380013E+03  0.63213764842E+03  0.89450091733E+03  0.25500000920E-02 0. -1.
       -2    1    3    3    0  502 -0.59799704829E+03  0.20720380013E+03 -0.78486828758E+03  0.10082420907E+04  0.25500000920E-02 0.  1.
</event>
<event>
 5   0  0.5352212E-06  0.2923829E+04  0.7818609E-02  0.8265823E-01
       -1   -1    0    0    0  501  0.00000000000E+00  0.00000000000E+00  0.97033343242E+03  0.97033343243E+03  0.50400001928E-02 0. -1.
        1   -1    0    0  501    0  0.00000000000E+00  0.00000000000E+00 -0.22025351344E+04  0.22025351344E+04  0.50400001928E-02 0.  1.
    10030    2    1    2    0    0  0.00000000000E+00  0.00000000000E+00 -0.12322017020E+04  0.31728685668E+04  0.29238286386E+04 0.  0.
        2    1    3    3  502    0 -0.11851643011E+04  0.85367051610E+03 -0.68322147542E+03  0.16125009628E+04  0.25500000920E-02 0.  1.
       -2    1    3    3    0  502  0.11851643011E+04 -0.85367051610E+03 -0.54898022656E+03  0.15603676040E+04  0.25500000920E-02 0. -1.
</event>
<event>
 5   0  0.1336899E-05  0.2763880E+04  0.7818609E-02  0.8314571E-01
       -2   -1    0    0    0  501  0.00000000000E+00  0.00000000000E+00  0.14576629911E+04  0.14576629911E+04  0.25500000920E-02 0. -1.
        2   -1    0    0  501    0  0.00000000000E+00  0.00000000000E+00 -0.13101509623E+04  0.13101509623E+04  0.25500000920E-02 0.  1.
    10030    2    1    2    0    0  0.00000000000E+00  0.00000000000E+00  0.14751202884E+03  0.27678139534E+04  0.27638802945E+04 0.  0.
        1    1    3    3  502    0  0.13194210737E+04 -0.27264961170E+03  0.38168151274E+03  0.14003180202E+04  0.50400001928E-02 0. -1.
       -1    1    3    3    0  502 -0.13194210737E+04  0.27264961170E+03 -0.23416948389E+03  0.13674959333E+04  0.50400001928E-02 0.  1.
</event>
<event>
 5   0  0.4590125E-06  0.2798617E+04  0.7818609E-02  0.8303698E-01
       -3   -1    0    0    0  501  0.00000000000E+00  0.00000000000E+00  0.13563171588E+04  0.13563171625E+04  0.10100000352E+00 0.  1.
        3   -1    0    0  501    0  0.00000000000E+00  0.00000000000E+00 -0.14436630289E+04  0.14436630324E+04  0.10100000352E+00 0. -1.
    10030    2    1    2    0    0  0.00000000000E+00  0.00000000000E+00 -0.87345870101E+02  0.27999801950E+04  0.27986174785E+04 0.  0.
        4    1    3    3  502    0 -0.39266750172E+03 -0.10393907292E+03  0.12960355576E+04  0.13581976576E+04  0.12699999809E+01 0.  1.
       -4    1    3    3    0  502  0.39266750172E+03  0.10393907292E+03 -0.13833814277E+04  0.14417825374E+04  0.12699999809E+01 0. -1.
</event>
<event>
 5   0  0.4590125E-06  0.2644697E+04  0.7818609E-02  0.8353175E-01
       -4   -1    0    0    0  501  0.00000000000E+00  0.00000000000E+00  0.21249041384E+04  0.21249045179E+04  0.12699999809E+01 0.  1.
        4   -1    0    0  501    0  0.00000000000E+00  0.00000000000E+00 -0.82290939424E+03  0.82291037424E+03  0.12699999809E+01 0. -1.
    10030    2    1    2    0    0  0.00000000000E+00  0.00000000000E+00  0.13019947441E+04  0.29478148921E+04  0.26446970194E+04 0.  0.
        1    1    3    3  502    0  0.12118877637E+04 -0.51532328669E+02  0.64073157943E+02  0.12146739901E+04  0.50400001928E-02 0.  1.
       -1    1    3    3    0  502 -0.12118877637E+04  0.51532328669E+02  0.12379215862E+04  0.17331409020E+04  0.50400001928E-02 0. -1.
</event>
<event>
 5   0  0.5059249E-06  0.3076681E+04  0.7818609E-02  0.8222167E-01
       -1   -1    0    0    0  501  0.00000000000E+00  0.00000000000E+00  0.13075533735E+04  0.13075533735E+04  0.50400001928E-02 0.  1.
        1   -1    0    0  501    0  0.00000000000E+00  0.00000000000E+00 -0.18098624900E+04  0.18098624900E+04  0.50400001928E-02 0. -1.
    10030    2    1    2    0    0  0.00000000000E+00  0.00000000000E+00 -0.50230911650E+03  0.31174158635E+04  0.30766812018E+04 0.  0.
        1    1    3    3  502    0 -0.78744183801E+03  0.47222501086E+03  0.99946032822E+03  0.13571963958E+04  0.50400001928E-02 0.  1.
       -1    1    3    3    0  502  0.78744183801E+03 -0.47222501086E+03 -0.15017694447E+04  0.17602194676E+04  0.50400001928E-02 0. -1.
</event>
<event>
 5   0  0.5154476E-06  0.2884451E+04  0.7818609E-02  0.8277519E-01
        1   -1    0    0  501    0  0.00000000000E+00  0.00000000000E+00  0.14727822894E+04  0.14727822894E+04  0.50400001928E-02 0.  1.
       -1   -1    0    0    0  501  0.00000000000E+00  0.00000000000E+00 -0.14123025607E+04  0.14123025607E+04  0.50400001928E-02 0. -1.
    10030    2    1    2    0    0  0.00000000000E+00  0.00000000000E+00  0.60479728732E+02  0.28850848501E+04  0.28844508654E+04 0.  0.
        3    1    3    3  502    0 -0.12101227789E+03  0.85100260505E+03 -0.11281013668E+04  0.14182602403E+04  0.10100000352E+00 0. -1.
       -3    1    3    3    0  502  0.12101227789E+03 -0.85100260505E+03  0.11885810955E+04  0.14668246098E+04  0.10100000352E+00 0.  1.
</event>
<event>
 5   0  0.5352212E-06  0.2956315E+04  0.7818609E-02  0.8256317E-01
       -1   -1    0    0    0  501  0.00000000000E+00  0.00000000000E+00  0.17088723348E+04  0.17088723348E+04  0.50400001928E-02 0. -1.
        1   -1    0    0  501    0  0.00000000000E+00  0.00000000000E+00 -0.12785914460E+04  0.12785914460E+04  0.50400001928E-02 0.  1.
    10030    2    1    2    0    0  0.00000000000E+00  0.00000000000E+00  0.43028088874E+03  0.29874637808E+04  0.29563149694E+04 0.  0.
        2    1    3    3  502    0 -0.93168590598E+03  0.98011475330E+03 -0.38804564931E+03  0.14068557080E+04  0.25500000920E-02 0.  1.
       -2    1    3    3    0  502  0.93168590598E+03 -0.98011475330E+03  0.81832653805E+03  0.15806080728E+04  0.25500000920E-02 0. -1.
</event>
<event>
 5   0  0.5154476E-06  0.2903821E+04  0.7818609E-02  0.8271742E-01
        1   -1    0    0  501    0  0.00000000000E+00  0.00000000000E+00  0.17970661260E+04  0.17970661260E+04  0.50400001928E-02 0.  1.
       -1   -1    0    0    0  501  0.00000000000E+00  0.00000000000E+00 -0.11730476275E+04  0.11730476275E+04  0.50400001928E-02 0. -1.
    10030    2    1    2    0    0  0.00000000000E+00  0.00000000000E+00  0.62401849848E+03  0.29701137534E+04  0.29038210382E+04 0.  0.
        3    1    3    3  502    0  0.12525930615E+04  0.59250210477E+03  0.75549285202E+03  0.15782324231E+04  0.10100000352E+00 0.  1.
       -3    1    3    3    0  502 -0.12525930615E+04 -0.59250210477E+03 -0.13147435354E+03  0.13918813303E+04  0.10100000352E+00 0. -1.
</event>
<event>
 5   0  0.5002240E-06  0.2946266E+04  0.7818609E-02  0.8259244E-01
        1   -1    0    0  501    0  0.00000000000E+00  0.00000000000E+00  0.16767994847E+04  0.16767994847E+04  0.50400001928E-02 0.  1.
       -1   -1    0    0    0  501  0.00000000000E+00  0.00000000000E+00 -0.12942039009E+04  0.12942039009E+04  0.50400001928E-02 0. -1.
    10030    2    1    2    0    0  0.00000000000E+00  0.00000000000E+00  0.38259558384E+03  0.29710033856E+04  0.29462657274E+04 0.  0.
        4    1    3    3  502    0  0.14879776388E+03 -0.84168610904E+02 -0.12841667738E+04  0.12954964475E+04  0.12699999809E+01 0. -1.
       -4    1    3    3    0  502 -0.14879776388E+03  0.84168610904E+02  0.16667623577E+04  0.16755069381E+04  0.12699999809E+01 0.  1.
</event>
<event>
 5   0  0.5352212E-06  0.2880421E+04  0.7818609E-02  0.8278727E-01
        1   -1    0    0  501    0  0.00000000000E+00  0.00000000000E+00  0.19618700120E+04  0.19618700120E+04  0.50400001928E-02 0.  1.
       -1   -1    0    0    0  501  0.00000000000E+00  0.00000000000E+00 -0.10572596204E+04  0.10572596204E+04  0.50400001928E-02 0. -1.
    10030    2    1    2    0    0  0.00000000000E+00  0.00000000000E+00  0.90461039163E+03  0.30191296324E+04  0.28804207638E+04 0.  0.
        2    1    3    3  502    0  0.94423112568E+03 -0.56004510498E+02  0.15906511067E+04  0.18506430956E+04  0.25500000920E-02 0.  1.
       -2    1    3    3    0  502 -0.94423112568E+03  0.56004510498E+02 -0.68604071509E+03  0.11684865368E+04  0.25500000920E-02 0. -1.
</event>
<event>
 5   0  0.1382803E-05  0.1974264E+04  0.7818609E-02  0.8618749E-01
       -2   -1    0    0    0  501  0.00000000000E+00  0.00000000000E+00  0.90919675289E+03  0.90919675289E+03  0.25500000920E-02 0. -1.
        2   -1    0    0  501    0  0.00000000000E+00  0.00000000000E+00 -0.10717472478E+04  0.10717472478E+04  0.25500000920E-02 0.  1.
    10030    2    1    2    0    0  0.00000000000E+00  0.00000000000E+00 -0.16255049495E+03  0.19809440007E+04  0.19742635261E+04 0.  0.
        2    1    3    3  502    0  0.52164268692E+03 -0.79042675027E+03 -0.36068399120E+03  0.10133994681E+04  0.25500000920E-02 0.  1.
       -2    1    3    3    0  502 -0.52164268692E+03  0.79042675027E+03  0.19813349625E+03  0.96754453267E+03  0.25500000920E-02 0. -1.
</event>
<event>
 5   0  0.5352212E-06  0.2796777E+04  0.7818609E-02  0.8304270E-01
        1   -1    0    0  501    0  0.00000000000E+00  0.00000000000E+00  0.15281031472E+04  0.15281031472E+04  0.50400001928E-02 0. -1.
       -1   -1    0    0    0  501  0.00000000000E+00  0.00000000000E+00 -0.12796848053E+04  0.12796848053E+04  0.50400001928E-02 0.  1.
    10030    2    1    2    0    0  0.00000000000E+00  0.00000000000E+00  0.24841834184E+03  0.28077879525E+04  0.27967769867E+04 0.  0.
        2    1    3    3  502    0 -0.10411996875E+03 -0.15429017972E+02  0.15241205487E+04  0.15277507878E+04  0.25500000920E-02 0. -1.
       -2    1    3    3    0  502  0.10411996875E+03  0.15429017972E+02 -0.12757022069E+04  0.12800371647E+04  0.25500000920E-02 0.  1.
</event>
<event>
 5   0  0.5261878E-06  0.2868352E+04  0.7818609E-02  0.8282356E-01
        1   -1    0    0  501    0  0.00000000000E+00  0.00000000000E+00  0.18879856171E+04  0.18879856171E+04  0.50400001928E-02 0. -1.
       -1   -1    0    0    0  501  0.00000000000E+00  0.00000000000E+00 -0.10894475012E+04  0.10894475012E+04  0.50400001928E-02 0.  1.
    10030    2    1    2    0    0  0.00000000000E+00  0.00000000000E+00  0.79853811589E+03  0.29774331182E+04  0.28683522885E+04 0.  0.
        5    1    3    3  502    0  0.70199954494E+03 -0.48339962395E+03  0.15965448632E+04  0.18098221315E+04  0.46999998093E+01 0. -1.
       -5    1    3    3    0  502 -0.70199954494E+03  0.48339962395E+03 -0.79800674732E+03  0.11676109867E+04  0.46999998093E+01 0.  1.
</event>
<event>
 5   0  0.5261878E-06  0.3092468E+04  0.7818609E-02  0.8217808E-01
        1   -1    0    0  501    0  0.00000000000E+00  0.00000000000E+00  0.92604162333E+03  0.92604162335E+03  0.50400001928E-02 0. -1.
       -1   -1    0    0    0  501  0.00000000000E+00  0.00000000000E+00 -0.25817843639E+04  0.25817843640E+04  0.50400001928E-02 0.  1.
    10030    2    1    2    0    0  0.00000000000E+00  0.00000000000E+00 -0.16557427406E+04  0.35078259873E+04  0.30924681298E+04 0.  0.
        5    1    3    3  502    0  0.99212196053E+03  0.13028266604E+03  0.50924142219E+03  0.11227771256E+04  0.46999998093E+01 0. -1.
       -5    1    3    3    0  502 -0.99212196053E+03 -0.13028266604E+03 -0.21649841628E+04  0.23850488617E+04  0.46999998093E+01 0.  1.
</event>
<event>
 5   0  0.1385669E-05  0.2942260E+04  0.7818609E-02  0.8260414E-01
        2   -1    0    0  501    0  0.00000000000E+00  0.00000000000E+00  0.22811727411E+04  0.22811727411E+04  0.25500000920E-02 0.  1.
       -2   -1    0    0    0  501  0.00000000000E+00  0.00000000000E+00 -0.94873310065E+03  0.94873310066E+03  0.25500000920E-02 0. -1.
    10030    2    1    2    0    0  0.00000000000E+00  0.00000000000E+00  0.13324396405E+04  0.32299058418E+04  0.29422604153E+04 0.  0.
        3    1    3    3  502    0  0.18891636963E+03  0.70563291797E+03 -0.73557586338E+03  0.10366672902E+04  0.10100000352E+00 0. -1.
       -3    1    3    3    0  502 -0.18891636963E+03 -0.70563291797E+03  0.20680155039E+04  0.21932385516E+04  0.10100000352E+00 0.  1.
</event>
<event>
 5   0  0.1385669E-05  0.2889091E+04  0.7818609E-02  0.8276131E-01
       -2   -1    0    0    0  501  0.00000000000E+00  0.00000000000E+00  0.12604899426E+04  0.12604899426E+04  0.25500000920E-02 0.  1.
        2   -1    0    0  501    0  0.00000000000E+00  0.00000000000E+00 -0.16554761325E+04  0.16554761325E+04  0.25500000920E-02 0. -1.
    10030    2    1    2    0    0  0.00000000000E+00  0.00000000000E+00 -0.39498618997E+03  0.29159660751E+04  0.28890905249E+04 0.  0.
        3    1    3    3  502    0 -0.70066989031E+03  0.70283916024E+03  0.86193307250E+03  0.13144770108E+04  0.10100000352E+00 0.  1.
       -3    1    3    3    0  502  0.70066989031E+03 -0.70283916024E+03 -0.12569192625E+04  0.16014890642E+04  0.10100000352E+00 0. -1.
</event>
<event>
 5   0  0.1307832E-05  0.1944939E+04  0.7818609E-02  0.8632805E-01
        2   -1    0    0  501    0  0.00000000000E+00  0.00000000000E+00  0.17899245821E+04  0.17899245821E+04  0.25500000920E-02 0.  1.
       -2   -1    0    0    0  501  0.00000000000E+00  0.00000000000E+00 -0.52834463421E+03  0.52834463422E+03  0.25500000920E-02 0. -1.
    10030    2    1    2    0    0  0.00000000000E+00  0.00000000000E+00  0.12615799479E+04  0.23182692163E+04  0.19449391236E+04 0.  0.
        4    1    3    3  502    0 -0.18518422078E+03 -0.92899920914E+03  0.89291782549E+03  0.13017820794E+04  0.12699999809E+01 0.  1.
       -4    1    3    3    0  502  0.18518422078E+03  0.92899920914E+03  0.36866212242E+03  0.10164871370E+04  0.12699999809E+01 0. -1.
</event>
<event>
 5   0  0.1385669E-05  0.2889699E+04  0.7818609E-02  0.8275949E-01
       -2   -1    0    0    0  501  0.00000000000E+00  0.00000000000E+00  0.11432840311E+04  0.11432840311E+04  0.25500000920E-02 0.  1.
        2   -1    0    0  501    0  0.00000000000E+00  0.00000000000E+00 -0.18259592023E+04  0.18259592023E+04  0.25500000920E-02 0. -1.
    10030    2    1    2    0    0  0.00000000000E+00  0.00000000000E+00 -0.68267517125E+03  0.29692432334E+04  0.28896989445E+04 0.  0.
        3    1    3    3  502    0 -0.48589003335E+03 -0.11870127916E+04  0.34218134535E+03  0.13274699903E+04  0.10100000352E+00 0.  1.
       -3    1    3    3    0  502  0.48589003335E+03  0.11870127916E+04 -0.10248565166E+04  0.16417732431E+04  0.10100000352E+00 0. -1.
</event>
<event>
 5   0  0.1336899E-05  0.2894727E+04  0.7818609E-02  0.8274448E-01
        2   -1    0    0  501    0  0.00000000000E+00  0.00000000000E+00  0.25295620850E+04  0.25295620850E+04  0.25500000920E-02 0. -1.
       -2   -1    0    0    0  501  0.00000000000E+00  0.00000000000E+00 -0.82815146779E+03  0.82815146780E+03  0.25500000920E-02 0.  1.
    10030    2    1    2    0    0  0.00000000000E+00  0.00000000000E+00  0.17014106172E+04  0.33577135528E+04  0.28947266217E+04 0.  0.
        1    1    3    3  502    0  0.12603954284E+04  0.64397935298E+03  0.49973048747E+03  0.15010118597E+04  0.50400001928E-02 0.  1.
       -1    1    3    3    0  502 -0.12603954284E+04 -0.64397935298E+03  0.12016801297E+04  0.18567016931E+04  0.50400001928E-02 0. -1.
</event>
<event>
 5   0  0.1385669E-05  0.2701400E+04  0.7818609E-02  0.8334551E-01
       -2   -1    0    0    0  501  0.00000000000E+00  0.00000000000E+00  0.30268521713E+04  0.30268521713E+04  0.25500000920E-02 0. -1.
        2   -1    0    0  501    0  0.00000000000E+00  0.00000000000E+00 -0.60273505232E+03  0.60273505233E+03  0.25500000920E-02 0.  1.
    10030    2    1    2    0    0  0.00000000000E+00  0.00000000000E+00  0.24241171190E+04  0.36295872237E+04  0.27013995646E+04 0.  0.
        3    1    3    3  502    0  0.43612541033E+03  0.12727097053E+04  0.13732593128E+04  0.19224558559E+04  0.10100000352E+00 0.  1.
       -3    1    3    3    0  502 -0.43612541033E+03 -0.12727097053E+04  0.10508578062E+04  0.17071313677E+04  0.10100000352E+00 0. -1.
</event>
<event>
 5   0  0.1339837E-05  0.2278813E+04  0.7818609E-02  0.8486322E-01
       -2   -1    0    0    0  501  0.00000000000E+00  0.00000000000E+00  0.92804396410E+03  0.92804396410E+03  0.25500000920E-02 0. -1.
        2   -1    0    0  501    0  0.00000000000E+00  0.00000000000E+00 -0.13989067527E+04  0.13989067527E+04  0.25500000920E-02 0.  1.
    10030    2    1    2    0    0  0.00000000000E+00  0.00000000000E+00 -0.47086278860E+03  0.23269507168E+04  0.22788128209E+04 0.  0.
        5    1    3    3  502    0 -0.50507671967E+03  0.65842679722E+03 -0.10326910306E+04  0.13248023229E+04  0.46999998093E+01 0.  1.
       -5    1    3    3    0  502  0.50507671967E+03 -0.65842679722E+03  0.56182824195E+03  0.10021483940E+04  0.46999998093E+01 0. -1.
</event>
<event>
 5   0  0.5154476E-06  0.2871578E+04  0.7818609E-02  0.8281384E-01
        1   -1    0    0  501    0  0.00000000000E+00  0.00000000000E+00  0.21952124669E+04  0.21952124670E+04  0.50400001928E-02 0. -1.
       -1   -1    0    0    0  501  0.00000000000E+00  0.00000000000E+00 -0.93908455582E+03  0.93908455583E+03  0.50400001928E-02 0.  1.
    10030    2    1    2    0    0  0.00000000000E+00  0.00000000000E+00  0.12561279111E+04  0.31342970228E+04  0.28715780501E+04 0.  0.
        3    1    3    3  502    0  0.10381804255E+04  0.78592421961E+03  0.12883876592E+04  0.18317855348E+04  0.10100000352E+00 0. -1.
       -3    1    3    3    0  502 -0.10381804255E+04 -0.78592421961E+03 -0.32259748124E+02  0.13025114880E+04  0.10100000352E+00 0.  1.
</event>
<event>
 5   0  0.5059249E-06  0.2851869E+04  0.7818609E-02  0.8287344E-01
       -1   -1    0    0    0  501  0.00000000000E+00  0.00000000000E+00  0.30716383582E+04  0.30716383583E+04  0.50400001928E-02 0.  1.
        1   -1    0    0  501    0  0.00000000000E+00  0.00000000000E+00 -0.66195586291E+03  0.66195586293E+03  0.50400001928E-02 0. -1.
    10030    2    1    2    0    0  0.00000000000E+00  0.00000000000E+00  0.24096824953E+04  0.37335942212E+04  0.28518688750E+04 0.  0.
        1    1    3    3  502    0 -0.70472668805E+03 -0.78211958226E+03  0.24639230232E+04  0.26794154979E+04  0.50400001928E-02 0.  1.
       -1    1    3    3    0  502  0.70472668805E+03  0.78211958226E+03 -0.54240527878E+02  0.10541787233E+04  0.50400001928E-02 0. -1.
</event>
<event>
 5   0  0.5154476E-06  0.2831173E+04  0.7818609E-02  0.8293655E-01
        1   -1    0    0  501    0  0.00000000000E+00  0.00000000000E+00  0.16972485145E+04  0.16972485145E+04  0.50400001928E-02 0.  1.
       -1   -1    0    0    0  501  0.00000000000E+00  0.00000000000E+00 -0.11806672756E+04  0.11806672756E+04  0.50400001928E-02 0. -1.
    10030    2    1    2    0    0  0.00000000000E+00  0.00000000000E+00  0.51658123892E+03  0.28779157901E+04  0.28311734526E+04 0.  0.
        3    1    3    3  502    0  0.50597088522E+03  0.16069671801E+03 -0.10756460591E+04  0.11995184144E+04  0.10100000352E+00 0. -1.
       -3    1    3    3    0  502 -0.50597088522E+03 -0.16069671801E+03  0.15922272981E+04  0.16783973757E+04  0.10100000352E+00 0.  1.
</event>
<event>
 5   0  0.5059249E-06  0.2918492E+04  0.7818609E-02  0.8267397E-01
       -1   -1    0    0    0  501  0.00000000000E+00  0.00000000000E+00  0.11945692028E+04  0.11945692028E+04  0.50400001928E-02 0. -1.
        1   -1    0    0  501    0  0.00000000000E+00  0.00000000000E+00 -0.17825662106E+04  0.17825662106E+04  0.50400001928E-02 0.  1.
    10030    2    1    2    0    0  0.00000000000E+00  0.00000000000E+00 -0.58799700779E+03  0.29771354133E+04  0.29184918688E+04 0.  0.
        1    1    3    3  502    0  0.26388811938E+03  0.45973814549E+03 -0.16808769090E+04  0.17624821375E+04  0.50400001928E-02 0.  1.
       -1    1    3    3    0  502 -0.26388811938E+03 -0.45973814549E+03  0.10928799012E+04  0.12146532758E+04  0.50400001928E-02 0. -1.
</event>
<event>
 5   0  0.5002240E-06  0.3000228E+04  0.7818609E-02  0.8243666E-01
       -1   -1    0    0    0  501  0.00000000000E+00  0.00000000000E+00  0.12742566691E+04  0.12742566691E+04  0.50400001928E-02 0. -1.
        1   -1    0    0  501    0  0.00000000000E+00  0.00000000000E+00 -0.17660042782E+04  0.17660042782E+04  0.50400001928E-02 0.  1.
    10030    2    1    2    0    0  0.00000000000E+00  0.00000000000E+00 -0.49174760916E+03  0.30402609473E+04  0.30002284774E+04 0.  0.
        4    1    3    3  502    0 -0.73777231706E+03  0.81209241797E+02  0.10751456635E+04  0.13064619181E+04  0.12699999809E+01 0. -1.
       -4    1    3    3    0  502  0.73777231706E+03 -0.81209241797E+02 -0.15668932727E+04  0.17337990292E+04  0.12699999809E+01 0.  1.
</event>
<event>
 5   0  0.1307832E-05  0.2879436E+04  0.7818609E-02  0.8279022E-01
        2   -1    0    0  501    0  0.00000000000E+00  0.00000000000E+00  0.10213874935E+04  0.10213874935E+04  0.25500000920E-02 0. -1.
       -2   -1    0    0    0  501  0.00000000000E+00  0.00000000000E+00 -0.20293838350E+04  0.20293838350E+04  0.25500000920E-02 0.  1.
    10030    2    1    2    0    0  0.00000000000E+00  0.00000000000E+00 -0.10079963415E+04  0.30507713285E+04  0.28794355478E+04 0.  0.
        4    1    3    3  502    0 -0.56257566747E+03  0.11820752787E+04 -0.11388097894E+04  0.17351318957E+04  0.12699999809E+01 0.  1.
       -4    1    3    3    0  502  0.56257566747E+03 -0.11820752787E+04  0.13081344788E+03  0.13156394328E+04  0.12699999809E+01 0. -1.
</event>
<event>
 5   0  0.1339837E-05  0.2919845E+04  0.7818609E-02  0.8266997E-01
        2   -1    0    0  501    0  0.00000000000E+00  0.00000000000E+00  0.15697945013E+04  0.15697945013E+04  0.25500000920E-02 0. -1.
       -2   -1    0    0    0  501  0.00000000000E+00  0.00000000000E+00 -0.13577404361E+04  0.13577404361E+04  0.25500000920E-02 0.  1.
    10030    2    1    2    0    0  0.00000000000E+00  0.00000000000E+00  0.21205406517E+03  0.29275349374E+04  0.29198448389E+04 0.  0.
        5    1    3    3  502    0  0.94221495668E+03  0.55227370941E+03 -0.86532590982E+03  0.13934081580E+04  0.46999998093E+01 0.  1.
       -5    1    3    3    0  502 -0.94221495668E+03 -0.55227370941E+03  0.10773799750E+04  0.15341267794E+04  0.46999998093E+01 0. -1.
</event>
<event>
 5   0  0.5002240E-06  0.2918901E+04  0.7818609E-02  0.8267276E-01
       -1   -1    0    0    0  501  0.00000000000E+00  0.00000000000E+00  0.12403992211E+04  0.12403992211E+04  0.50400001928E-02 0. -1.
        1   -1    0    0  501    0  0.00000000000E+00  0.00000000000E+00 -0.17171858977E+04  0.17171858977E+04  0.50400001928E-02 0.  1.
    10030    2    1    2    0    0  0.00000000000E+00  0.00000000000E+00 -0.47678667661E+03  0.29575851188E+04  0.29189011974E+04 0.  0.
        4    1    3    3  502    0 -0.94736691072E+03  0.10108186397E+04  0.22675050471E+03  0.14038076044E+04  0.12699999809E+01 0. -1.
       -4    1    3    3    0  502  0.94736691072E+03 -0.10108186397E+04 -0.70353718131E+03  0.15537775144E+04  0.12699999809E+01 0.  1.
</event>
<event>
 5   0  0.1385669E-05  0.2882671E+04  0.7818609E-02  0.8278052E-01
        2   -1    0    0  501    0  0.00000000000E+00  0.00000000000E+00  0.15345602830E+04  0.15345602830E+04  0.25500000920E-02 0.  1.
       -2   -1    0    0    0  501  0.00000000000E+00  0.00000000000E+00 -0.13537745704E+04  0.13537745704E+04  0.25500000920E-02 0. -1.
    10030    2    1    2    0    0  0.00000000000E+00  0.00000000000E+00  0.18078571259E+03  0.28883348533E+04  0.28826714608E+04 0.  0.
        3    1    3    3  502    0  0.59972139285E+03  0.17307805825E+03  0.13921091660E+04  0.15256440291E+04  0.10100000352E+00 0.  1.
       -3    1    3    3    0  502 -0.59972139285E+03 -0.17307805825E+03 -0.12113234534E+04  0.13626908242E+04  0.10100000352E+00 0. -1.
</event>
<event>
 5   0  0.1336899E-05  0.2894547E+04  0.7818609E-02  0.8274502E-01
       -2   -1    0    0    0  501  0.00000000000E+00  0.00000000000E+00  0.12457313036E+04  0.12457313036E+04  0.25500000920E-02 0.  1.
        2   -1    0    0  501    0  0.00000000000E+00  0.00000000000E+00 -0.16814225777E+04  0.16814225777E+04  0.25500000920E-02 0. -1.
    10030    2    1    2    0    0  0.00000000000E+00  0.00000000000E+00 -0.43569127415E+03  0.29271538813E+04  0.28945471076E+04 0.  0.
        1    1    3    3  502    0  0.37291097049E+01 -0.12889656908E+04  0.44771286813E+03  0.13645120999E+04  0.50400001928E-02 0.  1.
       -1    1    3    3    0  502 -0.37291097049E+01  0.12889656908E+04 -0.88340414228E+03  0.15626417814E+04  0.50400001928E-02 0. -1.
</event>
<event>
 5   0  0.1382803E-05  0.2873194E+04  0.7818609E-02  0.8280898E-01
        2   -1    0    0  501    0  0.00000000000E+00  0.00000000000E+00  0.23387320996E+04  0.23387320996E+04  0.25500000920E-02 0.  1.
       -2   -1    0    0    0  501  0.00000000000E+00  0.00000000000E+00 -0.88244845581E+03  0.88244845581E+03  0.25500000920E-02 0. -1.
    10030    2    1    2    0    0  0.00000000000E+00  0.00000000000E+00  0.14562836438E+04  0.32211805554E+04  0.28731937142E+04 0.  0.
        2    1    3    3  502    0  0.88741835886E+03  0.57204604866E+03 -0.36404660161E+03  0.11168159891E+04  0.25500000920E-02 0. -1.
       -2    1    3    3    0  502 -0.88741835886E+03 -0.57204604866E+03  0.18203302454E+04  0.21043645663E+04  0.25500000920E-02 0.  1.
</event>
<event>
 5   0  0.4590125E-06  0.2900951E+04  0.7818609E-02  0.8272594E-01
        4   -1    0    0  501    0  0.00000000000E+00  0.00000000000E+00  0.11243897840E+04  0.11243905012E+04  0.12699999809E+01 0.  1.
       -4   -1    0    0    0  501  0.00000000000E+00  0.00000000000E+00 -0.18711285831E+04  0.18711290141E+04  0.12699999809E+01 0. -1.
    10030    2    1    2    0    0  0.00000000000E+00  0.00000000000E+00 -0.74673879910E+03  0.29955195153E+04  0.29009512806E+04 0.  0.
        5    1    3    3  502    0  0.46997272797E+03  0.12636947240E+04 -0.92564944704E+03  0.16354350214E+04  0.46999998093E+01 0. -1.
       -5    1    3    3    0  502 -0.46997272797E+03 -0.12636947240E+04  0.17891064794E+03  0.13600844939E+04  0.46999998093E+01 0.  1.
</event>
<event>
 5   0  0.5002240E-06  0.2926899E+04  0.7818609E-02  0.8264919E-01
        1   -1    0    0  501    0  0.00000000000E+00  0.00000000000E+00  0.20896146907E+04  0.20896146907E+04  0.50400001928E-02 0. -1.
       -1   -1    0    0    0  501  0.00000000000E+00  0.00000000000E+00 -0.10249181611E+04  0.10249181611E+04  0.50400001928E-02 0.  1.
    10030    2    1    2    0    0  0.00000000000E+00  0.00000000000E+00  0.10646965297E+04  0.31145328518E+04  0.29268987315E+04 0.  0.
        4    1    3    3  502    0 -0.96362343750E+01 -0.50023729227E+02  0.20886702929E+04  0.20892918503E+04  0.12699999809E+01 0. -1.
       -4    1    3    3    0  502  0.96362343750E+01  0.50023729227E+02 -0.10239737632E+04  0.10252410015E+04  0.12699999809E+01 0.  1.
</event>
<event>
 5   0  0.1339837E-05  0.2699356E+04  0.7818609E-02  0.8335214E-01
       -2   -1    0    0    0  501  0.00000000000E+00  0.00000000000E+00  0.14778033159E+04  0.14778033159E+04  0.25500000920E-02 0. -1.
        2   -1    0    0  501    0  0.00000000000E+00  0.00000000000E+00 -0.12326614127E+04  0.12326614127E+04  0.25500000920E-02 0.  1.
    10030    2    1    2    0    0  0.00000000000E+00  0.00000000000E+00  0.24514190325E+03  0.27104647286E+04  0.26993563107E+04 0.  0.
        5    1    3    3  502    0 -0.38868573077E+03  0.10684624546E+04 -0.60769106513E+03  0.12891854540E+04  0.46999998093E+01 0.  1.
       -5    1    3    3    0  502  0.38868573077E+03 -0.10684624546E+04  0.85283296838E+03  0.14212792745E+04  0.46999998093E+01 0. -1.
</event>
<event>
 5   0  0.1339837E-05  0.2858762E+04  0.7818609E-02  0.8285254E-01
        2   -1    0    0  501    0  0.00000000000E+00  0.00000000000E+00  0.24423332648E+04  0.24423332649E+04  0.25500000920E-02 0. -1.
       -2   -1    0    0    0  501  0.00000000000E+00  0.00000000000E+00 -0.83654832185E+03  0.83654832186E+03  0.25500000920E-02 0.  1.
    10030    2    1    2    0    0  0.00000000000E+00  0.00000000000E+00  0.16057849430E+04  0.32788815867E+04  0.28587618258E+04 0.  0.
        5    1    3    3  502    0 -0.11958056868E+04 -0.21060322446E+03  0.16679173549E+04  0.20630742478E+04  0.46999998093E+01 0. -1.
       -5    1    3    3    0  502  0.11958056868E+04  0.21060322446E+03 -0.62132411950E+02  0.12158073390E+04  0.46999998093E+01 0.  1.
</event>
<event>
 5   0  0.5261878E-06  0.2840499E+04  0.7818609E-02  0.8290804E-01
        1   -1    0    0  501    0  0.00000000000E+00  0.00000000000E+00  0.21623135125E+04  0.21623135125E+04  0.50400001928E-02 0.  1.
       -1   -1    0    0    0  501  0.00000000000E+00  0.00000000000E+00 -0.93284733188E+03  0.93284733189E+03  0.50400001928E-02 0. -1.
    10030    2    1    2    0    0  0.00000000000E+00  0.00000000000E+00  0.12294661806E+04  0.30951608444E+04  0.28404988230E+04 0.  0.
        5    1    3    3  502    0 -0.62201175064E+03 -0.11299285212E+03 -0.77106530329E+03  0.99711072329E+03  0.46999998093E+01 0. -1.
       -5    1    3    3    0  502  0.62201175064E+03  0.11299285212E+03  0.20005314839E+04  0.20980501211E+04  0.46999998093E+01 0.  1.
</event>
<event>
 5   0  0.5002240E-06  0.2974808E+04  0.7818609E-02  0.8250961E-01
        1   -1    0    0  501    0  0.00000000000E+00  0.00000000000E+00  0.11224352317E+04  0.11224352317E+04  0.50400001928E-02 0. -1.
       -1   -1    0    0    0  501  0.00000000000E+00  0.00000000000E+00 -0.19710452919E+04  0.19710452919E+04  0.50400001928E-02 0.  1.
    10030    2    1    2    0    0  0.00000000000E+00  0.00000000000E+00 -0.84861006022E+03  0.30934805236E+04  0.29748080132E+04 0.  0.
        4    1    3    3  502    0 -0.57438276254E+03 -0.13490482620E+04 -0.16428554240E+03  0.14754111710E+04  0.12699999809E+01 0. -1.
       -4    1    3    3    0  502  0.57438276254E+03  0.13490482620E+04 -0.68432451782E+03  0.16180693526E+04  0.12699999809E+01 0.  1.
</event>
<event>
 5   0  0.5154476E-06  0.3033294E+04  0.7818609E-02  0.8234287E-01
        1   -1    0    0  501    0  0.00000000000E+00  0.00000000000E+00  0.96851515506E+03  0.96851515507E+03  0.50400001928E-02 0.  1.
       -1   -1    0    0    0  501  0.00000000000E+00  0.00000000000E+00 -0.23749951123E+04  0.23749951123E+04  0.50400001928E-02 0. -1.
    10030    2    1    2    0    0  0.00000000000E+00  0.00000000000E+00 -0.14064799573E+04  0.33435102674E+04  0.30332944199E+04 0.  0.
        3    1    3    3  502    0  0.11341317360E+04 -0.82554319232E+03 -0.67694996050E+02  0.14044069851E+04  0.10100000352E+00 0. -1.
       -3    1    3    3    0  502 -0.11341317360E+04  0.82554319232E+03 -0.13387849612E+04  0.19391032824E+04  0.10100000352E+00 0.  1.
</event>
<event>
 5   0  0.4590125E-06  0.2930497E+04  0.7818609E-02  0.8263861E-01
       -3   -1    0    0    0  501  0.00000000000E+00  0.00000000000E+00  0.20549234222E+04  0.20549234246E+04  0.10100000352E+00 0. -1.
        3   -1    0    0  501    0  0.00000000000E+00  0.00000000000E+00 -0.10447847203E+04  0.10447847252E+04  0.10100000352E+00 0.  1.
    10030    2    1    2    0    0  0.00000000000E+00  0.00000000000E+00  0.10101387019E+04  0.30997081498E+04  0.29304966161E+04 0.  0.
        5    1    3    3  502    0 -0.80702480818E+03  0.60435900660E+03  0.16296589281E+04  0.19163374342E+04  0.46999998093E+01 0. -1.
       -5    1    3    3    0  502  0.80702480818E+03 -0.60435900660E+03 -0.61952022618E+03  0.11833707156E+04  0.46999998093E+01 0.  1.
</event>
<event>
 5   0  0.5261878E-06  0.2833755E+04  0.7818609E-02  0.8292865E-01
       -1   -1    0    0    0  501  0.00000000000E+00  0.00000000000E+00  0.10835662119E+04  0.10835662119E+04  0.50400001928E-02 0.  1.
        1   -1    0    0  501    0  0.00000000000E+00  0.00000000000E+00 -0.18527172303E+04  0.18527172303E+04  0.50400001928E-02 0. -1.
    10030    2    1    2    0    0  0.00000000000E+00  0.00000000000E+00 -0.76915101843E+03  0.29362834422E+04  0.28337549583E+04 0.  0.
        5    1    3    3  502    0  0.82208044704E+03  0.34998499652E+03 -0.15240044760E+04  0.17666118679E+04  0.46999998093E+01 0. -1.
       -5    1    3    3    0  502 -0.82208044704E+03 -0.34998499652E+03  0.75485345754E+03  0.11696715742E+04  0.46999998093E+01 0.  1.
</event>
<event>
 5   0  0.5059249E-06  0.2866092E+04  0.7818609E-02  0.8283038E-01
        1   -1    0    0  501    0  0.00000000000E+00  0.00000000000E+00  0.15058412356E+04  0.15058412356E+04  0.50400001928E-02 0. -1.
       -1   -1    0    0    0  501  0.00000000000E+00  0.00000000000E+00 -0.13637702083E+04  0.13637702083E+04  0.50400001928E-02 0.  1.
    10030    2    1    2    0    0  0.00000000000E+00  0.00000000000E+00  0.14207102738E+03  0.28696114439E+04  0.28660924029E+04 0.  0.
        1    1    3    3  502    0 -0.12938613887E+04  0.28230296981E+03 -0.47722165974E+03  0.14076621656E+04  0.50400001928E-02 0.  1.
       -1    1    3    3    0  502  0.12938613887E+04 -0.28230296981E+03  0.61929268712E+03  0.14619492783E+04  0.50400001928E-02 0. -1.
</event>
<event>
 5   0  0.5261878E-06  0.2887226E+04  0.7818609E-02  0.8276688E-01
        1   -1    0    0  501    0  0.00000000000E+00  0.00000000000E+00  0.16848579493E+04  0.16848579493E+04  0.50400001928E-02 0. -1.
       -1   -1    0    0    0  501  0.00000000000E+00  0.00000000000E+00 -0.12369103126E+04  0.12369103127E+04  0.50400001928E-02 0.  1.
    10030    2    1    2    0    0  0.00000000000E+00  0.00000000000E+00  0.44794763666E+03  0.29217682620E+04  0.28872257777E+04 0.  0.
        5    1    3    3  502    0 -0.14320561668E+04  0.15445285652E+03  0.12609261706E+03  0.14458775840E+04  0.46999998093E+01 0.  1.
       -5    1    3    3    0  502  0.14320561668E+04 -0.15445285652E+03  0.32185501961E+03  0.14758906780E+04  0.46999998093E+01 0. -1.
</event>
<event>
 5   0  0.1336899E-05  0.2716298E+04  0.7818609E-02  0.8329736E-01
        2   -1    0    0  501    0  0.00000000000E+00  0.00000000000E+00  0.22084274690E+04  0.22084274690E+04  0.25500000920E-02 0.  1.
       -2   -1    0    0    0  501  0.00000000000E+00  0.00000000000E+00 -0.83524080073E+03  0.83524080073E+03  0.25500000920E-02 0. -1.
    10030    2    1    2    0    0  0.00000000000E+00  0.00000000000E+00  0.13731866682E+04  0.30436682697E+04  0.27162980157E+04 0.  0.
        1    1    3    3  502    0  0.64256323730E+03  0.57206864675E+03 -0.49097677076E+03  0.99055955902E+03  0.50400001928E-02 0. -1.
       -1    1    3    3    0  502 -0.64256323730E+03 -0.57206864675E+03  0.18641634390E+04  0.20531087107E+04  0.50400001928E-02 0.  1.
</event>
<event>
 5   0  0.5059249E-06  0.2934085E+04  0.7818609E-02  0.8262808E-01
        1   -1    0    0  501    0  0.00000000000E+00  0.00000000000E+00  0.21586687535E+04  0.21586687535E+04  0.50400001928E-02 0.  1.
       -1   -1    0    0    0  501  0.00000000000E+00  0.00000000000E+00 -0.99700982911E+03  0.99700982912E+03  0.50400001928E-02 0. -1.
    10030    2    1    2    0    0  0.00000000000E+00  0.00000000000E+00  0.11616589244E+04  0.31556785826E+04  0.29340851828E+04 0.  0.
        1    1    3    3  502    0  0.69206158985E+03  0.62842199748E+03  0.17968615062E+04  0.20254813560E+04  0.50400001928E-02 0.  1.
       -1    1    3    3    0  502 -0.69206158985E+03 -0.62842199748E+03 -0.63520258182E+03  0.11301972266E+04  0.50400001928E-02 0. -1.
</event>
<event>
 5   0  0.1307832E-05  0.2913495E+04  0.7818609E-02  0.8268874E-01
       -2   -1    0    0    0  501  0.00000000000E+00  0.00000000000E+00  0.72752209901E+03  0.72752209901E+03  0.25500000920E-02 0. -1.
        2   -1    0    0  501    0  0.00000000000E+00  0.00000000000E+00 -0.29169060345E+04  0.29169060345E+04  0.25500000920E-02 0.  1.
    10030    2    1    2    0    0  0.00000000000E+00  0.00000000000E+00 -0.21893839355E+04  0.36444281335E+04  0.29134952211E+04 0.  0.
        4    1    3    3  502    0  0.98182787181E+03  0.25133752128E+03  0.21422865088E+03  0.10358822555E+04  0.12699999809E+01 0. -1.
       -4    1    3    3    0  502 -0.98182787181E+03 -0.25133752128E+03 -0.24036125864E+04  0.26085458780E+04  0.12699999809E+01 0.  1.
</event>
<event>
 5   0  0.1339837E-05  0.2901120E+04  0.7818609E-02  0.8272544E-01
       -2   -1    0    0    0  501  0.00000000000E+00  0.00000000000E+00  0.12166899802E+04  0.12166899802E+04  0.25500000920E-02 0.  1.
        2   -1    0    0  501    0  0.00000000000E+00  0.00000000000E+00 -0.17293840106E+04  0.17293840106E+04  0.25500000920E-02 0. -1.
    10030    2    1    2    0    0  0.00000000000E+00  0.00000000000E+00 -0.51269403042E+03  0.29460739907E+04  0.29011199200E+04 0.  0.
        5    1    3    3  502    0 -0.53962684267E+03 -0.66856918516E+03  0.93048878032E+03  0.12664964844E+04  0.46999998093E+01 0.  1.
       -5    1    3    3    0  502  0.53962684267E+03  0.66856918516E+03 -0.14431828107E+04  0.16795775064E+04  0.46999998093E+01 0. -1.
</event>
<event>
 5   0  0.5352212E-06  0.2977354E+04  0.7818609E-02  0.8250227E-01
        1   -1    0    0  501    0  0.00000000000E+00  0.00000000000E+00  0.21930219185E+04  0.21930219185E+04  0.50400001928E-02 0.  1.
       -1   -1    0    0    0  501  0.00000000000E+00  0.00000000000E+00 -0.10105504612E+04  0.10105504612E+04  0.50400001928E-02 0. -1.
    10030    2    1    2    0    0  0.00000000000E+00  0.00000000000E+00  0.11824714573E+04  0.32035723797E+04  0.29773540678E+04 0.  0.
        2    1    3    3  502    0 -0.78516668019E+03  0.11257446424E+04  0.12115560484E+04  0.18307527889E+04  0.25500000920E-02 0.  1.
       -2    1    3    3    0  502  0.78516668019E+03 -0.11257446424E+04 -0.29084591060E+02  0.13728195909E+04  0.25500000920E-02 0. -1.
</event>
<event>
 5   0  0.5059249E-06  0.2972878E+04  0.7818609E-02  0.8251518E-01
        1   -1    0    0  501    0  0.00000000000E+00  0.00000000000E+00  0.16398773553E+04  0.16398773553E+04  0.50400001928E-02 0. -1.
       -1   -1    0    0    0  501  0.00000000000E+00  0.00000000000E+00 -0.13473573954E+04  0.13473573954E+04  0.50400001928E-02 0.  1.
    10030    2    1    2    0    0  0.00000000000E+00  0.00000000000E+00  0.29251995986E+03  0.29872347507E+04  0.29728779875E+04 0.  0.
        1    1    3    3  502    0 -0.13372134822E+04 -0.24073072282E+03  0.75200594173E+03  0.15529340341E+04  0.50400001928E-02 0. -1.
       -1    1    3    3    0  502  0.13372134822E+04  0.24073072282E+03 -0.45948598186E+03  0.14343007165E+04  0.50400001928E-02 0.  1.
</event>
<event>
 5   0  0.1382803E-05  0.2875175E+04  0.7818609E-02  0.8280302E-01
       -2   -1    0    0    0  501  0.00000000000E+00  0.00000000000E+00  0.13555071392E+04  0.13555071392E+04  0.25500000920E-02 0. -1.
        2   -1    0    0  501    0  0.00000000000E+00  0.00000000000E+00 -0.15246381053E+04  0.15246381053E+04  0.25500000920E-02 0.  1.
    10030    2    1    2    0    0  0.00000000000E+00  0.00000000000E+00 -0.16913096609E+03  0.28801452445E+04  0.28751750113E+04 0.  0.
        2    1    3    3  502    0 -0.42775459788E+03 -0.46307812362E+03 -0.13787905887E+04  0.15160734916E+04  0.25500000920E-02 0.  1.
       -2    1    3    3    0  502  0.42775459788E+03  0.46307812362E+03  0.12096596226E+04  0.13640717529E+04  0.25500000920E-02 0. -1.
</event>
<event>
 5   0  0.5154476E-06  0.2827520E+04  0.7818609E-02  0.8294775E-01
        1   -1    0    0  501    0  0.00000000000E+00  0.00000000000E+00  0.23608094602E+04  0.23608094602E+04  0.50400001928E-02 0.  1.
       -1   -1    0    0    0  501  0.00000000000E+00  0.00000000000E+00 -0.84662388503E+03  0.84662388505E+03  0.50400001928E-02 0. -1.
    10030    2    1    2    0    0  0.00000000000E+00  0.00000000000E+00  0.15141855751E+04  0.32074333452E+04  0.28275202401E+04 0.  0.
        3    1    3    3  502    0  0.14079408121E+04  0.10200863226E+03  0.66911877495E+03  0.15621853401E+04  0.10100000352E+00 0.  1.
       -3    1    3    3    0  502 -0.14079408121E+04 -0.10200863226E+03  0.84506680019E+03  0.16452480052E+04  0.10100000352E+00 0. -1.
</event>
<event>
 5   0  0.5154476E-06  0.2737379E+04  0.7818609E-02  0.8322978E-01
        1   -1    0    0  501    0  0.00000000000E+00  0.00000000000E+00  0.95900037981E+03  0.95900037983E+03  0.50400001928E-02 0. -1.
       -1   -1    0    0    0  501  0.00000000000E+00  0.00000000000E+00 -0.19533995055E+04  0.19533995055E+04  0.50400001928E-02 0.  1.
    10030    2    1    2    0    0  0.00000000000E+00  0.00000000000E+00 -0.99439912566E+03  0.29123998853E+04  0.27373789418E+04 0.  0.
        3    1    3    3  502    0 -0.76896065603E+03 -0.11199627214E+04 -0.67425444461E+03  0.15166529115E+04  0.10100000352E+00 0.  1.
       -3    1    3    3    0  502  0.76896065603E+03  0.11199627214E+04 -0.32014468104E+03  0.13957469738E+04  0.10100000352E+00 0. -1.
</event>
<event>
 5   0  0.1382803E-05  0.2834739E+04  0.7818609E-02  0.8292564E-01
        2   -1    0    0  501    0  0.00000000000E+00  0.00000000000E+00  0.72744209308E+03  0.72744209308E+03  0.25500000920E-02 0.  1.
       -2   -1    0    0    0  501  0.00000000000E+00  0.00000000000E+00 -0.27616441772E+04  0.27616441772E+04  0.25500000920E-02 0. -1.
    10030    2    1    2    0    0  0.00000000000E+00  0.00000000000E+00 -0.20342020841E+04  0.34890862703E+04  0.28347389443E+04 0.  0.
        2    1    3    3  502    0  0.10214986698E+04 -0.13890656256E+03 -0.22143539469E+04  0.24425638104E+04  0.25500000920E-02 0. -1.
       -2    1    3    3    0  502 -0.10214986698E+04  0.13890656256E+03  0.18015186277E+03  0.10465224599E+04  0.25500000920E-02 0.  1.
</event>
<event>
 5   0  0.5154476E-06  0.2978925E+04  0.7818609E-02  0.8249775E-01
       -1   -1    0    0    0  501  0.00000000000E+00  0.00000000000E+00  0.65240390478E+03  0.65240390480E+03  0.50400001928E-02 0. -1.
        1   -1    0    0  501    0  0.00000000000E+00  0.00000000000E+00 -0.34004986232E+04  0.34004986232E+04  0.50400001928E-02 0.  1.
    10030    2    1    2    0    0  0.00000000000E+00  0.00000000000E+00 -0.27480947185E+04  0.40529025280E+04  0.29789250276E+04 0.  0.
        3    1    3    3  502    0  0.15417931181E+03  0.12615923751E+04 -0.24306350983E+04  0.27428768788E+04  0.10100000352E+00 0.  1.
       -3    1    3    3    0  502 -0.15417931181E+03 -0.12615923751E+04 -0.31745962016E+03  0.13100256492E+04  0.10100000352E+00 0. -1.
</event>
<event>
 5   0  0.1385669E-05  0.2920185E+04  0.7818609E-02  0.8266897E-01
        2   -1    0    0  501    0  0.00000000000E+00  0.00000000000E+00  0.19577201634E+04  0.19577201634E+04  0.25500000920E-02 0. -1.
       -2   -1    0    0    0  501  0.00000000000E+00  0.00000000000E+00 -0.10889555171E+04  0.10889555171E+04  0.25500000920E-02 0.  1.
    10030    2    1    2    0    0  0.00000000000E+00  0.00000000000E+00  0.86876464626E+03  0.30466756805E+04  0.29201850441E+04 0.  0.
        3    1    3    3  502    0  0.75123385639E+03  0.10707984354E+04  0.11112592901E+04  0.17163504351E+04  0.10100000352E+00 0. -1.
       -3    1    3    3    0  502 -0.75123385639E+03 -0.10707984354E+04 -0.24249464379E+03  0.13303252454E+04  0.10100000352E+00 0.  1.
</event>
<event>
 5   0  0.1385669E-05  0.2935112E+04  0.7818609E-02  0.8262507E-01
       -2   -1    0    0    0  501  0.00000000000E+00  0.00000000000E+00  0.90370640982E+03  0.90370640982E+03  0.25500000920E-02 0. -1.
        2   -1    0    0  501    0  0.00000000000E+00  0.00000000000E+00 -0.23832090116E+04  0.23832090116E+04  0.25500000920E-02 0.  1.
    10030    2    1    2    0    0  0.00000000000E+00  0.00000000000E+00 -0.14795026018E+04  0.32869154215E+04  0.29351124406E+04 0.  0.
        3    1    3    3  502    0 -0.51730287571E+02 -0.14539086954E+04 -0.52377579234E+03  0.15462430624E+04  0.10100000352E+00 0. -1.
       -3    1    3    3    0  502  0.51730287571E+02  0.14539086954E+04 -0.95572680948E+03  0.17406723591E+04  0.10100000352E+00 0.  1.
</event>
<event>
 5   0  0.1382803E-05  0.3335241E+04  0.7818609E-02  0.8153986E-01
       -2   -1    0    0    0  501  0.00000000000E+00  0.00000000000E+00  0.16711523705E+04  0.16711523705E+04  0.25500000920E-02 0. -1.
        2   -1    0    0  501    0  0.00000000000E+00  0.00000000000E+00 -0.16640963007E+04  0.16640963007E+04  0.25500000920E-02 0.  1.
    10030    2    1    2    0    0  0.00000000000E+00  0.00000000000E+00  0.70560698314E+01  0.33352486712E+04  0.33352412072E+04 0.  0.
        2    1    3    3  502    0  0.28339817418E+03 -0.64376055179E+03 -0.15084992588E+04  0.16644254826E+04  0.25500000920E-02 0.  1.
       -2    1    3    3    0  502 -0.28339817418E+03  0.64376055179E+03  0.15155553287E+04  0.16708231886E+04  0.25500000920E-02 0. -1.
</event>
<event>
 5   0  0.5002240E-06  0.1975981E+04  0.7818609E-02  0.8617933E-01
       -1   -1    0    0    0  501  0.00000000000E+00  0.00000000000E+00  0.67174734424E+03  0.67174734426E+03  0.50400001928E-02 0. -1.
        1   -1    0    0  501    0  0.00000000000E+00  0.00000000000E+00 -0.14531132297E+04  0.14531132297E+04  0.50400001928E-02 0.  1.
    10030    2    1    2    0    0  0.00000000000E+00  0.00000000000E+00 -0.78136588544E+03  0.21248605740E+04  0.19759807215E+04 0.  0.
        4    1    3    3  502    0  0.49032910577E+03 -0.85769932348E+03 -0.38288549949E+03  0.10595629665E+04  0.12699999809E+01 0. -1.
       -4    1    3    3    0  502 -0.49032910577E+03  0.85769932348E+03 -0.39848038596E+03  0.10652976074E+04  0.12699999809E+01 0.  1.
</event>
<event>
 5   0  0.1336899E-05  0.2928534E+04  0.7818609E-02  0.8264438E-01
        2   -1    0    0  501    0  0.00000000000E+00  0.00000000000E+00  0.10174489311E+04  0.10174489311E+04  0.25500000920E-02 0.  1.
       -2   -1    0    0    0  501  0.00000000000E+00  0.00000000000E+00 -0.21073078708E+04  0.21073078708E+04  0.25500000920E-02 0. -1.
    10030    2    1    2    0    0  0.00000000000E+00  0.00000000000E+00 -0.10898589397E+04  0.31247568020E+04  0.29285342004E+04 0.  0.
        1    1    3    3  502    0  0.28539566873E+03 -0.17750144141E+03  0.97573635944E+03  0.10319975255E+04  0.50400001928E-02 0.  1.
       -1    1    3    3    0  502 -0.28539566873E+03  0.17750144141E+03 -0.20655952992E+04  0.20927592765E+04  0.50400001928E-02 0. -1.
</event>
<event>
 5   0  0.1382803E-05  0.2707380E+04  0.7818609E-02  0.8332615E-01
        2   -1    0    0  501    0  0.00000000000E+00  0.00000000000E+00  0.11140822803E+04  0.11140822803E+04  0.25500000920E-02 0.  1.
       -2   -1    0    0    0  501  0.00000000000E+00  0.00000000000E+00 -0.16448299981E+04  0.16448299981E+04  0.25500000920E-02 0. -1.
    10030    2    1    2    0    0  0.00000000000E+00  0.00000000000E+00 -0.53074771780E+03  0.27589122784E+04  0.27073795116E+04 0.  0.
        2    1    3    3  502    0  0.97356996355E+03  0.26336777486E+03 -0.11854860583E+04  0.15564633800E+04  0.25500000920E-02 0. -1.
       -2    1    3    3    0  502 -0.97356996355E+03 -0.26336777486E+03  0.65473834049E+03  0.12024488984E+04  0.25500000920E-02 0.  1.
</event>
<event>
 5   0  0.1307832E-05  0.2942481E+04  0.7818609E-02  0.8260349E-01
        2   -1    0    0  501    0  0.00000000000E+00  0.00000000000E+00  0.23356496174E+04  0.23356496174E+04  0.25500000920E-02 0.  1.
       -2   -1    0    0    0  501  0.00000000000E+00  0.00000000000E+00 -0.92674393695E+03  0.92674393695E+03  0.25500000920E-02 0. -1.
    10030    2    1    2    0    0  0.00000000000E+00  0.00000000000E+00  0.14089056805E+04  0.32623935544E+04  0.29424813486E+04 0.  0.
        4    1    3    3  502    0  0.35422584000E+03 -0.56567356295E+03  0.21581411737E+04  0.22589903639E+04  0.12699999809E+01 0.  1.
       -4    1    3    3    0  502 -0.35422584000E+03  0.56567356295E+03 -0.74923549321E+03  0.10034031905E+04  0.12699999809E+01 0. -1.
</event>
<event>
 5   0  0.1385669E-05  0.2847020E+04  0.7818609E-02  0.8288817E-01
        2   -1    0    0  501    0  0.00000000000E+00  0.00000000000E+00  0.15230609239E+04  0.15230609239E+04  0.25500000920E-02 0. -1.
       -2   -1    0    0    0  501  0.00000000000E+00  0.00000000000E+00 -0.13304662524E+04  0.13304662524E+04  0.25500000920E-02 0.  1.
    10030    2    1    2    0    0  0.00000000000E+00  0.00000000000E+00  0.19259467149E+03  0.28535271762E+04  0.28470203087E+04 0.  0.
        3    1    3    3  502    0  0.14153497129E+03  0.14064143306E+04 -0.72455316103E+02  0.14153738730E+04  0.10100000352E+00 0. -1.
       -3    1    3    3    0  502 -0.14153497129E+03 -0.14064143306E+04  0.26504998759E+03  0.14381533032E+04  0.10100000352E+00 0.  1.
</event>
<event>
 5   0  0.5352212E-06  0.2841307E+04  0.7818609E-02  0.8290558E-01
        1   -1    0    0  501    0  0.00000000000E+00  0.00000000000E+00  0.22165918159E+04  0.22165918159E+04  0.50400001928E-02 0. -1.
       -1   -1    0    0    0  501  0.00000000000E+00  0.00000000000E+00 -0.91052227578E+03  0.91052227580E+03  0.50400001928E-02 0.  1.
    10030    2    1    2    0    0  0.00000000000E+00  0.00000000000E+00  0.13060695401E+04  0.31271140917E+04  0.28413068998E+04 0.  0.
        2    1    3    3  502    0  0.10464305897E+04  0.91106378956E+03  0.98903396444E+03  0.17038903693E+04  0.25500000920E-02 0.  1.
       -2    1    3    3    0  502 -0.10464305897E+04 -0.91106378956E+03  0.31703557565E+03  0.14232237224E+04  0.25500000920E-02 0. -1.
</event>
<event>
 5   0  0.1336899E-05  0.3067501E+04  0.7818609E-02  0.8224714E-01
        2   -1    0    0  501    0  0.00000000000E+00  0.00000000000E+00  0.25177054989E+04  0.25177054989E+04  0.25500000920E-02 0.  1.
       -2   -1    0    0    0  501  0.00000000000E+00  0.00000000000E+00 -0.93433913172E+03  0.93433913172E+03  0.25500000920E-02 0. -1.
    10030    2    1    2    0    0  0.00000000000E+00  0.00000000000E+00  0.15833663672E+04  0.34520446306E+04  0.30675011131E+04 0.  0.
        1    1    3    3  502    0  0.80258237168E+03  0.57279811455E+03 -0.53039015063E+03  0.11196204068E+04  0.50400001928E-02 0. -1.
       -1    1    3    3    0  502 -0.80258237168E+03 -0.57279811455E+03  0.21137565178E+04  0.23324242239E+04  0.50400001928E-02 0.  1.
</event>
<event>
 5   0  0.1307832E-05  0.3057355E+04  0.7818609E-02  0.8227540E-01
        2   -1    0    0  501    0  0.00000000000E+00  0.00000000000E+00  0.17444504760E+04  0.17444504760E+04  0.25500000920E-02 0.  1.
       -2   -1    0    0    0  501  0.00000000000E+00  0.00000000000E+00 -0.13395941525E+04  0.13395941525E+04  0.25500000920E-02 0. -1.
    10030    2    1    2    0    0  0.00000000000E+00  0.00000000000E+00  0.40485632344E+03  0.30840446285E+04  0.30573554959E+04 0.  0.
        4    1    3    3  502    0 -0.96749744514E+03  0.10153771874E+04 -0.41100204591E+03  0.14614945890E+04  0.12699999809E+01 0.  1.
       -4    1    3    3    0  502  0.96749744514E+03 -0.10153771874E+04  0.81585836935E+03  0.16225500395E+04  0.12699999809E+01 0. -1.
</event>
<event>
 5   0  0.5059249E-06  0.2875397E+04  0.7818609E-02  0.8280235E-01
       -1   -1    0    0    0  501  0.00000000000E+00  0.00000000000E+00  0.17224694075E+04  0.17224694075E+04  0.50400001928E-02 0. -1.
        1   -1    0    0  501    0  0.00000000000E+00  0.00000000000E+00 -0.12000080166E+04  0.12000080166E+04  0.50400001928E-02 0.  1.
    10030    2    1    2    0    0  0.00000000000E+00  0.00000000000E+00  0.52246139089E+03  0.29224774240E+04  0.28753970837E+04 0.  0.
        1    1    3    3  502    0 -0.69653403814E+03  0.71547951852E+03 -0.79006829627E+03  0.12732943574E+04  0.50400001928E-02 0.  1.
       -1    1    3    3    0  502  0.69653403814E+03 -0.71547951852E+03  0.13125296872E+04  0.16491830667E+04  0.50400001928E-02 0. -1.
</event>
<event>
 5   0  0.5352212E-06  0.3003504E+04  0.7818609E-02  0.8242731E-01
        1   -1    0    0  501    0  0.00000000000E+00  0.00000000000E+00  0.11206892466E+04  0.11206892466E+04  0.50400001928E-02 0. -1.
       -1   -1    0    0    0  501  0.00000000000E+00  0.00000000000E+00 -0.20123854127E+04  0.20123854127E+04  0.50400001928E-02 0.  1.
    10030    2    1    2    0    0  0.00000000000E+00  0.00000000000E+00 -0.89169616615E+03  0.31330746593E+04  0.30035037486E+04 0.  0.
        2    1    3    3  502    0  0.12594090192E+04 -0.19626246132E+03 -0.12742277264E+04  0.18023002885E+04  0.25500000920E-02 0.  1.
       -2    1    3    3    0  502 -0.12594090192E+04  0.19626246132E+03  0.38253156027E+03  0.13307743708E+04  0.25500000920E-02 0. -1.
</event>
<event>
 5   0  0.5261878E-06  0.2889896E+04  0.7818609E-02  0.8275890E-01
        1   -1    0    0  501    0  0.00000000000E+00  0.00000000000E+00  0.25301186367E+04  0.25301186367E+04  0.50400001928E-02 0. -1.
       -1   -1    0    0    0  501  0.00000000000E+00  0.00000000000E+00 -0.82520842546E+03  0.82520842548E+03  0.50400001928E-02 0.  1.
    10030    2    1    2    0    0  0.00000000000E+00  0.00000000000E+00  0.17049102112E+04  0.33553270622E+04  0.28898963417E+04 0.  0.
        5    1    3    3  502    0 -0.11180407673E+03  0.12311987010E+04  0.17209228654E+04  0.21189497379E+04  0.46999998093E+01 0. -1.
       -5    1    3    3    0  502  0.11180407673E+03 -0.12311987010E+04 -0.16012654183E+02  0.12363773243E+04  0.46999998093E+01 0.  1.
</event>
<event>
 5   0  0.5261878E-06  0.2939613E+04  0.7818609E-02  0.8261188E-01
       -1   -1    0    0    0  501  0.00000000000E+00  0.00000000000E+00  0.79767969202E+03  0.79767969203E+03  0.50400001928E-02 0.  1.
        1   -1    0    0  501    0  0.00000000000E+00  0.00000000000E+00 -0.27082693869E+04  0.27082693869E+04  0.50400001928E-02 0. -1.
    10030    2    1    2    0    0  0.00000000000E+00  0.00000000000E+00 -0.19105896949E+04  0.35059490789E+04  0.29396132334E+04 0.  0.
        5    1    3    3  502    0  0.11524200606E+04 -0.79837862137E+03 -0.14817267376E+04  0.20398570131E+04  0.46999998093E+01 0. -1.
       -5    1    3    3    0  502 -0.11524200606E+04  0.79837862137E+03 -0.42886295729E+03  0.14660920658E+04  0.46999998093E+01 0.  1.
</event>
<event>
 5   0  0.5059249E-06  0.2764276E+04  0.7818609E-02  0.8314446E-01
       -1   -1    0    0    0  501  0.00000000000E+00  0.00000000000E+00  0.14096295105E+04  0.14096295105E+04  0.50400001928E-02 0. -1.
        1   -1    0    0  501    0  0.00000000000E+00  0.00000000000E+00 -0.13551828382E+04  0.13551828382E+04  0.50400001928E-02 0.  1.
    10030    2    1    2    0    0  0.00000000000E+00  0.00000000000E+00  0.54446672236E+02  0.27648123487E+04  0.27642761952E+04 0.  0.
        1    1    3    3  502    0 -0.82410980445E+03 -0.10565677173E+04 -0.31168366013E+03  0.13757321742E+04  0.50400001928E-02 0.  1.
       -1    1    3    3    0  502  0.82410980445E+03  0.10565677173E+04  0.36613033237E+03  0.13890801746E+04  0.50400001928E-02 0. -1.
</event>
<event>
 5   0  0.1307832E-05  0.2858349E+04  0.7818609E-02  0.8285379E-01
        2   -1    0    0  501    0  0.00000000000E+00  0.00000000000E+00  0.18925009049E+04  0.18925009049E+04  0.25500000920E-02 0.  1.
       -2   -1    0    0    0  501  0.00000000000E+00  0.00000000000E+00 -0.10792805785E+04  0.10792805785E+04  0.25500000920E-02 0. -1.
    10030    2    1    2    0    0  0.00000000000E+00  0.00000000000E+00  0.81322032640E+03  0.29717814833E+04  0.28583488040E+04 0.  0.
        4    1    3    3  502    0 -0.49404610146E+02  0.13828701150E+04  0.34979546415E+02  0.13841949834E+04  0.12699999809E+01 0.  1.
       -4    1    3    3    0  502  0.49404610146E+02 -0.13828701150E+04  0.77824077999E+03  0.15875865000E+04  0.12699999809E+01 0. -1.
</event>
<event>
 5   0  0.5059249E-06  0.2474156E+04  0.7818609E-02  0.8412251E-01
        1   -1    0    0  501    0  0.00000000000E+00  0.00000000000E+00  0.11390398918E+04  0.11390398918E+04  0.50400001928E-02 0. -1.
       -1   -1    0    0    0  501  0.00000000000E+00  0.00000000000E+00 -0.13435545469E+04  0.13435545469E+04  0.50400001928E-02 0.  1.
    10030    2    1    2    0    0  0.00000000000E+00  0.00000000000E+00 -0.20451465509E+03  0.24825944388E+04  0.24741562003E+04 0.  0.
        1    1    3    3  502    0 -0.99738640251E+03 -0.72934629388E+03 -0.41747648613E+02  0.12363124680E+04  0.50400001928E-02 0. -1.
       -1    1    3    3    0  502  0.99738640251E+03  0.72934629388E+03 -0.16276700647E+03  0.12462819708E+04  0.50400001928E-02 0.  1.
</event>
<event>
 5   0  0.1339837E-05  0.2906109E+04  0.7818609E-02  0.8271062E-01
        2   -1    0    0  501    0  0.00000000000E+00  0.00000000000E+00  0.10480340326E+04  0.10480340326E+04  0.25500000920E-02 0. -1.
       -2   -1    0    0    0  501  0.00000000000E+00  0.00000000000E+00 -0.20145977496E+04  0.20145977496E+04  0.25500000920E-02 0.  1.
    10030    2    1    2    0    0  0.00000000000E+00  0.00000000000E+00 -0.96656371697E+03  0.30626317822E+04  0.29061087410E+04 0.  0.
        5    1    3    3  502    0  0.37113540746E+03 -0.14000338724E+04 -0.60576822720E+03  0.15699724741E+04  0.46999998093E+01 0.  1.
       -5    1    3    3    0  502 -0.37113540746E+03  0.14000338724E+04 -0.36079548977E+03  0.14926593080E+04  0.46999998093E+01 0. -1.
</event>
<event>
 5   0  0.1339837E-05  0.3080161E+04  0.7818609E-02  0.8221204E-01
        2   -1    0    0  501    0  0.00000000000E+00  0.00000000000E+00  0.18647467451E+04  0.18647467451E+04  0.25500000920E-02 0. -1.
       -2   -1    0    0    0  501  0.00000000000E+00  0.00000000000E+00 -0.12719408819E+04  0.12719408819E+04  0.25500000920E-02 0.  1.
    10030    2    1    2    0    0  0.00000000000E+00  0.00000000000E+00  0.59280586321E+03  0.31366876270E+04  0.30801607876E+04 0.  0.
        5    1    3    3  502    0 -0.13694702205E+04  0.44248747475E+03 -0.26191186313E+03  0.14628273186E+04  0.46999998093E+01 0.  1.
       -5    1    3    3    0  502  0.13694702205E+04 -0.44248747475E+03  0.85471772634E+03  0.16738603083E+04  0.46999998093E+01 0. -1.
</event>
<event>
 5   0  0.1339837E-05  0.2791562E+04  0.7818609E-02  0.8305893E-01
       -2   -1    0    0    0  501  0.00000000000E+00  0.00000000000E+00  0.10478474319E+04  0.10478474319E+04  0.25500000920E-02 0.  1.
        2   -1    0    0  501    0  0.00000000000E+00  0.00000000000E+00 -0.18592440005E+04  0.18592440005E+04  0.25500000920E-02 0. -1.
    10030    2    1    2    0    0  0.00000000000E+00  0.00000000000E+00 -0.81139656857E+03  0.29070914324E+04  0.27915616068E+04 0.  0.
        5    1    3    3  502    0  0.42461526216E+03 -0.10806010962E+04  0.40107978329E+03  0.12283663674E+04  0.46999998093E+01 0.  1.
       -5    1    3    3    0  502 -0.42461526216E+03  0.10806010962E+04 -0.12124763519E+04  0.16787250650E+04  0.46999998093E+01 0. -1.
</event>
<event>
 5   0  0.1382803E-05  0.2882186E+04  0.7818609E-02  0.8278198E-01
       -2   -1    0    0    0  501  0.00000000000E+00  0.00000000000E+00  0.12908863912E+04  0.12908863912E+04  0.25500000920E-02 0. -1.
        2   -1    0    0  501    0  0.00000000000E+00  0.00000000000E+00 -0.16087772825E+04  0.16087772825E+04  0.25500000920E-02 0.  1.
    10030    2    1    2    0    0  0.00000000000E+00  0.00000000000E+00 -0.31789089127E+03  0.28996636737E+04  0.28821857681E+04 0.  0.
        2    1    3    3  502    0  0.46591990872E+03  0.12849087651E+04  0.30063627559E+03  0.13994477719E+04  0.25500000920E-02 0. -1.
       -2    1    3    3    0  502 -0.46591990872E+03 -0.12849087651E+04 -0.61852716686E+03  0.15002159018E+04  0.25500000920E-02 0.  1.
</event>
<event>
 5   0  0.5002240E-06  0.2864081E+04  0.7818609E-02  0.8283645E-01
       -1   -1    0    0    0  501  0.00000000000E+00  0.00000000000E+00  0.88743766933E+03  0.88743766934E+03  0.50400001928E-02 0.  1.
        1   -1    0    0  501    0  0.00000000000E+00  0.00000000000E+00 -0.23108546033E+04  0.23108546033E+04  0.50400001928E-02 0. -1.
    10030    2    1    2    0    0  0.00000000000E+00  0.00000000000E+00 -0.14234169340E+04  0.31982922726E+04  0.28640806017E+04 0.  0.
        4    1    3    3  502    0  0.49980577061E+03  0.44695746788E+03  0.70131839459E+03  0.97027103941E+03  0.12699999809E+01 0.  1.
       -4    1    3    3    0  502 -0.49980577061E+03 -0.44695746788E+03 -0.21247353285E+04  0.22280212332E+04  0.12699999809E+01 0. -1.
</event>
<event>
 5   0  0.1336899E-05  0.2963925E+04  0.7818609E-02  0.8254108E-01
       -2   -1    0    0    0  501  0.00000000000E+00  0.00000000000E+00  0.24935122092E+04  0.24935122092E+04  0.25500000920E-02 0.  1.
        2   -1    0    0  501    0  0.00000000000E+00  0.00000000000E+00 -0.88077068171E+03  0.88077068171E+03  0.25500000920E-02 0. -1.
    10030    2    1    2    0    0  0.00000000000E+00  0.00000000000E+00  0.16127415275E+04  0.33742828909E+04  0.29639247280E+04 0.  0.
        1    1    3    3  502    0  0.11492561728E+03  0.13791518277E+03 -0.86834588506E+03  0.88670912439E+03  0.50400001928E-02 0. -1.
       -1    1    3    3    0  502 -0.11492561728E+03 -0.13791518277E+03  0.24810874125E+04  0.24875737665E+04  0.50400001928E-02 0.  1.
</event>
<event>
 5   0  0.1339837E-05  0.2867667E+04  0.7818609E-02  0.8282563E-01
       -2   -1    0    0    0  501  0.00000000000E+00  0.00000000000E+00  0.13595533150E+04  0.13595533150E+04  0.25500000920E-02 0. -1.
        2   -1    0    0  501    0  0.00000000000E+00  0.00000000000E+00 -0.15121717981E+04  0.15121717981E+04  0.25500000920E-02 0.  1.
    10030    2    1    2    0    0  0.00000000000E+00  0.00000000000E+00 -0.15261848310E+03  0.28717251132E+04  0.28676667736E+04 0.  0.
        5    1    3    3  502    0 -0.52832566234E+02 -0.93882740701E+03 -0.11602772119E+04  0.14934702805E+04  0.46999998093E+01 0.  1.
       -5    1    3    3    0  502  0.52832566234E+02  0.93882740701E+03  0.10076587288E+04  0.13782548327E+04  0.46999998093E+01 0. -1.
</event>
<event>
 5   0  0.1307832E-05  0.2905760E+04  0.7818609E-02  0.8271166E-01
       -2   -1    0    0    0  501  0.00000000000E+00  0.00000000000E+00  0.16574422370E+04  0.16574422370E+04  0.25500000920E-02 0. -1.
        2   -1    0    0  501    0  0.00000000000E+00  0.00000000000E+00 -0.12735647831E+04  0.12735647831E+04  0.25500000920E-02 0.  1.
    10030    2    1    2    0    0  0.00000000000E+00  0.00000000000E+00  0.38387745391E+03  0.29310070201E+04  0.29057598407E+04 0.  0.
        4    1    3    3  502    0 -0.96132391639E+03  0.66692889566E+03 -0.67689338464E+03  0.13517115414E+04  0.12699999809E+01 0.  1.
       -4    1    3    3    0  502  0.96132391639E+03 -0.66692889566E+03  0.10607708385E+04  0.15792954787E+04  0.12699999809E+01 0. -1.
</event>
<event>
 5   0  0.1385669E-05  0.2838573E+04  0.7818609E-02  0.8291392E-01
       -2   -1    0    0    0  501  0.00000000000E+00  0.00000000000E+00  0.13307515948E+04  0.13307515948E+04  0.25500000920E-02 0. -1.
        2   -1    0    0  501    0  0.00000000000E+00  0.00000000000E+00 -0.15137116891E+04  0.15137116891E+04  0.25500000920E-02 0.  1.
    10030    2    1    2    0    0  0.00000000000E+00  0.00000000000E+00 -0.18296009433E+03  0.28444632839E+04  0.28385730530E+04 0.  0.
        3    1    3    3  502    0 -0.48904597124E+03 -0.10929889414E+04  0.67206133734E+03  0.13731195284E+04  0.10100000352E+00 0. -1.
       -3    1    3    3    0  502  0.48904597124E+03  0.10929889414E+04 -0.85502143166E+03  0.14713437555E+04  0.10100000352E+00 0.  1.
</event>
<event>
 5   0  0.1339837E-05  0.2758743E+04  0.7818609E-02  0.8316193E-01
       -2   -1    0    0    0  501  0.00000000000E+00  0.00000000000E+00  0.84173234699E+03  0.84173234699E+03  0.25500000920E-02 0. -1.
        2   -1    0    0  501    0  0.00000000000E+00  0.00000000000E+00 -0.22604172413E+04  0.22604172413E+04  0.25500000920E-02 0.  1.
    10030    2    1    2    0    0  0.00000000000E+00  0.00000000000E+00 -0.14186848943E+04  0.31021495883E+04  0.27587434166E+04 0.  0.
        5    1    3    3  502    0 -0.12000358351E+04  0.58728128914E+03 -0.32362985162E+03  0.13746794859E+04  0.46999998093E+01 0. -1.
       -5    1    3    3    0  502  0.12000358351E+04 -0.58728128914E+03 -0.10950550427E+04  0.17274701024E+04  0.46999998093E+01 0.  1.
</event>
<event>
 5   0  0.5002240E-06  0.2886798E+04  0.7818609E-02  0.8276816E-01
       -1   -1    0    0    0  501  0.00000000000E+00  0.00000000000E+00  0.92978833379E+03  0.92978833380E+03  0.50400001928E-02 0. -1.
        1   -1    0    0  501    0  0.00000000000E+00  0.00000000000E+00 -0.22407255999E+04  0.22407255999E+04  0.50400001928E-02 0.  1.
    10030    2    1    2    0    0  0.00000000000E+00  0.00000000000E+00 -0.13109372661E+04  0.31705139337E+04  0.28867978952E+04 0.  0.
        4    1    3    3  502    0  0.58062398976E+03 -0.69647777848E+03  0.57793189525E+03  0.10752731755E+04  0.12699999809E+01 0. -1.
       -4    1    3    3    0  502 -0.58062398976E+03  0.69647777848E+03 -0.18888691613E+04  0.20952407582E+04  0.12699999809E+01 0.  1.
</event>
<event>
 5   0  0.5154476E-06  0.2880070E+04  0.7818609E-02  0.8278832E-01
       -1   -1    0    0    0  501  0.00000000000E+00  0.00000000000E+00  0.15225302332E+04  0.15225302332E+04  0.50400001928E-02 0.  1.
        1   -1    0    0  501    0  0.00000000000E+00  0.00000000000E+00 -0.13620093722E+04  0.13620093722E+04  0.50400001928E-02 0. -1.
    10030    2    1    2    0    0  0.00000000000E+00  0.00000000000E+00  0.16052086098E+03  0.28845396054E+04  0.28800697541E+04 0.  0.
        3    1    3    3  502    0  0.99703917551E+02  0.11705664068E+04  0.91433970993E+03  0.14886852250E+04  0.10100000352E+00 0.  1.
       -3    1    3    3    0  502 -0.99703917551E+02 -0.11705664068E+04 -0.75381884895E+03  0.13958543803E+04  0.10100000352E+00 0. -1.
</event>
<event>
 5   0  0.5261878E-06  0.2879148E+04  0.7818609E-02  0.8279109E-01
       -1   -1    0    0    0  501  0.00000000000E+00  0.00000000000E+00  0.10992723500E+04  0.10992723500E+04  0.50400001928E-02 0.  1.
        1   -1    0    0  501    0  0.00000000000E+00  0.00000000000E+00 -0.18852230671E+04  0.18852230671E+04  0.50400001928E-02 0. -1.
    10030    2    1    2    0    0  0.00000000000E+00  0.00000000000E+00 -0.78595071709E+03  0.29844954172E+04  0.28791482013E+04 0.  0.
        5    1    3    3  502    0  0.54122950738E+03 -0.37533687905E+03  0.93391792645E+03  0.11428175426E+04  0.46999998093E+01 0.  1.
       -5    1    3    3    0  502 -0.54122950738E+03  0.37533687905E+03 -0.17198686435E+04  0.18416778745E+04  0.46999998093E+01 0. -1.
</event>
<event>
 5   0  0.1336899E-05  0.2678265E+04  0.7818609E-02  0.8342092E-01
       -2   -1    0    0    0  501  0.00000000000E+00  0.00000000000E+00  0.81346986582E+03  0.81346986582E+03  0.25500000920E-02 0.  1.
        2   -1    0    0  501    0  0.00000000000E+00  0.00000000000E+00 -0.22044776284E+04  0.22044776284E+04  0.25500000920E-02 0. -1.
    10030    2    1    2    0    0  0.00000000000E+00  0.00000000000E+00 -0.13910077626E+04  0.30179474942E+04  0.26782652002E+04 0.  0.
        1    1    3    3  502    0  0.21533495103E+03 -0.38422027082E+03  0.72951491818E+03  0.85216569605E+03  0.50400001928E-02 0.  1.
       -1    1    3    3    0  502 -0.21533495103E+03  0.38422027082E+03 -0.21205226808E+04  0.21657817982E+04  0.50400001928E-02 0. -1.
</event>
<event>
 5   0  0.1339837E-05  0.2257791E+04  0.7818609E-02  0.8494752E-01
        2   -1    0    0  501    0  0.00000000000E+00  0.00000000000E+00  0.14107972757E+04  0.14107972757E+04  0.25500000920E-02 0. -1.
       -2   -1    0    0    0  501  0.00000000000E+00  0.00000000000E+00 -0.90332244695E+03  0.90332244695E+03  0.25500000920E-02 0.  1.
    10030    2    1    2    0    0  0.00000000000E+00  0.00000000000E+00  0.50747482878E+03  0.23141197227E+04  0.22577908205E+04 0.  0.
        5    1    3    3  502    0  0.33564000889E+03  0.51085893131E+03  0.12264950860E+04  0.13703807315E+04  0.46999998093E+01 0. -1.
       -5    1    3    3    0  502 -0.33564000889E+03 -0.51085893131E+03 -0.71902025720E+03  0.94373899121E+03  0.46999998093E+01 0.  1.
</event>
<event>
 5   0  0.5261878E-06  0.2885460E+04  0.7818609E-02  0.8277217E-01
        1   -1    0    0  501    0  0.00000000000E+00  0.00000000000E+00  0.17775078842E+04  0.17775078842E+04  0.50400001928E-02 0.  1.
       -1   -1    0    0    0  501  0.00000000000E+00  0.00000000000E+00 -0.11710043832E+04  0.11710043833E+04  0.50400001928E-02 0. -1.
    10030    2    1    2    0    0  0.00000000000E+00  0.00000000000E+00  0.60650350095E+03  0.29485122675E+04  0.28854597718E+04 0.  0.
        5    1    3    3  502    0  0.11776199723E+04  0.60645282516E+03 -0.28097016169E+03  0.13540827707E+04  0.46999998093E+01 0. -1.
       -5    1    3    3    0  502 -0.11776199723E+04 -0.60645282516E+03  0.88747366264E+03  0.15944294967E+04  0.46999998093E+01 0.  1.
</event>
<event>
 5   0  0.5059249E-06  0.2915722E+04  0.7818609E-02  0.8268215E-01
        1   -1    0    0  501    0  0.00000000000E+00  0.00000000000E+00  0.16948101611E+04  0.16948101611E+04  0.50400001928E-02 0.  1.
       -1   -1    0    0    0  501  0.00000000000E+00  0.00000000000E+00 -0.12540392911E+04  0.12540392911E+04  0.50400001928E-02 0. -1.
    10030    2    1    2    0    0  0.00000000000E+00  0.00000000000E+00  0.44077087000E+03  0.29488494522E+04  0.29157218886E+04 0.  0.
        1    1    3    3  502    0  0.10647148267E+04 -0.44162175098E+03  0.11231134861E+04  0.16093574295E+04  0.50400001928E-02 0.  1.
       -1    1    3    3    0  502 -0.10647148267E+04  0.44162175098E+03 -0.68234261608E+03  0.13394920227E+04  0.50400001928E-02 0. -1.
</event>
<event>
 5   0  0.1307832E-05  0.2909295E+04  0.7818609E-02  0.8270117E-01
        2   -1    0    0  501    0  0.00000000000E+00  0.00000000000E+00  0.23368607971E+04  0.23368607971E+04  0.25500000920E-02 0.  1.
       -2   -1    0    0    0  501  0.00000000000E+00  0.00000000000E+00 -0.90548801683E+03  0.90548801683E+03  0.25500000920E-02 0. -1.
    10030    2    1    2    0    0  0.00000000000E+00  0.00000000000E+00  0.14313727803E+04  0.32423488140E+04  0.29092950684E+04 0.  0.
        4    1    3    3  502    0  0.74785630126E+03 -0.95136134463E+03 -0.18395472141E+03  0.12240173233E+04  0.12699999809E+01 0. -1.
       -4    1    3    3    0  502 -0.74785630126E+03  0.95136134463E+03  0.16153275017E+04  0.20183314906E+04  0.12699999809E+01 0.  1.
</event>
<event>
 5   0  0.5059249E-06  0.2933608E+04  0.7818609E-02  0.8262948E-01
        1   -1    0    0  501    0  0.00000000000E+00  0.00000000000E+00  0.20530641861E+04  0.20530641861E+04  0.50400001928E-02 0. -1.
       -1   -1    0    0    0  501  0.00000000000E+00  0.00000000000E+00 -0.10479524429E+04  0.10479524429E+04  0.50400001928E-02 0.  1.
    10030    2    1    2    0    0  0.00000000000E+00  0.00000000000E+00  0.10051117432E+04  0.31010166291E+04  0.29336077648E+04 0.  0.
        1    1    3    3  502    0  0.62815084571E+03  0.10080046980E+04 -0.40729890253E+03  0.12556031826E+04  0.50400001928E-02 0.  1.
       -1    1    3    3    0  502 -0.62815084571E+03 -0.10080046980E+04  0.14124106457E+04  0.18454134465E+04  0.50400001928E-02 0. -1.
</event>
<event>
 5   0  0.1307832E-05  0.2777750E+04  0.7818609E-02  0.8310209E-01
       -2   -1    0    0    0  501  0.00000000000E+00  0.00000000000E+00  0.15676329655E+04  0.15676329655E+04  0.25500000920E-02 0.  1.
        2   -1    0    0  501    0  0.00000000000E+00  0.00000000000E+00 -0.12305010436E+04  0.12305010436E+04  0.25500000920E-02 0. -1.
    10030    2    1    2    0    0  0.00000000000E+00  0.00000000000E+00  0.33713192193E+03  0.27981340091E+04  0.27777501688E+04 0.  0.
        4    1    3    3  502    0 -0.48392754129E+03 -0.12837563780E+04 -0.49252352870E+02  0.13728232626E+04  0.12699999809E+01 0.  1.
       -4    1    3    3    0  502  0.48392754129E+03  0.12837563780E+04  0.38638427480E+03  0.14253107465E+04  0.12699999809E+01 0. -1.
</event>
<event>
 5   0  0.1336899E-05  0.2861689E+04  0.7818609E-02  0.8284368E-01
       -2   -1    0    0    0  501  0.00000000000E+00  0.00000000000E+00  0.10504402321E+04  0.10504402321E+04  0.25500000920E-02 0.  1.
        2   -1    0    0  501    0  0.00000000000E+00  0.00000000000E+00 -0.19490075124E+04  0.19490075124E+04  0.25500000920E-02 0. -1.
    10030    2    1    2    0    0  0.00000000000E+00  0.00000000000E+00 -0.89856728031E+03  0.29994477445E+04  0.28616889444E+04 0.  0.
        1    1    3    3  502    0 -0.59738326409E+03 -0.10986546964E+04 -0.11780282253E+04  0.17180394075E+04  0.50400001928E-02 0. -1.
       -1    1    3    3    0  502  0.59738326409E+03  0.10986546964E+04  0.27946094496E+03  0.12814083370E+04  0.50400001928E-02 0.  1.
</event>
<event>
 5   0  0.1339837E-05  0.2909578E+04  0.7818609E-02  0.8270033E-01
       -2   -1    0    0    0  501  0.00000000000E+00  0.00000000000E+00  0.14503864674E+04  0.14503864674E+04  0.25500000920E-02 0. -1.
        2   -1    0    0  501    0  0.00000000000E+00  0.00000000000E+00 -0.14592049795E+04  0.14592049795E+04  0.25500000920E-02 0.  1.
    10030    2    1    2    0    0  0.00000000000E+00  0.00000000000E+00 -0.88185120683E+01  0.29095914469E+04  0.29095780832E+04 0.  0.
        5    1    3    3  502    0 -0.94278125175E+03 -0.10010686524E+04 -0.47918941633E+03  0.14562347071E+04  0.46999998093E+01 0.  1.
       -5    1    3    3    0  502  0.94278125175E+03  0.10010686524E+04  0.47037090426E+03  0.14533567398E+04  0.46999998093E+01 0. -1.
</event>
<event>
 5   0  0.5059249E-06  0.2923795E+04  0.7818609E-02  0.8265833E-01
        1   -1    0    0  501    0  0.00000000000E+00  0.00000000000E+00  0.13487831859E+04  0.13487831859E+04  0.50400001928E-02 0. -1.
       -1   -1    0    0    0  501  0.00000000000E+00  0.00000000000E+00 -0.15844981569E+04  0.15844981570E+04  0.50400001928E-02 0.  1.
    10030    2    1    2    0    0  0.00000000000E+00  0.00000000000E+00 -0.23571497106E+03  0.29332813428E+04  0.29237951174E+04 0.  0.
        1    1    3    3  502    0 -0.73920961824E+03  0.24895123371E+03 -0.13582900443E+04  0.15663203443E+04  0.50400001928E-02 0.  1.
       -1    1    3    3    0  502  0.73920961824E+03 -0.24895123371E+03  0.11225750732E+04  0.13669609985E+04  0.50400001928E-02 0. -1.
</event>
<event>
 5   0  0.5261878E-06  0.2836081E+04  0.7818609E-02  0.8292153E-01
       -1   -1    0    0    0  501  0.00000000000E+00  0.00000000000E+00  0.10527419006E+04  0.10527419006E+04  0.50400001928E-02 0.  1.
        1   -1    0    0  501    0  0.00000000000E+00  0.00000000000E+00 -0.19100971627E+04  0.19100971627E+04  0.50400001928E-02 0. -1.
    10030    2    1    2    0    0  0.00000000000E+00  0.00000000000E+00 -0.85735526212E+03  0.29628390633E+04  0.28360813228E+04 0.  0.
        5    1    3    3  502    0  0.10095166560E+04  0.19986242398E+03 -0.14478565940E+04  0.17763388399E+04  0.46999998093E+01 0. -1.
       -5    1    3    3    0  502 -0.10095166560E+04 -0.19986242398E+03  0.59050133188E+03  0.11865002234E+04  0.46999998093E+01 0.  1.
</event>
<event>
 5   0  0.1307832E-05  0.2832440E+04  0.7818609E-02  0.8293267E-01
        2   -1    0    0  501    0  0.00000000000E+00  0.00000000000E+00  0.18563782096E+04  0.18563782096E+04  0.25500000920E-02 0.  1.
       -2   -1    0    0    0  501  0.00000000000E+00  0.00000000000E+00 -0.10804261392E+04  0.10804261392E+04  0.25500000920E-02 0. -1.
    10030    2    1    2    0    0  0.00000000000E+00  0.00000000000E+00  0.77595207041E+03  0.29368043488E+04  0.28324403202E+04 0.  0.
        4    1    3    3  502    0  0.40844589263E+03 -0.95785405841E+03  0.13832215203E+04  0.17313624207E+04  0.12699999809E+01 0.  1.
       -4    1    3    3    0  502 -0.40844589263E+03  0.95785405841E+03 -0.60726944994E+03  0.12054419282E+04  0.12699999809E+01 0. -1.
</event>
<event>
 5   0  0.5002240E-06  0.2879466E+04  0.7818609E-02  0.8279013E-01
        1   -1    0    0  501    0  0.00000000000E+00  0.00000000000E+00  0.25369934865E+04  0.25369934865E+04  0.50400001928E-02 0.  1.
       -1   -1    0    0    0  501  0.00000000000E+00  0.00000000000E+00 -0.81704228464E+03  0.81704228466E+03  0.50400001928E-02 0. -1.
    10030    2    1    2    0    0  0.00000000000E+00  0.00000000000E+00  0.17199512018E+04  0.33540357711E+04  0.28794658910E+04 0.  0.
        4    1    3    3  502    0  0.85286079839E+03  0.16702451715E+03  0.21970052965E+04  0.23626473745E+04  0.12699999809E+01 0.  1.
       -4    1    3    3    0  502 -0.85286079839E+03 -0.16702451715E+03 -0.47705409466E+03  0.99138839658E+03  0.12699999809E+01 0. -1.
</event>
<event>
 5   0  0.1307832E-05  0.2889185E+04  0.7818609E-02  0.8276102E-01
       -2   -1    0    0    0  501  0.00000000000E+00  0.00000000000E+00  0.90066953763E+03  0.90066953763E+03  0.25500000920E-02 0. -1.
        2   -1    0    0  501    0  0.00000000000E+00  0.00000000000E+00 -0.23169959567E+04  0.23169959567E+04  0.25500000920E-02 0.  1.
    10030    2    1    2    0    0  0.00000000000E+00  0.00000000000E+00 -0.14163264191E+04  0.32176654944E+04  0.28891851288E+04 0.  0.
        4    1    3    3  502    0  0.94754238767E+03 -0.26840024861E+03  0.46886380664E+03  0.10907383517E+04  0.12699999809E+01 0. -1.
       -4    1    3    3    0  502 -0.94754238767E+03  0.26840024861E+03 -0.18851902257E+04  0.21269271426E+04  0.12699999809E+01 0.  1.
</event>
<event>
 5   0  0.5352212E-06  0.2906299E+04  0.7818609E-02  0.8271006E-01
        1   -1    0    0  501    0  0.00000000000E+00  0.00000000000E+00  0.19746575775E+04  0.19746575775E+04  0.50400001928E-02 0. -1.
       -1   -1    0    0    0  501  0.00000000000E+00  0.00000000000E+00 -0.10693721241E+04  0.10693721241E+04  0.50400001928E-02 0.  1.
    10030    2    1    2    0    0  0.00000000000E+00  0.00000000000E+00  0.90528545340E+03  0.30440297016E+04  0.29062992055E+04 0.  0.
        2    1    3    3  502    0 -0.24071005523E+03  0.34849726773E+03  0.19085725946E+04  0.19550040986E+04  0.25500000920E-02 0. -1.
       -2    1    3    3    0  502  0.24071005523E+03 -0.34849726773E+03 -0.10032871412E+04  0.10890256030E+04  0.25500000920E-02 0.  1.
</event>
<event>
 5   0  0.1336899E-05  0.2720138E+04  0.7818609E-02  0.8328500E-01
        2   -1    0    0  501    0  0.00000000000E+00  0.00000000000E+00  0.18686722887E+04  0.18686722887E+04  0.25500000920E-02 0. -1.
       -2   -1    0    0    0  501  0.00000000000E+00  0.00000000000E+00 -0.98989415049E+03  0.98989415050E+03  0.25500000920E-02 0.  1.
    10030    2    1    2    0    0  0.00000000000E+00  0.00000000000E+00  0.87877813822E+03  0.28585664392E+04  0.27201380610E+04 0.  0.
        1    1    3    3  502    0 -0.10095539505E+04 -0.64905270850E+03  0.11117281962E+04  0.16359731598E+04  0.50400001928E-02 0. -1.
       -1    1    3    3    0  502  0.10095539505E+04  0.64905270850E+03 -0.23295005796E+03  0.12225932794E+04  0.50400001928E-02 0.  1.
</event>
<event>
 5   0  0.5059249E-06  0.2893787E+04  0.7818609E-02  0.8274728E-01
        1   -1    0    0  501    0  0.00000000000E+00  0.00000000000E+00  0.15891559085E+04  0.15891559085E+04  0.50400001928E-02 0. -1.
       -1   -1    0    0    0  501  0.00000000000E+00  0.00000000000E+00 -0.13173665297E+04  0.13173665298E+04  0.50400001928E-02 0.  1.
    10030    2    1    2    0    0  0.00000000000E+00  0.00000000000E+00  0.27178937872E+03  0.29065224382E+04  0.28937870028E+04 0.  0.
        1    1    3    3  502    0 -0.49823803622E+03  0.61174732523E+03 -0.10823011910E+04  0.13393475272E+04  0.50400001928E-02 0.  1.
       -1    1    3    3    0  502  0.49823803622E+03 -0.61174732523E+03  0.13540905697E+04  0.15671749110E+04  0.50400001928E-02 0. -1.
</event>
<event>
 5   0  0.5059249E-06  0.2892521E+04  0.7818609E-02  0.8275106E-01
       -1   -1    0    0    0  501  0.00000000000E+00  0.00000000000E+00  0.13782356413E+04  0.13782356413E+04  0.50400001928E-02 0. -1.
        1   -1    0    0  501    0  0.00000000000E+00  0.00000000000E+00 -0.15176430008E+04  0.15176430008E+04  0.50400001928E-02 0.  1.
    10030    2    1    2    0    0  0.00000000000E+00  0.00000000000E+00 -0.13940735954E+03  0.28958786421E+04  0.28925211663E+04 0.  0.
        1    1    3    3  502    0  0.13894703597E+04 -0.20663957669E+03  0.27470417143E+03  0.14313595554E+04  0.50400001928E-02 0.  1.
       -1    1    3    3    0  502 -0.13894703597E+04  0.20663957669E+03 -0.41411153097E+03  0.14645190867E+04  0.50400001928E-02 0. -1.
</event>
<event>
 5   0  0.5154476E-06  0.2891118E+04  0.7818609E-02  0.8275525E-01
        1   -1    0    0  501    0  0.00000000000E+00  0.00000000000E+00  0.23495462093E+04  0.23495462093E+04  0.50400001928E-02 0.  1.
       -1   -1    0    0    0  501  0.00000000000E+00  0.00000000000E+00 -0.88938065046E+03  0.88938065048E+03  0.50400001928E-02 0. -1.
    10030    2    1    2    0    0  0.00000000000E+00  0.00000000000E+00  0.14601655588E+04  0.32389268598E+04  0.28911180785E+04 0.  0.
        3    1    3    3  502    0  0.89947901924E+03 -0.99257610593E+03  0.12122016647E+03  0.13449773868E+04  0.10100000352E+00 0.  1.
       -3    1    3    3    0  502 -0.89947901924E+03  0.99257610593E+03  0.13389453923E+04  0.18939494729E+04  0.10100000352E+00 0. -1.
</event>
<event>
 5   0  0.1385669E-05  0.2888911E+04  0.7818609E-02  0.8276184E-01
        2   -1    0    0  501    0  0.00000000000E+00  0.00000000000E+00  0.15196123866E+04  0.15196123866E+04  0.25500000920E-02 0. -1.
       -2   -1    0    0    0  501  0.00000000000E+00  0.00000000000E+00 -0.13730160825E+04  0.13730160825E+04  0.25500000920E-02 0.  1.
    10030    2    1    2    0    0  0.00000000000E+00  0.00000000000E+00  0.14659630410E+03  0.28926284691E+04  0.28889113839E+04 0.  0.
        3    1    3    3  502    0  0.23009737413E+03  0.11012032565E+04 -0.83388018510E+03  0.14003390971E+04  0.10100000352E+00 0.  1.
       -3    1    3    3    0  502 -0.23009737413E+03 -0.11012032565E+04  0.98047648920E+03  0.14922893720E+04  0.10100000352E+00 0. -1.
</event>
<event>
 5   0  0.1382803E-05  0.2892390E+04  0.7818609E-02  0.8275145E-01
       -2   -1    0    0    0  501  0.00000000000E+00  0.00000000000E+00  0.82451448473E+03  0.82451448473E+03  0.25500000920E-02 0. -1.
        2   -1    0    0  501    0  0.00000000000E+00  0.00000000000E+00 -0.25366200234E+04  0.25366200234E+04  0.25500000920E-02 0.  1.
    10030    2    1    2    0    0  0.00000000000E+00  0.00000000000E+00 -0.17121055387E+04  0.33611345081E+04  0.28923899817E+04 0.  0.
        2    1    3    3  502    0  0.10359875848E+04 -0.28784726061E+03  0.26781951735E+03  0.11080855631E+04  0.25500000920E-02 0. -1.
       -2    1    3    3    0  502 -0.10359875848E+04  0.28784726061E+03 -0.19799250560E+04  0.22530489450E+04  0.25500000920E-02 0.  1.
</event>
<event>
 5   0  0.5002240E-06  0.2800346E+04  0.7818609E-02  0.8303161E-01
       -1   -1    0    0    0  501  0.00000000000E+00  0.00000000000E+00  0.14834764185E+04  0.14834764185E+04  0.50400001928E-02 0.  1.
        1   -1    0    0  501    0  0.00000000000E+00  0.00000000000E+00 -0.13215472593E+04  0.13215472593E+04  0.50400001928E-02 0. -1.
    10030    2    1    2    0    0  0.00000000000E+00  0.00000000000E+00  0.16192915920E+03  0.28050236778E+04  0.28003458323E+04 0.  0.
        4    1    3    3  502    0 -0.15718632772E+03  0.62198108524E+03  0.13275975126E+04  0.14744777992E+04  0.12699999809E+01 0.  1.
       -4    1    3    3    0  502  0.15718632772E+03 -0.62198108524E+03 -0.11656683534E+04  0.13305458786E+04  0.12699999809E+01 0. -1.
</event>
<event>
 5   0  0.1307832E-05  0.3039295E+04  0.7818609E-02  0.8232598E-01
       -2   -1    0    0    0  501  0.00000000000E+00  0.00000000000E+00  0.10192395272E+04  0.10192395272E+04  0.25500000920E-02 0.  1.
        2   -1    0    0  501    0  0.00000000000E+00  0.00000000000E+00 -0.22657372354E+04  0.22657372354E+04  0.25500000920E-02 0. -1.
    10030    2    1    2    0    0  0.00000000000E+00  0.00000000000E+00 -0.12464977083E+04  0.32849767626E+04  0.30392952792E+04 0.  0.
        4    1    3    3  502    0  0.86200645962E+01  0.14070546370E+04 -0.28737717532E+01  0.14070845491E+04  0.12699999809E+01 0.  1.
       -4    1    3    3    0  502 -0.86200645962E+01 -0.14070546370E+04 -0.12436239365E+04  0.18778922134E+04  0.12699999809E+01 0. -1.
</event>
<event>
 5   0  0.1339837E-05  0.3368179E+04  0.7818609E-02  0.8145761E-01
       -2   -1    0    0    0  501  0.00000000000E+00  0.00000000000E+00  0.16002353561E+04  0.16002353561E+04  0.25500000920E-02 0.  1.
        2   -1    0    0  501    0  0.00000000000E+00  0.00000000000E+00 -0.17723375858E+04  0.17723375858E+04  0.25500000920E-02 0. -1.
    10030    2    1    2    0    0  0.00000000000E+00  0.00000000000E+00 -0.17210222969E+03  0.33725729418E+04  0.33681788952E+04 0.  0.
        5    1    3    3  502    0 -0.84759129433E+01  0.59838508949E+01  0.16001967868E+04  0.16002373243E+04  0.46999998093E+01 0.  1.
       -5    1    3    3    0  502  0.84759129433E+01 -0.59838508949E+01 -0.17722990165E+04  0.17723356176E+04  0.46999998093E+01 0. -1.
</event>
<event>
 5   0  0.5002240E-06  0.2910317E+04  0.7818609E-02  0.8269814E-01
       -1   -1    0    0    0  501  0.00000000000E+00  0.00000000000E+00  0.10980339007E+04  0.10980339007E+04  0.50400001928E-02 0. -1.
        1   -1    0    0  501    0  0.00000000000E+00  0.00000000000E+00 -0.19284347620E+04  0.19284347620E+04  0.50400001928E-02 0.  1.
    10030    2    1    2    0    0  0.00000000000E+00  0.00000000000E+00 -0.83040086133E+03  0.30264686627E+04  0.29103173325E+04 0.  0.
        4    1    3    3  502    0  0.94822690160E+03  0.49514360246E+03  0.61067173346E+03  0.12317560728E+04  0.12699999809E+01 0. -1.
       -4    1    3    3    0  502 -0.94822690160E+03 -0.49514360246E+03 -0.14410725948E+04  0.17947125899E+04  0.12699999809E+01 0.  1.
</event>
<event>
 5   0  0.1336899E-05  0.2890452E+04  0.7818609E-02  0.8275724E-01
       -2   -1    0    0    0  501  0.00000000000E+00  0.00000000000E+00  0.88697528946E+03  0.88697528946E+03  0.25500000920E-02 0.  1.
        2   -1    0    0  501    0  0.00000000000E+00  0.00000000000E+00 -0.23548327674E+04  0.23548327674E+04  0.25500000920E-02 0. -1.
    10030    2    1    2    0    0  0.00000000000E+00  0.00000000000E+00 -0.14678574779E+04  0.32418080569E+04  0.28904521968E+04 0.  0.
        1    1    3    3  502    0 -0.12287085452E+04  0.70261977501E+03 -0.40640471421E+03  0.14726045053E+04  0.50400001928E-02 0.  1.
       -1    1    3    3    0  502  0.12287085452E+04 -0.70261977501E+03 -0.10614527637E+04  0.17692035516E+04  0.50400001928E-02 0. -1.
</event>
<event>
 5   0  0.5059249E-06  0.2729903E+04  0.7818609E-02  0.8325367E-01
        1   -1    0    0  501    0  0.00000000000E+00  0.00000000000E+00  0.18285517067E+04  0.18285517067E+04  0.50400001928E-02 0.  1.
       -1   -1    0    0    0  501  0.00000000000E+00  0.00000000000E+00 -0.10188897281E+04  0.10188897281E+04  0.50400001928E-02 0. -1.
    10030    2    1    2    0    0  0.00000000000E+00  0.00000000000E+00  0.80966197867E+03  0.28474414348E+04  0.27299029662E+04 0.  0.
        1    1    3    3  502    0  0.36033102805E+03  0.12206754584E+04  0.91922311281E+03  0.15699866737E+04  0.50400001928E-02 0.  1.
       -1    1    3    3    0  502 -0.36033102805E+03 -0.12206754584E+04 -0.10956113414E+03  0.12774547611E+04  0.50400001928E-02 0. -1.
</event>
<event>
 5   0  0.1336899E-05  0.2798149E+04  0.7818609E-02  0.8303843E-01
       -2   -1    0    0    0  501  0.00000000000E+00  0.00000000000E+00  0.68159481899E+03  0.68159481900E+03  0.25500000920E-02 0. -1.
        2   -1    0    0  501    0  0.00000000000E+00  0.00000000000E+00 -0.28718088440E+04  0.28718088440E+04  0.25500000920E-02 0.  1.
    10030    2    1    2    0    0  0.00000000000E+00  0.00000000000E+00 -0.21902140250E+04  0.35534036630E+04  0.27981494093E+04 0.  0.
        1    1    3    3  502    0 -0.84453894309E+03 -0.40463539307E+03  0.22488957108E+03  0.96309456801E+03  0.50400001928E-02 0. -1.
       -1    1    3    3    0  502  0.84453894309E+03  0.40463539307E+03 -0.24151035960E+04  0.25903090949E+04  0.50400001928E-02 0.  1.
</event>
<event>
 5   0  0.5002240E-06  0.2949213E+04  0.7818609E-02  0.8258384E-01
       -1   -1    0    0    0  501  0.00000000000E+00  0.00000000000E+00  0.16341191220E+04  0.16341191220E+04  0.50400001928E-02 0. -1.
        1   -1    0    0  501    0  0.00000000000E+00  0.00000000000E+00 -0.13306645658E+04  0.13306645658E+04  0.50400001928E-02 0.  1.
    10030    2    1    2    0    0  0.00000000000E+00  0.00000000000E+00  0.30345455617E+03  0.29647836878E+04  0.29492130557E+04 0.  0.
        4    1    3    3  502    0  0.82949609539E+02 -0.11175621148E+04  0.11152431000E+04  0.15810105955E+04  0.12699999809E+01 0. -1.
       -4    1    3    3    0  502 -0.82949609539E+02  0.11175621148E+04 -0.81178854382E+03  0.13837730923E+04  0.12699999809E+01 0.  1.
</event>
<event>
 5   0  0.1382803E-05  0.2895591E+04  0.7818609E-02  0.8274190E-01
        2   -1    0    0  501    0  0.00000000000E+00  0.00000000000E+00  0.16350364719E+04  0.16350364719E+04  0.25500000920E-02 0. -1.
       -2   -1    0    0    0  501  0.00000000000E+00  0.00000000000E+00 -0.12819970394E+04  0.12819970394E+04  0.25500000920E-02 0.  1.
    10030    2    1    2    0    0  0.00000000000E+00  0.00000000000E+00  0.35303943244E+03  0.29170335113E+04  0.28955910735E+04 0.  0.
        2    1    3    3  502    0 -0.58381885169E+03 -0.70453926726E+03  0.13068318933E+04  0.15953148994E+04  0.25500000920E-02 0. -1.
       -2    1    3    3    0  502  0.58381885169E+03  0.70453926726E+03 -0.95379246088E+03  0.13217186119E+04  0.25500000920E-02 0.  1.
</event>
<event>
 5   0  0.1382803E-05  0.2774146E+04  0.7818609E-02  0.8311340E-01
        2   -1    0    0  501    0  0.00000000000E+00  0.00000000000E+00  0.14285790466E+04  0.14285790466E+04  0.25500000920E-02 0.  1.
       -2   -1    0    0    0  501  0.00000000000E+00  0.00000000000E+00 -0.13467724608E+04  0.13467724608E+04  0.25500000920E-02 0. -1.
    10030    2    1    2    0    0  0.00000000000E+00  0.00000000000E+00  0.81806585812E+02  0.27753515074E+04  0.27741455752E+04 0.  0.
        2    1    3    3  502    0 -0.46363491604E+03  0.10679259752E+04  0.79525208597E+03  0.14099110270E+04  0.25500000920E-02 0.  1.
       -2    1    3    3    0  502  0.46363491604E+03 -0.10679259752E+04 -0.71344550016E+03  0.13654404804E+04  0.25500000920E-02 0. -1.
</event>
<event>
 5   0  0.5002240E-06  0.2829283E+04  0.7818609E-02  0.8294234E-01
        1   -1    0    0  501    0  0.00000000000E+00  0.00000000000E+00  0.17318234923E+04  0.17318234923E+04  0.50400001928E-02 0.  1.
       -1   -1    0    0    0  501  0.00000000000E+00  0.00000000000E+00 -0.11555514777E+04  0.11555514777E+04  0.50400001928E-02 0. -1.
    10030    2    1    2    0    0  0.00000000000E+00  0.00000000000E+00  0.57627201459E+03  0.28873749701E+04  0.28292834398E+04 0.  0.
        4    1    3    3  502    0  0.13384507664E+03  0.41814079093E+03 -0.10842629703E+04  0.11697794780E+04  0.12699999809E+01 0. -1.
       -4    1    3    3    0  502 -0.13384507664E+03 -0.41814079093E+03  0.16605349848E+04  0.17175954921E+04  0.12699999809E+01 0.  1.
</event>
<event>
 5   0  0.5261878E-06  0.2897408E+04  0.7818609E-02  0.8273649E-01
        1   -1    0    0  501    0  0.00000000000E+00  0.00000000000E+00  0.17121103754E+04  0.17121103754E+04  0.50400001928E-02 0.  1.
       -1   -1    0    0    0  501  0.00000000000E+00  0.00000000000E+00 -0.12258224355E+04  0.12258224355E+04  0.50400001928E-02 0. -1.
    10030    2    1    2    0    0  0.00000000000E+00  0.00000000000E+00  0.48628793988E+03  0.29379328109E+04  0.28974080211E+04 0.  0.
        5    1    3    3  502    0  0.13122816447E+04  0.37580672418E+03  0.73511810085E+03  0.15503981815E+04  0.46999998093E+01 0.  1.
       -5    1    3    3    0  502 -0.13122816447E+04 -0.37580672418E+03 -0.24883016097E+03  0.13875346294E+04  0.46999998093E+01 0. -1.
</event>
<event>
 5   0  0.5352212E-06  0.2673532E+04  0.7818609E-02  0.8343644E-01
        1   -1    0    0  501    0  0.00000000000E+00  0.00000000000E+00  0.15110106064E+04  0.15110106064E+04  0.50400001928E-02 0.  1.
       -1   -1    0    0    0  501  0.00000000000E+00  0.00000000000E+00 -0.11826145057E+04  0.11826145057E+04  0.50400001928E-02 0. -1.
    10030    2    1    2    0    0  0.00000000000E+00  0.00000000000E+00  0.32839610068E+03  0.26936251121E+04  0.26735317926E+04 0.  0.
        2    1    3    3  502    0 -0.11151601146E+04 -0.25107752969E+03 -0.53406266870E+03  0.12616833759E+04  0.25500000920E-02 0. -1.
       -2    1    3    3    0  502  0.11151601146E+04  0.25107752969E+03  0.86245876938E+03  0.14319417362E+04  0.25500000920E-02 0.  1.
</event>
<event>
 5   0  0.1385669E-05  0.2956939E+04  0.7818609E-02  0.8256135E-01
       -2   -1    0    0    0  501  0.00000000000E+00  0.00000000000E+00  0.12020927561E+04  0.12020927561E+04  0.25500000920E-02 0. -1.
        2   -1    0    0  501    0  0.00000000000E+00  0.00000000000E+00 -0.18183885798E+04  0.18183885798E+04  0.25500000920E-02 0.  1.
    10030    2    1    2    0    0  0.00000000000E+00  0.00000000000E+00 -0.61629582371E+03  0.30204813360E+04  0.29569387817E+04 0.  0.
        3    1    3    3  502    0  0.20481958285E+03  0.88330636922E+03  0.88471829335E+03  0.12668495065E+04  0.10100000352E+00 0. -1.
       -3    1    3    3    0  502 -0.20481958285E+03 -0.88330636922E+03 -0.15010141171E+04  0.17536318294E+04  0.10100000352E+00 0.  1.
</event>
<event>
 5   0  0.5352212E-06  0.2885428E+04  0.7818609E-02  0.8277226E-01
       -1   -1    0    0    0  501  0.00000000000E+00  0.00000000000E+00  0.13107346670E+04  0.13107346670E+04  0.50400001928E-02 0.  1.
        1   -1    0    0  501    0  0.00000000000E+00  0.00000000000E+00 -0.15879829567E+04  0.15879829567E+04  0.50400001928E-02 0. -1.
    10030    2    1    2    0    0  0.00000000000E+00  0.00000000000E+00 -0.27724828974E+03  0.28987176237E+04  0.28854284341E+04 0.  0.
        2    1    3    3  502    0  0.22775259829E+03 -0.88950873586E+03 -0.12565508303E+04  0.15562830804E+04  0.25500000920E-02 0. -1.
       -2    1    3    3    0  502 -0.22775259829E+03  0.88950873586E+03  0.97930254057E+03  0.13424345433E+04  0.25500000920E-02 0.  1.
</event>
<event>
 5   0  0.5059249E-06  0.2953809E+04  0.7818609E-02  0.8257045E-01
       -1   -1    0    0    0  501  0.00000000000E+00  0.00000000000E+00  0.77978601511E+03  0.77978601512E+03  0.50400001928E-02 0. -1.
        1   -1    0    0  501    0  0.00000000000E+00  0.00000000000E+00 -0.27972379641E+04  0.27972379641E+04  0.50400001928E-02 0.  1.
    10030    2    1    2    0    0  0.00000000000E+00  0.00000000000E+00 -0.20174519490E+04  0.35770239792E+04  0.29538090970E+04 0.  0.
        1    1    3    3  502    0 -0.11805069945E+04  0.19871954961E+03  0.38732727168E+02  0.11977422292E+04  0.50400001928E-02 0. -1.
       -1    1    3    3    0  502  0.11805069945E+04 -0.19871954961E+03 -0.20561846761E+04  0.23792817500E+04  0.50400001928E-02 0.  1.
</event>
<event>
 5   0  0.1336899E-05  0.2217646E+04  0.7818609E-02  0.8511119E-01
        2   -1    0    0  501    0  0.00000000000E+00  0.00000000000E+00  0.19164286663E+04  0.19164286663E+04  0.25500000920E-02 0. -1.
       -2   -1    0    0    0  501  0.00000000000E+00  0.00000000000E+00 -0.64155163433E+03  0.64155163433E+03  0.25500000920E-02 0.  1.
    10030    2    1    2    0    0  0.00000000000E+00  0.00000000000E+00  0.12748770320E+04  0.25579803006E+04  0.22176455469E+04 0.  0.
        1    1    3    3  502    0 -0.83173943548E+02  0.72342781975E+03 -0.32708467813E+03  0.79827946358E+03  0.50400001928E-02 0.  1.
       -1    1    3    3    0  502  0.83173943548E+02 -0.72342781975E+03  0.16019617101E+04  0.17597008371E+04  0.50400001928E-02 0. -1.
</event>
<event>
 5   0  0.5261878E-06  0.2666724E+04  0.7818609E-02  0.8345883E-01
       -1   -1    0    0    0  501  0.00000000000E+00  0.00000000000E+00  0.94028640419E+03  0.94028640420E+03  0.50400001928E-02 0. -1.
        1   -1    0    0  501    0  0.00000000000E+00  0.00000000000E+00 -0.18907575511E+04  0.18907575512E+04  0.50400001928E-02 0.  1.
    10030    2    1    2    0    0  0.00000000000E+00  0.00000000000E+00 -0.95047114696E+03  0.28310439554E+04  0.26667235470E+04 0.  0.
        5    1    3    3  502    0 -0.84659461041E+03 -0.97423401782E+03 -0.83048498434E+03  0.15347904597E+04  0.46999998093E+01 0.  1.
       -5    1    3    3    0  502  0.84659461041E+03  0.97423401782E+03 -0.11998616261E+03  0.12962534957E+04  0.46999998093E+01 0. -1.
</event>
<event>
 5   0  0.5261878E-06  0.2727314E+04  0.7818609E-02  0.8326197E-01
       -1   -1    0    0    0  501  0.00000000000E+00  0.00000000000E+00  0.10885054158E+04  0.10885054158E+04  0.50400001928E-02 0.  1.
        1   -1    0    0  501    0  0.00000000000E+00  0.00000000000E+00 -0.17083609908E+04  0.17083609908E+04  0.50400001928E-02 0. -1.
    10030    2    1    2    0    0  0.00000000000E+00  0.00000000000E+00 -0.61985557504E+03  0.27968664067E+04  0.27273138365E+04 0.  0.
        5    1    3    3  502    0  0.17067772387E+03  0.49139992333E+02  0.10765847748E+04  0.10911473281E+04  0.46999998093E+01 0.  1.
       -5    1    3    3    0  502 -0.17067772387E+03 -0.49139992333E+02 -0.16964403499E+04  0.17057190785E+04  0.46999998093E+01 0. -1.
</event>
<event>
 5   0  0.1382803E-05  0.2749370E+04  0.7818609E-02  0.8319162E-01
       -2   -1    0    0    0  501  0.00000000000E+00  0.00000000000E+00  0.12133884398E+04  0.12133884398E+04  0.25500000920E-02 0. -1.
        2   -1    0    0  501    0  0.00000000000E+00  0.00000000000E+00 -0.15574222788E+04  0.15574222788E+04  0.25500000920E-02 0.  1.
    10030    2    1    2    0    0  0.00000000000E+00  0.00000000000E+00 -0.34403383901E+03  0.27708107186E+04  0.27493695197E+04 0.  0.
        2    1    3    3  502    0  0.29249747079E+03 -0.44023617213E+03  0.11068931998E+04  0.12266112724E+04  0.25500000920E-02 0. -1.
       -2    1    3    3    0  502 -0.29249747079E+03  0.44023617213E+03 -0.14509270389E+04  0.15441994462E+04  0.25500000920E-02 0.  1.
</event>
<event>
 5   0  0.1382803E-05  0.2448081E+04  0.7818609E-02  0.8421719E-01
       -2   -1    0    0    0  501  0.00000000000E+00  0.00000000000E+00  0.72982569468E+03  0.72982569469E+03  0.25500000920E-02 0.  1.
        2   -1    0    0  501    0  0.00000000000E+00  0.00000000000E+00 -0.20529222952E+04  0.20529222952E+04  0.25500000920E-02 0. -1.
    10030    2    1    2    0    0  0.00000000000E+00  0.00000000000E+00 -0.13230966005E+04  0.27827479899E+04  0.24480812406E+04 0.  0.
        2    1    3    3  502    0 -0.11584688436E+04 -0.17373361589E+03 -0.25799053301E+03  0.11994967887E+04  0.25500000920E-02 0.  1.
       -2    1    3    3    0  502  0.11584688436E+04  0.17373361589E+03 -0.10651060675E+04  0.15832512011E+04  0.25500000920E-02 0. -1.
</event>
<event>
 5   0  0.5154476E-06  0.2916581E+04  0.7818609E-02  0.8267961E-01
       -1   -1    0    0    0  501  0.00000000000E+00  0.00000000000E+00  0.12845963740E+04  0.12845963740E+04  0.50400001928E-02 0. -1.
        1   -1    0    0  501    0  0.00000000000E+00  0.00000000000E+00 -0.16554703280E+04  0.16554703280E+04  0.50400001928E-02 0.  1.
    10030    2    1    2    0    0  0.00000000000E+00  0.00000000000E+00 -0.37087395402E+03  0.29400667020E+04  0.29165809987E+04 0.  0.
        3    1    3    3  502    0 -0.38424531642E+03  0.11433333033E+04  0.64076990859E+03  0.13658116970E+04  0.10100000352E+00 0. -1.
       -3    1    3    3    0  502  0.38424531642E+03 -0.11433333033E+04 -0.10116438626E+04  0.15742550050E+04  0.10100000352E+00 0.  1.
</event>
<event>
 5   0  0.1339837E-05  0.2957913E+04  0.7818609E-02  0.8255852E-01
       -2   -1    0    0    0  501  0.00000000000E+00  0.00000000000E+00  0.87748244225E+03  0.87748244225E+03  0.25500000920E-02 0.  1.
        2   -1    0    0  501    0  0.00000000000E+00  0.00000000000E+00 -0.24927133394E+04  0.24927133394E+04  0.25500000920E-02 0. -1.
    10030    2    1    2    0    0  0.00000000000E+00  0.00000000000E+00 -0.16152308972E+04  0.33701957817E+04  0.29579129053E+04 0.  0.
        5    1    3    3  502    0  0.73979391560E+03  0.52839155720E+03 -0.21367424708E+04  0.23221074807E+04  0.46999998093E+01 0. -1.
       -5    1    3    3    0  502 -0.73979391560E+03 -0.52839155720E+03  0.52151157363E+03  0.10480883010E+04  0.46999998093E+01 0.  1.
</event>
<event>
 5   0  0.5002240E-06  0.1840761E+04  0.7818609E-02  0.8684919E-01
        1   -1    0    0  501    0  0.00000000000E+00  0.00000000000E+00  0.76051232220E+03  0.76051232222E+03  0.50400001928E-02 0. -1.
       -1   -1    0    0    0  501  0.00000000000E+00  0.00000000000E+00 -0.11138543665E+04  0.11138543665E+04  0.50400001928E-02 0.  1.
    10030    2    1    2    0    0  0.00000000000E+00  0.00000000000E+00 -0.35334204428E+03  0.18743666887E+04  0.18407606807E+04 0.  0.
        4    1    3    3  502    0 -0.84858895275E+03 -0.14355683800E+03 -0.50879532462E+03  0.99979301444E+03  0.12699999809E+01 0.  1.
       -4    1    3    3    0  502  0.84858895275E+03  0.14355683800E+03  0.15545328034E+03  0.87457367427E+03  0.12699999809E+01 0. -1.
</event>
<event>
 5   0  0.1382803E-05  0.2871357E+04  0.7818609E-02  0.8281451E-01
       -2   -1    0    0    0  501  0.00000000000E+00  0.00000000000E+00  0.16369080159E+04  0.16369080159E+04  0.25500000920E-02 0.  1.
        2   -1    0    0  501    0  0.00000000000E+00  0.00000000000E+00 -0.12591864568E+04  0.12591864568E+04  0.25500000920E-02 0. -1.
    10030    2    1    2    0    0  0.00000000000E+00  0.00000000000E+00  0.37772155907E+03  0.28960944727E+04  0.28713567557E+04 0.  0.
        2    1    3    3  502    0  0.33096672545E+03 -0.39104503813E+03 -0.11638564271E+04  0.12716198245E+04  0.25500000920E-02 0. -1.
       -2    1    3    3    0  502 -0.33096672545E+03  0.39104503813E+03  0.15415779862E+04  0.16244746482E+04  0.25500000920E-02 0.  1.
</event>
<event>
 5   0  0.5154476E-06  0.2909263E+04  0.7818609E-02  0.8270127E-01
        1   -1    0    0  501    0  0.00000000000E+00  0.00000000000E+00  0.22672019102E+04  0.22672019103E+04  0.50400001928E-02 0.  1.
       -1   -1    0    0    0  501  0.00000000000E+00  0.00000000000E+00 -0.93328801664E+03  0.93328801666E+03  0.50400001928E-02 0. -1.
    10030    2    1    2    0    0  0.00000000000E+00  0.00000000000E+00  0.13339138936E+04  0.32004899269E+04  0.29092627067E+04 0.  0.
        3    1    3    3  502    0  0.23211282399E+03 -0.12855896650E+04  0.13707955433E+04  0.18935938270E+04  0.10100000352E+00 0. -1.
       -3    1    3    3    0  502 -0.23211282399E+03  0.12855896650E+04 -0.36881649697E+02  0.13068960999E+04  0.10100000352E+00 0.  1.
</event>
<event>
 5   0  0.5261878E-06  0.2951376E+04  0.7818609E-02  0.8257754E-01
        1   -1    0    0  501    0  0.00000000000E+00  0.00000000000E+00  0.17513359719E+04  0.17513359719E+04  0.50400001928E-02 0. -1.
       -1   -1    0    0    0  501  0.00000000000E+00  0.00000000000E+00 -0.12434248733E+04  0.12434248733E+04  0.50400001928E-02 0.  1.
    10030    2    1    2    0    0  0.00000000000E+00  0.00000000000E+00  0.50791109867E+03  0.29947608452E+04  0.29513757531E+04 0.  0.
        5    1    3    3  502    0  0.71176007602E+02  0.50501448762E+03  0.16590592608E+04  0.17356858522E+04  0.46999998093E+01 0. -1.
       -5    1    3    3    0  502 -0.71176007602E+02 -0.50501448762E+03 -0.11511481621E+04  0.12590749930E+04  0.46999998093E+01 0.  1.
</event>
<event>
 5   0  0.5352212E-06  0.2872248E+04  0.7818609E-02  0.8281183E-01
        1   -1    0    0  501    0  0.00000000000E+00  0.00000000000E+00  0.17964944266E+04  0.17964944266E+04  0.50400001928E-02 0. -1.
       -1   -1    0    0    0  501  0.00000000000E+00  0.00000000000E+00 -0.11480429648E+04  0.11480429649E+04  0.50400001928E-02 0.  1.
    10030    2    1    2    0    0  0.00000000000E+00  0.00000000000E+00  0.64845146177E+03  0.29445373915E+04  0.28722484488E+04 0.  0.
        2    1    3    3  502    0 -0.12062312083E+04  0.99381320147E+01  0.11231732789E+04  0.16482144001E+04  0.25500000920E-02 0. -1.
       -2    1    3    3    0  502  0.12062312083E+04 -0.99381320147E+01 -0.47472181716E+03  0.12963229914E+04  0.25500000920E-02 0.  1.
</event>
<event>
 5   0  0.5261878E-06  0.2759574E+04  0.7818609E-02  0.8315930E-01
        1   -1    0    0  501    0  0.00000000000E+00  0.00000000000E+00  0.80284356309E+03  0.80284356310E+03  0.50400001928E-02 0.  1.
       -1   -1    0    0    0  501  0.00000000000E+00  0.00000000000E+00 -0.23713361267E+04  0.23713361267E+04  0.50400001928E-02 0. -1.
    10030    2    1    2    0    0  0.00000000000E+00  0.00000000000E+00 -0.15684925636E+04  0.31741796898E+04  0.27595738405E+04 0.  0.
        5    1    3    3  502    0 -0.14292905896E+01  0.12673293794E+04 -0.14118025721E+04  0.18971911847E+04  0.46999998093E+01 0. -1.
       -5    1    3    3    0  502  0.14292905896E+01 -0.12673293794E+04 -0.15668999154E+03  0.12769885051E+04  0.46999998093E+01 0.  1.
</event>
<event>
 5   0  0.1382803E-05  0.2890369E+04  0.7818609E-02  0.8275749E-01
       -2   -1    0    0    0  501  0.00000000000E+00  0.00000000000E+00  0.16444705585E+04  0.16444705585E+04  0.25500000920E-02 0.  1.
        2   -1    0    0  501    0  0.00000000000E+00  0.00000000000E+00 -0.12700487745E+04  0.12700487745E+04  0.25500000920E-02 0. -1.
    10030    2    1    2    0    0  0.00000000000E+00  0.00000000000E+00  0.37442178398E+03  0.29145193331E+04  0.28903687084E+04 0.  0.
        2    1    3    3  502    0  0.10265197828E+03 -0.19107417403E+03 -0.12535422024E+04  0.12721693370E+04  0.25500000920E-02 0. -1.
       -2    1    3    3    0  502 -0.10265197828E+03  0.19107417403E+03  0.16279639864E+04  0.16423499961E+04  0.25500000920E-02 0.  1.
</event>
<event>
 5   0  0.1382803E-05  0.2902812E+04  0.7818609E-02  0.8272041E-01
       -2   -1    0    0    0  501  0.00000000000E+00  0.00000000000E+00  0.11197139828E+04  0.11197139828E+04  0.25500000920E-02 0.  1.
        2   -1    0    0  501    0  0.00000000000E+00  0.00000000000E+00 -0.18813550359E+04  0.18813550359E+04  0.25500000920E-02 0. -1.
    10030    2    1    2    0    0  0.00000000000E+00  0.00000000000E+00 -0.76164105310E+03  0.30010690186E+04  0.29028121126E+04 0.  0.
        2    1    3    3  502    0 -0.48176443857E+03 -0.10953084595E+04 -0.12300768388E+04  0.17160671972E+04  0.25500000920E-02 0. -1.
       -2    1    3    3    0  502  0.48176443857E+03  0.10953084595E+04  0.46843578573E+03  0.12850018215E+04  0.25500000920E-02 0.  1.
</event>
<event>
 5   0  0.5002240E-06  0.2797382E+04  0.7818609E-02  0.8304081E-01
        1   -1    0    0  501    0  0.00000000000E+00  0.00000000000E+00  0.21299280766E+04  0.21299280766E+04  0.50400001928E-02 0. -1.
       -1   -1    0    0    0  501  0.00000000000E+00  0.00000000000E+00 -0.91849915778E+03  0.91849915779E+03  0.50400001928E-02 0.  1.
    10030    2    1    2    0    0  0.00000000000E+00  0.00000000000E+00  0.12114289188E+04  0.30484272344E+04  0.27973824512E+04 0.  0.
        4    1    3    3  502    0  0.73453364586E+03  0.10766758289E+04  0.52660606250E+02  0.13044329303E+04  0.12699999809E+01 0.  1.
       -4    1    3    3    0  502 -0.73453364586E+03 -0.10766758289E+04  0.11587683126E+04  0.17439943040E+04  0.12699999809E+01 0. -1.
</event>
<event>
 5   0  0.1307832E-05  0.2954307E+04  0.7818609E-02  0.8256900E-01
        2   -1    0    0  501    0  0.00000000000E+00  0.00000000000E+00  0.77483660028E+03  0.77483660028E+03  0.25500000920E-02 0.  1.
       -2   -1    0    0    0  501  0.00000000000E+00  0.00000000000E+00 -0.28160549175E+04  0.28160549175E+04  0.25500000920E-02 0. -1.
    10030    2    1    2    0    0  0.00000000000E+00  0.00000000000E+00 -0.20412183172E+04  0.35908915178E+04  0.29543069702E+04 0.  0.
        4    1    3    3  502    0  0.61219605602E+03 -0.10663654511E+04 -0.20155654553E+04  0.23610220253E+04  0.12699999809E+01 0. -1.
       -4    1    3    3    0  502 -0.61219605602E+03  0.10663654511E+04 -0.25652861890E+02  0.12298694925E+04  0.12699999809E+01 0.  1.
</event>
<event>
 5   0  0.5261878E-06  0.2220615E+04  0.7818609E-02  0.8509896E-01
       -1   -1    0    0    0  501  0.00000000000E+00  0.00000000000E+00  0.89716084930E+03  0.89716084931E+03  0.50400001928E-02 0.  1.
        1   -1    0    0  501    0  0.00000000000E+00  0.00000000000E+00 -0.13740930663E+04  0.13740930663E+04  0.50400001928E-02 0. -1.
    10030    2    1    2    0    0  0.00000000000E+00  0.00000000000E+00 -0.47693221700E+03  0.22712539156E+04  0.22206147819E+04 0.  0.
        5    1    3    3  502    0  0.42424302135E+03 -0.99435476769E+03  0.20359653508E+02  0.10812770925E+04  0.46999998093E+01 0.  1.
       -5    1    3    3    0  502 -0.42424302135E+03  0.99435476769E+03 -0.49729187051E+03  0.11899768232E+04  0.46999998093E+01 0. -1.
</event>
<event>
 5   0  0.5261878E-06  0.2941644E+04  0.7818609E-02  0.8260594E-01
        1   -1    0    0  501    0  0.00000000000E+00  0.00000000000E+00  0.24693956898E+04  0.24693956898E+04  0.50400001928E-02 0. -1.
       -1   -1    0    0    0  501  0.00000000000E+00  0.00000000000E+00 -0.87605112357E+03  0.87605112359E+03  0.50400001928E-02 0.  1.
    10030    2    1    2    0    0  0.00000000000E+00  0.00000000000E+00  0.15933445663E+04  0.33454468134E+04  0.29416436689E+04 0.  0.
        5    1    3    3  502    0  0.60652856710E+03 -0.23160562733E+03  0.22976018236E+04  0.23875749829E+04  0.46999998093E+01 0. -1.
       -5    1    3    3    0  502 -0.60652856710E+03  0.23160562733E+03 -0.70425725729E+03  0.95787183055E+03  0.46999998093E+01 0.  1.
</event>
<event>
 5   0  0.5154476E-06  0.2902017E+04  0.7818609E-02  0.8272278E-01
        1   -1    0    0  501    0  0.00000000000E+00  0.00000000000E+00  0.21010815765E+04  0.21010815765E+04  0.50400001928E-02 0. -1.
       -1   -1    0    0    0  501  0.00000000000E+00  0.00000000000E+00 -0.10020672766E+04  0.10020672767E+04  0.50400001928E-02 0.  1.
    10030    2    1    2    0    0  0.00000000000E+00  0.00000000000E+00  0.10990142998E+04  0.31031488531E+04  0.29020166046E+04 0.  0.
        3    1    3    3  502    0  0.13078980644E+04  0.56186320507E+03  0.85031821724E+03  0.16581099749E+04  0.10100000352E+00 0. -1.
       -3    1    3    3    0  502 -0.13078980644E+04 -0.56186320507E+03  0.24869608258E+03  0.14450388783E+04  0.10100000352E+00 0.  1.
</event>
<event>
 5   0  0.1382803E-05  0.3006458E+04  0.7818609E-02  0.8241889E-01
        2   -1    0    0  501    0  0.00000000000E+00  0.00000000000E+00  0.22730454295E+04  0.22730454295E+04  0.25500000920E-02 0.  1.
       -2   -1    0    0    0  501  0.00000000000E+00  0.00000000000E+00 -0.99412774121E+03  0.99412774121E+03  0.25500000920E-02 0. -1.
    10030    2    1    2    0    0  0.00000000000E+00  0.00000000000E+00  0.12789176883E+04  0.32671731707E+04  0.30064580612E+04 0.  0.
        2    1    3    3  502    0  0.25178123182E+03 -0.10747446424E+04 -0.46943470556E+03  0.11995160598E+04  0.25500000920E-02 0. -1.
       -2    1    3    3    0  502 -0.25178123182E+03  0.10747446424E+04  0.17483523938E+04  0.20676571108E+04  0.25500000920E-02 0.  1.
</event>
<event>
 5   0  0.5059249E-06  0.2909132E+04  0.7818609E-02  0.8270166E-01
       -1   -1    0    0    0  501  0.00000000000E+00  0.00000000000E+00  0.10286503263E+04  0.10286503263E+04  0.50400001928E-02 0.  1.
        1   -1    0    0  501    0  0.00000000000E+00  0.00000000000E+00 -0.20568330542E+04  0.20568330542E+04  0.50400001928E-02 0. -1.
    10030    2    1    2    0    0  0.00000000000E+00  0.00000000000E+00 -0.10281827279E+04  0.30854833805E+04  0.29091318240E+04 0.  0.
        1    1    3    3  502    0  0.46985677848E+03  0.10268235408E+04 -0.14865301150E+04  0.18667896933E+04  0.50400001928E-02 0. -1.
       -1    1    3    3    0  502 -0.46985677848E+03 -0.10268235408E+04  0.45834738707E+03  0.12186936873E+04  0.50400001928E-02 0.  1.
</event>
<event>
 5   0  0.1382803E-05  0.2809389E+04  0.7818609E-02  0.8300359E-01
        2   -1    0    0  501    0  0.00000000000E+00  0.00000000000E+00  0.10780958129E+04  0.10780958129E+04  0.25500000920E-02 0.  1.
       -2   -1    0    0    0  501  0.00000000000E+00  0.00000000000E+00 -0.18302329861E+04  0.18302329861E+04  0.25500000920E-02 0. -1.
    10030    2    1    2    0    0  0.00000000000E+00  0.00000000000E+00 -0.75213717319E+03  0.29083287990E+04  0.28093889150E+04 0.  0.
        2    1    3    3  502    0 -0.10184733142E+04  0.96194317797E+03 -0.48236859536E+03  0.14816551661E+04  0.25500000920E-02 0.  1.
       -2    1    3    3    0  502  0.10184733142E+04 -0.96194317797E+03 -0.26976857784E+03  0.14266736330E+04  0.25500000920E-02 0. -1.
</event>
<event>
 5   0  0.1382803E-05  0.2863643E+04  0.7818609E-02  0.8283778E-01
        2   -1    0    0  501    0  0.00000000000E+00  0.00000000000E+00  0.16217984748E+04  0.16217984748E+04  0.25500000920E-02 0.  1.
       -2   -1    0    0    0  501  0.00000000000E+00  0.00000000000E+00 -0.12640980831E+04  0.12640980831E+04  0.25500000920E-02 0. -1.
    10030    2    1    2    0    0  0.00000000000E+00  0.00000000000E+00  0.35770039165E+03  0.28858965579E+04  0.28636426755E+04 0.  0.
        2    1    3    3  502    0  0.85600097789E+03 -0.97856404253E+03  0.78333406827E+03  0.15178726962E+04  0.25500000920E-02 0.  1.
       -2    1    3    3    0  502 -0.85600097789E+03  0.97856404253E+03 -0.42563367662E+03  0.13680238617E+04  0.25500000920E-02 0. -1.
</event>
<event>
 5   0  0.5154476E-06  0.2884951E+04  0.7818609E-02  0.8277369E-01
       -1   -1    0    0    0  501  0.00000000000E+00  0.00000000000E+00  0.80282324652E+03  0.80282324654E+03  0.50400001928E-02 0. -1.
        1   -1    0    0  501    0  0.00000000000E+00  0.00000000000E+00 -0.25917736314E+04  0.25917736314E+04  0.50400001928E-02 0.  1.
    10030    2    1    2    0    0  0.00000000000E+00  0.00000000000E+00 -0.17889503849E+04  0.33945968779E+04  0.28849513833E+04 0.  0.
        3    1    3    3  502    0 -0.46509734643E+03 -0.46110781536E+03  0.61779175224E+03  0.90033472575E+03  0.10100000352E+00 0. -1.
       -3    1    3    3    0  502  0.46509734643E+03  0.46110781536E+03 -0.24067421371E+04  0.24942621522E+04  0.10100000352E+00 0.  1.
</event>
<event>
 5   0  0.5059249E-06  0.3010905E+04  0.7818609E-02  0.8240624E-01
       -1   -1    0    0    0  501  0.00000000000E+00  0.00000000000E+00  0.94334364696E+03  0.94334364698E+03  0.50400001928E-02 0.  1.
        1   -1    0    0  501    0  0.00000000000E+00  0.00000000000E+00 -0.24025041944E+04  0.24025041944E+04  0.50400001928E-02 0. -1.
    10030    2    1    2    0    0  0.00000000000E+00  0.00000000000E+00 -0.14591605474E+04  0.33458478414E+04  0.30109048930E+04 0.  0.
        1    1    3    3  502    0 -0.38272451963E+03  0.63852463509E+02  0.88682302060E+03  0.96799290540E+03  0.50400001928E-02 0.  1.
       -1    1    3    3    0  502  0.38272451963E+03 -0.63852463509E+02 -0.23459835680E+04  0.23778549360E+04  0.50400001928E-02 0. -1.
</event>
<event>
 5   0  0.5154476E-06  0.2885475E+04  0.7818609E-02  0.8277212E-01
       -1   -1    0    0    0  501  0.00000000000E+00  0.00000000000E+00  0.12302501923E+04  0.12302501923E+04  0.50400001928E-02 0. -1.
        1   -1    0    0  501    0  0.00000000000E+00  0.00000000000E+00 -0.16919253381E+04  0.16919253381E+04  0.50400001928E-02 0.  1.
    10030    2    1    2    0    0  0.00000000000E+00  0.00000000000E+00 -0.46167514581E+03  0.29221755303E+04  0.28854749851E+04 0.  0.
        3    1    3    3  502    0 -0.24406087772E+03 -0.55490900467E+03 -0.15566882544E+04  0.16705592019E+04  0.10100000352E+00 0.  1.
       -3    1    3    3    0  502  0.24406087772E+03  0.55490900467E+03  0.10950131086E+04  0.12516163284E+04  0.10100000352E+00 0. -1.
</event>
<event>
 5   0  0.5261878E-06  0.2784791E+04  0.7818609E-02  0.8308006E-01
       -1   -1    0    0    0  501  0.00000000000E+00  0.00000000000E+00  0.15837468369E+04  0.15837468369E+04  0.50400001928E-02 0. -1.
        1   -1    0    0  501    0  0.00000000000E+00  0.00000000000E+00 -0.12241634468E+04  0.12241634468E+04  0.50400001928E-02 0.  1.
    10030    2    1    2    0    0  0.00000000000E+00  0.00000000000E+00  0.35958339013E+03  0.28079102838E+04  0.27847908265E+04 0.  0.
        5    1    3    3  502    0  0.26864866847E+03  0.99580723419E+03 -0.76335548699E+03  0.12831749079E+04  0.46999998093E+01 0.  1.
       -5    1    3    3    0  502 -0.26864866847E+03 -0.99580723419E+03  0.11229388771E+04  0.15247353759E+04  0.46999998093E+01 0. -1.
</event>
<event>
 5   0  0.5002240E-06  0.2981508E+04  0.7818609E-02  0.8249031E-01
       -1   -1    0    0    0  501  0.00000000000E+00  0.00000000000E+00  0.12445920125E+04  0.12445920126E+04  0.50400001928E-02 0. -1.
        1   -1    0    0  501    0  0.00000000000E+00  0.00000000000E+00 -0.17856035059E+04  0.17856035059E+04  0.50400001928E-02 0.  1.
    10030    2    1    2    0    0  0.00000000000E+00  0.00000000000E+00 -0.54101149333E+03  0.30301955184E+04  0.29815082499E+04 0.  0.
        4    1    3    3  502    0 -0.78202555028E+03  0.11910618302E+04  0.17500620045E+03  0.14355559995E+04  0.12699999809E+01 0. -1.
       -4    1    3    3    0  502  0.78202555028E+03 -0.11910618302E+04 -0.71601769378E+03  0.15946395189E+04  0.12699999809E+01 0.  1.
</event>
<event>
 5   0  0.5002240E-06  0.2926975E+04  0.7818609E-02  0.8264896E-01
        1   -1    0    0  501    0  0.00000000000E+00  0.00000000000E+00  0.12896798463E+04  0.12896798463E+04  0.50400001928E-02 0. -1.
       -1   -1    0    0    0  501  0.00000000000E+00  0.00000000000E+00 -0.16607193896E+04  0.16607193896E+04  0.50400001928E-02 0.  1.
    10030    2    1    2    0    0  0.00000000000E+00  0.00000000000E+00 -0.37103954329E+03  0.29503992359E+04  0.29269754540E+04 0.  0.
        4    1    3    3  502    0 -0.38344443514E+03 -0.12100075138E+04 -0.91980454173E+03  0.15675426075E+04  0.12699999809E+01 0.  1.
       -4    1    3    3    0  502  0.38344443514E+03  0.12100075138E+04  0.54876499845E+03  0.13828566284E+04  0.12699999809E+01 0. -1.
</event>
<event>
 5   0  0.1336899E-05  0.2875592E+04  0.7818609E-02  0.8280177E-01
       -2   -1    0    0    0  501  0.00000000000E+00  0.00000000000E+00  0.95379050032E+03  0.95379050032E+03  0.25500000920E-02 0.  1.
        2   -1    0    0  501    0  0.00000000000E+00  0.00000000000E+00 -0.21674123061E+04  0.21674123061E+04  0.25500000920E-02 0. -1.
    10030    2    1    2    0    0  0.00000000000E+00  0.00000000000E+00 -0.12136218058E+04  0.31212028064E+04  0.28755919515E+04 0.  0.
        1    1    3    3  502    0  0.27065579226E+03 -0.13957356394E+04 -0.83941537406E+03  0.16510453365E+04  0.50400001928E-02 0.  1.
       -1    1    3    3    0  502 -0.27065579226E+03  0.13957356394E+04 -0.37420643170E+03  0.14701574699E+04  0.50400001928E-02 0. -1.
</event>
<event>
 5   0  0.1385669E-05  0.2878697E+04  0.7818609E-02  0.8279244E-01
       -2   -1    0    0    0  501  0.00000000000E+00  0.00000000000E+00  0.22003679048E+04  0.22003679048E+04  0.25500000920E-02 0. -1.
        2   -1    0    0  501    0  0.00000000000E+00  0.00000000000E+00 -0.94153514391E+03  0.94153514392E+03  0.25500000920E-02 0.  1.
    10030    2    1    2    0    0  0.00000000000E+00  0.00000000000E+00  0.12588327608E+04  0.31419030487E+04  0.28786967272E+04 0.  0.
        3    1    3    3  502    0 -0.73073761584E+03 -0.81687302069E+03 -0.38887589467E+03  0.11629632268E+04  0.10100000352E+00 0.  1.
       -3    1    3    3    0  502  0.73073761584E+03  0.81687302069E+03  0.16477086555E+04  0.19789398219E+04  0.10100000352E+00 0. -1.
</event>
<event>
 5   0  0.5261878E-06  0.2766875E+04  0.7818609E-02  0.8313627E-01
       -1   -1    0    0    0  501  0.00000000000E+00  0.00000000000E+00  0.25505888206E+04  0.25505888206E+04  0.50400001928E-02 0. -1.
        1   -1    0    0  501    0  0.00000000000E+00  0.00000000000E+00 -0.75037557393E+03  0.75037557395E+03  0.50400001928E-02 0.  1.
    10030    2    1    2    0    0  0.00000000000E+00  0.00000000000E+00  0.18002132467E+04  0.33009643946E+04  0.27668751690E+04 0.  0.
        5    1    3    3  502    0  0.39886832461E+03  0.13163900934E+04  0.10766534288E+04  0.17467637259E+04  0.46999998093E+01 0. -1.
       -5    1    3    3    0  502 -0.39886832461E+03 -0.13163900934E+04  0.72355981790E+03  0.15542006687E+04  0.46999998093E+01 0.  1.
</event>
<event>
 5   0  0.1382803E-05  0.2287177E+04  0.7818609E-02  0.8482994E-01
       -2   -1    0    0    0  501  0.00000000000E+00  0.00000000000E+00  0.92801385788E+03  0.92801385788E+03  0.25500000920E-02 0. -1.
        2   -1    0    0  501    0  0.00000000000E+00  0.00000000000E+00 -0.14092408191E+04  0.14092408191E+04  0.25500000920E-02 0.  1.
    10030    2    1    2    0    0  0.00000000000E+00  0.00000000000E+00 -0.48122696127E+03  0.23372546770E+04  0.22871773077E+04 0.  0.
        2    1    3    3  502    0  0.83492006617E+03  0.72232618676E+03 -0.54538557995E+03  0.12313781173E+04  0.25500000920E-02 0.  1.
       -2    1    3    3    0  502 -0.83492006617E+03 -0.72232618676E+03  0.64158618681E+02  0.11058765597E+04  0.25500000920E-02 0. -1.
</event>
<event>
 5   0  0.1307832E-05  0.3050632E+04  0.7818609E-02  0.8229419E-01
        2   -1    0    0  501    0  0.00000000000E+00  0.00000000000E+00  0.23434915713E+04  0.23434915713E+04  0.25500000920E-02 0. -1.
       -2   -1    0    0    0  501  0.00000000000E+00  0.00000000000E+00 -0.99278727144E+03  0.99278727145E+03  0.25500000920E-02 0.  1.
    10030    2    1    2    0    0  0.00000000000E+00  0.00000000000E+00  0.13507042999E+04  0.33362788428E+04  0.30506318052E+04 0.  0.
        4    1    3    3  502    0 -0.21752658657E+03  0.90169032621E+03 -0.64890604607E+03  0.11320088029E+04  0.12699999809E+01 0.  1.
       -4    1    3    3    0  502  0.21752658657E+03 -0.90169032621E+03  0.19996103459E+04  0.22042700399E+04  0.12699999809E+01 0. -1.
</event>
<event>
 5   0  0.5002240E-06  0.2932406E+04  0.7818609E-02  0.8263300E-01
       -1   -1    0    0    0  501  0.00000000000E+00  0.00000000000E+00  0.15785185521E+04  0.15785185521E+04  0.50400001928E-02 0.  1.
        1   -1    0    0  501    0  0.00000000000E+00  0.00000000000E+00 -0.13618792993E+04  0.13618792993E+04  0.50400001928E-02 0. -1.
    10030    2    1    2    0    0  0.00000000000E+00  0.00000000000E+00  0.21663925283E+03  0.29403978514E+04  0.29324063427E+04 0.  0.
        4    1    3    3  502    0 -0.53249699923E+03 -0.40538286326E+03 -0.11997898519E+04  0.13738215393E+04  0.12699999809E+01 0. -1.
       -4    1    3    3    0  502  0.53249699923E+03  0.40538286326E+03  0.14164291048E+04  0.15665763121E+04  0.12699999809E+01 0.  1.
</event>
<event>
 5   0  0.1339837E-05  0.2383582E+04  0.7818609E-02  0.8445676E-01
       -2   -1    0    0    0  501  0.00000000000E+00  0.00000000000E+00  0.10231335711E+04  0.10231335711E+04  0.25500000920E-02 0. -1.
        2   -1    0    0  501    0  0.00000000000E+00  0.00000000000E+00 -0.13882500746E+04  0.13882500746E+04  0.25500000920E-02 0.  1.
    10030    2    1    2    0    0  0.00000000000E+00  0.00000000000E+00 -0.36511650355E+03  0.24113836457E+04  0.23835815542E+04 0.  0.
        5    1    3    3  502    0 -0.39372951724E+03  0.11156874288E+04 -0.37491860785E+02  0.11837267848E+04  0.46999998093E+01 0.  1.
       -5    1    3    3    0  502  0.39372951724E+03 -0.11156874288E+04 -0.32762464277E+03  0.12276568609E+04  0.46999998093E+01 0. -1.
</event>
<event>
 5   0  0.1336899E-05  0.2883549E+04  0.7818609E-02  0.8277789E-01
        2   -1    0    0  501    0  0.00000000000E+00  0.00000000000E+00  0.17278687561E+04  0.17278687561E+04  0.25500000920E-02 0. -1.
       -2   -1    0    0    0  501  0.00000000000E+00  0.00000000000E+00 -0.12030505469E+04  0.12030505469E+04  0.25500000920E-02 0.  1.
    10030    2    1    2    0    0  0.00000000000E+00  0.00000000000E+00  0.52481820921E+03  0.29309193030E+04  0.28835488218E+04 0.  0.
        1    1    3    3  502    0 -0.13629960193E+02  0.82659992417E+03  0.14630252016E+04  0.16804451645E+04  0.50400001928E-02 0. -1.
       -1    1    3    3    0  502  0.13629960193E+02 -0.82659992417E+03 -0.93820699238E+03  0.12504741385E+04  0.50400001928E-02 0.  1.
</event>
<event>
 5   0  0.5002240E-06  0.2829522E+04  0.7818609E-02  0.8294161E-01
        1   -1    0    0  501    0  0.00000000000E+00  0.00000000000E+00  0.19940733463E+04  0.19940733463E+04  0.50400001928E-02 0. -1.
       -1   -1    0    0    0  501  0.00000000000E+00  0.00000000000E+00 -0.10037487396E+04  0.10037487396E+04  0.50400001928E-02 0.  1.
    10030    2    1    2    0    0  0.00000000000E+00  0.00000000000E+00  0.99032460667E+03  0.29978220859E+04  0.28295219441E+04 0.  0.
        4    1    3    3  502    0 -0.93423303431E+03  0.20006937189E+03 -0.61032169465E+03  0.11337165871E+04  0.12699999809E+01 0.  1.
       -4    1    3    3    0  502  0.93423303431E+03 -0.20006937189E+03  0.16006463013E+04  0.18641054988E+04  0.12699999809E+01 0. -1.
</event>
<event>
 5   0  0.5059249E-06  0.2778565E+04  0.7818609E-02  0.8309954E-01
       -1   -1    0    0    0  501  0.00000000000E+00  0.00000000000E+00  0.10869124474E+04  0.10869124474E+04  0.50400001928E-02 0. -1.
        1   -1    0    0  501    0  0.00000000000E+00  0.00000000000E+00 -0.17757693465E+04  0.17757693465E+04  0.50400001928E-02 0.  1.
    10030    2    1    2    0    0  0.00000000000E+00  0.00000000000E+00 -0.68885689907E+03  0.28626817939E+04  0.27785649580E+04 0.  0.
        1    1    3    3  502    0 -0.58306807684E+03  0.54519166738E+03 -0.15159103207E+04  0.17132385814E+04  0.50400001928E-02 0.  1.
       -1    1    3    3    0  502  0.58306807684E+03 -0.54519166738E+03  0.82705342167E+03  0.11494432125E+04  0.50400001928E-02 0. -1.
</event>
<event>
 5   0  0.1307832E-05  0.2896085E+04  0.7818609E-02  0.8274043E-01
        2   -1    0    0  501    0  0.00000000000E+00  0.00000000000E+00  0.20435882260E+04  0.20435882260E+04  0.25500000920E-02 0. -1.
       -2   -1    0    0    0  501  0.00000000000E+00  0.00000000000E+00 -0.10260515253E+04  0.10260515253E+04  0.25500000920E-02 0.  1.
    10030    2    1    2    0    0  0.00000000000E+00  0.00000000000E+00  0.10175367007E+04  0.30696397513E+04  0.28960848167E+04 0.  0.
        4    1    3    3  502    0 -0.47067879992E+03 -0.43855269910E+03 -0.86626362776E+03  0.10790186691E+04  0.12699999809E+01 0.  1.
       -4    1    3    3    0  502  0.47067879992E+03  0.43855269910E+03  0.18838003284E+04  0.19906210822E+04  0.12699999809E+01 0. -1.
</event>
<event>
 5   0  0.1385669E-05  0.3010950E+04  0.7818609E-02  0.8240611E-01
        2   -1    0    0  501    0  0.00000000000E+00  0.00000000000E+00  0.20396283377E+04  0.20396283377E+04  0.25500000920E-02 0. -1.
       -2   -1    0    0    0  501  0.00000000000E+00  0.00000000000E+00 -0.11112099777E+04  0.11112099778E+04  0.25500000920E-02 0.  1.
    10030    2    1    2    0    0  0.00000000000E+00  0.00000000000E+00  0.92841835997E+03  0.31508383155E+04  0.30109502552E+04 0.  0.
        3    1    3    3  502    0 -0.81856453074E+03  0.73722602958E+03  0.15379938046E+04  0.18918179254E+04  0.10100000352E+00 0. -1.
       -3    1    3    3    0  502  0.81856453074E+03 -0.73722602958E+03 -0.60957544464E+03  0.12590203901E+04  0.10100000352E+00 0.  1.
</event>
<event>
 5   0  0.1382803E-05  0.3102863E+04  0.7818609E-02  0.8214953E-01
       -2   -1    0    0    0  501  0.00000000000E+00  0.00000000000E+00  0.23241904900E+04  0.23241904900E+04  0.25500000920E-02 0. -1.
        2   -1    0    0  501    0  0.00000000000E+00  0.00000000000E+00 -0.10356033889E+04  0.10356033889E+04  0.25500000920E-02 0.  1.
    10030    2    1    2    0    0  0.00000000000E+00  0.00000000000E+00  0.12885871011E+04  0.33597938789E+04  0.31028629025E+04 0.  0.
        2    1    3    3  502    0  0.10286717574E+04  0.10874004489E+04  0.20268155675E+03  0.15105247877E+04  0.25500000920E-02 0.  1.
       -2    1    3    3    0  502 -0.10286717574E+04 -0.10874004489E+04  0.10859055443E+04  0.18492690913E+04  0.25500000920E-02 0. -1.
</event>
<event>
 5   0  0.1382803E-05  0.2861872E+04  0.7818609E-02  0.8284313E-01
       -2   -1    0    0    0  501  0.00000000000E+00  0.00000000000E+00  0.75152536665E+03  0.75152536666E+03  0.25500000920E-02 0. -1.
        2   -1    0    0  501    0  0.00000000000E+00  0.00000000000E+00 -0.27245618826E+04  0.27245618826E+04  0.25500000920E-02 0.  1.
    10030    2    1    2    0    0  0.00000000000E+00  0.00000000000E+00 -0.19730365159E+04  0.34760872493E+04  0.28618716727E+04 0.  0.
        2    1    3    3  502    0 -0.70768592997E+03  0.19043478108E+03  0.50627550447E+03  0.89072985116E+03  0.25500000920E-02 0. -1.
       -2    1    3    3    0  502  0.70768592997E+03 -0.19043478108E+03 -0.24793120204E+04  0.25853573981E+04  0.25500000920E-02 0.  1.
</event>
<event>
 5   0  0.1307832E-05  0.2932239E+04  0.7818609E-02  0.8263350E-01
       -2   -1    0    0    0  501  0.00000000000E+00  0.00000000000E+00  0.12816662382E+04  0.12816662382E+04  0.25500000920E-02 0.  1.
        2   -1    0    0  501    0  0.00000000000E+00  0.00000000000E+00 -0.16771184118E+04  0.16771184118E+04  0.25500000920E-02 0. -1.
    10030    2    1    2    0    0  0.00000000000E+00  0.00000000000E+00 -0.39545217361E+03  0.29587846499E+04  0.29322387664E+04 0.  0.
        4    1    3    3  502    0 -0.98749413394E+03 -0.87495836016E+03  0.44744296362E+03  0.13931631689E+04  0.12699999809E+01 0. -1.
       -4    1    3    3    0  502  0.98749413394E+03  0.87495836016E+03 -0.84289513724E+03  0.15656214810E+04  0.12699999809E+01 0.  1.
</event>
<event>
 5   0  0.1339837E-05  0.2898527E+04  0.7818609E-02  0.8273316E-01
       -2   -1    0    0    0  501  0.00000000000E+00  0.00000000000E+00  0.11279661373E+04  0.11279661373E+04  0.25500000920E-02 0.  1.
        2   -1    0    0  501    0  0.00000000000E+00  0.00000000000E+00 -0.18620817491E+04  0.18620817491E+04  0.25500000920E-02 0. -1.
    10030    2    1    2    0    0  0.00000000000E+00  0.00000000000E+00 -0.73411561180E+03  0.29900478864E+04  0.28985273212E+04 0.  0.
        5    1    3    3  502    0 -0.11250936136E+04  0.16460656696E+03  0.55987525834E+03  0.12674436303E+04  0.46999998093E+01 0.  1.
       -5    1    3    3    0  502  0.11250936136E+04 -0.16460656696E+03 -0.12939908701E+04  0.17226042561E+04  0.46999998093E+01 0. -1.
</event>
<event>
 5   0  0.1339837E-05  0.2903120E+04  0.7818609E-02  0.8271950E-01
       -2   -1    0    0    0  501  0.00000000000E+00  0.00000000000E+00  0.99015806867E+03  0.99015806867E+03  0.25500000920E-02 0. -1.
        2   -1    0    0  501    0  0.00000000000E+00  0.00000000000E+00 -0.21279695168E+04  0.21279695168E+04  0.25500000920E-02 0.  1.
    10030    2    1    2    0    0  0.00000000000E+00  0.00000000000E+00 -0.11378114481E+04  0.31181275855E+04  0.29031198301E+04 0.  0.
        5    1    3    3  502    0  0.10578172196E+04  0.94989148364E+03 -0.88339288477E+03  0.16738208326E+04  0.46999998093E+01 0. -1.
       -5    1    3    3    0  502 -0.10578172196E+04 -0.94989148364E+03 -0.25441856333E+03  0.14443067528E+04  0.46999998093E+01 0.  1.
</event>
<event>
 5   0  0.1385669E-05  0.2923607E+04  0.7818609E-02  0.8265888E-01
        2   -1    0    0  501    0  0.00000000000E+00  0.00000000000E+00  0.12943715583E+04  0.12943715583E+04  0.25500000920E-02 0. -1.
       -2   -1    0    0    0  501  0.00000000000E+00  0.00000000000E+00 -0.16508935837E+04  0.16508935837E+04  0.25500000920E-02 0.  1.
    10030    2    1    2    0    0  0.00000000000E+00  0.00000000000E+00 -0.35652202540E+03  0.29452651420E+04  0.29236071559E+04 0.  0.
        3    1    3    3  502    0  0.35086090436E+03  0.67852485801E+03 -0.14338366624E+04  0.16246190144E+04  0.10100000352E+00 0.  1.
       -3    1    3    3    0  502 -0.35086090436E+03 -0.67852485801E+03  0.10773146370E+04  0.13206461276E+04  0.10100000352E+00 0. -1.
</event>
<event>
 5   0  0.5059249E-06  0.2888052E+04  0.7818609E-02  0.8276441E-01
        1   -1    0    0  501    0  0.00000000000E+00  0.00000000000E+00  0.16066292030E+04  0.16066292030E+04  0.50400001928E-02 0.  1.
       -1   -1    0    0    0  501  0.00000000000E+00  0.00000000000E+00 -0.12978791336E+04  0.12978791336E+04  0.50400001928E-02 0. -1.
    10030    2    1    2    0    0  0.00000000000E+00  0.00000000000E+00  0.30875006938E+03  0.29045083365E+04  0.28880516048E+04 0.  0.
        1    1    3    3  502    0 -0.68937970923E+03  0.11256594991E+04  0.74325133844E+03  0.15148518883E+04  0.50400001928E-02 0.  1.
       -1    1    3    3    0  502  0.68937970923E+03 -0.11256594991E+04 -0.43450126907E+03  0.13896564483E+04  0.50400001928E-02 0. -1.
</event>
<event>
 5   0  0.5059249E-06  0.2912277E+04  0.7818609E-02  0.8269234E-01
       -1   -1    0    0    0  501  0.00000000000E+00  0.00000000000E+00  0.10165590336E+04  0.10165590336E+04  0.50400001928E-02 0.  1.
        1   -1    0    0  501    0  0.00000000000E+00  0.00000000000E+00 -0.20858008299E+04  0.20858008299E+04  0.50400001928E-02 0. -1.
    10030    2    1    2    0    0  0.00000000000E+00  0.00000000000E+00 -0.10692417963E+04  0.31023598635E+04  0.29122772367E+04 0.  0.
        1    1    3    3  502    0 -0.94086923413E+03 -0.10245601953E+04 -0.75959424083E+02  0.13931002633E+04  0.50400001928E-02 0.  1.
       -1    1    3    3    0  502  0.94086923413E+03  0.10245601953E+04 -0.99328237225E+03  0.17092596001E+04  0.50400001928E-02 0. -1.
</event>
<event>
 5   0  0.1382803E-05  0.2600454E+04  0.7818609E-02  0.8368047E-01
       -2   -1    0    0    0  501  0.00000000000E+00  0.00000000000E+00  0.17941662952E+04  0.17941662952E+04  0.25500000920E-02 0. -1.
        2   -1    0    0  501    0  0.00000000000E+00  0.00000000000E+00 -0.94227072666E+03  0.94227072667E+03  0.25500000920E-02 0.  1.
    10030    2    1    2    0    0  0.00000000000E+00  0.00000000000E+00  0.85189556850E+03  0.27364370218E+04  0.26004540978E+04 0.  0.
        2    1    3    3  502    0  0.10488296375E+04 -0.24784503124E+03 -0.33949581233E+03  0.11299239685E+04  0.25500000920E-02 0.  1.
       -2    1    3    3    0  502 -0.10488296375E+04  0.24784503124E+03  0.11913913808E+04  0.16065130533E+04  0.25500000920E-02 0. -1.
</event>
<event>
 5   0  0.1307832E-05  0.2119502E+04  0.7818609E-02  0.8552701E-01
       -2   -1    0    0    0  501  0.00000000000E+00  0.00000000000E+00  0.88099430413E+03  0.88099430414E+03  0.25500000920E-02 0.  1.
        2   -1    0    0  501    0  0.00000000000E+00  0.00000000000E+00 -0.12747781342E+04  0.12747781342E+04  0.25500000920E-02 0. -1.
    10030    2    1    2    0    0  0.00000000000E+00  0.00000000000E+00 -0.39378383003E+03  0.21557724383E+04  0.21195020880E+04 0.  0.
        4    1    3    3  502    0 -0.13622231204E+03 -0.36127365210E+03 -0.12006927206E+04  0.12612453339E+04  0.12699999809E+01 0. -1.
       -4    1    3    3    0  502  0.13622231204E+03  0.36127365210E+03  0.80690889057E+03  0.89452710444E+03  0.12699999809E+01 0.  1.
</event>
<event>
 5   0  0.5261878E-06  0.3291503E+04  0.7818609E-02  0.8165061E-01
       -1   -1    0    0    0  501  0.00000000000E+00  0.00000000000E+00  0.27184532261E+04  0.27184532261E+04  0.50400001928E-02 0.  1.
        1   -1    0    0  501    0  0.00000000000E+00  0.00000000000E+00 -0.99633775626E+03  0.99633775627E+03  0.50400001928E-02 0. -1.
    10030    2    1    2    0    0  0.00000000000E+00  0.00000000000E+00  0.17221154698E+04  0.37147909823E+04  0.32915027497E+04 0.  0.
        5    1    3    3  502    0  0.12118321726E+04 -0.10844892337E+04  0.57594062958E+03  0.17252199313E+04  0.46999998093E+01 0. -1.
       -5    1    3    3    0  502 -0.12118321726E+04  0.10844892337E+04  0.11461748402E+04  0.19895710510E+04  0.46999998093E+01 0.  1.
</event>
<event>
 5   0  0.4590125E-06  0.2751177E+04  0.7818609E-02  0.8318588E-01
        3   -1    0    0  501    0  0.00000000000E+00  0.00000000000E+00  0.24081559336E+04  0.24081559357E+04  0.10100000352E+00 0.  1.
       -3   -1    0    0    0  501  0.00000000000E+00  0.00000000000E+00 -0.78576466542E+03  0.78576467191E+03  0.10100000352E+00 0. -1.
    10030    2    1    2    0    0  0.00000000000E+00  0.00000000000E+00  0.16223912681E+04  0.31939206076E+04  0.27511770973E+04 0.  0.
        4    1    3    3  502    0  0.12641593686E+04 -0.37506610964E+03  0.12659904881E+04  0.18279789453E+04  0.12699999809E+01 0.  1.
       -4    1    3    3    0  502 -0.12641593686E+04  0.37506610964E+03  0.35640078007E+03  0.13659416623E+04  0.12699999809E+01 0. -1.
</event>
<event>
 5   0  0.1307832E-05  0.2977646E+04  0.7818609E-02  0.8250143E-01
        2   -1    0    0  501    0  0.00000000000E+00  0.00000000000E+00  0.16969392851E+04  0.16969392851E+04  0.25500000920E-02 0. -1.
       -2   -1    0    0    0  501  0.00000000000E+00  0.00000000000E+00 -0.13062303255E+04  0.13062303255E+04  0.25500000920E-02 0.  1.
    10030    2    1    2    0    0  0.00000000000E+00  0.00000000000E+00  0.39070895961E+03  0.30031696106E+04  0.29776457510E+04 0.  0.
        4    1    3    3  502    0  0.90340150056E+03 -0.11593441054E+04  0.43483224247E+03  0.15327405905E+04  0.12699999809E+01 0. -1.
       -4    1    3    3    0  502 -0.90340150056E+03  0.11593441054E+04 -0.44123282852E+02  0.14704290200E+04  0.12699999809E+01 0.  1.
</event>
<event>
 5   0  0.5261878E-06  0.2851331E+04  0.7818609E-02  0.8287507E-01
        1   -1    0    0  501    0  0.00000000000E+00  0.00000000000E+00  0.13133703237E+04  0.13133703237E+04  0.50400001928E-02 0. -1.
       -1   -1    0    0    0  501  0.00000000000E+00  0.00000000000E+00 -0.15475624789E+04  0.15475624789E+04  0.50400001928E-02 0.  1.
    10030    2    1    2    0    0  0.00000000000E+00  0.00000000000E+00 -0.23419215517E+03  0.28609328026E+04  0.28513313620E+04 0.  0.
        5    1    3    3  502    0 -0.99037076610E+02 -0.80741259871E+03 -0.12918404848E+04  0.15266294165E+04  0.46999998093E+01 0.  1.
       -5    1    3    3    0  502  0.99037076610E+02  0.80741259871E+03  0.10576483296E+04  0.13343033861E+04  0.46999998093E+01 0. -1.
</event>
<event>
 5   0  0.5002240E-06  0.1847886E+04  0.7818609E-02  0.8681241E-01
        1   -1    0    0  501    0  0.00000000000E+00  0.00000000000E+00  0.12164309170E+04  0.12164309171E+04  0.50400001928E-02 0. -1.
       -1   -1    0    0    0  501  0.00000000000E+00  0.00000000000E+00 -0.70178319428E+03  0.70178319429E+03  0.50400001928E-02 0.  1.
    10030    2    1    2    0    0  0.00000000000E+00  0.00000000000E+00  0.51464772276E+03  0.19182141113E+04  0.18478861162E+04 0.  0.
        4    1    3    3  502    0  0.68982902771E+03  0.41018851959E+02 -0.37930533564E+03  0.78830247002E+03  0.12699999809E+01 0.  1.
       -4    1    3    3    0  502 -0.68982902771E+03 -0.41018851959E+02  0.89395305840E+03  0.11299116413E+04  0.12699999809E+01 0. -1.
</event>
<event>
 5   0  0.5002240E-06  0.2773049E+04  0.7818609E-02  0.8311685E-01
        1   -1    0    0  501    0  0.00000000000E+00  0.00000000000E+00  0.25918213529E+04  0.25918213529E+04  0.50400001928E-02 0. -1.
       -1   -1    0    0    0  501  0.00000000000E+00  0.00000000000E+00 -0.74173726989E+03  0.74173726991E+03  0.50400001928E-02 0.  1.
    10030    2    1    2    0    0  0.00000000000E+00  0.00000000000E+00  0.18500840830E+04  0.33335586228E+04  0.27730492202E+04 0.  0.
        4    1    3    3  502    0  0.11113604794E+04 -0.38208783220E+03  0.40570558412E+02  0.11759085040E+04  0.12699999809E+01 0.  1.
       -4    1    3    3    0  502 -0.11113604794E+04  0.38208783220E+03  0.18095135246E+04  0.21576501188E+04  0.12699999809E+01 0. -1.
</event>
<event>
 5   0  0.5059249E-06  0.2893611E+04  0.7818609E-02  0.8274781E-01
       -1   -1    0    0    0  501  0.00000000000E+00  0.00000000000E+00  0.17109817002E+04  0.17109817002E+04  0.50400001928E-02 0. -1.
        1   -1    0    0  501    0  0.00000000000E+00  0.00000000000E+00 -0.12234185415E+04  0.12234185415E+04  0.50400001928E-02 0.  1.
    10030    2    1    2    0    0  0.00000000000E+00  0.00000000000E+00  0.48756315862E+03  0.29344002417E+04  0.28936114018E+04 0.  0.
        1    1    3    3  502    0 -0.81781166465E+03 -0.29460766771E+03  0.14166473232E+04  0.16620767838E+04  0.50400001928E-02 0. -1.
       -1    1    3    3    0  502  0.81781166465E+03  0.29460766771E+03 -0.92908416459E+03  0.12723234579E+04  0.50400001928E-02 0.  1.
</event>
<event>
 5   0  0.5059249E-06  0.1872496E+04  0.7818609E-02  0.8668669E-01
        1   -1    0    0  501    0  0.00000000000E+00  0.00000000000E+00  0.81122286664E+03  0.81122286666E+03  0.50400001928E-02 0. -1.
       -1   -1    0    0    0  501  0.00000000000E+00  0.00000000000E+00 -0.10805423109E+04  0.10805423109E+04  0.50400001928E-02 0.  1.
    10030    2    1    2    0    0  0.00000000000E+00  0.00000000000E+00 -0.26931944423E+03  0.18917651775E+04  0.18724963348E+04 0.  0.
        1    1    3    3  502    0 -0.22528686637E+03 -0.47399861327E+03  0.64864562735E+03  0.83436802878E+03  0.50400001928E-02 0. -1.
       -1    1    3    3    0  502  0.22528686637E+03  0.47399861327E+03 -0.91796507158E+03  0.10573971488E+04  0.50400001928E-02 0.  1.
</event>
<event>
 5   0  0.5352212E-06  0.2878212E+04  0.7818609E-02  0.8279390E-01
        1   -1    0    0  501    0  0.00000000000E+00  0.00000000000E+00  0.23066169676E+04  0.23066169676E+04  0.50400001928E-02 0. -1.
       -1   -1    0    0    0  501  0.00000000000E+00  0.00000000000E+00 -0.89786319923E+03  0.89786319924E+03  0.50400001928E-02 0.  1.
    10030    2    1    2    0    0  0.00000000000E+00  0.00000000000E+00  0.14087537684E+04  0.32044801669E+04  0.28782122854E+04 0.  0.
        2    1    3    3  502    0 -0.21286607617E+03  0.13507593769E+04  0.12037319922E+04  0.18217666068E+04  0.25500000920E-02 0.  1.
       -2    1    3    3    0  502  0.21286607617E+03 -0.13507593769E+04  0.20502177622E+03  0.13827135601E+04  0.25500000920E-02 0. -1.
</event>
<event>
 5   0  0.5261878E-06  0.2017206E+04  0.7818609E-02  0.8598618E-01
       -1   -1    0    0    0  501  0.00000000000E+00  0.00000000000E+00  0.81673099390E+03  0.81673099392E+03  0.50400001928E-02 0. -1.
        1   -1    0    0  501    0  0.00000000000E+00  0.00000000000E+00 -0.12455512494E+04  0.12455512494E+04  0.50400001928E-02 0.  1.
    10030    2    1    2    0    0  0.00000000000E+00  0.00000000000E+00 -0.42882025547E+03  0.20622822433E+04  0.20172062957E+04 0.  0.
        5    1    3    3  502    0 -0.65474241932E+03  0.26902189178E+03  0.52011365925E+03  0.87840806146E+03  0.46999998093E+01 0. -1.
       -5    1    3    3    0  502  0.65474241932E+03 -0.26902189178E+03 -0.94893391472E+03  0.11838741818E+04  0.46999998093E+01 0.  1.
</event>
<event>
 5   0  0.1385669E-05  0.2877122E+04  0.7818609E-02  0.8279717E-01
        2   -1    0    0  501    0  0.00000000000E+00  0.00000000000E+00  0.26383276452E+04  0.26383276452E+04  0.25500000920E-02 0. -1.
       -2   -1    0    0    0  501  0.00000000000E+00  0.00000000000E+00 -0.78438250622E+03  0.78438250622E+03  0.25500000920E-02 0.  1.
    10030    2    1    2    0    0  0.00000000000E+00  0.00000000000E+00  0.18539451390E+04  0.34227101514E+04  0.28771222085E+04 0.  0.
        3    1    3    3  502    0  0.11253523699E+04  0.68698921548E+03  0.16114862900E+04  0.20821287692E+04  0.10100000352E+00 0.  1.
       -3    1    3    3    0  502 -0.11253523699E+04 -0.68698921548E+03  0.24245884903E+03  0.13405813822E+04  0.10100000352E+00 0. -1.
</event>
<event>
 5   0  0.5154476E-06  0.2206218E+04  0.7818609E-02  0.8515844E-01
       -1   -1    0    0    0  501  0.00000000000E+00  0.00000000000E+00  0.81162634657E+03  0.81162634658E+03  0.50400001928E-02 0. -1.
        1   -1    0    0  501    0  0.00000000000E+00  0.00000000000E+00 -0.14992733950E+04  0.14992733950E+04  0.50400001928E-02 0.  1.
    10030    2    1    2    0    0  0.00000000000E+00  0.00000000000E+00 -0.68764704846E+03  0.23108997416E+04  0.22062182921E+04 0.  0.
        3    1    3    3  502    0 -0.10605481100E+03  0.55544993819E+03 -0.13359056158E+04  0.14506605672E+04  0.10100000352E+00 0.  1.
       -3    1    3    3    0  502  0.10605481100E+03 -0.55544993819E+03  0.64825856736E+03  0.86023917438E+03  0.10100000352E+00 0. -1.
</event>
<event>
 5   0  0.5352212E-06  0.2913491E+04  0.7818609E-02  0.8268875E-01
        1   -1    0    0  501    0  0.00000000000E+00  0.00000000000E+00  0.13649567281E+04  0.13649567281E+04  0.50400001928E-02 0. -1.
       -1   -1    0    0    0  501  0.00000000000E+00  0.00000000000E+00 -0.15547067637E+04  0.15547067637E+04  0.50400001928E-02 0.  1.
    10030    2    1    2    0    0  0.00000000000E+00  0.00000000000E+00 -0.18975003560E+03  0.29196634918E+04  0.29134910038E+04 0.  0.
        2    1    3    3  502    0  0.22091359861E+03  0.11919024855E+04 -0.90446844976E+03  0.15124475295E+04  0.25500000920E-02 0.  1.
       -2    1    3    3    0  502 -0.22091359861E+03 -0.11919024855E+04  0.71471841416E+03  0.14072159623E+04  0.25500000920E-02 0. -1.
</event>
<event>
 5   0  0.1339837E-05  0.2921725E+04  0.7818609E-02  0.8266443E-01
        2   -1    0    0  501    0  0.00000000000E+00  0.00000000000E+00  0.16265145168E+04  0.16265145168E+04  0.25500000920E-02 0. -1.
       -2   -1    0    0    0  501  0.00000000000E+00  0.00000000000E+00 -0.13120815050E+04  0.13120815050E+04  0.25500000920E-02 0.  1.
    10030    2    1    2    0    0  0.00000000000E+00  0.00000000000E+00  0.31443301181E+03  0.29385960219E+04  0.29217252542E+04 0.  0.
        5    1    3    3  502    0 -0.11022086878E+04 -0.89389158530E+03  0.50590462510E+03  0.15066080238E+04  0.46999998093E+01 0. -1.
       -5    1    3    3    0  502  0.11022086878E+04  0.89389158530E+03 -0.19147161328E+03  0.14319879980E+04  0.46999998093E+01 0.  1.
</event>
<event>
 5   0  0.1385669E-05  0.2871451E+04  0.7818609E-02  0.8281423E-01
        2   -1    0    0  501    0  0.00000000000E+00  0.00000000000E+00  0.21717330463E+04  0.21717330463E+04  0.25500000920E-02 0. -1.
       -2   -1    0    0    0  501  0.00000000000E+00  0.00000000000E+00 -0.94915341156E+03  0.94915341156E+03  0.25500000920E-02 0.  1.
    10030    2    1    2    0    0  0.00000000000E+00  0.00000000000E+00  0.12225796348E+04  0.31208864579E+04  0.28714510826E+04 0.  0.
        3    1    3    3  502    0  0.67882964130E+03  0.34117272317E+03  0.19353509229E+04  0.20791324426E+04  0.10100000352E+00 0. -1.
       -3    1    3    3    0  502 -0.67882964130E+03 -0.34117272317E+03 -0.71277128814E+03  0.10417540153E+04  0.10100000352E+00 0.  1.
</event>
<event>
 5   0  0.5059249E-06  0.2915436E+04  0.7818609E-02  0.8268300E-01
       -1   -1    0    0    0  501  0.00000000000E+00  0.00000000000E+00  0.92635872306E+03  0.92635872307E+03  0.50400001928E-02 0. -1.
        1   -1    0    0  501    0  0.00000000000E+00  0.00000000000E+00 -0.22938644169E+04  0.22938644169E+04  0.50400001928E-02 0.  1.
    10030    2    1    2    0    0  0.00000000000E+00  0.00000000000E+00 -0.13675056938E+04  0.32202231400E+04  0.29154356876E+04 0.  0.
        1    1    3    3  502    0  0.29052817212E+01  0.35726530372E+03  0.87724944306E+03  0.94721355738E+03  0.50400001928E-02 0. -1.
       -1    1    3    3    0  502 -0.29052817212E+01 -0.35726530372E+03 -0.22447551369E+04  0.22730095826E+04  0.50400001928E-02 0.  1.
</event>
<event>
 5   0  0.1307832E-05  0.2901823E+04  0.7818609E-02  0.8272335E-01
       -2   -1    0    0    0  501  0.00000000000E+00  0.00000000000E+00  0.10365191746E+04  0.10365191746E+04  0.25500000920E-02 0. -1.
        2   -1    0    0  501    0  0.00000000000E+00  0.00000000000E+00 -0.20309746961E+04  0.20309746961E+04  0.25500000920E-02 0.  1.
    10030    2    1    2    0    0  0.00000000000E+00  0.00000000000E+00 -0.99445552144E+03  0.30674938707E+04  0.29018230240E+04 0.  0.
        4    1    3    3  502    0 -0.71577380874E+03  0.82260944110E+03 -0.15090167544E+04  0.18617603540E+04  0.12699999809E+01 0.  1.
       -4    1    3    3    0  502  0.71577380874E+03 -0.82260944110E+03  0.51456123298E+03  0.12057335167E+04  0.12699999809E+01 0. -1.
</event>
<event>
 5   0  0.1336899E-05  0.2526394E+04  0.7818609E-02  0.8393643E-01
        2   -1    0    0  501    0  0.00000000000E+00  0.00000000000E+00  0.17202753132E+04  0.17202753132E+04  0.25500000920E-02 0. -1.
       -2   -1    0    0    0  501  0.00000000000E+00  0.00000000000E+00 -0.92756455809E+03  0.92756455809E+03  0.25500000920E-02 0.  1.
    10030    2    1    2    0    0  0.00000000000E+00  0.00000000000E+00  0.79271075508E+03  0.26478398713E+04  0.25263938020E+04 0.  0.
        1    1    3    3  502    0  0.63131904268E+03  0.46298885304E+03  0.14353441884E+04  0.16349725841E+04  0.50400001928E-02 0. -1.
       -1    1    3    3    0  502 -0.63131904268E+03 -0.46298885304E+03 -0.64263343331E+03  0.10128672871E+04  0.50400001928E-02 0.  1.
</event>
<event>
 5   0  0.1385669E-05  0.2890078E+04  0.7818609E-02  0.8275836E-01
       -2   -1    0    0    0  501  0.00000000000E+00  0.00000000000E+00  0.12998539031E+04  0.12998539031E+04  0.25500000920E-02 0. -1.
        2   -1    0    0  501    0  0.00000000000E+00  0.00000000000E+00 -0.16064407684E+04  0.16064407684E+04  0.25500000920E-02 0.  1.
    10030    2    1    2    0    0  0.00000000000E+00  0.00000000000E+00 -0.30658686531E+03  0.29062946714E+04  0.28900784092E+04 0.  0.
        3    1    3    3  502    0 -0.76935646982E+03 -0.77228191247E+03 -0.11071988655E+04  0.15537754239E+04  0.10100000352E+00 0.  1.
       -3    1    3    3    0  502  0.76935646982E+03  0.77228191247E+03  0.80061200017E+03  0.13525192475E+04  0.10100000352E+00 0. -1.
</event>
<event>
 5   0  0.5261878E-06  0.2902942E+04  0.7818609E-02  0.8272003E-01
       -1   -1    0    0    0  501  0.00000000000E+00  0.00000000000E+00  0.17517168959E+04  0.17517168959E+04  0.50400001928E-02 0. -1.
        1   -1    0    0  501    0  0.00000000000E+00  0.00000000000E+00 -0.12026874259E+04  0.12026874259E+04  0.50400001928E-02 0.  1.
    10030    2    1    2    0    0  0.00000000000E+00  0.00000000000E+00  0.54902947002E+03  0.29544043218E+04  0.29029418764E+04 0.  0.
        5    1    3    3  502    0 -0.64880260579E+03 -0.12088460579E+04 -0.20769080935E+03  0.13875918620E+04  0.46999998093E+01 0.  1.
       -5    1    3    3    0  502  0.64880260579E+03  0.12088460579E+04  0.75672027937E+03  0.15668124598E+04  0.46999998093E+01 0. -1.
</event>
<event>
 5   0  0.5352212E-06  0.2902231E+04  0.7818609E-02  0.8272214E-01
       -1   -1    0    0    0  501  0.00000000000E+00  0.00000000000E+00  0.13870472036E+04  0.13870472036E+04  0.50400001928E-02 0.  1.
        1   -1    0    0  501    0  0.00000000000E+00  0.00000000000E+00 -0.15181430950E+04  0.15181430950E+04  0.50400001928E-02 0. -1.
    10030    2    1    2    0    0  0.00000000000E+00  0.00000000000E+00 -0.13109589140E+03  0.29051902987E+04  0.29022309589E+04 0.  0.
        2    1    3    3  502    0  0.81851738661E+03 -0.30285412988E+03  0.10949636573E+04  0.14002273911E+04  0.25500000920E-02 0.  1.
       -2    1    3    3    0  502 -0.81851738661E+03  0.30285412988E+03 -0.12260595487E+04  0.15049629075E+04  0.25500000920E-02 0. -1.
</event>
<event>
 5   0  0.5059249E-06  0.3073803E+04  0.7818609E-02  0.8222964E-01
       -1   -1    0    0    0  501  0.00000000000E+00  0.00000000000E+00  0.10074613624E+04  0.10074613624E+04  0.50400001928E-02 0. -1.
        1   -1    0    0  501    0  0.00000000000E+00  0.00000000000E+00 -0.23445732354E+04  0.23445732354E+04  0.50400001928E-02 0.  1.
    10030    2    1    2    0    0  0.00000000000E+00  0.00000000000E+00 -0.13371118730E+04  0.33520345978E+04  0.30738034719E+04 0.  0.
        1    1    3    3  502    0  0.13009672327E+04  0.65572754847E+03 -0.12023219993E+04  0.18889342361E+04  0.50400001928E-02 0.  1.
       -1    1    3    3    0  502 -0.13009672327E+04 -0.65572754847E+03 -0.13478987370E+03  0.14631003617E+04  0.50400001928E-02 0. -1.
</event>
<event>
 5   0  0.1382803E-05  0.2794967E+04  0.7818609E-02  0.8304833E-01
        2   -1    0    0  501    0  0.00000000000E+00  0.00000000000E+00  0.14666348403E+04  0.14666348403E+04  0.25500000920E-02 0.  1.
       -2   -1    0    0    0  501  0.00000000000E+00  0.00000000000E+00 -0.13315927913E+04  0.13315927913E+04  0.25500000920E-02 0. -1.
    10030    2    1    2    0    0  0.00000000000E+00  0.00000000000E+00  0.13504204901E+03  0.27982276316E+04  0.27949671775E+04 0.  0.
        2    1    3    3  502    0  0.10897911247E+04 -0.67836118068E+03 -0.48551978056E+03  0.13724241488E+04  0.25500000920E-02 0. -1.
       -2    1    3    3    0  502 -0.10897911247E+04  0.67836118068E+03  0.62056182957E+03  0.14258034827E+04  0.25500000920E-02 0.  1.
</event>
<event>
 5   0  0.1307832E-05  0.2693606E+04  0.7818609E-02  0.8337083E-01
       -2   -1    0    0    0  501  0.00000000000E+00  0.00000000000E+00  0.70850512202E+03  0.70850512203E+03  0.25500000920E-02 0. -1.
        2   -1    0    0  501    0  0.00000000000E+00  0.00000000000E+00 -0.25601481827E+04  0.25601481827E+04  0.25500000920E-02 0.  1.
    10030    2    1    2    0    0  0.00000000000E+00  0.00000000000E+00 -0.18516430606E+04  0.32686533047E+04  0.26936058365E+04 0.  0.
        4    1    3    3  502    0  0.50462178640E+03 -0.36444039934E+03  0.52347748387E+03  0.81332050325E+03  0.12699999809E+01 0. -1.
       -4    1    3    3    0  502 -0.50462178640E+03  0.36444039934E+03 -0.23751205445E+04  0.24553328014E+04  0.12699999809E+01 0.  1.
</event>
<event>
 5   0  0.5352212E-06  0.2921553E+04  0.7818609E-02  0.8266494E-01
       -1   -1    0    0    0  501  0.00000000000E+00  0.00000000000E+00  0.92376423651E+03  0.92376423652E+03  0.50400001928E-02 0.  1.
        1   -1    0    0  501    0  0.00000000000E+00  0.00000000000E+00 -0.23099705375E+04  0.23099705375E+04  0.50400001928E-02 0. -1.
    10030    2    1    2    0    0  0.00000000000E+00  0.00000000000E+00 -0.13862063010E+04  0.32337347740E+04  0.29215531280E+04 0.  0.
        2    1    3    3  502    0 -0.10905222369E+04 -0.60562979861E+03 -0.15344888939E+04  0.19775445299E+04  0.25500000920E-02 0. -1.
       -2    1    3    3    0  502  0.10905222369E+04  0.60562979861E+03  0.14828259292E+03  0.12561902441E+04  0.25500000920E-02 0.  1.
</event>
<event>
 5   0  0.5261878E-06  0.2886636E+04  0.7818609E-02  0.8276865E-01
        1   -1    0    0  501    0  0.00000000000E+00  0.00000000000E+00  0.18589806481E+04  0.18589806481E+04  0.50400001928E-02 0.  1.
       -1   -1    0    0    0  501  0.00000000000E+00  0.00000000000E+00 -0.11205961211E+04  0.11205961211E+04  0.50400001928E-02 0. -1.
    10030    2    1    2    0    0  0.00000000000E+00  0.00000000000E+00  0.73838452699E+03  0.29795767692E+04  0.28866357605E+04 0.  0.
        5    1    3    3  502    0  0.33950387995E+02 -0.73254629270E+03  0.16523454576E+04  0.18077732991E+04  0.46999998093E+01 0.  1.
       -5    1    3    3    0  502 -0.33950387995E+02  0.73254629270E+03 -0.91396093062E+03  0.11718034701E+04  0.46999998093E+01 0. -1.
</event>
<event>
 5   0  0.5352212E-06  0.2912197E+04  0.7818609E-02  0.8269258E-01
        1   -1    0    0  501    0  0.00000000000E+00  0.00000000000E+00  0.14080946388E+04  0.14080946388E+04  0.50400001928E-02 0. -1.
       -1   -1    0    0    0  501  0.00000000000E+00  0.00000000000E+00 -0.15057387069E+04  0.15057387069E+04  0.50400001928E-02 0.  1.
    10030    2    1    2    0    0  0.00000000000E+00  0.00000000000E+00 -0.97644068059E+02  0.29138333457E+04  0.29121968345E+04 0.  0.
        2    1    3    3  502    0 -0.72052186734E+03  0.84864228319E+03  0.89025592431E+03  0.14254476830E+04  0.25500000920E-02 0. -1.
       -2    1    3    3    0  502  0.72052186734E+03 -0.84864228319E+03 -0.98789999237E+03  0.14883856627E+04  0.25500000920E-02 0.  1.
</event>
<event>
 5   0  0.4590125E-06  0.2917896E+04  0.7818609E-02  0.8267573E-01
        3   -1    0    0  501    0  0.00000000000E+00  0.00000000000E+00  0.12661422430E+04  0.12661422470E+04  0.10100000352E+00 0. -1.
       -3   -1    0    0    0  501  0.00000000000E+00  0.00000000000E+00 -0.16811140652E+04  0.16811140682E+04  0.10100000352E+00 0.  1.
    10030    2    1    2    0    0  0.00000000000E+00  0.00000000000E+00 -0.41497182221E+03  0.29472563152E+04  0.29178961898E+04 0.  0.
        4    1    3    3  502    0 -0.69261541597E+03 -0.54803305093E+03  0.96543565285E+03  0.13084815444E+04  0.12699999809E+01 0. -1.
       -4    1    3    3    0  502  0.69261541597E+03  0.54803305093E+03 -0.13804074751E+04  0.16387747708E+04  0.12699999809E+01 0.  1.
</event>
<event>
 5   0  0.1382803E-05  0.2926959E+04  0.7818609E-02  0.8264901E-01
        2   -1    0    0  501    0  0.00000000000E+00  0.00000000000E+00  0.22225279890E+04  0.22225279890E+04  0.25500000920E-02 0. -1.
       -2   -1    0    0    0  501  0.00000000000E+00  0.00000000000E+00 -0.96366482918E+03  0.96366482918E+03  0.25500000920E-02 0.  1.
    10030    2    1    2    0    0  0.00000000000E+00  0.00000000000E+00  0.12588631598E+04  0.31861928182E+04  0.29269588688E+04 0.  0.
        2    1    3    3  502    0  0.10920807340E+04 -0.95133554725E+03  0.40085206155E+03  0.15027847578E+04  0.25500000920E-02 0.  1.
       -2    1    3    3    0  502 -0.10920807340E+04  0.95133554725E+03  0.85801109824E+03  0.16834080604E+04  0.25500000920E-02 0. -1.
</event>
<event>
 5   0  0.1385669E-05  0.2907950E+04  0.7818609E-02  0.8270516E-01
        2   -1    0    0  501    0  0.00000000000E+00  0.00000000000E+00  0.19616558879E+04  0.19616558879E+04  0.25500000920E-02 0.  1.
       -2   -1    0    0    0  501  0.00000000000E+00  0.00000000000E+00 -0.10776830600E+04  0.10776830600E+04  0.25500000920E-02 0. -1.
    10030    2    1    2    0    0  0.00000000000E+00  0.00000000000E+00  0.88397282791E+03  0.30393389479E+04  0.29079500133E+04 0.  0.
        3    1    3    3  502    0 -0.25020407227E+03 -0.75794286849E+03  0.17122011008E+04  0.18891035147E+04  0.10100000352E+00 0.  1.
       -3    1    3    3    0  502  0.25020407227E+03  0.75794286849E+03 -0.82822827286E+03  0.11502354332E+04  0.10100000352E+00 0. -1.
</event>
<event>
 5   0  0.1382803E-05  0.2874559E+04  0.7818609E-02  0.8280487E-01
       -2   -1    0    0    0  501  0.00000000000E+00  0.00000000000E+00  0.15918924433E+04  0.15918924433E+04  0.25500000920E-02 0.  1.
        2   -1    0    0  501    0  0.00000000000E+00  0.00000000000E+00 -0.12976832029E+04  0.12976832029E+04  0.25500000920E-02 0. -1.
    10030    2    1    2    0    0  0.00000000000E+00  0.00000000000E+00  0.29420924037E+03  0.28895756462E+04  0.28745588075E+04 0.  0.
        2    1    3    3  502    0 -0.17570156051E+03 -0.15854335389E+03  0.15721723817E+04  0.15898845968E+04  0.25500000920E-02 0.  1.
       -2    1    3    3    0  502  0.17570156051E+03  0.15854335389E+03 -0.12779631413E+04  0.12996910494E+04  0.25500000920E-02 0. -1.
</event>
<event>
 5   0  0.5154476E-06  0.2763056E+04  0.7818609E-02  0.8314831E-01
        1   -1    0    0  501    0  0.00000000000E+00  0.00000000000E+00  0.16080737001E+04  0.16080737001E+04  0.50400001928E-02 0. -1.
       -1   -1    0    0    0  501  0.00000000000E+00  0.00000000000E+00 -0.11868983392E+04  0.11868983392E+04  0.50400001928E-02 0.  1.
    10030    2    1    2    0    0  0.00000000000E+00  0.00000000000E+00  0.42117536083E+03  0.27949720393E+04  0.27630562817E+04 0.  0.
        3    1    3    3  502    0 -0.84569936025E+03  0.65267861177E+03  0.10967335200E+04  0.15310196609E+04  0.10100000352E+00 0. -1.
       -3    1    3    3    0  502  0.84569936025E+03 -0.65267861177E+03 -0.67555815913E+03  0.12639523784E+04  0.10100000352E+00 0.  1.
</event>
<event>
 5   0  0.5261878E-06  0.2806411E+04  0.7818609E-02  0.8301281E-01
        1   -1    0    0  501    0  0.00000000000E+00  0.00000000000E+00  0.16766089371E+04  0.16766089371E+04  0.50400001928E-02 0. -1.
       -1   -1    0    0    0  501  0.00000000000E+00  0.00000000000E+00 -0.11743858659E+04  0.11743858660E+04  0.50400001928E-02 0.  1.
    10030    2    1    2    0    0  0.00000000000E+00  0.00000000000E+00  0.50222307115E+03  0.28509948031E+04  0.28064111163E+04 0.  0.
        5    1    3    3  502    0 -0.80630893423E+02  0.48694748538E+03  0.15855023765E+04  0.16605598666E+04  0.46999998093E+01 0. -1.
       -5    1    3    3    0  502  0.80630893423E+02 -0.48694748538E+03 -0.10832793054E+04  0.11904349365E+04  0.46999998093E+01 0.  1.
</event>
<event>
 5   0  0.1339837E-05  0.2818984E+04  0.7818609E-02  0.8297399E-01
       -2   -1    0    0    0  501  0.00000000000E+00  0.00000000000E+00  0.98855627030E+03  0.98855627031E+03  0.25500000920E-02 0.  1.
        2   -1    0    0  501    0  0.00000000000E+00  0.00000000000E+00 -0.20096655671E+04  0.20096655671E+04  0.25500000920E-02 0. -1.
    10030    2    1    2    0    0  0.00000000000E+00  0.00000000000E+00 -0.10211092968E+04  0.29982218374E+04  0.28189838578E+04 0.  0.
        5    1    3    3  502    0  0.78938216946E+03  0.67816590813E+02  0.72929338099E+03  0.10768538550E+04  0.46999998093E+01 0.  1.
       -5    1    3    3    0  502 -0.78938216946E+03 -0.67816590813E+02 -0.17504026778E+04  0.19213679824E+04  0.46999998093E+01 0. -1.
</event>
<event>
 5   0  0.5261878E-06  0.2912541E+04  0.7818609E-02  0.8269156E-01
        1   -1    0    0  501    0  0.00000000000E+00  0.00000000000E+00  0.29173727339E+04  0.29173727339E+04  0.50400001928E-02 0.  1.
       -1   -1    0    0    0  501  0.00000000000E+00  0.00000000000E+00 -0.72692947374E+03  0.72692947376E+03  0.50400001928E-02 0. -1.
    10030    2    1    2    0    0  0.00000000000E+00  0.00000000000E+00  0.21904432602E+04  0.36443022076E+04  0.29125413138E+04 0.  0.
        5    1    3    3  502    0 -0.54719346953E+03  0.10768478895E+04  0.21130306966E+04  0.24339151352E+04  0.46999998093E+01 0.  1.
       -5    1    3    3    0  502  0.54719346953E+03 -0.10768478895E+04  0.77412563524E+02  0.12103870725E+04  0.46999998093E+01 0. -1.
</event>
<event>
 5   0  0.5352212E-06  0.2920523E+04  0.7818609E-02  0.8266797E-01
       -1   -1    0    0    0  501  0.00000000000E+00  0.00000000000E+00  0.15691637688E+04  0.15691637688E+04  0.50400001928E-02 0. -1.
        1   -1    0    0  501    0  0.00000000000E+00  0.00000000000E+00 -0.13589175562E+04  0.13589175562E+04  0.50400001928E-02 0.  1.
    10030    2    1    2    0    0  0.00000000000E+00  0.00000000000E+00  0.21024621259E+03  0.29280813250E+04  0.29205233736E+04 0.  0.
        2    1    3    3  502    0  0.96884862272E+03  0.96276976811E+03  0.62295844718E+03  0.15012230038E+04  0.25500000920E-02 0. -1.
       -2    1    3    3    0  502 -0.96884862272E+03 -0.96276976811E+03 -0.41271223459E+03  0.14268583212E+04  0.25500000920E-02 0.  1.
</event>
<event>
 5   0  0.1339837E-05  0.2917720E+04  0.7818609E-02  0.8267625E-01
        2   -1    0    0  501    0  0.00000000000E+00  0.00000000000E+00  0.16584123963E+04  0.16584123963E+04  0.25500000920E-02 0.  1.
       -2   -1    0    0    0  501  0.00000000000E+00  0.00000000000E+00 -0.12833192138E+04  0.12833192138E+04  0.25500000920E-02 0. -1.
    10030    2    1    2    0    0  0.00000000000E+00  0.00000000000E+00  0.37509318246E+03  0.29417316101E+04  0.29177199952E+04 0.  0.
        5    1    3    3  502    0  0.56474448507E+03  0.12222340056E+04  0.75382536162E+03  0.15430706607E+04  0.46999998093E+01 0.  1.
       -5    1    3    3    0  502 -0.56474448507E+03 -0.12222340056E+04 -0.37873217915E+03  0.13986609494E+04  0.46999998093E+01 0. -1.
</event>
<event>
 5   0  0.5059249E-06  0.2905164E+04  0.7818609E-02  0.8271343E-01
       -1   -1    0    0    0  501  0.00000000000E+00  0.00000000000E+00  0.10851245882E+04  0.10851245882E+04  0.50400001928E-02 0.  1.
        1   -1    0    0  501    0  0.00000000000E+00  0.00000000000E+00 -0.19444725628E+04  0.19444725628E+04  0.50400001928E-02 0. -1.
    10030    2    1    2    0    0  0.00000000000E+00  0.00000000000E+00 -0.85934797455E+03  0.30295971510E+04  0.29051643595E+04 0.  0.
        1    1    3    3  502    0  0.13158099061E+04 -0.14789982047E+03  0.19320725171E+03  0.13381177482E+04  0.50400001928E-02 0.  1.
       -1    1    3    3    0  502 -0.13158099061E+04  0.14789982047E+03 -0.10525552263E+04  0.16914794028E+04  0.50400001928E-02 0. -1.
</event>
<event>
 5   0  0.1385669E-05  0.2891027E+04  0.7818609E-02  0.8275552E-01
        2   -1    0    0  501    0  0.00000000000E+00  0.00000000000E+00  0.15907875426E+04  0.15907875426E+04  0.25500000920E-02 0.  1.
       -2   -1    0    0    0  501  0.00000000000E+00  0.00000000000E+00 -0.13135061212E+04  0.13135061212E+04  0.25500000920E-02 0. -1.
    10030    2    1    2    0    0  0.00000000000E+00  0.00000000000E+00  0.27728142141E+03  0.29042936639E+04  0.28910269282E+04 0.  0.
        3    1    3    3  502    0 -0.36893224264E+03  0.13932459578E+04  0.24989124097E+03  0.14627682459E+04  0.10100000352E+00 0. -1.
       -3    1    3    3    0  502  0.36893224264E+03 -0.13932459578E+04  0.27390180437E+02  0.14415254180E+04  0.10100000352E+00 0.  1.
</event>
<event>
 5   0  0.1307832E-05  0.2848412E+04  0.7818609E-02  0.8288394E-01
        2   -1    0    0  501    0  0.00000000000E+00  0.00000000000E+00  0.16326050844E+04  0.16326050844E+04  0.25500000920E-02 0.  1.
       -2   -1    0    0    0  501  0.00000000000E+00  0.00000000000E+00 -0.12424089870E+04  0.12424089870E+04  0.25500000920E-02 0. -1.
    10030    2    1    2    0    0  0.00000000000E+00  0.00000000000E+00  0.39019609734E+03  0.28750140714E+04  0.28484123502E+04 0.  0.
        4    1    3    3  502    0 -0.11697449279E+04  0.53331177334E+03 -0.42351813891E+03  0.13535486215E+04  0.12699999809E+01 0. -1.
       -4    1    3    3    0  502  0.11697449279E+04 -0.53331177334E+03  0.81371423625E+03  0.15214654499E+04  0.12699999809E+01 0.  1.
</event>
<event>
 5   0  0.1385669E-05  0.2774720E+04  0.7818609E-02  0.8311160E-01
       -2   -1    0    0    0  501  0.00000000000E+00  0.00000000000E+00  0.11604446179E+04  0.11604446179E+04  0.25500000920E-02 0. -1.
        2   -1    0    0  501    0  0.00000000000E+00  0.00000000000E+00 -0.16586463998E+04  0.16586463998E+04  0.25500000920E-02 0.  1.
    10030    2    1    2    0    0  0.00000000000E+00  0.00000000000E+00 -0.49820178183E+03  0.28190910177E+04  0.27747196527E+04 0.  0.
        3    1    3    3  502    0 -0.51831659396E+03 -0.12542677974E+04  0.43475459084E+02  0.13578401691E+04  0.10100000352E+00 0. -1.
       -3    1    3    3    0  502  0.51831659396E+03  0.12542677974E+04 -0.54167724092E+03  0.14612508486E+04  0.10100000352E+00 0.  1.
</event>
<event>
 5   0  0.5352212E-06  0.2928593E+04  0.7818609E-02  0.8264421E-01
       -1   -1    0    0    0  501  0.00000000000E+00  0.00000000000E+00  0.11467112109E+04  0.11467112109E+04  0.50400001928E-02 0. -1.
        1   -1    0    0  501    0  0.00000000000E+00  0.00000000000E+00 -0.18698379445E+04  0.18698379445E+04  0.50400001928E-02 0.  1.
    10030    2    1    2    0    0  0.00000000000E+00  0.00000000000E+00 -0.72312673357E+03  0.30165491554E+04  0.29285929274E+04 0.  0.
        2    1    3    3  502    0 -0.64508611564E+01  0.81624847473E+03  0.89062073050E+03  0.12081011844E+04  0.25500000920E-02 0. -1.
       -2    1    3    3    0  502  0.64508611564E+01 -0.81624847473E+03 -0.16137474641E+04  0.18084479710E+04  0.25500000920E-02 0.  1.
</event>
<event>
 5   0  0.1307832E-05  0.2858768E+04  0.7818609E-02  0.8285252E-01
       -2   -1    0    0    0  501  0.00000000000E+00  0.00000000000E+00  0.11850649152E+04  0.11850649152E+04  0.25500000920E-02 0. -1.
        2   -1    0    0  501    0  0.00000000000E+00  0.00000000000E+00 -0.17240736619E+04  0.17240736619E+04  0.25500000920E-02 0.  1.
    10030    2    1    2    0    0  0.00000000000E+00  0.00000000000E+00 -0.53900874671E+03  0.29091385770E+04  0.28587684116E+04 0.  0.
        4    1    3    3  502    0 -0.11496067592E+04  0.72529797024E+03 -0.71943118556E+03  0.15379322775E+04  0.12699999809E+01 0.  1.
       -4    1    3    3    0  502  0.11496067592E+04 -0.72529797024E+03  0.18042243885E+03  0.13712062995E+04  0.12699999809E+01 0. -1.
</event>
<event>
 5   0  0.5261878E-06  0.2920630E+04  0.7818609E-02  0.8266766E-01
        1   -1    0    0  501    0  0.00000000000E+00  0.00000000000E+00  0.25004609455E+04  0.25004609455E+04  0.50400001928E-02 0.  1.
       -1   -1    0    0    0  501  0.00000000000E+00  0.00000000000E+00 -0.85285050741E+03  0.85285050742E+03  0.50400001928E-02 0. -1.
    10030    2    1    2    0    0  0.00000000000E+00  0.00000000000E+00  0.16476104381E+04  0.33533114530E+04  0.29206296487E+04 0.  0.
        5    1    3    3  502    0 -0.73136920286E+02 -0.92915611189E+03  0.21145474943E+04  0.23108468762E+04  0.46999998093E+01 0. -1.
       -5    1    3    3    0  502  0.73136920286E+02  0.92915611189E+03 -0.46693705621E+03  0.10424645768E+04  0.46999998093E+01 0.  1.
</event>
<event>
 5   0  0.4590125E-06  0.2796537E+04  0.7818609E-02  0.8304344E-01
        4   -1    0    0  501    0  0.00000000000E+00  0.00000000000E+00  0.14263695543E+04  0.14263701197E+04  0.12699999809E+01 0.  1.
       -4   -1    0    0    0  501  0.00000000000E+00  0.00000000000E+00 -0.13707195350E+04  0.13707201233E+04  0.12699999809E+01 0. -1.
    10030    2    1    2    0    0  0.00000000000E+00  0.00000000000E+00  0.55650019320E+02  0.27970902430E+04  0.27965365906E+04 0.  0.
        2    1    3    3  502    0 -0.82807471386E+02 -0.10561861004E+03 -0.13642629746E+04  0.13708485810E+04  0.25500000920E-02 0. -1.
       -2    1    3    3    0  502  0.82807471386E+02  0.10561861004E+03  0.14199129939E+04  0.14262416620E+04  0.25500000920E-02 0.  1.
</event>
<event>
 5   0  0.5261878E-06  0.2697437E+04  0.7818609E-02  0.8335837E-01
       -1   -1    0    0    0  501  0.00000000000E+00  0.00000000000E+00  0.85136973670E+03  0.85136973672E+03  0.50400001928E-02 0. -1.
        1   -1    0    0  501    0  0.00000000000E+00  0.00000000000E+00 -0.21366064547E+04  0.21366064547E+04  0.50400001928E-02 0.  1.
    10030    2    1    2    0    0  0.00000000000E+00  0.00000000000E+00 -0.12852367180E+04  0.29879761914E+04  0.26974373578E+04 0.  0.
        5    1    3    3  502    0 -0.10794967727E+04  0.11822756030E+03  0.24336132994E+03  0.11128961610E+04  0.46999998093E+01 0. -1.
       -5    1    3    3    0  502  0.10794967727E+04 -0.11822756030E+03 -0.15285980479E+04  0.18750800304E+04  0.46999998093E+01 0.  1.
</event>
<event>
 5   0  0.5352212E-06  0.2970676E+04  0.7818609E-02  0.8252154E-01
       -1   -1    0    0    0  501  0.00000000000E+00  0.00000000000E+00  0.85263583431E+03  0.85263583433E+03  0.50400001928E-02 0.  1.
        1   -1    0    0  501    0  0.00000000000E+00  0.00000000000E+00 -0.25875392515E+04  0.25875392515E+04  0.50400001928E-02 0. -1.
    10030    2    1    2    0    0  0.00000000000E+00  0.00000000000E+00 -0.17349034171E+04  0.34401750858E+04  0.29706758076E+04 0.  0.
        2    1    3    3  502    0  0.80389872746E+03 -0.12363598643E+04 -0.10726244372E+04  0.18235575289E+04  0.25500000920E-02 0.  1.
       -2    1    3    3    0  502 -0.80389872746E+03  0.12363598643E+04 -0.66227897997E+03  0.16166175569E+04  0.25500000920E-02 0. -1.
</event>
<event>
 5   0  0.5154476E-06  0.2487788E+04  0.7818609E-02  0.8407349E-01
        1   -1    0    0  501    0  0.00000000000E+00  0.00000000000E+00  0.19622881372E+04  0.19622881372E+04  0.50400001928E-02 0.  1.
       -1   -1    0    0    0  501  0.00000000000E+00  0.00000000000E+00 -0.78850405532E+03  0.78850405534E+03  0.50400001928E-02 0. -1.
    10030    2    1    2    0    0  0.00000000000E+00  0.00000000000E+00  0.11737840818E+04  0.27507921925E+04  0.24877878960E+04 0.  0.
        3    1    3    3  502    0 -0.72760408820E+03  0.18399602626E+03  0.16837342777E+04  0.18434270734E+04  0.10100000352E+00 0.  1.
       -3    1    3    3    0  502  0.72760408820E+03 -0.18399602626E+03 -0.50995019589E+03  0.90736511908E+03  0.10100000352E+00 0. -1.
</event>
<event>
 5   0  0.5261878E-06  0.2887384E+04  0.7818609E-02  0.8276641E-01
        1   -1    0    0  501    0  0.00000000000E+00  0.00000000000E+00  0.14654022934E+04  0.14654022934E+04  0.50400001928E-02 0. -1.
       -1   -1    0    0    0  501  0.00000000000E+00  0.00000000000E+00 -0.14223035611E+04  0.14223035612E+04  0.50400001928E-02 0.  1.
    10030    2    1    2    0    0  0.00000000000E+00  0.00000000000E+00  0.43098732294E+02  0.28877058546E+04  0.28873842145E+04 0.  0.
        5    1    3    3  502    0  0.68825834213E+03 -0.11773926750E+04  0.49517550796E+03  0.14509217519E+04  0.46999998093E+01 0.  1.
       -5    1    3    3    0  502 -0.68825834213E+03  0.11773926750E+04 -0.45207677567E+03  0.14367841027E+04  0.46999998093E+01 0. -1.
</event>
<event>
 5   0  0.1339837E-05  0.2880229E+04  0.7818609E-02  0.8278784E-01
        2   -1    0    0  501    0  0.00000000000E+00  0.00000000000E+00  0.28237088794E+04  0.28237088794E+04  0.25500000920E-02 0.  1.
       -2   -1    0    0    0  501  0.00000000000E+00  0.00000000000E+00 -0.73447011468E+03  0.73447011469E+03  0.25500000920E-02 0. -1.
    10030    2    1    2    0    0  0.00000000000E+00  0.00000000000E+00  0.20892387647E+04  0.35581789941E+04  0.28802290079E+04 0.  0.
        5    1    3    3  502    0 -0.38218517171E+03  0.11771822669E+04  0.13505361703E+03  0.12450241622E+04  0.46999998093E+01 0. -1.
       -5    1    3    3    0  502  0.38218517171E+03 -0.11771822669E+04  0.19541851477E+04  0.23131548319E+04  0.46999998093E+01 0.  1.
</event>
<event>
 5   0  0.5059249E-06  0.2839636E+04  0.7818609E-02  0.8291067E-01
       -1   -1    0    0    0  501  0.00000000000E+00  0.00000000000E+00  0.19307524567E+04  0.19307524567E+04  0.50400001928E-02 0. -1.
        1   -1    0    0  501    0  0.00000000000E+00  0.00000000000E+00 -0.10440922686E+04  0.10440922686E+04  0.50400001928E-02 0.  1.
    10030    2    1    2    0    0  0.00000000000E+00  0.00000000000E+00  0.88666018808E+03  0.29748447253E+04  0.28396363941E+04 0.  0.
        1    1    3    3  502    0 -0.85124125866E+03  0.11007523075E+04  0.14773119748E+03  0.13993183447E+04  0.50400001928E-02 0.  1.
       -1    1    3    3    0  502  0.85124125866E+03 -0.11007523075E+04  0.73892899060E+03  0.15755263807E+04  0.50400001928E-02 0. -1.
</event>
<event>
 5   0  0.5261878E-06  0.2910607E+04  0.7818609E-02  0.8269729E-01
        1   -1    0    0  501    0  0.00000000000E+00  0.00000000000E+00  0.14274884570E+04  0.14274884570E+04  0.50400001928E-02 0. -1.
       -1   -1    0    0    0  501  0.00000000000E+00  0.00000000000E+00 -0.14836604116E+04  0.14836604116E+04  0.50400001928E-02 0.  1.
    10030    2    1    2    0    0  0.00000000000E+00  0.00000000000E+00 -0.56171954630E+02  0.29111488686E+04  0.29106068863E+04 0.  0.
        5    1    3    3  502    0 -0.66560569870E+02  0.48363602151E+03 -0.13993087734E+04  0.14820328080E+04  0.46999998093E+01 0.  1.
       -5    1    3    3    0  502  0.66560569870E+02 -0.48363602151E+03  0.13431368187E+04  0.14291160606E+04  0.46999998093E+01 0. -1.
</event>
<event>
 5   0  0.5002240E-06  0.3000135E+04  0.7818609E-02  0.8243692E-01
        1   -1    0    0  501    0  0.00000000000E+00  0.00000000000E+00  0.14417577958E+04  0.14417577958E+04  0.50400001928E-02 0. -1.
       -1   -1    0    0    0  501  0.00000000000E+00  0.00000000000E+00 -0.15607355950E+04  0.15607355950E+04  0.50400001928E-02 0.  1.
    10030    2    1    2    0    0  0.00000000000E+00  0.00000000000E+00 -0.11897779925E+03  0.30024933908E+04  0.30001351378E+04 0.  0.
        4    1    3    3  502    0 -0.14198915712E+04 -0.20638841284E+03 -0.49745470040E+03  0.15186016735E+04  0.12699999809E+01 0.  1.
       -4    1    3    3    0  502  0.14198915712E+04  0.20638841284E+03  0.37847690115E+03  0.14838917173E+04  0.12699999809E+01 0. -1.
</event>
<event>
 5   0  0.5352212E-06  0.2866816E+04  0.7818609E-02  0.8282820E-01
       -1   -1    0    0    0  501  0.00000000000E+00  0.00000000000E+00  0.10002913858E+04  0.10002913858E+04  0.50400001928E-02 0.  1.
        1   -1    0    0  501    0  0.00000000000E+00  0.00000000000E+00 -0.20540596079E+04  0.20540596079E+04  0.50400001928E-02 0. -1.
    10030    2    1    2    0    0  0.00000000000E+00  0.00000000000E+00 -0.10537682220E+04  0.30543509937E+04  0.28668157470E+04 0.  0.
        2    1    3    3  502    0  0.31060981084E+03 -0.11758183985E+04 -0.13352186991E+04  0.18060554630E+04  0.25500000920E-02 0. -1.
       -2    1    3    3    0  502 -0.31060981084E+03  0.11758183985E+04  0.28145047710E+03  0.12482955307E+04  0.25500000920E-02 0.  1.
</event>
<event>
 5   0  0.1382803E-05  0.2920055E+04  0.7818609E-02  0.8266935E-01
        2   -1    0    0  501    0  0.00000000000E+00  0.00000000000E+00  0.18856651450E+04  0.18856651450E+04  0.25500000920E-02 0.  1.
       -2   -1    0    0    0  501  0.00000000000E+00  0.00000000000E+00 -0.11304660225E+04  0.11304660225E+04  0.25500000920E-02 0. -1.
    10030    2    1    2    0    0  0.00000000000E+00  0.00000000000E+00  0.75519912251E+03  0.30161311676E+04  0.29200550518E+04 0.  0.
        2    1    3    3  502    0  0.10417194495E+04  0.77219251343E+03  0.10706605058E+04  0.16815988249E+04  0.25500000920E-02 0.  1.
       -2    1    3    3    0  502 -0.10417194495E+04 -0.77219251343E+03 -0.31546138332E+03  0.13345323427E+04  0.25500000920E-02 0. -1.
</event>
<event>
 5   0  0.1385669E-05  0.2926363E+04  0.7818609E-02  0.8265077E-01
        2   -1    0    0  501    0  0.00000000000E+00  0.00000000000E+00  0.16942916674E+04  0.16942916674E+04  0.25500000920E-02 0.  1.
       -2   -1    0    0    0  501  0.00000000000E+00  0.00000000000E+00 -0.12635959375E+04  0.12635959375E+04  0.25500000920E-02 0. -1.
    10030    2    1    2    0    0  0.00000000000E+00  0.00000000000E+00  0.43069572996E+03  0.29578876049E+04  0.29263629767E+04 0.  0.
        3    1    3    3  502    0 -0.34528551659E+03  0.14032031509E+04  0.44738323718E+03  0.15127302938E+04  0.10100000352E+00 0.  1.
       -3    1    3    3    0  502  0.34528551659E+03 -0.14032031509E+04 -0.16687507226E+02  0.14451573111E+04  0.10100000352E+00 0. -1.
</event>
<event>
 5   0  0.1307832E-05  0.2825024E+04  0.7818609E-02  0.8295541E-01
       -2   -1    0    0    0  501  0.00000000000E+00  0.00000000000E+00  0.97317488778E+03  0.97317488778E+03  0.25500000920E-02 0. -1.
        2   -1    0    0  501    0  0.00000000000E+00  0.00000000000E+00 -0.20501864876E+04  0.20501864876E+04  0.25500000920E-02 0.  1.
    10030    2    1    2    0    0  0.00000000000E+00  0.00000000000E+00 -0.10770115998E+04  0.30233613754E+04  0.28250238973E+04 0.  0.
        4    1    3    3  502    0  0.10468475821E+04  0.76296348814E+01 -0.15533650639E+04  0.18732038614E+04  0.12699999809E+01 0.  1.
       -4    1    3    3    0  502 -0.10468475821E+04 -0.76296348814E+01  0.47635346410E+03  0.11501575140E+04  0.12699999809E+01 0. -1.
</event>
<event>
 5   0  0.5154476E-06  0.2812807E+04  0.7818609E-02  0.8299303E-01
        1   -1    0    0  501    0  0.00000000000E+00  0.00000000000E+00  0.15081558948E+04  0.15081558948E+04  0.50400001928E-02 0.  1.
       -1   -1    0    0    0  501  0.00000000000E+00  0.00000000000E+00 -0.13115161279E+04  0.13115161279E+04  0.50400001928E-02 0. -1.
    10030    2    1    2    0    0  0.00000000000E+00  0.00000000000E+00  0.19663976690E+03  0.28196720227E+04  0.28128069820E+04 0.  0.
        3    1    3    3  502    0 -0.11067795006E+04  0.64327261468E+03  0.68215894363E+03  0.14505520861E+04  0.10100000352E+00 0. -1.
       -3    1    3    3    0  502  0.11067795006E+04 -0.64327261468E+03 -0.48551917674E+03  0.13691199367E+04  0.10100000352E+00 0.  1.
</event>
<event>
 5   0  0.1336899E-05  0.3038449E+04  0.7818609E-02  0.8232836E-01
       -2   -1    0    0    0  501  0.00000000000E+00  0.00000000000E+00  0.82463640947E+03  0.82463640948E+03  0.25500000920E-02 0.  1.
        2   -1    0    0  501    0  0.00000000000E+00  0.00000000000E+00 -0.27988618601E+04  0.27988618601E+04  0.25500000920E-02 0. -1.
    10030    2    1    2    0    0  0.00000000000E+00  0.00000000000E+00 -0.19742254506E+04  0.36234982696E+04  0.30384492064E+04 0.  0.
        1    1    3    3  502    0 -0.74074809685E+03  0.13127062643E+04 -0.76040953772E+03  0.16882322543E+04  0.50400001928E-02 0.  1.
       -1    1    3    3    0  502  0.74074809685E+03 -0.13127062643E+04 -0.12138159129E+04  0.19352660153E+04  0.50400001928E-02 0. -1.
</event>
<event>
 5   0  0.1339837E-05  0.2822698E+04  0.7818609E-02  0.8296256E-01
        2   -1    0    0  501    0  0.00000000000E+00  0.00000000000E+00  0.14996598548E+04  0.14996598548E+04  0.25500000920E-02 0. -1.
       -2   -1    0    0    0  501  0.00000000000E+00  0.00000000000E+00 -0.13282386255E+04  0.13282386255E+04  0.25500000920E-02 0.  1.
    10030    2    1    2    0    0  0.00000000000E+00  0.00000000000E+00  0.17142122929E+03  0.28278984804E+04  0.28226981024E+04 0.  0.
        5    1    3    3  502    0  0.61613177658E+03 -0.78148836277E+03  0.10883248939E+04  0.14747255988E+04  0.46999998093E+01 0. -1.
       -5    1    3    3    0  502 -0.61613177658E+03  0.78148836277E+03 -0.91690366457E+03  0.13531728815E+04  0.46999998093E+01 0.  1.
</event>
<event>
 5   0  0.5002240E-06  0.2975138E+04  0.7818609E-02  0.8250866E-01
        1   -1    0    0  501    0  0.00000000000E+00  0.00000000000E+00  0.24299605996E+04  0.24299605996E+04  0.50400001928E-02 0. -1.
       -1   -1    0    0    0  501  0.00000000000E+00  0.00000000000E+00 -0.91065741307E+03  0.91065741308E+03  0.50400001928E-02 0.  1.
    10030    2    1    2    0    0  0.00000000000E+00  0.00000000000E+00  0.15193031866E+04  0.33406180127E+04  0.29751380698E+04 0.  0.
        4    1    3    3  502    0  0.82286159522E+03 -0.77400775372E+03  0.18463604013E+04  0.21645409564E+04  0.12699999809E+01 0. -1.
       -4    1    3    3    0  502 -0.82286159522E+03  0.77400775372E+03 -0.32705721473E+03  0.11760770563E+04  0.12699999809E+01 0.  1.
</event>
<event>
 5   0  0.5352212E-06  0.2887034E+04  0.7818609E-02  0.8276746E-01
       -1   -1    0    0    0  501  0.00000000000E+00  0.00000000000E+00  0.95903534675E+03  0.95903534677E+03  0.50400001928E-02 0.  1.
        1   -1    0    0  501    0  0.00000000000E+00  0.00000000000E+00 -0.21727478565E+04  0.21727478565E+04  0.50400001928E-02 0. -1.
    10030    2    1    2    0    0  0.00000000000E+00  0.00000000000E+00 -0.12137125097E+04  0.31317832033E+04  0.28870344605E+04 0.  0.
        2    1    3    3  502    0 -0.72674648449E+03  0.11027201443E+04  0.25289254377E+02  0.13209056423E+04  0.25500000920E-02 0.  1.
       -2    1    3    3    0  502  0.72674648449E+03 -0.11027201443E+04 -0.12390017641E+04  0.18108775610E+04  0.25500000920E-02 0. -1.
</event>
<event>
 5   0  0.5352212E-06  0.1966925E+04  0.7818609E-02  0.8622242E-01
        1   -1    0    0  501    0  0.00000000000E+00  0.00000000000E+00  0.24962935525E+04  0.24962935525E+04  0.50400001928E-02 0. -1.
       -1   -1    0    0    0  501  0.00000000000E+00  0.00000000000E+00 -0.38745394822E+03  0.38745394825E+03  0.50400001928E-02 0.  1.
    10030    2    1    2    0    0  0.00000000000E+00  0.00000000000E+00  0.21088396043E+04  0.28837475008E+04  0.19669253091E+04 0.  0.
        2    1    3    3  502    0  0.12368690723E+03 -0.90405878968E+03  0.15922639813E+04  0.18351908163E+04  0.25500000920E-02 0. -1.
       -2    1    3    3    0  502 -0.12368690723E+03  0.90405878968E+03  0.51657562303E+03  0.10485566845E+04  0.25500000920E-02 0.  1.
</event>
<event>
 5   0  0.5154476E-06  0.2858761E+04  0.7818609E-02  0.8285254E-01
        1   -1    0    0  501    0  0.00000000000E+00  0.00000000000E+00  0.22096693415E+04  0.22096693415E+04  0.50400001928E-02 0.  1.
       -1   -1    0    0    0  501  0.00000000000E+00  0.00000000000E+00 -0.92463084984E+03  0.92463084985E+03  0.50400001928E-02 0. -1.
    10030    2    1    2    0    0  0.00000000000E+00  0.00000000000E+00  0.12850384917E+04  0.31343001914E+04  0.28587608792E+04 0.  0.
        3    1    3    3  502    0 -0.11421452910E+04 -0.82416642320E+03  0.90969138272E+03  0.16766885760E+04  0.10100000352E+00 0.  1.
       -3    1    3    3    0  502  0.11421452910E+04  0.82416642320E+03  0.37534710898E+03  0.14576116154E+04  0.10100000352E+00 0. -1.
</event>
<event>
 5   0  0.5352212E-06  0.2884051E+04  0.7818609E-02  0.8277639E-01
       -1   -1    0    0    0  501  0.00000000000E+00  0.00000000000E+00  0.99688431249E+03  0.99688431250E+03  0.50400001928E-02 0.  1.
        1   -1    0    0  501    0  0.00000000000E+00  0.00000000000E+00 -0.20859370261E+04  0.20859370261E+04  0.50400001928E-02 0. -1.
    10030    2    1    2    0    0  0.00000000000E+00  0.00000000000E+00 -0.10890527136E+04  0.30828213386E+04  0.28840512466E+04 0.  0.
        2    1    3    3  502    0 -0.11503868135E+04  0.21608270027E+03  0.35575366327E+03  0.12233732967E+04  0.25500000920E-02 0.  1.
       -2    1    3    3    0  502  0.11503868135E+04 -0.21608270027E+03 -0.14448063769E+04  0.18594480420E+04  0.25500000920E-02 0. -1.
</event>
<event>
 5   0  0.1382803E-05  0.2891636E+04  0.7818609E-02  0.8275370E-01
       -2   -1    0    0    0  501  0.00000000000E+00  0.00000000000E+00  0.10653195619E+04  0.10653195619E+04  0.25500000920E-02 0. -1.
        2   -1    0    0  501    0  0.00000000000E+00  0.00000000000E+00 -0.19622178475E+04  0.19622178475E+04  0.25500000920E-02 0.  1.
    10030    2    1    2    0    0  0.00000000000E+00  0.00000000000E+00 -0.89689828551E+03  0.30275374094E+04  0.28916355633E+04 0.  0.
        2    1    3    3  502    0 -0.97082074020E+03  0.78421742003E+03  0.31585900500E+03  0.12873448577E+04  0.25500000920E-02 0. -1.
       -2    1    3    3    0  502  0.97082074020E+03 -0.78421742003E+03 -0.12127572905E+04  0.17401925518E+04  0.25500000920E-02 0.  1.
</event>
<event>
 5   0  0.1382803E-05  0.2858017E+04  0.7818609E-02  0.8285479E-01
       -2   -1    0    0    0  501  0.00000000000E+00  0.00000000000E+00  0.15343815707E+04  0.15343815707E+04  0.25500000920E-02 0.  1.
        2   -1    0    0  501    0  0.00000000000E+00  0.00000000000E+00 -0.13308716014E+04  0.13308716014E+04  0.25500000920E-02 0. -1.
    10030    2    1    2    0    0  0.00000000000E+00  0.00000000000E+00  0.20350996927E+03  0.28652531721E+04  0.28580166956E+04 0.  0.
        2    1    3    3  502    0 -0.52819865079E+03 -0.12661569992E+04  0.50266437819E+03  0.14611019261E+04  0.25500000920E-02 0.  1.
       -2    1    3    3    0  502  0.52819865079E+03  0.12661569992E+04 -0.29915440892E+03  0.14041512460E+04  0.25500000920E-02 0. -1.
</event>
<event>
 5   0  0.1385669E-05  0.2837474E+04  0.7818609E-02  0.8291728E-01
        2   -1    0    0  501    0  0.00000000000E+00  0.00000000000E+00  0.17056359723E+04  0.17056359723E+04  0.25500000920E-02 0. -1.
       -2   -1    0    0    0  501  0.00000000000E+00  0.00000000000E+00 -0.11800962708E+04  0.11800962708E+04  0.25500000920E-02 0.  1.
    10030    2    1    2    0    0  0.00000000000E+00  0.00000000000E+00  0.52553970145E+03  0.28857322431E+04  0.28374739824E+04 0.  0.
        3    1    3    3  502    0  0.69878202216E+03 -0.21498980480E+03  0.14993010991E+04  0.16680589698E+04  0.10100000352E+00 0. -1.
       -3    1    3    3    0  502 -0.69878202216E+03  0.21498980480E+03 -0.97376139769E+03  0.12176732733E+04  0.10100000352E+00 0.  1.
</event>
<event>
 5   0  0.5059249E-06  0.2944417E+04  0.7818609E-02  0.8259783E-01
       -1   -1    0    0    0  501  0.00000000000E+00  0.00000000000E+00  0.99123289590E+03  0.99123289591E+03  0.50400001928E-02 0. -1.
        1   -1    0    0  501    0  0.00000000000E+00  0.00000000000E+00 -0.21865680855E+04  0.21865680855E+04  0.50400001928E-02 0.  1.
    10030    2    1    2    0    0  0.00000000000E+00  0.00000000000E+00 -0.11953351896E+04  0.31778009814E+04  0.29444172364E+04 0.  0.
        1    1    3    3  502    0 -0.26482596698E+03 -0.14477130264E+04 -0.63794039393E+03  0.16040491719E+04  0.50400001928E-02 0. -1.
       -1    1    3    3    0  502  0.26482596698E+03  0.14477130264E+04 -0.55739479564E+03  0.15737518095E+04  0.50400001928E-02 0.  1.
</event>
<event>
 5   0  0.5352212E-06  0.2844926E+04  0.7818609E-02  0.8289455E-01
        1   -1    0    0  501    0  0.00000000000E+00  0.00000000000E+00  0.15541182196E+04  0.15541182196E+04  0.50400001928E-02 0.  1.
       -1   -1    0    0    0  501  0.00000000000E+00  0.00000000000E+00 -0.13019610042E+04  0.13019610042E+04  0.50400001928E-02 0. -1.
    10030    2    1    2    0    0  0.00000000000E+00  0.00000000000E+00  0.25215721535E+03  0.28560792238E+04  0.28449262330E+04 0.  0.
        2    1    3    3  502    0 -0.67717564431E+03  0.75472776148E+03 -0.87543969477E+03  0.13396176717E+04  0.25500000920E-02 0. -1.
       -2    1    3    3    0  502  0.67717564431E+03 -0.75472776148E+03  0.11275969101E+04  0.15164615521E+04  0.25500000920E-02 0.  1.
</event>
<event>
 5   0  0.5352212E-06  0.2734074E+04  0.7818609E-02  0.8324033E-01
        1   -1    0    0  501    0  0.00000000000E+00  0.00000000000E+00  0.14471661267E+04  0.14471661267E+04  0.50400001928E-02 0. -1.
       -1   -1    0    0    0  501  0.00000000000E+00  0.00000000000E+00 -0.12913442562E+04  0.12913442562E+04  0.50400001928E-02 0.  1.
    10030    2    1    2    0    0  0.00000000000E+00  0.00000000000E+00  0.15582187049E+03  0.27385103829E+04  0.27340736387E+04 0.  0.
        2    1    3    3  502    0  0.13212313529E+04  0.17492800470E+03 -0.22678259443E+03  0.13519180595E+04  0.25500000920E-02 0.  1.
       -2    1    3    3    0  502 -0.13212313529E+04 -0.17492800470E+03  0.38260446491E+03  0.13865923233E+04  0.25500000920E-02 0. -1.
</event>
<event>
 5   0  0.1385669E-05  0.2928108E+04  0.7818609E-02  0.8264563E-01
        2   -1    0    0  501    0  0.00000000000E+00  0.00000000000E+00  0.20671953386E+04  0.20671953386E+04  0.25500000920E-02 0.  1.
       -2   -1    0    0    0  501  0.00000000000E+00  0.00000000000E+00 -0.10368896264E+04  0.10368896264E+04  0.25500000920E-02 0. -1.
    10030    2    1    2    0    0  0.00000000000E+00  0.00000000000E+00  0.10303057122E+04  0.31040849650E+04  0.29281075133E+04 0.  0.
        3    1    3    3  502    0  0.20561847307E+03  0.87149862462E+03  0.17430685753E+04  0.19596114098E+04  0.10100000352E+00 0.  1.
       -3    1    3    3    0  502 -0.20561847307E+03 -0.87149862462E+03 -0.71276286313E+03  0.11444735551E+04  0.10100000352E+00 0. -1.
</event>
<event>
 5   0  0.1382803E-05  0.2880375E+04  0.7818609E-02  0.8278740E-01
        2   -1    0    0  501    0  0.00000000000E+00  0.00000000000E+00  0.18575879837E+04  0.18575879837E+04  0.25500000920E-02 0.  1.
       -2   -1    0    0    0  501  0.00000000000E+00  0.00000000000E+00 -0.11165773670E+04  0.11165773670E+04  0.25500000920E-02 0. -1.
    10030    2    1    2    0    0  0.00000000000E+00  0.00000000000E+00  0.74101061663E+03  0.29741653507E+04  0.28803754615E+04 0.  0.
        2    1    3    3  502    0  0.99311726951E+03 -0.10298905376E+04  0.54075049426E+03  0.15294991100E+04  0.25500000920E-02 0.  1.
       -2    1    3    3    0  502 -0.99311726951E+03  0.10298905376E+04  0.20026012237E+03  0.14446662407E+04  0.25500000920E-02 0. -1.
</event>
<event>
 5   0  0.1382803E-05  0.2759608E+04  0.7818609E-02  0.8315919E-01
        2   -1    0    0  501    0  0.00000000000E+00  0.00000000000E+00  0.15266634576E+04  0.15266634576E+04  0.25500000920E-02 0. -1.
       -2   -1    0    0    0  501  0.00000000000E+00  0.00000000000E+00 -0.12470714968E+04  0.12470714968E+04  0.25500000920E-02 0.  1.
    10030    2    1    2    0    0  0.00000000000E+00  0.00000000000E+00  0.27959196082E+03  0.27737349545E+04  0.27596075687E+04 0.  0.
        2    1    3    3  502    0  0.42601972983E+02  0.23976714545E+03  0.15048928435E+04  0.15244689838E+04  0.25500000920E-02 0. -1.
       -2    1    3    3    0  502 -0.42601972983E+02 -0.23976714545E+03 -0.12253008827E+04  0.12492659706E+04  0.25500000920E-02 0.  1.
</event>
<event>
 5   0  0.5002240E-06  0.2847686E+04  0.7818609E-02  0.8288615E-01
        1   -1    0    0  501    0  0.00000000000E+00  0.00000000000E+00  0.15627299751E+04  0.15627299751E+04  0.50400001928E-02 0.  1.
       -1   -1    0    0    0  501  0.00000000000E+00  0.00000000000E+00 -0.12972993939E+04  0.12972993939E+04  0.50400001928E-02 0. -1.
    10030    2    1    2    0    0  0.00000000000E+00  0.00000000000E+00  0.26543058122E+03  0.28600293690E+04  0.28476858321E+04 0.  0.
        4    1    3    3  502    0 -0.14098464814E+04 -0.51041104929E+02  0.32604576228E+03  0.14479570945E+04  0.12699999809E+01 0.  1.
       -4    1    3    3    0  502  0.14098464814E+04  0.51041104929E+02 -0.60615181065E+02  0.14120722746E+04  0.12699999809E+01 0. -1.
</event>
<event>
 5   0  0.5261878E-06  0.2660550E+04  0.7818609E-02  0.8347920E-01
       -1   -1    0    0    0  501  0.00000000000E+00  0.00000000000E+00  0.12154163776E+04  0.12154163776E+04  0.50400001928E-02 0.  1.
        1   -1    0    0  501    0  0.00000000000E+00  0.00000000000E+00 -0.14559882785E+04  0.14559882785E+04  0.50400001928E-02 0. -1.
    10030    2    1    2    0    0  0.00000000000E+00  0.00000000000E+00 -0.24057190091E+03  0.26714046561E+04  0.26605503185E+04 0.  0.
        5    1    3    3  502    0  0.10887034606E+04 -0.46144044142E+03  0.49163240341E+03  0.12805963518E+04  0.46999998093E+01 0. -1.
       -5    1    3    3    0  502 -0.10887034606E+04  0.46144044142E+03 -0.73220430431E+03  0.13908083043E+04  0.46999998093E+01 0.  1.
</event>
<event>
 5   0  0.1336899E-05  0.2897053E+04  0.7818609E-02  0.8273755E-01
       -2   -1    0    0    0  501  0.00000000000E+00  0.00000000000E+00  0.16806804184E+04  0.16806804184E+04  0.25500000920E-02 0. -1.
        2   -1    0    0  501    0  0.00000000000E+00  0.00000000000E+00 -0.12484406404E+04  0.12484406404E+04  0.25500000920E-02 0.  1.
    10030    2    1    2    0    0  0.00000000000E+00  0.00000000000E+00  0.43223977802E+03  0.29291210588E+04  0.28970534948E+04 0.  0.
        1    1    3    3  502    0 -0.27695056873E+02 -0.43638520387E+03  0.16123585077E+04  0.16705984017E+04  0.50400001928E-02 0. -1.
       -1    1    3    3    0  502  0.27695056873E+02  0.43638520387E+03 -0.11801187297E+04  0.12585226571E+04  0.50400001928E-02 0.  1.
</event>
<event>
 5   0  0.1385669E-05  0.2628811E+04  0.7818609E-02  0.8358480E-01
       -2   -1    0    0    0  501  0.00000000000E+00  0.00000000000E+00  0.15998534447E+04  0.15998534447E+04  0.25500000920E-02 0. -1.
        2   -1    0    0  501    0  0.00000000000E+00  0.00000000000E+00 -0.10798871814E+04  0.10798871814E+04  0.25500000920E-02 0.  1.
    10030    2    1    2    0    0  0.00000000000E+00  0.00000000000E+00  0.51996626336E+03  0.26797406261E+04  0.26288105500E+04 0.  0.
        3    1    3    3  502    0  0.96961103635E+03  0.88338087216E+03  0.34620245125E+03  0.13565999685E+04  0.10100000352E+00 0.  1.
       -3    1    3    3    0  502 -0.96961103635E+03 -0.88338087216E+03  0.17376381211E+03  0.13231406576E+04  0.10100000352E+00 0. -1.
</event>
<event>
 5   0  0.4590125E-06  0.2545818E+04  0.7818609E-02  0.8386842E-01
       -4   -1    0    0    0  501  0.00000000000E+00  0.00000000000E+00  0.11727233295E+04  0.11727240171E+04  0.12699999809E+01 0. -1.
        4   -1    0    0  501    0  0.00000000000E+00  0.00000000000E+00 -0.13816516886E+04  0.13816522723E+04  0.12699999809E+01 0.  1.
    10030    2    1    2    0    0  0.00000000000E+00  0.00000000000E+00 -0.20892835912E+03  0.25543762894E+04  0.25458175835E+04 0.  0.
        5    1    3    3  502    0  0.10888008850E+03  0.96139903983E+03 -0.93436740862E+03  0.13450678540E+04  0.46999998093E+01 0.  1.
       -5    1    3    3    0  502 -0.10888008850E+03 -0.96139903983E+03  0.72543904951E+03  0.12093084354E+04  0.46999998093E+01 0. -1.
</event>
<event>
 5   0  0.1385669E-05  0.2847852E+04  0.7818609E-02  0.8288564E-01
        2   -1    0    0  501    0  0.00000000000E+00  0.00000000000E+00  0.22630377415E+04  0.22630377415E+04  0.25500000920E-02 0. -1.
       -2   -1    0    0    0  501  0.00000000000E+00  0.00000000000E+00 -0.89594875595E+03  0.89594875596E+03  0.25500000920E-02 0.  1.
    10030    2    1    2    0    0  0.00000000000E+00  0.00000000000E+00  0.13670889855E+04  0.31589864974E+04  0.28478524183E+04 0.  0.
        3    1    3    3  502    0 -0.63658995115E+03 -0.36758443755E+02 -0.72872473420E+03  0.96831694064E+03  0.10100000352E+00 0.  1.
       -3    1    3    3    0  502  0.63658995115E+03  0.36758443755E+02  0.20958137197E+04  0.21906695568E+04  0.10100000352E+00 0. -1.
</event>
<event>
 5   0  0.1382803E-05  0.2880528E+04  0.7818609E-02  0.8278695E-01
        2   -1    0    0  501    0  0.00000000000E+00  0.00000000000E+00  0.30481555574E+04  0.30481555574E+04  0.25500000920E-02 0.  1.
       -2   -1    0    0    0  501  0.00000000000E+00  0.00000000000E+00 -0.68052962514E+03  0.68052962515E+03  0.25500000920E-02 0. -1.
    10030    2    1    2    0    0  0.00000000000E+00  0.00000000000E+00  0.23676259323E+04  0.37286851826E+04  0.28805278397E+04 0.  0.
        2    1    3    3  502    0 -0.13146983466E+04 -0.50682770210E+03  0.79752552293E+03  0.16190593016E+04  0.25500000920E-02 0. -1.
       -2    1    3    3    0  502  0.13146983466E+04  0.50682770210E+03  0.15701004093E+04  0.21096258810E+04  0.25500000920E-02 0.  1.
</event>
<event>
 5   0  0.1385669E-05  0.2957902E+04  0.7818609E-02  0.8255855E-01
       -2   -1    0    0    0  501  0.00000000000E+00  0.00000000000E+00  0.17911686170E+04  0.17911686170E+04  0.25500000920E-02 0.  1.
        2   -1    0    0  501    0  0.00000000000E+00  0.00000000000E+00 -0.12211561135E+04  0.12211561135E+04  0.25500000920E-02 0. -1.
    10030    2    1    2    0    0  0.00000000000E+00  0.00000000000E+00  0.57001250351E+03  0.30123247306E+04  0.29579023020E+04 0.  0.
        3    1    3    3  502    0 -0.12057438039E+04  0.74255968695E+03  0.71956974902E+03  0.15883934158E+04  0.10100000352E+00 0.  1.
       -3    1    3    3    0  502  0.12057438039E+04 -0.74255968695E+03 -0.14955724551E+03  0.14239313148E+04  0.10100000352E+00 0. -1.
</event>
<event>
 5   0  0.5154476E-06  0.2859357E+04  0.7818609E-02  0.8285074E-01
        1   -1    0    0  501    0  0.00000000000E+00  0.00000000000E+00  0.13144437634E+04  0.13144437634E+04  0.50400001928E-02 0. -1.
       -1   -1    0    0    0  501  0.00000000000E+00  0.00000000000E+00 -0.15550151036E+04  0.15550151036E+04  0.50400001928E-02 0.  1.
    10030    2    1    2    0    0  0.00000000000E+00  0.00000000000E+00 -0.24057134025E+03  0.28694588670E+04  0.28593565045E+04 0.  0.
        3    1    3    3  502    0  0.10234992067E+04  0.88282934446E+03 -0.58780891169E+03  0.14739259155E+04  0.10100000352E+00 0. -1.
       -3    1    3    3    0  502 -0.10234992067E+04 -0.88282934446E+03  0.34723757144E+03  0.13955329515E+04  0.10100000352E+00 0.  1.
</event>
<event>
 5   0  0.5261878E-06  0.2918927E+04  0.7818609E-02  0.8267268E-01
        1   -1    0    0  501    0  0.00000000000E+00  0.00000000000E+00  0.15200443444E+04  0.15200443444E+04  0.50400001928E-02 0.  1.
       -1   -1    0    0    0  501  0.00000000000E+00  0.00000000000E+00 -0.14012971686E+04  0.14012971686E+04  0.50400001928E-02 0. -1.
    10030    2    1    2    0    0  0.00000000000E+00  0.00000000000E+00  0.11874717585E+03  0.29213415130E+04  0.29189270878E+04 0.  0.
        5    1    3    3  502    0  0.13650336168E+04  0.51004433755E+03  0.14037102472E+03  0.14639631538E+04  0.46999998093E+01 0.  1.
       -5    1    3    3    0  502 -0.13650336168E+04 -0.51004433755E+03 -0.21623848872E+02  0.14573783592E+04  0.46999998093E+01 0. -1.
</event>
<event>
 5   0  0.1336899E-05  0.2823146E+04  0.7818609E-02  0.8296118E-01
        2   -1    0    0  501    0  0.00000000000E+00  0.00000000000E+00  0.68121923620E+03  0.68121923621E+03  0.25500000920E-02 0. -1.
       -2   -1    0    0    0  501  0.00000000000E+00  0.00000000000E+00 -0.29249579755E+04  0.29249579755E+04  0.25500000920E-02 0.  1.
    10030    2    1    2    0    0  0.00000000000E+00  0.00000000000E+00 -0.22437387393E+04  0.36061772117E+04  0.28231455067E+04 0.  0.
        1    1    3    3  502    0  0.19030831293E+03  0.10771141488E+04 -0.22616204774E+04  0.25122339316E+04  0.50400001928E-02 0.  1.
       -1    1    3    3    0  502 -0.19030831293E+03 -0.10771141488E+04  0.17881738106E+02  0.10939432801E+04  0.50400001928E-02 0. -1.
</event>
<event>
 5   0  0.5352212E-06  0.2829785E+04  0.7818609E-02  0.8294081E-01
        1   -1    0    0  501    0  0.00000000000E+00  0.00000000000E+00  0.15984267754E+04  0.15984267754E+04  0.50400001928E-02 0.  1.
       -1   -1    0    0    0  501  0.00000000000E+00  0.00000000000E+00 -0.12524315272E+04  0.12524315272E+04  0.50400001928E-02 0. -1.
    10030    2    1    2    0    0  0.00000000000E+00  0.00000000000E+00  0.34599524821E+03  0.28508583026E+04  0.28297845059E+04 0.  0.
        2    1    3    3  502    0 -0.20962825863E+03  0.99054074080E+03 -0.82269715880E+03  0.13045863640E+04  0.25500000920E-02 0. -1.
       -2    1    3    3    0  502  0.20962825863E+03 -0.99054074080E+03  0.11686924070E+04  0.15462719386E+04  0.25500000920E-02 0.  1.
</event>
<event>
 5   0  0.1382803E-05  0.2880088E+04  0.7818609E-02  0.8278827E-01
        2   -1    0    0  501    0  0.00000000000E+00  0.00000000000E+00  0.13230570492E+04  0.13230570492E+04  0.25500000920E-02 0.  1.
       -2   -1    0    0    0  501  0.00000000000E+00  0.00000000000E+00 -0.15673754709E+04  0.15673754709E+04  0.25500000920E-02 0. -1.
    10030    2    1    2    0    0  0.00000000000E+00  0.00000000000E+00 -0.24431842171E+03  0.28904325200E+04  0.28800883080E+04 0.  0.
        2    1    3    3  502    0 -0.96061414096E+03  0.27660348720E+03 -0.11624332024E+04  0.15331470794E+04  0.25500000920E-02 0. -1.
       -2    1    3    3    0  502  0.96061414096E+03 -0.27660348720E+03  0.91811478069E+03  0.13572854407E+04  0.25500000920E-02 0.  1.
</event>
<event>
 5   0  0.5059249E-06  0.3013065E+04  0.7818609E-02  0.8240010E-01
       -1   -1    0    0    0  501  0.00000000000E+00  0.00000000000E+00  0.13897403978E+04  0.13897403978E+04  0.50400001928E-02 0. -1.
        1   -1    0    0  501    0  0.00000000000E+00  0.00000000000E+00 -0.16331391290E+04  0.16331391290E+04  0.50400001928E-02 0.  1.
    10030    2    1    2    0    0  0.00000000000E+00  0.00000000000E+00 -0.24339873124E+03  0.30228795268E+04  0.30130645017E+04 0.  0.
        1    1    3    3  502    0  0.14443022743E+04 -0.24715492848E+03 -0.47290369584E+03  0.15397183262E+04  0.50400001928E-02 0.  1.
       -1    1    3    3    0  502 -0.14443022743E+04  0.24715492848E+03  0.22950496460E+03  0.14831612007E+04  0.50400001928E-02 0. -1.
</event>
<event>
 5   0  0.1307832E-05  0.3039563E+04  0.7818609E-02  0.8232523E-01
       -2   -1    0    0    0  501  0.00000000000E+00  0.00000000000E+00  0.18052841875E+04  0.18052841875E+04  0.25500000920E-02 0.  1.
        2   -1    0    0  501    0  0.00000000000E+00  0.00000000000E+00 -0.12794305546E+04  0.12794305546E+04  0.25500000920E-02 0. -1.
    10030    2    1    2    0    0  0.00000000000E+00  0.00000000000E+00  0.52585363298E+03  0.30847147421E+04  0.30395629615E+04 0.  0.
        4    1    3    3  502    0  0.75589051481E+03  0.10563306163E+04  0.10636525056E+04  0.16788576791E+04  0.12699999809E+01 0.  1.
       -4    1    3    3    0  502 -0.75589051481E+03 -0.10563306163E+04 -0.53779887262E+03  0.14058570630E+04  0.12699999809E+01 0. -1.
</event>
<event>
 5   0  0.5002240E-06  0.2889644E+04  0.7818609E-02  0.8275965E-01
       -1   -1    0    0    0  501  0.00000000000E+00  0.00000000000E+00  0.99186572726E+03  0.99186572727E+03  0.50400001928E-02 0. -1.
        1   -1    0    0  501    0  0.00000000000E+00  0.00000000000E+00 -0.21046304541E+04  0.21046304541E+04  0.50400001928E-02 0.  1.
    10030    2    1    2    0    0  0.00000000000E+00  0.00000000000E+00 -0.11127647268E+04  0.30964961814E+04  0.28896441414E+04 0.  0.
        4    1    3    3  502    0 -0.64407851138E+03 -0.42750138036E+03 -0.18643797622E+04  0.20182933557E+04  0.12699999809E+01 0.  1.
       -4    1    3    3    0  502  0.64407851138E+03  0.42750138036E+03  0.75161503536E+03  0.10782028257E+04  0.12699999809E+01 0. -1.
</event>
<event>
 5   0  0.1339837E-05  0.3012478E+04  0.7818609E-02  0.8240177E-01
       -2   -1    0    0    0  501  0.00000000000E+00  0.00000000000E+00  0.11775111721E+04  0.11775111721E+04  0.25500000920E-02 0. -1.
        2   -1    0    0  501    0  0.00000000000E+00  0.00000000000E+00 -0.19267386641E+04  0.19267386641E+04  0.25500000920E-02 0.  1.
    10030    2    1    2    0    0  0.00000000000E+00  0.00000000000E+00 -0.74922749206E+03  0.31042498362E+04  0.30124782507E+04 0.  0.
        5    1    3    3  502    0  0.12665605637E+04 -0.61692114147E+03  0.17450538391E+03  0.14195920454E+04  0.46999998093E+01 0.  1.
       -5    1    3    3    0  502 -0.12665605637E+04  0.61692114147E+03 -0.92373287597E+03  0.16846577909E+04  0.46999998093E+01 0. -1.
</event>
<event>
 5   0  0.5352212E-06  0.2856752E+04  0.7818609E-02  0.8285863E-01
       -1   -1    0    0    0  501  0.00000000000E+00  0.00000000000E+00  0.96939687211E+03  0.96939687212E+03  0.50400001928E-02 0. -1.
        1   -1    0    0  501    0  0.00000000000E+00  0.00000000000E+00 -0.21046670919E+04  0.21046670919E+04  0.50400001928E-02 0.  1.
    10030    2    1    2    0    0  0.00000000000E+00  0.00000000000E+00 -0.11352702198E+04  0.30740639640E+04  0.28567517888E+04 0.  0.
        2    1    3    3  502    0 -0.33632632132E+03 -0.81851416233E+03  0.63889616119E+03  0.10914527627E+04  0.25500000920E-02 0. -1.
       -2    1    3    3    0  502  0.33632632132E+03  0.81851416233E+03 -0.17741663810E+04  0.19826112013E+04  0.25500000920E-02 0.  1.
</event>
<event>
 5   0  0.5154476E-06  0.2340240E+04  0.7818609E-02  0.8462222E-01
        1   -1    0    0  501    0  0.00000000000E+00  0.00000000000E+00  0.10240950540E+04  0.10240950540E+04  0.50400001928E-02 0.  1.
       -1   -1    0    0    0  501  0.00000000000E+00  0.00000000000E+00 -0.13369661980E+04  0.13369661980E+04  0.50400001928E-02 0. -1.
    10030    2    1    2    0    0  0.00000000000E+00  0.00000000000E+00 -0.31287114404E+03  0.23610612520E+04  0.23402397063E+04 0.  0.
        3    1    3    3  502    0  0.26160681499E+03 -0.64169172383E+03  0.79480738910E+03  0.10544786342E+04  0.10100000352E+00 0.  1.
       -3    1    3    3    0  502 -0.26160681499E+03  0.64169172383E+03 -0.11076785331E+04  0.13065826178E+04  0.10100000352E+00 0. -1.
</event>
<event>
 5   0  0.1336899E-05  0.3343256E+04  0.7818609E-02  0.8151975E-01
       -2   -1    0    0    0  501  0.00000000000E+00  0.00000000000E+00  0.15105489187E+04  0.15105489187E+04  0.25500000920E-02 0. -1.
        2   -1    0    0  501    0  0.00000000000E+00  0.00000000000E+00 -0.18498835513E+04  0.18498835513E+04  0.25500000920E-02 0.  1.
    10030    2    1    2    0    0  0.00000000000E+00  0.00000000000E+00 -0.33933463257E+03  0.33604324700E+04  0.33432556577E+04 0.  0.
        1    1    3    3  502    0  0.59916153713E+03  0.11251198995E+04  0.91729994090E+03  0.15704548760E+04  0.50400001928E-02 0. -1.
       -1    1    3    3    0  502 -0.59916153713E+03 -0.11251198995E+04 -0.12566345735E+04  0.17899775940E+04  0.50400001928E-02 0.  1.
</event>
<event>
 5   0  0.5154476E-06  0.2889957E+04  0.7818609E-02  0.8275872E-01
        1   -1    0    0  501    0  0.00000000000E+00  0.00000000000E+00  0.12574101396E+04  0.12574101396E+04  0.50400001928E-02 0.  1.
       -1   -1    0    0    0  501  0.00000000000E+00  0.00000000000E+00 -0.16605261893E+04  0.16605261893E+04  0.50400001928E-02 0. -1.
    10030    2    1    2    0    0  0.00000000000E+00  0.00000000000E+00 -0.40311604966E+03  0.29179363289E+04  0.28899567246E+04 0.  0.
        3    1    3    3  502    0 -0.16924794957E+03 -0.42232704713E+03  0.11832002140E+04  0.12676623209E+04  0.10100000352E+00 0.  1.
       -3    1    3    3    0  502  0.16924794957E+03  0.42232704713E+03 -0.15863162637E+04  0.16502740081E+04  0.10100000352E+00 0. -1.
</event>
<event>
 5   0  0.1336899E-05  0.2900483E+04  0.7818609E-02  0.8272734E-01
       -2   -1    0    0    0  501  0.00000000000E+00  0.00000000000E+00  0.12077951800E+04  0.12077951801E+04  0.25500000920E-02 0. -1.
        2   -1    0    0  501    0  0.00000000000E+00  0.00000000000E+00 -0.17413550770E+04  0.17413550770E+04  0.25500000920E-02 0.  1.
    10030    2    1    2    0    0  0.00000000000E+00  0.00000000000E+00 -0.53355989693E+03  0.29491502570E+04  0.29004829037E+04 0.  0.
        1    1    3    3  502    0 -0.26589902113E+03 -0.24396288362E+03  0.11614164763E+04  0.12161860094E+04  0.50400001928E-02 0. -1.
       -1    1    3    3    0  502  0.26589902113E+03  0.24396288362E+03 -0.16949763732E+04  0.17329642477E+04  0.50400001928E-02 0.  1.
</event>
<event>
 5   0  0.5154476E-06  0.2621330E+04  0.7818609E-02  0.8360992E-01
       -1   -1    0    0    0  501  0.00000000000E+00  0.00000000000E+00  0.15001716433E+04  0.15001716433E+04  0.50400001928E-02 0.  1.
        1   -1    0    0  501    0  0.00000000000E+00  0.00000000000E+00 -0.11450977131E+04  0.11450977131E+04  0.50400001928E-02 0. -1.
    10030    2    1    2    0    0  0.00000000000E+00  0.00000000000E+00  0.35507393021E+03  0.26452693563E+04  0.26213302866E+04 0.  0.
        3    1    3    3  502    0  0.12302815988E+04  0.44355993996E+03  0.90115135790E+02  0.13109000650E+04  0.10100000352E+00 0. -1.
       -3    1    3    3    0  502 -0.12302815988E+04 -0.44355993996E+03  0.26495879442E+03  0.13343692913E+04  0.10100000352E+00 0.  1.
</event>
<event>
 5   0  0.5261878E-06  0.2606007E+04  0.7818609E-02  0.8366164E-01
       -1   -1    0    0    0  501  0.00000000000E+00  0.00000000000E+00  0.11624301413E+04  0.11624301414E+04  0.50400001928E-02 0. -1.
        1   -1    0    0  501    0  0.00000000000E+00  0.00000000000E+00 -0.14605762013E+04  0.14605762013E+04  0.50400001928E-02 0.  1.
    10030    2    1    2    0    0  0.00000000000E+00  0.00000000000E+00 -0.29814605998E+03  0.26230063427E+04  0.26060067538E+04 0.  0.
        5    1    3    3  502    0  0.89757291860E+03 -0.82287792824E+02  0.79801521062E+03  0.12038516484E+04  0.46999998093E+01 0. -1.
       -5    1    3    3    0  502 -0.89757291860E+03  0.82287792824E+02 -0.10961612706E+04  0.14191546942E+04  0.46999998093E+01 0.  1.
</event>
<event>
 5   0  0.1307832E-05  0.2847453E+04  0.7818609E-02  0.8288686E-01
       -2   -1    0    0    0  501  0.00000000000E+00  0.00000000000E+00  0.10208314451E+04  0.10208314451E+04  0.25500000920E-02 0. -1.
        2   -1    0    0  501    0  0.00000000000E+00  0.00000000000E+00 -0.19856338340E+04  0.19856338340E+04  0.25500000920E-02 0.  1.
    10030    2    1    2    0    0  0.00000000000E+00  0.00000000000E+00 -0.96480238888E+03  0.30064652791E+04  0.28474532173E+04 0.  0.
        4    1    3    3  502    0  0.65969863416E+03 -0.19380311245E+03  0.83390760656E+03  0.10808170259E+04  0.12699999809E+01 0. -1.
       -4    1    3    3    0  502 -0.65969863416E+03  0.19380311245E+03 -0.17987099954E+04  0.19256482532E+04  0.12699999809E+01 0.  1.
</event>
<event>
 5   0  0.1382803E-05  0.2929042E+04  0.7818609E-02  0.8264289E-01
       -2   -1    0    0    0  501  0.00000000000E+00  0.00000000000E+00  0.15567436180E+04  0.15567436180E+04  0.25500000920E-02 0.  1.
        2   -1    0    0  501    0  0.00000000000E+00  0.00000000000E+00 -0.13777615368E+04  0.13777615368E+04  0.25500000920E-02 0. -1.
    10030    2    1    2    0    0  0.00000000000E+00  0.00000000000E+00  0.17898208115E+03  0.29345051548E+04  0.29290418089E+04 0.  0.
        2    1    3    3  502    0 -0.12850396161E+04 -0.38043777582E+03 -0.50217104265E+03  0.14311657739E+04  0.25500000920E-02 0. -1.
       -2    1    3    3    0  502  0.12850396161E+04  0.38043777582E+03  0.68115312380E+03  0.15033393809E+04  0.25500000920E-02 0.  1.
</event>
<event>
 5   0  0.5002240E-06  0.2910308E+04  0.7818609E-02  0.8269817E-01
        1   -1    0    0  501    0  0.00000000000E+00  0.00000000000E+00  0.17033205770E+04  0.17033205770E+04  0.50400001928E-02 0. -1.
       -1   -1    0    0    0  501  0.00000000000E+00  0.00000000000E+00 -0.12431442737E+04  0.12431442737E+04  0.50400001928E-02 0.  1.
    10030    2    1    2    0    0  0.00000000000E+00  0.00000000000E+00  0.46017630329E+03  0.29464648506E+04  0.29103080397E+04 0.  0.
        4    1    3    3  502    0  0.74715323569E+03  0.78683463061E+03  0.12117345710E+04  0.16265451045E+04  0.12699999809E+01 0. -1.
       -4    1    3    3    0  502 -0.74715323569E+03 -0.78683463061E+03 -0.75155826771E+03  0.13199197461E+04  0.12699999809E+01 0.  1.
</event>
<event>
 5   0  0.4590125E-06  0.2540686E+04  0.7818609E-02  0.8388633E-01
        3   -1    0    0  501    0  0.00000000000E+00  0.00000000000E+00  0.45008940304E+03  0.45008941437E+03  0.10100000352E+00 0.  1.
       -3   -1    0    0    0  501  0.00000000000E+00  0.00000000000E+00 -0.35854460756E+04  0.35854460770E+04  0.10100000352E+00 0. -1.
    10030    2    1    2    0    0  0.00000000000E+00  0.00000000000E+00 -0.31353566725E+04  0.40355354914E+04  0.25406859779E+04 0.  0.
        5    1    3    3  502    0 -0.71541300472E+03 -0.50801188467E+03 -0.30267771561E+04  0.31513955456E+04  0.46999998093E+01 0. -1.
       -5    1    3    3    0  502  0.71541300472E+03  0.50801188467E+03 -0.10857951645E+03  0.88413994576E+03  0.46999998093E+01 0.  1.
</event>
<event>
 5   0  0.1339837E-05  0.2845137E+04  0.7818609E-02  0.8289391E-01
       -2   -1    0    0    0  501  0.00000000000E+00  0.00000000000E+00  0.12414750853E+04  0.12414750853E+04  0.25500000920E-02 0. -1.
        2   -1    0    0  501    0  0.00000000000E+00  0.00000000000E+00 -0.16300775219E+04  0.16300775219E+04  0.25500000920E-02 0.  1.
    10030    2    1    2    0    0  0.00000000000E+00  0.00000000000E+00 -0.38860243661E+03  0.28715526072E+04  0.28451366438E+04 0.  0.
        5    1    3    3  502    0  0.98725294514E+03 -0.40161008996E+03  0.75663530376E+03  0.13070876462E+04  0.46999998093E+01 0. -1.
       -5    1    3    3    0  502 -0.98725294514E+03  0.40161008996E+03 -0.11452377404E+04  0.15644649609E+04  0.46999998093E+01 0.  1.
</event>
<event>
 5   0  0.5002240E-06  0.2938005E+04  0.7818609E-02  0.8261659E-01
        1   -1    0    0  501    0  0.00000000000E+00  0.00000000000E+00  0.13265196526E+04  0.13265196527E+04  0.50400001928E-02 0. -1.
       -1   -1    0    0    0  501  0.00000000000E+00  0.00000000000E+00 -0.16267896957E+04  0.16267896957E+04  0.50400001928E-02 0.  1.
    10030    2    1    2    0    0  0.00000000000E+00  0.00000000000E+00 -0.30027004307E+03  0.29533093484E+04  0.29380051069E+04 0.  0.
        4    1    3    3  502    0  0.10364171276E+04 -0.30326747673E+03 -0.11512320367E+04  0.15784386082E+04  0.12699999809E+01 0.  1.
       -4    1    3    3    0  502 -0.10364171276E+04  0.30326747673E+03  0.85096199360E+03  0.13748707402E+04  0.12699999809E+01 0. -1.
</event>
<event>
 5   0  0.1307832E-05  0.2809977E+04  0.7818609E-02  0.8300178E-01
       -2   -1    0    0    0  501  0.00000000000E+00  0.00000000000E+00  0.12975925306E+04  0.12975925306E+04  0.25500000920E-02 0. -1.
        2   -1    0    0  501    0  0.00000000000E+00  0.00000000000E+00 -0.15212729149E+04  0.15212729149E+04  0.25500000920E-02 0.  1.
    10030    2    1    2    0    0  0.00000000000E+00  0.00000000000E+00 -0.22368038429E+03  0.28188654454E+04  0.28099767766E+04 0.  0.
        4    1    3    3  502    0 -0.59674020005E+03  0.19805954867E+03  0.11485833614E+04  0.13094165885E+04  0.12699999809E+01 0. -1.
       -4    1    3    3    0  502  0.59674020005E+03 -0.19805954867E+03 -0.13722637457E+04  0.15094488570E+04  0.12699999809E+01 0.  1.
</event>
<event>
 5   0  0.5352212E-06  0.2867244E+04  0.7818609E-02  0.8282690E-01
       -1   -1    0    0    0  501  0.00000000000E+00  0.00000000000E+00  0.12903880607E+04  0.12903880607E+04  0.50400001928E-02 0.  1.
        1   -1    0    0  501    0  0.00000000000E+00  0.00000000000E+00 -0.15927554495E+04  0.15927554495E+04  0.50400001928E-02 0. -1.
    10030    2    1    2    0    0  0.00000000000E+00  0.00000000000E+00 -0.30236738887E+03  0.28831435102E+04  0.28672444023E+04 0.  0.
        2    1    3    3  502    0  0.94815311619E+03 -0.10333167788E+04 -0.45038146423E+03  0.14729498839E+04  0.25500000920E-02 0. -1.
       -2    1    3    3    0  502 -0.94815311619E+03  0.10333167788E+04  0.14801407536E+03  0.14101936263E+04  0.25500000920E-02 0.  1.
</event>
<event>
 5   0  0.5352212E-06  0.2985588E+04  0.7818609E-02  0.8247858E-01
        1   -1    0    0  501    0  0.00000000000E+00  0.00000000000E+00  0.27172928449E+04  0.27172928449E+04  0.50400001928E-02 0.  1.
       -1   -1    0    0    0  501  0.00000000000E+00  0.00000000000E+00 -0.82009348248E+03  0.82009348250E+03  0.50400001928E-02 0. -1.
    10030    2    1    2    0    0  0.00000000000E+00  0.00000000000E+00  0.18971993624E+04  0.35373863274E+04  0.29855881512E+04 0.  0.
        2    1    3    3  502    0  0.24793838160E+03  0.70625904129E+03 -0.58168171983E+03  0.94796038824E+03  0.25500000920E-02 0. -1.
       -2    1    3    3    0  502 -0.24793838160E+03 -0.70625904129E+03  0.24788810822E+04  0.25894259392E+04  0.25500000920E-02 0.  1.
</event>
<event>
 5   0  0.1382803E-05  0.2871898E+04  0.7818609E-02  0.8281288E-01
        2   -1    0    0  501    0  0.00000000000E+00  0.00000000000E+00  0.11488252101E+04  0.11488252101E+04  0.25500000920E-02 0. -1.
       -2   -1    0    0    0  501  0.00000000000E+00  0.00000000000E+00 -0.17948332610E+04  0.17948332610E+04  0.25500000920E-02 0.  1.
    10030    2    1    2    0    0  0.00000000000E+00  0.00000000000E+00 -0.64600805087E+03  0.29436584711E+04  0.28718981167E+04 0.  0.
        2    1    3    3  502    0 -0.90244843133E+02  0.54310420863E+03 -0.16823561707E+04  0.17701493153E+04  0.25500000920E-02 0.  1.
       -2    1    3    3    0  502  0.90244843133E+02 -0.54310420863E+03  0.10363481199E+04  0.11735091558E+04  0.25500000920E-02 0. -1.
</event>
<event>
 5   0  0.5261878E-06  0.2903091E+04  0.7818609E-02  0.8271958E-01
        1   -1    0    0  501    0  0.00000000000E+00  0.00000000000E+00  0.17105622133E+04  0.17105622133E+04  0.50400001928E-02 0.  1.
       -1   -1    0    0    0  501  0.00000000000E+00  0.00000000000E+00 -0.12317498051E+04  0.12317498051E+04  0.50400001928E-02 0. -1.
    10030    2    1    2    0    0  0.00000000000E+00  0.00000000000E+00  0.47881240814E+03  0.29423120184E+04  0.29030912303E+04 0.  0.
        5    1    3    3  502    0 -0.12090097100E+04 -0.62216382338E+03 -0.27556289004E+03  0.13873533430E+04  0.46999998093E+01 0. -1.
       -5    1    3    3    0  502  0.12090097100E+04  0.62216382338E+03  0.75437529818E+03  0.15549586755E+04  0.46999998093E+01 0.  1.
</event>
<event>
 5   0  0.5002240E-06  0.2814303E+04  0.7818609E-02  0.8298841E-01
        1   -1    0    0  501    0  0.00000000000E+00  0.00000000000E+00  0.17747916240E+04  0.17747916240E+04  0.50400001928E-02 0. -1.
       -1   -1    0    0    0  501  0.00000000000E+00  0.00000000000E+00 -0.11156666173E+04  0.11156666173E+04  0.50400001928E-02 0.  1.
    10030    2    1    2    0    0  0.00000000000E+00  0.00000000000E+00  0.65912500673E+03  0.28904582414E+04  0.28143033011E+04 0.  0.
        4    1    3    3  502    0  0.29291340753E+02 -0.13706185100E+04  0.37706131054E+01  0.13709372389E+04  0.12699999809E+01 0. -1.
       -4    1    3    3    0  502 -0.29291340753E+02  0.13706185100E+04  0.65535439362E+03  0.15195210024E+04  0.12699999809E+01 0.  1.
</event>
<event>
 5   0  0.5261878E-06  0.2887939E+04  0.7818609E-02  0.8276475E-01
       -1   -1    0    0    0  501  0.00000000000E+00  0.00000000000E+00  0.14416552538E+04  0.14416552538E+04  0.50400001928E-02 0.  1.
        1   -1    0    0  501    0  0.00000000000E+00  0.00000000000E+00 -0.14462872896E+04  0.14462872896E+04  0.50400001928E-02 0. -1.
    10030    2    1    2    0    0  0.00000000000E+00  0.00000000000E+00 -0.46320358241E+01  0.28879425434E+04  0.28879388287E+04 0.  0.
        5    1    3    3  502    0  0.13664961580E+04  0.12906945448E+03  0.44607602370E+03  0.14432520857E+04  0.46999998093E+01 0.  1.
       -5    1    3    3    0  502 -0.13664961580E+04 -0.12906945448E+03 -0.45070805952E+03  0.14446904578E+04  0.46999998093E+01 0. -1.
</event>
<event>
 5   0  0.1382803E-05  0.2845960E+04  0.7818609E-02  0.8289140E-01
        2   -1    0    0  501    0  0.00000000000E+00  0.00000000000E+00  0.32648329987E+04  0.32648329987E+04  0.25500000920E-02 0.  1.
       -2   -1    0    0    0  501  0.00000000000E+00  0.00000000000E+00 -0.62020702052E+03  0.62020702052E+03  0.25500000920E-02 0. -1.
    10030    2    1    2    0    0  0.00000000000E+00  0.00000000000E+00  0.26446259782E+04  0.38850400192E+04  0.28459601871E+04 0.  0.
        2    1    3    3  502    0 -0.93352198382E+03 -0.98035902764E+03  0.19209481525E+04  0.23500231748E+04  0.25500000920E-02 0. -1.
       -2    1    3    3    0  502  0.93352198382E+03  0.98035902764E+03  0.72367782568E+03  0.15350168445E+04  0.25500000920E-02 0.  1.
</event>
<event>
 5   0  0.1382803E-05  0.2925930E+04  0.7818609E-02  0.8265204E-01
       -2   -1    0    0    0  501  0.00000000000E+00  0.00000000000E+00  0.17960861396E+04  0.17960861396E+04  0.25500000920E-02 0. -1.
        2   -1    0    0  501    0  0.00000000000E+00  0.00000000000E+00 -0.11916282223E+04  0.11916282223E+04  0.25500000920E-02 0.  1.
    10030    2    1    2    0    0  0.00000000000E+00  0.00000000000E+00  0.60445791725E+03  0.29877143619E+04  0.29259302341E+04 0.  0.
        2    1    3    3  502    0  0.80646118150E+03  0.11787472347E+04 -0.21389534467E+02  0.14283844695E+04  0.25500000920E-02 0. -1.
       -2    1    3    3    0  502 -0.80646118150E+03 -0.11787472347E+04  0.62584745172E+03  0.15593298924E+04  0.25500000920E-02 0.  1.
</event>
<event>
 5   0  0.5059249E-06  0.2925060E+04  0.7818609E-02  0.8265460E-01
        1   -1    0    0  501    0  0.00000000000E+00  0.00000000000E+00  0.26259560559E+04  0.26259560559E+04  0.50400001928E-02 0.  1.
       -1   -1    0    0    0  501  0.00000000000E+00  0.00000000000E+00 -0.81455805142E+03  0.81455805144E+03  0.50400001928E-02 0. -1.
    10030    2    1    2    0    0  0.00000000000E+00  0.00000000000E+00  0.18113980045E+04  0.34405141074E+04  0.29250597588E+04 0.  0.
        1    1    3    3  502    0 -0.44278863979E+03  0.45244252629E+03 -0.64505147749E+03  0.90380165289E+03  0.50400001928E-02 0. -1.
       -1    1    3    3    0  502  0.44278863979E+03 -0.45244252629E+03  0.24564494820E+04  0.25367124545E+04  0.50400001928E-02 0.  1.
</event>
<event>
 5   0  0.1385669E-05  0.2783331E+04  0.7818609E-02  0.8308462E-01
       -2   -1    0    0    0  501  0.00000000000E+00  0.00000000000E+00  0.11768130271E+04  0.11768130271E+04  0.25500000920E-02 0. -1.
        2   -1    0    0  501    0  0.00000000000E+00  0.00000000000E+00 -0.16457433214E+04  0.16457433214E+04  0.25500000920E-02 0.  1.
    10030    2    1    2    0    0  0.00000000000E+00  0.00000000000E+00 -0.46893029432E+03  0.28225563485E+04  0.27833305085E+04 0.  0.
        3    1    3    3  502    0 -0.12361572371E+04 -0.59757270879E+03 -0.46472082114E+03  0.14495321000E+04  0.10100000352E+00 0.  1.
       -3    1    3    3    0  502  0.12361572371E+04  0.59757270879E+03 -0.42094731799E+01  0.13730242485E+04  0.10100000352E+00 0. -1.
</event>
<event>
 5   0  0.1385669E-05  0.2846779E+04  0.7818609E-02  0.8288891E-01
       -2   -1    0    0    0  501  0.00000000000E+00  0.00000000000E+00  0.16365687480E+04  0.16365687480E+04  0.25500000920E-02 0.  1.
        2   -1    0    0  501    0  0.00000000000E+00  0.00000000000E+00 -0.12379788431E+04  0.12379788431E+04  0.25500000920E-02 0. -1.
    10030    2    1    2    0    0  0.00000000000E+00  0.00000000000E+00  0.39858990493E+03  0.28745475911E+04  0.28467788711E+04 0.  0.
        3    1    3    3  502    0 -0.71977595807E+03  0.12277863954E+04  0.17670233147E+03  0.14341410623E+04  0.10100000352E+00 0.  1.
       -3    1    3    3    0  502  0.71977595807E+03 -0.12277863954E+04  0.22188757346E+03  0.14404065287E+04  0.10100000352E+00 0. -1.
</event>
<event>
 5   0  0.1307832E-05  0.3045094E+04  0.7818609E-02  0.8230970E-01
       -2   -1    0    0    0  501  0.00000000000E+00  0.00000000000E+00  0.14917082975E+04  0.14917082976E+04  0.25500000920E-02 0.  1.
        2   -1    0    0  501    0  0.00000000000E+00  0.00000000000E+00 -0.15540235505E+04  0.15540235505E+04  0.25500000920E-02 0. -1.
    10030    2    1    2    0    0  0.00000000000E+00  0.00000000000E+00 -0.62315252918E+02  0.30457318480E+04  0.30450943006E+04 0.  0.
        4    1    3    3  502    0  0.10500776018E+04  0.38443503462E+03 -0.10646672185E+04  0.15440113875E+04  0.12699999809E+01 0. -1.
       -4    1    3    3    0  502 -0.10500776018E+04 -0.38443503462E+03  0.10023519656E+04  0.15017204605E+04  0.12699999809E+01 0.  1.
</event>
<event>
 5   0  0.5002240E-06  0.2882106E+04  0.7818609E-02  0.8278221E-01
       -1   -1    0    0    0  501  0.00000000000E+00  0.00000000000E+00  0.13350222629E+04  0.13350222630E+04  0.50400001928E-02 0.  1.
        1   -1    0    0  501    0  0.00000000000E+00  0.00000000000E+00 -0.15555050933E+04  0.15555050933E+04  0.50400001928E-02 0. -1.
    10030    2    1    2    0    0  0.00000000000E+00  0.00000000000E+00 -0.22048283036E+03  0.28905273563E+04  0.28821061255E+04 0.  0.
        4    1    3    3  502    0  0.37888436450E+03  0.10309434999E+04  0.82534789843E+03  0.13738990604E+04  0.12699999809E+01 0.  1.
       -4    1    3    3    0  502 -0.37888436450E+03 -0.10309434999E+04 -0.10458307288E+04  0.15166282959E+04  0.12699999809E+01 0. -1.
</event>
<event>
 5   0  0.5002240E-06  0.2818960E+04  0.7818609E-02  0.8297406E-01
       -1   -1    0    0    0  501  0.00000000000E+00  0.00000000000E+00  0.12622310001E+04  0.12622310001E+04  0.50400001928E-02 0. -1.
        1   -1    0    0  501    0  0.00000000000E+00  0.00000000000E+00 -0.15739072235E+04  0.15739072236E+04  0.50400001928E-02 0.  1.
    10030    2    1    2    0    0  0.00000000000E+00  0.00000000000E+00 -0.31167622343E+03  0.28361382237E+04  0.28189604388E+04 0.  0.
        4    1    3    3  502    0 -0.20832804518E+03 -0.75865772103E+03  0.10207628355E+04  0.12887670431E+04  0.12699999809E+01 0. -1.
       -4    1    3    3    0  502  0.20832804518E+03  0.75865772103E+03 -0.13324390589E+04  0.15473711806E+04  0.12699999809E+01 0.  1.
</event>
<event>
 5   0  0.1339837E-05  0.2922940E+04  0.7818609E-02  0.8266085E-01
       -2   -1    0    0    0  501  0.00000000000E+00  0.00000000000E+00  0.10094569604E+04  0.10094569604E+04  0.25500000920E-02 0.  1.
        2   -1    0    0  501    0  0.00000000000E+00  0.00000000000E+00 -0.21158840204E+04  0.21158840204E+04  0.25500000920E-02 0. -1.
    10030    2    1    2    0    0  0.00000000000E+00  0.00000000000E+00 -0.11064270601E+04  0.31253409808E+04  0.29229395148E+04 0.  0.
        5    1    3    3  502    0 -0.11203217614E+04 -0.46274108380E+03  0.31979255268E+03  0.12536105960E+04  0.46999998093E+01 0.  1.
       -5    1    3    3    0  502  0.11203217614E+04  0.46274108380E+03 -0.14262196127E+04  0.18717303848E+04  0.46999998093E+01 0. -1.
</event>
<event>
 5   0  0.5002240E-06  0.2903959E+04  0.7818609E-02  0.8271700E-01
       -1   -1    0    0    0  501  0.00000000000E+00  0.00000000000E+00  0.12300118717E+04  0.12300118718E+04  0.50400001928E-02 0. -1.
        1   -1    0    0  501    0  0.00000000000E+00  0.00000000000E+00 -0.17140038919E+04  0.17140038919E+04  0.50400001928E-02 0.  1.
    10030    2    1    2    0    0  0.00000000000E+00  0.00000000000E+00 -0.48399202018E+03  0.29440157637E+04  0.29039594593E+04 0.  0.
        4    1    3    3  502    0  0.85496396880E+03  0.11585133486E+04 -0.43200311342E+03  0.15032447804E+04  0.12699999809E+01 0. -1.
       -4    1    3    3    0  502 -0.85496396880E+03 -0.11585133486E+04 -0.51988906766E+02  0.14407709833E+04  0.12699999809E+01 0.  1.
</event>
<event>
 5   0  0.1385669E-05  0.2660299E+04  0.7818609E-02  0.8348003E-01
       -2   -1    0    0    0  501  0.00000000000E+00  0.00000000000E+00  0.12907290765E+04  0.12907290765E+04  0.25500000920E-02 0. -1.
        2   -1    0    0  501    0  0.00000000000E+00  0.00000000000E+00 -0.13707737722E+04  0.13707737723E+04  0.25500000920E-02 0.  1.
    10030    2    1    2    0    0  0.00000000000E+00  0.00000000000E+00 -0.80044695705E+02  0.26615028488E+04  0.26602989044E+04 0.  0.
        3    1    3    3  502    0  0.22959956546E+03  0.29756830825E+03  0.12364997225E+04  0.12923600243E+04  0.10100000352E+00 0. -1.
       -3    1    3    3    0  502 -0.22959956546E+03 -0.29756830825E+03 -0.13165444182E+04  0.13691428245E+04  0.10100000352E+00 0.  1.
</event>
<event>
 5   0  0.1385669E-05  0.1873102E+04  0.7818609E-02  0.8668363E-01
        2   -1    0    0  501    0  0.00000000000E+00  0.00000000000E+00  0.11910073614E+04  0.11910073614E+04  0.25500000920E-02 0. -1.
       -2   -1    0    0    0  501  0.00000000000E+00  0.00000000000E+00 -0.73645835161E+03  0.73645835161E+03  0.25500000920E-02 0.  1.
    10030    2    1    2    0    0  0.00000000000E+00  0.00000000000E+00  0.45454900981E+03  0.19274657130E+04  0.18731015116E+04 0.  0.
        3    1    3    3  502    0 -0.60136695686E+02  0.14892880028E+03  0.11767299641E+04  0.11876403616E+04  0.10100000352E+00 0. -1.
       -3    1    3    3    0  502  0.60136695686E+02 -0.14892880028E+03 -0.72218095432E+03  0.73982535148E+03  0.10100000352E+00 0.  1.
</event>
<event>
 5   0  0.5002240E-06  0.2876920E+04  0.7818609E-02  0.8279778E-01
       -1   -1    0    0    0  501  0.00000000000E+00  0.00000000000E+00  0.11494764550E+04  0.11494764550E+04  0.50400001928E-02 0. -1.
        1   -1    0    0  501    0  0.00000000000E+00  0.00000000000E+00 -0.18000948550E+04  0.18000948550E+04  0.50400001928E-02 0.  1.
    10030    2    1    2    0    0  0.00000000000E+00  0.00000000000E+00 -0.65061840008E+03  0.29495713100E+04  0.28769196392E+04 0.  0.
        4    1    3    3  502    0 -0.84552566691E+03 -0.87057882866E+03  0.46642527496E+03  0.13001443383E+04  0.12699999809E+01 0. -1.
       -4    1    3    3    0  502  0.84552566691E+03  0.87057882866E+03 -0.11170436750E+04  0.16494269718E+04  0.12699999809E+01 0.  1.
</event>
<event>
 5   0  0.5154476E-06  0.2830226E+04  0.7818609E-02  0.8293945E-01
        1   -1    0    0  501    0  0.00000000000E+00  0.00000000000E+00  0.24400455035E+04  0.24400455035E+04  0.50400001928E-02 0. -1.
       -1   -1    0    0    0  501  0.00000000000E+00  0.00000000000E+00 -0.82069971437E+03  0.82069971438E+03  0.50400001928E-02 0.  1.
    10030    2    1    2    0    0  0.00000000000E+00  0.00000000000E+00  0.16193457891E+04  0.32607452179E+04  0.28302258905E+04 0.  0.
        3    1    3    3  502    0  0.87961695075E+03  0.97342586610E+02  0.20818826609E+04  0.22621752768E+04  0.10100000352E+00 0. -1.
       -3    1    3    3    0  502 -0.87961695075E+03 -0.97342586610E+02 -0.46253687176E+03  0.99856994105E+03  0.10100000352E+00 0.  1.
</event>
<event>
 5   0  0.5002240E-06  0.2898520E+04  0.7818609E-02  0.8273318E-01
        1   -1    0    0  501    0  0.00000000000E+00  0.00000000000E+00  0.19492348317E+04  0.19492348317E+04  0.50400001928E-02 0. -1.
       -1   -1    0    0    0  501  0.00000000000E+00  0.00000000000E+00 -0.10775277118E+04  0.10775277118E+04  0.50400001928E-02 0.  1.
    10030    2    1    2    0    0  0.00000000000E+00  0.00000000000E+00  0.87170711988E+03  0.30267625435E+04  0.28985200002E+04 0.  0.
        4    1    3    3  502    0 -0.96239861207E+03  0.99098845025E+03  0.89351818881E+03  0.16451886104E+04  0.12699999809E+01 0. -1.
       -4    1    3    3    0  502  0.96239861207E+03 -0.99098845025E+03 -0.21811068931E+02  0.13815739331E+04  0.12699999809E+01 0.  1.
</event>
<event>
 5   0  0.1339837E-05  0.2910172E+04  0.7818609E-02  0.8269857E-01
       -2   -1    0    0    0  501  0.00000000000E+00  0.00000000000E+00  0.24885723671E+04  0.24885723671E+04  0.25500000920E-02 0.  1.
        2   -1    0    0  501    0  0.00000000000E+00  0.00000000000E+00 -0.85079942895E+03  0.85079942896E+03  0.25500000920E-02 0. -1.
    10030    2    1    2    0    0  0.00000000000E+00  0.00000000000E+00  0.16377729382E+04  0.33393717961E+04  0.29101724684E+04 0.  0.
        5    1    3    3  502    0 -0.14306146296E+04 -0.40471512786E+02  0.11202130347E+04  0.18174695307E+04  0.46999998093E+01 0.  1.
       -5    1    3    3    0  502  0.14306146296E+04  0.40471512786E+02  0.51755990349E+03  0.15219022654E+04  0.46999998093E+01 0. -1.
</event>
<event>
 5   0  0.5002240E-06  0.2891212E+04  0.7818609E-02  0.8275497E-01
        1   -1    0    0  501    0  0.00000000000E+00  0.00000000000E+00  0.17943314697E+04  0.17943314697E+04  0.50400001928E-02 0. -1.
       -1   -1    0    0    0  501  0.00000000000E+00  0.00000000000E+00 -0.11646550734E+04  0.11646550734E+04  0.50400001928E-02 0.  1.
    10030    2    1    2    0    0  0.00000000000E+00  0.00000000000E+00  0.62967639625E+03  0.29589865431E+04  0.28912123752E+04 0.  0.
        4    1    3    3  502    0 -0.86637785470E+03 -0.39713522564E+03  0.14272623861E+04  0.17162186651E+04  0.12699999809E+01 0. -1.
       -4    1    3    3    0  502  0.86637785470E+03  0.39713522564E+03 -0.79758598989E+03  0.12427678781E+04  0.12699999809E+01 0.  1.
</event>
<event>
 5   0  0.4590125E-06  0.2923424E+04  0.7818609E-02  0.8265942E-01
        3   -1    0    0  501    0  0.00000000000E+00  0.00000000000E+00  0.15994259636E+04  0.15994259667E+04  0.10100000352E+00 0.  1.
       -3   -1    0    0    0  501  0.00000000000E+00  0.00000000000E+00 -0.13358557262E+04  0.13358557300E+04  0.10100000352E+00 0. -1.
    10030    2    1    2    0    0  0.00000000000E+00  0.00000000000E+00  0.26357023741E+03  0.29352816967E+04  0.29234242540E+04 0.  0.
        4    1    3    3  502    0  0.14087918122E+04  0.15238495200E+03 -0.22839705709E+03  0.14352987050E+04  0.12699999809E+01 0. -1.
       -4    1    3    3    0  502 -0.14087918122E+04 -0.15238495200E+03  0.49196729450E+03  0.14999829918E+04  0.12699999809E+01 0.  1.
</event>
<event>
 5   0  0.5352212E-06  0.1897697E+04  0.7818609E-02  0.8656004E-01
        1   -1    0    0  501    0  0.00000000000E+00  0.00000000000E+00  0.89662118250E+03  0.89662118252E+03  0.50400001928E-02 0. -1.
       -1   -1    0    0    0  501  0.00000000000E+00  0.00000000000E+00 -0.10041180248E+04  0.10041180248E+04  0.50400001928E-02 0.  1.
    10030    2    1    2    0    0  0.00000000000E+00  0.00000000000E+00 -0.10749684228E+03  0.19007392073E+04  0.18976970156E+04 0.  0.
        2    1    3    3  502    0  0.85895791951E+03  0.36435520687E+03  0.11901016018E+03  0.94059919333E+03  0.25500000920E-02 0. -1.
       -2    1    3    3    0  502 -0.85895791951E+03 -0.36435520687E+03 -0.22650700245E+03  0.96014001398E+03  0.25500000920E-02 0.  1.
</event>
<event>
 5   0  0.5261878E-06  0.2876699E+04  0.7818609E-02  0.8279844E-01
       -1   -1    0    0    0  501  0.00000000000E+00  0.00000000000E+00  0.85224363160E+03  0.85224363161E+03  0.50400001928E-02 0. -1.
        1   -1    0    0  501    0  0.00000000000E+00  0.00000000000E+00 -0.24275330600E+04  0.24275330600E+04  0.50400001928E-02 0.  1.
    10030    2    1    2    0    0  0.00000000000E+00  0.00000000000E+00 -0.15752894284E+04  0.32797766916E+04  0.28766992133E+04 0.  0.
        5    1    3    3  502    0  0.10615549333E+04  0.64185859752E+03  0.42331597862E+02  0.12412475135E+04  0.46999998093E+01 0. -1.
       -5    1    3    3    0  502 -0.10615549333E+04 -0.64185859752E+03 -0.16176210263E+04  0.20385291781E+04  0.46999998093E+01 0.  1.
</event>
<event>
 5   0  0.1382803E-05  0.2936696E+04  0.7818609E-02  0.8262042E-01
        2   -1    0    0  501    0  0.00000000000E+00  0.00000000000E+00  0.13948992374E+04  0.13948992374E+04  0.25500000920E-02 0. -1.
       -2   -1    0    0    0  501  0.00000000000E+00  0.00000000000E+00 -0.15456641871E+04  0.15456641871E+04  0.25500000920E-02 0.  1.
    10030    2    1    2    0    0  0.00000000000E+00  0.00000000000E+00 -0.15076494969E+03  0.29405634245E+04  0.29366959637E+04 0.  0.
        2    1    3    3  502    0  0.14324370280E+04 -0.30621784539E+03  0.26735103278E+02  0.14650460654E+04  0.25500000920E-02 0.  1.
       -2    1    3    3    0  502 -0.14324370280E+04  0.30621784539E+03 -0.17750005297E+03  0.14755173591E+04  0.25500000920E-02 0. -1.
</event>
<event>
 5   0  0.1307832E-05  0.2902210E+04  0.7818609E-02  0.8272220E-01
       -2   -1    0    0    0  501  0.00000000000E+00  0.00000000000E+00  0.15496122194E+04  0.15496122194E+04  0.25500000920E-02 0.  1.
        2   -1    0    0  501    0  0.00000000000E+00  0.00000000000E+00 -0.13588597850E+04  0.13588597850E+04  0.25500000920E-02 0. -1.
    10030    2    1    2    0    0  0.00000000000E+00  0.00000000000E+00  0.19075243445E+03  0.29084720044E+04  0.29022100043E+04 0.  0.
        4    1    3    3  502    0 -0.74449255256E+03  0.31625006529E+03 -0.11119725186E+04  0.13750519116E+04  0.12699999809E+01 0. -1.
       -4    1    3    3    0  502  0.74449255256E+03 -0.31625006529E+03  0.13027249530E+04  0.15334200927E+04  0.12699999809E+01 0.  1.
</event>
<event>
 5   0  0.1385669E-05  0.2922417E+04  0.7818609E-02  0.8266239E-01
       -2   -1    0    0    0  501  0.00000000000E+00  0.00000000000E+00  0.11728079865E+04  0.11728079865E+04  0.25500000920E-02 0. -1.
        2   -1    0    0  501    0  0.00000000000E+00  0.00000000000E+00 -0.18205288664E+04  0.18205288664E+04  0.25500000920E-02 0.  1.
    10030    2    1    2    0    0  0.00000000000E+00  0.00000000000E+00 -0.64772087995E+03  0.29933368529E+04  0.29224173516E+04 0.  0.
        3    1    3    3  502    0 -0.27571017980E+03  0.73907528139E+02  0.11439731399E+04  0.11790474888E+04  0.10100000352E+00 0. -1.
       -3    1    3    3    0  502  0.27571017980E+03 -0.73907528139E+02 -0.17916940198E+04  0.18142893641E+04  0.10100000352E+00 0.  1.
</event>
<event>
 5   0  0.5002240E-06  0.2928292E+04  0.7818609E-02  0.8264509E-01
       -1   -1    0    0    0  501  0.00000000000E+00  0.00000000000E+00  0.12864830593E+04  0.12864830594E+04  0.50400001928E-02 0. -1.
        1   -1    0    0  501    0  0.00000000000E+00  0.00000000000E+00 -0.16663440252E+04  0.16663440252E+04  0.50400001928E-02 0.  1.
    10030    2    1    2    0    0  0.00000000000E+00  0.00000000000E+00 -0.37986096584E+03  0.29528270845E+04  0.29282918976E+04 0.  0.
        4    1    3    3  502    0  0.66394545915E+03  0.12354777579E+04 -0.61356101115E+03  0.15309107062E+04  0.12699999809E+01 0.  1.
       -4    1    3    3    0  502 -0.66394545915E+03 -0.12354777579E+04  0.23370004531E+03  0.14219163784E+04  0.12699999809E+01 0. -1.
</event>
<event>
 5   0  0.5154476E-06  0.2823008E+04  0.7818609E-02  0.8296161E-01
        1   -1    0    0  501    0  0.00000000000E+00  0.00000000000E+00  0.27614764544E+04  0.27614764544E+04  0.50400001928E-02 0. -1.
       -1   -1    0    0    0  501  0.00000000000E+00  0.00000000000E+00 -0.72147777564E+03  0.72147777566E+03  0.50400001928E-02 0.  1.
    10030    2    1    2    0    0  0.00000000000E+00  0.00000000000E+00  0.20399986787E+04  0.34829542300E+04  0.28230082464E+04 0.  0.
        3    1    3    3  502    0  0.30953354708E+03 -0.85757694891E+03 -0.30944276973E+03  0.96281050992E+03  0.10100000352E+00 0.  1.
       -3    1    3    3    0  502 -0.30953354708E+03  0.85757694891E+03  0.23494414484E+04  0.25201437201E+04  0.10100000352E+00 0. -1.
</event>
<event>
 5   0  0.5261878E-06  0.2855152E+04  0.7818609E-02  0.8286348E-01
       -1   -1    0    0    0  501  0.00000000000E+00  0.00000000000E+00  0.25993374405E+04  0.25993374405E+04  0.50400001928E-02 0.  1.
        1   -1    0    0  501    0  0.00000000000E+00  0.00000000000E+00 -0.78403538667E+03  0.78403538669E+03  0.50400001928E-02 0. -1.
    10030    2    1    2    0    0  0.00000000000E+00  0.00000000000E+00  0.18153020538E+04  0.33833728272E+04  0.28551515093E+04 0.  0.
        5    1    3    3  502    0  0.11747088692E+04 -0.73100465653E+03  0.13243315486E+04  0.19152506040E+04  0.46999998093E+01 0.  1.
       -5    1    3    3    0  502 -0.11747088692E+04  0.73100465653E+03  0.49097050516E+03  0.14681222232E+04  0.46999998093E+01 0. -1.
</event>
<event>
 5   0  0.5261878E-06  0.2983895E+04  0.7818609E-02  0.8248345E-01
       -1   -1    0    0    0  501  0.00000000000E+00  0.00000000000E+00  0.10043857625E+04  0.10043857625E+04  0.50400001928E-02 0.  1.
        1   -1    0    0  501    0  0.00000000000E+00  0.00000000000E+00 -0.22161873445E+04  0.22161873445E+04  0.50400001928E-02 0. -1.
    10030    2    1    2    0    0  0.00000000000E+00  0.00000000000E+00 -0.12118015819E+04  0.32205731070E+04  0.29838947809E+04 0.  0.
        5    1    3    3  502    0 -0.69555971889E+03  0.12981775116E+04 -0.86317002749E+03  0.17070889727E+04  0.46999998093E+01 0. -1.
       -5    1    3    3    0  502  0.69555971889E+03 -0.12981775116E+04 -0.34863155445E+03  0.15134841344E+04  0.46999998093E+01 0.  1.
</event>
<event>
 5   0  0.1382803E-05  0.2910617E+04  0.7818609E-02  0.8269726E-01
       -2   -1    0    0    0  501  0.00000000000E+00  0.00000000000E+00  0.88417754713E+03  0.88417754713E+03  0.25500000920E-02 0.  1.
        2   -1    0    0  501    0  0.00000000000E+00  0.00000000000E+00 -0.23953588253E+04  0.23953588253E+04  0.25500000920E-02 0. -1.
    10030    2    1    2    0    0  0.00000000000E+00  0.00000000000E+00 -0.15111812781E+04  0.32795363724E+04  0.29106167667E+04 0.  0.
        2    1    3    3  502    0  0.49050859379E+03  0.79308370562E+03 -0.20144993085E+04  0.22198621373E+04  0.25500000920E-02 0. -1.
       -2    1    3    3    0  502 -0.49050859379E+03 -0.79308370562E+03  0.50331803040E+03  0.10596742351E+04  0.25500000920E-02 0.  1.
</event>
<event>
 5   0  0.1382803E-05  0.2916394E+04  0.7818609E-02  0.8268016E-01
        2   -1    0    0  501    0  0.00000000000E+00  0.00000000000E+00  0.16168147768E+04  0.16168147768E+04  0.25500000920E-02 0. -1.
       -2   -1    0    0    0  501  0.00000000000E+00  0.00000000000E+00 -0.13151403593E+04  0.13151403593E+04  0.25500000920E-02 0.  1.
    10030    2    1    2    0    0  0.00000000000E+00  0.00000000000E+00  0.30167441752E+03  0.29319551360E+04  0.29163939147E+04 0.  0.
        2    1    3    3  502    0  0.10066215980E+04 -0.99648163491E+03  0.49920553160E+03  0.15018218446E+04  0.25500000920E-02 0.  1.
       -2    1    3    3    0  502 -0.10066215980E+04  0.99648163491E+03 -0.19753111408E+03  0.14301332914E+04  0.25500000920E-02 0. -1.
</event>
<event>
 5   0  0.5154476E-06  0.2904207E+04  0.7818609E-02  0.8271627E-01
       -1   -1    0    0    0  501  0.00000000000E+00  0.00000000000E+00  0.82788336095E+03  0.82788336096E+03  0.50400001928E-02 0.  1.
        1   -1    0    0  501    0  0.00000000000E+00  0.00000000000E+00 -0.25469829633E+04  0.25469829634E+04  0.50400001928E-02 0. -1.
    10030    2    1    2    0    0  0.00000000000E+00  0.00000000000E+00 -0.17190996024E+04  0.33748663243E+04  0.29042071662E+04 0.  0.
        3    1    3    3  502    0 -0.55784004727E+02  0.46819789785E+03 -0.24555483285E+04  0.25004077129E+04  0.10100000352E+00 0. -1.
       -3    1    3    3    0  502  0.55784004727E+02 -0.46819789785E+03  0.73644872611E+03  0.87445861144E+03  0.10100000352E+00 0.  1.
</event>
<event>
 5   0  0.5059249E-06  0.2965390E+04  0.7818609E-02  0.8253684E-01
        1   -1    0    0  501    0  0.00000000000E+00  0.00000000000E+00  0.23512179460E+04  0.23512179461E+04  0.50400001928E-02 0.  1.
       -1   -1    0    0    0  501  0.00000000000E+00  0.00000000000E+00 -0.93499792235E+03  0.93499792236E+03  0.50400001928E-02 0. -1.
    10030    2    1    2    0    0  0.00000000000E+00  0.00000000000E+00  0.14162200237E+04  0.32862158684E+04  0.29653896166E+04 0.  0.
        1    1    3    3  502    0  0.78492389974E+03  0.49731771768E+03 -0.57229506525E+03  0.10913075105E+04  0.50400001928E-02 0. -1.
       -1    1    3    3    0  502 -0.78492389974E+03 -0.49731771768E+03  0.19885150890E+04  0.21949083579E+04  0.50400001928E-02 0.  1.
</event>
<event>
 5   0  0.1336899E-05  0.2794900E+04  0.7818609E-02  0.8304854E-01
       -2   -1    0    0    0  501  0.00000000000E+00  0.00000000000E+00  0.11446300369E+04  0.11446300369E+04  0.25500000920E-02 0. -1.
        2   -1    0    0  501    0  0.00000000000E+00  0.00000000000E+00 -0.17061110709E+04  0.17061110709E+04  0.25500000920E-02 0.  1.
    10030    2    1    2    0    0  0.00000000000E+00  0.00000000000E+00 -0.56148103405E+03  0.28507411078E+04  0.27948996247E+04 0.  0.
        1    1    3    3  502    0  0.12027601946E+03  0.39685348558E+03 -0.16419099240E+04  0.16934660341E+04  0.50400001928E-02 0.  1.
       -1    1    3    3    0  502 -0.12027601946E+03 -0.39685348558E+03  0.10804288900E+04  0.11572750737E+04  0.50400001928E-02 0. -1.
</event>
<event>
 5   0  0.1339837E-05  0.2014771E+04  0.7818609E-02  0.8599746E-01
       -2   -1    0    0    0  501  0.00000000000E+00  0.00000000000E+00  0.93899729741E+03  0.93899729741E+03  0.25500000920E-02 0.  1.
        2   -1    0    0  501    0  0.00000000000E+00  0.00000000000E+00 -0.10807545757E+04  0.10807545757E+04  0.25500000920E-02 0. -1.
    10030    2    1    2    0    0  0.00000000000E+00  0.00000000000E+00 -0.14175727825E+03  0.20197518731E+04  0.20147710795E+04 0.  0.
        5    1    3    3  502    0  0.12398955505E+03 -0.10912085034E+03 -0.10670771071E+04  0.10797946158E+04  0.46999998093E+01 0. -1.
       -5    1    3    3    0  502 -0.12398955505E+03  0.10912085034E+03  0.92531982889E+03  0.93995725726E+03  0.46999998093E+01 0.  1.
</event>
<event>
 5   0  0.5352212E-06  0.2861650E+04  0.7818609E-02  0.8284380E-01
       -1   -1    0    0    0  501  0.00000000000E+00  0.00000000000E+00  0.76178273766E+03  0.76178273768E+03  0.50400001928E-02 0.  1.
        1   -1    0    0  501    0  0.00000000000E+00  0.00000000000E+00 -0.26874584636E+04  0.26874584636E+04  0.50400001928E-02 0. -1.
    10030    2    1    2    0    0  0.00000000000E+00  0.00000000000E+00 -0.19256757259E+04  0.34492412013E+04  0.28616495004E+04 0.  0.
        2    1    3    3  502    0  0.41353158723E+03  0.58405967278E+03  0.53057212995E+03  0.89086523116E+03  0.25500000920E-02 0.  1.
       -2    1    3    3    0  502 -0.41353158723E+03 -0.58405967278E+03 -0.24562478559E+04  0.25583759701E+04  0.25500000920E-02 0. -1.
</event>
<event>
 5   0  0.5352212E-06  0.3091196E+04  0.7818609E-02  0.8218158E-01
       -1   -1    0    0    0  501  0.00000000000E+00  0.00000000000E+00  0.11872418949E+04  0.11872418949E+04  0.50400001928E-02 0.  1.
        1   -1    0    0  501    0  0.00000000000E+00  0.00000000000E+00 -0.20121204146E+04  0.20121204146E+04  0.50400001928E-02 0. -1.
    10030    2    1    2    0    0  0.00000000000E+00  0.00000000000E+00 -0.82487851966E+03  0.31993623095E+04  0.30911963081E+04 0.  0.
        2    1    3    3  502    0  0.50041970527E+03  0.62940186485E+03  0.95371325849E+03  0.12474516297E+04  0.25500000920E-02 0.  1.
       -2    1    3    3    0  502 -0.50041970527E+03 -0.62940186485E+03 -0.17785917781E+04  0.19519106799E+04  0.25500000920E-02 0. -1.
</event>
<event>
 5   0  0.5154476E-06  0.2943033E+04  0.7818609E-02  0.8260188E-01
        1   -1    0    0  501    0  0.00000000000E+00  0.00000000000E+00  0.14722996930E+04  0.14722996930E+04  0.50400001928E-02 0. -1.
       -1   -1    0    0    0  501  0.00000000000E+00  0.00000000000E+00 -0.14707335638E+04  0.14707335638E+04  0.50400001928E-02 0.  1.
    10030    2    1    2    0    0  0.00000000000E+00  0.00000000000E+00  0.15661291611E+01  0.29430332569E+04  0.29430328402E+04 0.  0.
        3    1    3    3  502    0 -0.33283341599E+03  0.69308758766E+03 -0.12538931977E+04  0.14708489550E+04  0.10100000352E+00 0.  1.
       -3    1    3    3    0  502  0.33283341599E+03 -0.69308758766E+03  0.12554593269E+04  0.14721843018E+04  0.10100000352E+00 0. -1.
</event>
<event>
 5   0  0.1385669E-05  0.2507674E+04  0.7818609E-02  0.8400257E-01
        2   -1    0    0  501    0  0.00000000000E+00  0.00000000000E+00  0.12243441825E+04  0.12243441825E+04  0.25500000920E-02 0. -1.
       -2   -1    0    0    0  501  0.00000000000E+00  0.00000000000E+00 -0.12840406300E+04  0.12840406300E+04  0.25500000920E-02 0.  1.
    10030    2    1    2    0    0  0.00000000000E+00  0.00000000000E+00 -0.59696447486E+02  0.25083848125E+04  0.25076743612E+04 0.  0.
        3    1    3    3  502    0  0.10080523960E+04  0.54759639172E+03  0.47633488822E+03  0.12421458760E+04  0.10100000352E+00 0.  1.
       -3    1    3    3    0  502 -0.10080523960E+04 -0.54759639172E+03 -0.53603133571E+03  0.12662389365E+04  0.10100000352E+00 0. -1.
</event>
<event>
 5   0  0.5261878E-06  0.2918780E+04  0.7818609E-02  0.8267312E-01
       -1   -1    0    0    0  501  0.00000000000E+00  0.00000000000E+00  0.14758683128E+04  0.14758683128E+04  0.50400001928E-02 0. -1.
        1   -1    0    0  501    0  0.00000000000E+00  0.00000000000E+00 -0.14430952122E+04  0.14430952122E+04  0.50400001928E-02 0.  1.
    10030    2    1    2    0    0  0.00000000000E+00  0.00000000000E+00  0.32773100573E+02  0.29189635250E+04  0.29187795367E+04 0.  0.
        5    1    3    3  502    0  0.56824536745E+03 -0.78819573902E+03  0.11053266617E+04  0.14717080008E+04  0.46999998093E+01 0. -1.
       -5    1    3    3    0  502 -0.56824536745E+03  0.78819573902E+03 -0.10725535611E+04  0.14472555241E+04  0.46999998093E+01 0.  1.
</event>
<event>
 5   0  0.5352212E-06  0.2908450E+04  0.7818609E-02  0.8270368E-01
       -1   -1    0    0    0  501  0.00000000000E+00  0.00000000000E+00  0.17546799320E+04  0.17546799320E+04  0.50400001928E-02 0.  1.
        1   -1    0    0  501    0  0.00000000000E+00  0.00000000000E+00 -0.12052172776E+04  0.12052172776E+04  0.50400001928E-02 0. -1.
    10030    2    1    2    0    0  0.00000000000E+00  0.00000000000E+00  0.54946265435E+03  0.29598972096E+04  0.29084501514E+04 0.  0.
        2    1    3    3  502    0 -0.11417278552E+04  0.23070314878E+02 -0.64158194221E+03  0.13098481298E+04  0.25500000920E-02 0. -1.
       -2    1    3    3    0  502  0.11417278552E+04 -0.23070314878E+02  0.11910445966E+04  0.16500490798E+04  0.25500000920E-02 0.  1.
</event>
<event>
 5   0  0.1336899E-05  0.2779992E+04  0.7818609E-02  0.8309507E-01
        2   -1    0    0  501    0  0.00000000000E+00  0.00000000000E+00  0.20166144685E+04  0.20166144685E+04  0.25500000920E-02 0. -1.
       -2   -1    0    0    0  501  0.00000000000E+00  0.00000000000E+00 -0.95808541119E+03  0.95808541119E+03  0.25500000920E-02 0.  1.
    10030    2    1    2    0    0  0.00000000000E+00  0.00000000000E+00  0.10585290573E+04  0.29746998797E+04  0.27799920160E+04 0.  0.
        1    1    3    3  502    0  0.11535356804E+04  0.65855040356E+03  0.90998051614E+02  0.13313954505E+04  0.50400001928E-02 0.  1.
       -1    1    3    3    0  502 -0.11535356804E+04 -0.65855040356E+03  0.96753100568E+03  0.16433044292E+04  0.50400001928E-02 0. -1.
</event>
<event>
 5   0  0.1339837E-05  0.2917008E+04  0.7818609E-02  0.8267835E-01
        2   -1    0    0  501    0  0.00000000000E+00  0.00000000000E+00  0.15750698003E+04  0.15750698003E+04  0.25500000920E-02 0.  1.
       -2   -1    0    0    0  501  0.00000000000E+00  0.00000000000E+00 -0.13505646577E+04  0.13505646577E+04  0.25500000920E-02 0. -1.
    10030    2    1    2    0    0  0.00000000000E+00  0.00000000000E+00  0.22450514259E+03  0.29256344580E+04  0.29170077858E+04 0.  0.
        5    1    3    3  502    0  0.11412745564E+04 -0.48058648272E+03  0.88507696876E+03  0.15221216479E+04  0.46999998093E+01 0.  1.
       -5    1    3    3    0  502 -0.11412745564E+04  0.48058648272E+03 -0.66057182617E+03  0.14035128100E+04  0.46999998093E+01 0. -1.
</event>
<event>
 5   0  0.1339837E-05  0.2968419E+04  0.7818609E-02  0.8252807E-01
        2   -1    0    0  501    0  0.00000000000E+00  0.00000000000E+00  0.15504021538E+04  0.15504021538E+04  0.25500000920E-02 0.  1.
       -2   -1    0    0    0  501  0.00000000000E+00  0.00000000000E+00 -0.14208431973E+04  0.14208431973E+04  0.25500000920E-02 0. -1.
    10030    2    1    2    0    0  0.00000000000E+00  0.00000000000E+00  0.12955895650E+03  0.29712453511E+04  0.29684193460E+04 0.  0.
        5    1    3    3  502    0 -0.18153742974E+03 -0.14724832929E+04  0.23589636724E+02  0.14838266230E+04  0.46999998093E+01 0.  1.
       -5    1    3    3    0  502  0.18153742974E+03  0.14724832929E+04  0.10596931977E+03  0.14874187282E+04  0.46999998093E+01 0. -1.
</event>
<event>
 5   0  0.1339837E-05  0.2691840E+04  0.7818609E-02  0.8337658E-01
       -2   -1    0    0    0  501  0.00000000000E+00  0.00000000000E+00  0.76058443527E+03  0.76058443528E+03  0.25500000920E-02 0. -1.
        2   -1    0    0  501    0  0.00000000000E+00  0.00000000000E+00 -0.23817213295E+04  0.23817213295E+04  0.25500000920E-02 0.  1.
    10030    2    1    2    0    0  0.00000000000E+00  0.00000000000E+00 -0.16211368942E+04  0.31423057647E+04  0.26918396478E+04 0.  0.
        5    1    3    3  502    0 -0.10804616631E+03  0.11494900354E+04 -0.16180445607E+04  0.19877352957E+04  0.46999998093E+01 0.  1.
       -5    1    3    3    0  502  0.10804616631E+03 -0.11494900354E+04 -0.30923335249E+01  0.11545704690E+04  0.46999998093E+01 0. -1.
</event>
<event>
 5   0  0.1382803E-05  0.2658779E+04  0.7818609E-02  0.8348505E-01
        2   -1    0    0  501    0  0.00000000000E+00  0.00000000000E+00  0.18913163505E+04  0.18913163505E+04  0.25500000920E-02 0.  1.
       -2   -1    0    0    0  501  0.00000000000E+00  0.00000000000E+00 -0.93441582457E+03  0.93441582457E+03  0.25500000920E-02 0. -1.
    10030    2    1    2    0    0  0.00000000000E+00  0.00000000000E+00  0.95690052590E+03  0.28257321750E+04  0.26587786122E+04 0.  0.
        2    1    3    3  502    0  0.35762094821E+03  0.81036925912E+03  0.15320022005E+04  0.17696388956E+04  0.25500000920E-02 0.  1.
       -2    1    3    3    0  502 -0.35762094821E+03 -0.81036925912E+03 -0.57510167456E+03  0.10560932794E+04  0.25500000920E-02 0. -1.
</event>
<event>
 5   0  0.1307832E-05  0.2748599E+04  0.7818609E-02  0.8319406E-01
        2   -1    0    0  501    0  0.00000000000E+00  0.00000000000E+00  0.95822788323E+03  0.95822788323E+03  0.25500000920E-02 0.  1.
       -2   -1    0    0    0  501  0.00000000000E+00  0.00000000000E+00 -0.19710331223E+04  0.19710331223E+04  0.25500000920E-02 0. -1.
    10030    2    1    2    0    0  0.00000000000E+00  0.00000000000E+00 -0.10128052390E+04  0.29292610055E+04  0.27485988405E+04 0.  0.
        4    1    3    3  502    0 -0.13370590800E+03 -0.40089170623E+03  0.88726178568E+03  0.98276473237E+03  0.12699999809E+01 0.  1.
       -4    1    3    3    0  502  0.13370590800E+03  0.40089170623E+03 -0.19000670247E+04  0.19464962731E+04  0.12699999809E+01 0. -1.
</event>
<event>
 5   0  0.1385669E-05  0.2691926E+04  0.7818609E-02  0.8337630E-01
       -2   -1    0    0    0  501  0.00000000000E+00  0.00000000000E+00  0.93436486987E+03  0.93436486988E+03  0.25500000920E-02 0.  1.
        2   -1    0    0  501    0  0.00000000000E+00  0.00000000000E+00 -0.19388743489E+04  0.19388743489E+04  0.25500000920E-02 0. -1.
    10030    2    1    2    0    0  0.00000000000E+00  0.00000000000E+00 -0.10045094790E+04  0.28732392188E+04  0.26919257633E+04 0.  0.
        3    1    3    3  502    0  0.39371684986E+03 -0.95767989788E+03  0.41557853002E+03  0.11157370969E+04  0.10100000352E+00 0.  1.
       -3    1    3    3    0  502 -0.39371684986E+03  0.95767989788E+03 -0.14200880091E+04  0.17575021219E+04  0.10100000352E+00 0. -1.
</event>
<event>
 5   0  0.1339837E-05  0.2897647E+04  0.7818609E-02  0.8273578E-01
        2   -1    0    0  501    0  0.00000000000E+00  0.00000000000E+00  0.18819788784E+04  0.18819788784E+04  0.25500000920E-02 0.  1.
       -2   -1    0    0    0  501  0.00000000000E+00  0.00000000000E+00 -0.11153629390E+04  0.11153629390E+04  0.25500000920E-02 0. -1.
    10030    2    1    2    0    0  0.00000000000E+00  0.00000000000E+00  0.76661593944E+03  0.29973418174E+04  0.28976469716E+04 0.  0.
        5    1    3    3  502    0  0.10463637666E+02 -0.20783999823E+03 -0.10998146313E+04  0.11193396561E+04  0.46999998093E+01 0. -1.
       -5    1    3    3    0  502 -0.10463637666E+02  0.20783999823E+03  0.18664305707E+04  0.18780021613E+04  0.46999998093E+01 0.  1.
</event>
<event>
 5   0  0.1307832E-05  0.3010797E+04  0.7818609E-02  0.8240655E-01
       -2   -1    0    0    0  501  0.00000000000E+00  0.00000000000E+00  0.88644769266E+03  0.88644769266E+03  0.25500000920E-02 0. -1.
        2   -1    0    0  501    0  0.00000000000E+00  0.00000000000E+00 -0.25565232876E+04  0.25565232876E+04  0.25500000920E-02 0.  1.
    10030    2    1    2    0    0  0.00000000000E+00  0.00000000000E+00 -0.16700755950E+04  0.34429709803E+04  0.30107966850E+04 0.  0.
        4    1    3    3  502    0 -0.96618089234E+02  0.90536047396E+03 -0.22059575539E+04  0.23864750126E+04  0.12699999809E+01 0.  1.
       -4    1    3    3    0  502  0.96618089234E+02 -0.90536047396E+03  0.53588195896E+03  0.10564959677E+04  0.12699999809E+01 0. -1.
</event>
<event>
 5   0  0.5261878E-06  0.2759207E+04  0.7818609E-02  0.8316046E-01
       -1   -1    0    0    0  501  0.00000000000E+00  0.00000000000E+00  0.12949021793E+04  0.12949021793E+04  0.50400001928E-02 0.  1.
        1   -1    0    0  501    0  0.00000000000E+00  0.00000000000E+00 -0.14698448144E+04  0.14698448144E+04  0.50400001928E-02 0. -1.
    10030    2    1    2    0    0  0.00000000000E+00  0.00000000000E+00 -0.17494263508E+03  0.27647469937E+04  0.27592065913E+04 0.  0.
        5    1    3    3  502    0  0.32821624064E+03  0.98836153342E+03  0.81916526178E+03  0.13250049953E+04  0.46999998093E+01 0.  1.
       -5    1    3    3    0  502 -0.32821624064E+03 -0.98836153342E+03 -0.99410789686E+03  0.14397419984E+04  0.46999998093E+01 0. -1.
</event>
<event>
 5   0  0.1336899E-05  0.2987178E+04  0.7818609E-02  0.8247402E-01
       -2   -1    0    0    0  501  0.00000000000E+00  0.00000000000E+00  0.11634844158E+04  0.11634844158E+04  0.25500000920E-02 0. -1.
        2   -1    0    0  501    0  0.00000000000E+00  0.00000000000E+00 -0.19173507209E+04  0.19173507209E+04  0.25500000920E-02 0.  1.
    10030    2    1    2    0    0  0.00000000000E+00  0.00000000000E+00 -0.75386630513E+03  0.30808351367E+04  0.29871777204E+04 0.  0.
        1    1    3    3  502    0  0.48423992274E+03  0.23452662240E+03 -0.18139292420E+04  0.18920439567E+04  0.50400001928E-02 0.  1.
       -1    1    3    3    0  502 -0.48423992274E+03 -0.23452662240E+03  0.10600629368E+04  0.11887911799E+04  0.50400001928E-02 0. -1.
</event>
<event>
 5   0  0.5352212E-06  0.2768627E+04  0.7818609E-02  0.8313075E-01
        1   -1    0    0  501    0  0.00000000000E+00  0.00000000000E+00  0.23435983225E+04  0.23435983225E+04  0.50400001928E-02 0.  1.
       -1   -1    0    0    0  501  0.00000000000E+00  0.00000000000E+00 -0.81768433735E+03  0.81768433736E+03  0.50400001928E-02 0. -1.
    10030    2    1    2    0    0  0.00000000000E+00  0.00000000000E+00  0.15259139852E+04  0.31612826599E+04  0.27686268376E+04 0.  0.
        2    1    3    3  502    0  0.49674699819E+03  0.95315459265E+03 -0.23315698285E+03  0.10998288214E+04  0.25500000920E-02 0. -1.
       -2    1    3    3    0  502 -0.49674699819E+03 -0.95315459265E+03  0.17590709680E+04  0.20614538385E+04  0.25500000920E-02 0.  1.
</event>
<event>
 5   0  0.1385669E-05  0.2720037E+04  0.7818609E-02  0.8328533E-01
       -2   -1    0    0    0  501  0.00000000000E+00  0.00000000000E+00  0.14616596293E+04  0.14616596293E+04  0.25500000920E-02 0.  1.
        2   -1    0    0  501    0  0.00000000000E+00  0.00000000000E+00 -0.12654453133E+04  0.12654453133E+04  0.25500000920E-02 0. -1.
    10030    2    1    2    0    0  0.00000000000E+00  0.00000000000E+00  0.19621431600E+03  0.27271049426E+04  0.27200370053E+04 0.  0.
        3    1    3    3  502    0  0.23498932895E+03 -0.12373142171E+04  0.61274776104E+03  0.14005806958E+04  0.10100000352E+00 0.  1.
       -3    1    3    3    0  502 -0.23498932895E+03  0.12373142171E+04 -0.41653344504E+03  0.13265242469E+04  0.10100000352E+00 0. -1.
</event>
<event>
 5   0  0.5002240E-06  0.2882941E+04  0.7818609E-02  0.8277971E-01
       -1   -1    0    0    0  501  0.00000000000E+00  0.00000000000E+00  0.16665879524E+04  0.16665879524E+04  0.50400001928E-02 0.  1.
        1   -1    0    0  501    0  0.00000000000E+00  0.00000000000E+00 -0.12467613857E+04  0.12467613857E+04  0.50400001928E-02 0. -1.
    10030    2    1    2    0    0  0.00000000000E+00  0.00000000000E+00  0.41982656670E+03  0.29133493381E+04  0.28829412099E+04 0.  0.
        4    1    3    3  502    0 -0.18969902575E+03 -0.14210183962E+04  0.36168693490E+03  0.14785459257E+04  0.12699999809E+01 0. -1.
       -4    1    3    3    0  502  0.18969902575E+03  0.14210183962E+04  0.58139631804E+02  0.14348034124E+04  0.12699999809E+01 0.  1.
</event>
<event>
 5   0  0.5059249E-06  0.2825771E+04  0.7818609E-02  0.8295312E-01
       -1   -1    0    0    0  501  0.00000000000E+00  0.00000000000E+00  0.95084882506E+03  0.95084882507E+03  0.50400001928E-02 0.  1.
        1   -1    0    0  501    0  0.00000000000E+00  0.00000000000E+00 -0.20994358673E+04  0.20994358673E+04  0.50400001928E-02 0. -1.
    10030    2    1    2    0    0  0.00000000000E+00  0.00000000000E+00 -0.11485870422E+04  0.30502846924E+04  0.28257714895E+04 0.  0.
        1    1    3    3  502    0  0.97239039570E+03 -0.38419856614E+03 -0.16001106270E+04  0.19114145648E+04  0.50400001928E-02 0. -1.
       -1    1    3    3    0  502 -0.97239039570E+03  0.38419856614E+03  0.45152358476E+03  0.11388701276E+04  0.50400001928E-02 0.  1.
</event>
<event>
 5   0  0.5261878E-06  0.2895201E+04  0.7818609E-02  0.8274307E-01
        1   -1    0    0  501    0  0.00000000000E+00  0.00000000000E+00  0.13931194940E+04  0.13931194940E+04  0.50400001928E-02 0. -1.
       -1   -1    0    0    0  501  0.00000000000E+00  0.00000000000E+00 -0.15042122148E+04  0.15042122148E+04  0.50400001928E-02 0.  1.
    10030    2    1    2    0    0  0.00000000000E+00  0.00000000000E+00 -0.11109272087E+03  0.28973317088E+04  0.28952011050E+04 0.  0.
        5    1    3    3  502    0 -0.12024583570E+04 -0.38552407581E+03 -0.76387396391E+03  0.14758253407E+04  0.46999998093E+01 0.  1.
       -5    1    3    3    0  502  0.12024583570E+04  0.38552407581E+03  0.65278124305E+03  0.14215063681E+04  0.46999998093E+01 0. -1.
</event>
<event>
 5   0  0.1307832E-05  0.2875697E+04  0.7818609E-02  0.8280145E-01
       -2   -1    0    0    0  501  0.00000000000E+00  0.00000000000E+00  0.14858320237E+04  0.14858320237E+04  0.25500000920E-02 0. -1.
        2   -1    0    0  501    0  0.00000000000E+00  0.00000000000E+00 -0.13914141698E+04  0.13914141698E+04  0.25500000920E-02 0.  1.
    10030    2    1    2    0    0  0.00000000000E+00  0.00000000000E+00  0.94417853877E+02  0.28772461936E+04  0.28756965986E+04 0.  0.
        4    1    3    3  502    0 -0.23865685186E+03 -0.23010578416E+03  0.14470698328E+04  0.14845600287E+04  0.12699999809E+01 0. -1.
       -4    1    3    3    0  502  0.23865685186E+03  0.23010578416E+03 -0.13526519789E+04  0.13926861649E+04  0.12699999809E+01 0.  1.
</event>
<event>
 5   0  0.5352212E-06  0.2914043E+04  0.7818609E-02  0.8268712E-01
        1   -1    0    0  501    0  0.00000000000E+00  0.00000000000E+00  0.11338662499E+04  0.11338662499E+04  0.50400001928E-02 0.  1.
       -1   -1    0    0    0  501  0.00000000000E+00  0.00000000000E+00 -0.18722764850E+04  0.18722764850E+04  0.50400001928E-02 0. -1.
    10030    2    1    2    0    0  0.00000000000E+00  0.00000000000E+00 -0.73841023516E+03  0.30061427349E+04  0.29140426331E+04 0.  0.
        2    1    3    3  502    0 -0.69737526383E+03  0.82508199650E+02  0.94776834259E+03  0.11795781843E+04  0.25500000920E-02 0.  1.
       -2    1    3    3    0  502  0.69737526383E+03 -0.82508199650E+02 -0.16861785777E+04  0.18265645506E+04  0.25500000920E-02 0. -1.
</event>
<event>
 5   0  0.1382803E-05  0.2904812E+04  0.7818609E-02  0.8271447E-01
       -2   -1    0    0    0  501  0.00000000000E+00  0.00000000000E+00  0.15348337467E+04  0.15348337467E+04  0.25500000920E-02 0. -1.
        2   -1    0    0  501    0  0.00000000000E+00  0.00000000000E+00 -0.13744053763E+04  0.13744053763E+04  0.25500000920E-02 0.  1.
    10030    2    1    2    0    0  0.00000000000E+00  0.00000000000E+00  0.16042837033E+03  0.29092391230E+04  0.29048123886E+04 0.  0.
        2    1    3    3  502    0 -0.11061666698E+04 -0.94120659514E+03  0.77176909967E+02  0.14544520727E+04  0.25500000920E-02 0.  1.
       -2    1    3    3    0  502  0.11061666698E+04  0.94120659514E+03  0.83251460363E+02  0.14547870504E+04  0.25500000920E-02 0. -1.
</event>
<event>
 5   0  0.1336899E-05  0.2781856E+04  0.7818609E-02  0.8308924E-01
       -2   -1    0    0    0  501  0.00000000000E+00  0.00000000000E+00  0.12749175218E+04  0.12749175218E+04  0.25500000920E-02 0.  1.
        2   -1    0    0  501    0  0.00000000000E+00  0.00000000000E+00 -0.15174948287E+04  0.15174948287E+04  0.25500000920E-02 0. -1.
    10030    2    1    2    0    0  0.00000000000E+00  0.00000000000E+00 -0.24257730697E+03  0.27924123505E+04  0.27818560325E+04 0.  0.
        1    1    3    3  502    0 -0.13570880465E+04 -0.16794990568E+03  0.13420738730E+03  0.13740111934E+04  0.50400001928E-02 0. -1.
       -1    1    3    3    0  502  0.13570880465E+04  0.16794990568E+03 -0.37678469426E+03  0.14184011571E+04  0.50400001928E-02 0.  1.
</event>
<event>
 5   0  0.1339837E-05  0.2953413E+04  0.7818609E-02  0.8257161E-01
       -2   -1    0    0    0  501  0.00000000000E+00  0.00000000000E+00  0.10011322827E+04  0.10011322827E+04  0.25500000920E-02 0. -1.
        2   -1    0    0  501    0  0.00000000000E+00  0.00000000000E+00 -0.21781954854E+04  0.21781954854E+04  0.25500000920E-02 0.  1.
    10030    2    1    2    0    0  0.00000000000E+00  0.00000000000E+00 -0.11770632027E+04  0.31793277681E+04  0.29534128181E+04 0.  0.
        5    1    3    3  502    0  0.85588470266E+03 -0.56004171440E+03  0.55804920200E+03  0.11651722396E+04  0.46999998093E+01 0. -1.
       -5    1    3    3    0  502 -0.85588470266E+03  0.56004171440E+03 -0.17351124047E+04  0.20141555285E+04  0.46999998093E+01 0.  1.
</event>
<event>
 5   0  0.5352212E-06  0.2887215E+04  0.7818609E-02  0.8276692E-01
        1   -1    0    0  501    0  0.00000000000E+00  0.00000000000E+00  0.20099838043E+04  0.20099838043E+04  0.50400001928E-02 0. -1.
       -1   -1    0    0    0  501  0.00000000000E+00  0.00000000000E+00 -0.10368254386E+04  0.10368254386E+04  0.50400001928E-02 0.  1.
    10030    2    1    2    0    0  0.00000000000E+00  0.00000000000E+00  0.97315836570E+03  0.30468092430E+04  0.28872148099E+04 0.  0.
        2    1    3    3  502    0  0.12047095798E+04 -0.63538341699E+03 -0.18373629037E+02  0.13621214515E+04  0.25500000920E-02 0.  1.
       -2    1    3    3    0  502 -0.12047095798E+04  0.63538341699E+03  0.99153199474E+03  0.16846877915E+04  0.25500000920E-02 0. -1.
</event>
<event>
 5   0  0.5002240E-06  0.2933846E+04  0.7818609E-02  0.8262878E-01
       -1   -1    0    0    0  501  0.00000000000E+00  0.00000000000E+00  0.18708154113E+04  0.18708154113E+04  0.50400001928E-02 0. -1.
        1   -1    0    0  501    0  0.00000000000E+00  0.00000000000E+00 -0.11502276811E+04  0.11502276811E+04  0.50400001928E-02 0.  1.
    10030    2    1    2    0    0  0.00000000000E+00  0.00000000000E+00  0.72058773021E+03  0.30210430925E+04  0.29338463984E+04 0.  0.
        4    1    3    3  502    0 -0.70820460725E+03  0.13693212447E+03  0.16755816627E+04  0.18242477063E+04  0.12699999809E+01 0. -1.
       -4    1    3    3    0  502  0.70820460725E+03 -0.13693212447E+03 -0.95499393251E+03  0.11967953862E+04  0.12699999809E+01 0.  1.
</event>
<event>
 5   0  0.1307832E-05  0.2913895E+04  0.7818609E-02  0.8268755E-01
        2   -1    0    0  501    0  0.00000000000E+00  0.00000000000E+00  0.13761418731E+04  0.13761418731E+04  0.25500000920E-02 0.  1.
       -2   -1    0    0    0  501  0.00000000000E+00  0.00000000000E+00 -0.15424983514E+04  0.15424983514E+04  0.25500000920E-02 0. -1.
    10030    2    1    2    0    0  0.00000000000E+00  0.00000000000E+00 -0.16635647828E+03  0.29186402246E+04  0.29138953795E+04 0.  0.
        4    1    3    3  502    0 -0.12501183095E+04 -0.72157206353E+03  0.11521732839E+03  0.14480119738E+04  0.12699999809E+01 0.  1.
       -4    1    3    3    0  502  0.12501183095E+04  0.72157206353E+03 -0.28157380667E+03  0.14706282508E+04  0.12699999809E+01 0. -1.
</event>
<event>
 5   0  0.1385669E-05  0.2835907E+04  0.7818609E-02  0.8292207E-01
        2   -1    0    0  501    0  0.00000000000E+00  0.00000000000E+00  0.16925831647E+04  0.16925831647E+04  0.25500000920E-02 0. -1.
       -2   -1    0    0    0  501  0.00000000000E+00  0.00000000000E+00 -0.11878837479E+04  0.11878837479E+04  0.25500000920E-02 0.  1.
    10030    2    1    2    0    0  0.00000000000E+00  0.00000000000E+00  0.50469941683E+03  0.28804669126E+04  0.28359069331E+04 0.  0.
        3    1    3    3  502    0 -0.11595015883E+03 -0.20957731856E+03 -0.11671883679E+04  0.11915098775E+04  0.10100000352E+00 0.  1.
       -3    1    3    3    0  502  0.11595015883E+03  0.20957731856E+03  0.16718877847E+04  0.16889570352E+04  0.10100000352E+00 0. -1.
</event>
<event>
 5   0  0.5059249E-06  0.2786729E+04  0.7818609E-02  0.8307400E-01
       -1   -1    0    0    0  501  0.00000000000E+00  0.00000000000E+00  0.11533961959E+04  0.11533961959E+04  0.50400001928E-02 0.  1.
        1   -1    0    0  501    0  0.00000000000E+00  0.00000000000E+00 -0.16832587544E+04  0.16832587544E+04  0.50400001928E-02 0. -1.
    10030    2    1    2    0    0  0.00000000000E+00  0.00000000000E+00 -0.52986255853E+03  0.28366549504E+04  0.27867287232E+04 0.  0.
        1    1    3    3  502    0  0.11495566710E+04  0.78454829926E+03 -0.33296941122E+03  0.14310364085E+04  0.50400001928E-02 0.  1.
       -1    1    3    3    0  502 -0.11495566710E+04 -0.78454829926E+03 -0.19689314732E+03  0.14056185418E+04  0.50400001928E-02 0. -1.
</event>
<event>
 5   0  0.5059249E-06  0.2820488E+04  0.7818609E-02  0.8296936E-01
        1   -1    0    0  501    0  0.00000000000E+00  0.00000000000E+00  0.17844391878E+04  0.17844391878E+04  0.50400001928E-02 0. -1.
       -1   -1    0    0    0  501  0.00000000000E+00  0.00000000000E+00 -0.11145175082E+04  0.11145175082E+04  0.50400001928E-02 0.  1.
    10030    2    1    2    0    0  0.00000000000E+00  0.00000000000E+00  0.66992167962E+03  0.28989566959E+04  0.28204884095E+04 0.  0.
        1    1    3    3  502    0 -0.12457564572E+04 -0.93473152346E+02 -0.33756890288E+03  0.12940630375E+04  0.50400001928E-02 0. -1.
       -1    1    3    3    0  502  0.12457564572E+04  0.93473152346E+02  0.10074905825E+04  0.16048936584E+04  0.50400001928E-02 0.  1.
</event>
<event>
 5   0  0.5352212E-06  0.3329561E+04  0.7818609E-02  0.8155414E-01
       -1   -1    0    0    0  501  0.00000000000E+00  0.00000000000E+00  0.17572942521E+04  0.17572942521E+04  0.50400001928E-02 0. -1.
        1   -1    0    0  501    0  0.00000000000E+00  0.00000000000E+00 -0.15771371370E+04  0.15771371370E+04  0.50400001928E-02 0.  1.
    10030    2    1    2    0    0  0.00000000000E+00  0.00000000000E+00  0.18015711509E+03  0.33344313891E+04  0.33295609474E+04 0.  0.
        2    1    3    3  502    0  0.36427601030E+03 -0.10897804992E+04 -0.11163310357E+04  0.16020341848E+04  0.25500000920E-02 0.  1.
       -2    1    3    3    0  502 -0.36427601030E+03  0.10897804992E+04  0.12964881508E+04  0.17323972042E+04  0.25500000920E-02 0. -1.
</event>
<event>
 5   0  0.5352212E-06  0.2665706E+04  0.7818609E-02  0.8346219E-01
        1   -1    0    0  501    0  0.00000000000E+00  0.00000000000E+00  0.16306782823E+04  0.16306782823E+04  0.50400001928E-02 0.  1.
       -1   -1    0    0    0  501  0.00000000000E+00  0.00000000000E+00 -0.10894223810E+04  0.10894223810E+04  0.50400001928E-02 0. -1.
    10030    2    1    2    0    0  0.00000000000E+00  0.00000000000E+00  0.54125590133E+03  0.27201006633E+04  0.26657062230E+04 0.  0.
        2    1    3    3  502    0  0.17798731123E+03  0.38254359687E+03 -0.10194800457E+04  0.11033397709E+04  0.25500000920E-02 0. -1.
       -2    1    3    3    0  502 -0.17798731123E+03 -0.38254359687E+03  0.15607359471E+04  0.16167608923E+04  0.25500000920E-02 0.  1.
</event>
<event>
 5   0  0.1339837E-05  0.2743202E+04  0.7818609E-02  0.8321122E-01
        2   -1    0    0  501    0  0.00000000000E+00  0.00000000000E+00  0.21528130006E+04  0.21528130006E+04  0.25500000920E-02 0. -1.
       -2   -1    0    0    0  501  0.00000000000E+00  0.00000000000E+00 -0.87387507429E+03  0.87387507430E+03  0.25500000920E-02 0.  1.
    10030    2    1    2    0    0  0.00000000000E+00  0.00000000000E+00  0.12789379263E+04  0.30266880749E+04  0.27432022316E+04 0.  0.
        5    1    3    3  502    0 -0.10393885969E+03 -0.16481581638E+03 -0.85851736867E+03  0.88036452802E+03  0.46999998093E+01 0.  1.
       -5    1    3    3    0  502  0.10393885969E+03  0.16481581638E+03  0.21374552950E+04  0.21463235469E+04  0.46999998093E+01 0. -1.
</event>
<event>
 5   0  0.5261878E-06  0.2802422E+04  0.7818609E-02  0.8302517E-01
        1   -1    0    0  501    0  0.00000000000E+00  0.00000000000E+00  0.18089009893E+04  0.18089009894E+04  0.50400001928E-02 0. -1.
       -1   -1    0    0    0  501  0.00000000000E+00  0.00000000000E+00 -0.10854065058E+04  0.10854065058E+04  0.50400001928E-02 0.  1.
    10030    2    1    2    0    0  0.00000000000E+00  0.00000000000E+00  0.72349448354E+03  0.28943074952E+04  0.28024224537E+04 0.  0.
        5    1    3    3  502    0  0.76974333768E+03 -0.69294569800E+03 -0.61296160058E+03  0.12035042834E+04  0.46999998093E+01 0.  1.
       -5    1    3    3    0  502 -0.76974333768E+03  0.69294569800E+03  0.13364560841E+04  0.16908032118E+04  0.46999998093E+01 0. -1.
</event>
<event>
 5   0  0.5154476E-06  0.3008320E+04  0.7818609E-02  0.8241359E-01
       -1   -1    0    0    0  501  0.00000000000E+00  0.00000000000E+00  0.13551465117E+04  0.13551465117E+04  0.50400001928E-02 0. -1.
        1   -1    0    0  501    0  0.00000000000E+00  0.00000000000E+00 -0.16695589481E+04  0.16695589482E+04  0.50400001928E-02 0.  1.
    10030    2    1    2    0    0  0.00000000000E+00  0.00000000000E+00 -0.31441243642E+03  0.30247054599E+04  0.30083197867E+04 0.  0.
        3    1    3    3  502    0  0.98651205485E+03 -0.71305838443E+03  0.73125760661E+03  0.14199985885E+04  0.10100000352E+00 0. -1.
       -3    1    3    3    0  502 -0.98651205485E+03  0.71305838443E+03 -0.10456700430E+04  0.16047068714E+04  0.10100000352E+00 0.  1.
</event>
<event>
 5   0  0.5154476E-06  0.2912949E+04  0.7818609E-02  0.8269035E-01
        1   -1    0    0  501    0  0.00000000000E+00  0.00000000000E+00  0.13819974688E+04  0.13819974688E+04  0.50400001928E-02 0. -1.
       -1   -1    0    0    0  501  0.00000000000E+00  0.00000000000E+00 -0.15349648600E+04  0.15349648600E+04  0.50400001928E-02 0.  1.
    10030    2    1    2    0    0  0.00000000000E+00  0.00000000000E+00 -0.15296739125E+03  0.29169623288E+04  0.29129487131E+04 0.  0.
        3    1    3    3  502    0  0.86285023786E+03 -0.10207734648E+04  0.50295729922E+03  0.14280949039E+04  0.10100000352E+00 0. -1.
       -3    1    3    3    0  502 -0.86285023786E+03  0.10207734648E+04 -0.65592469047E+03  0.14888674250E+04  0.10100000352E+00 0.  1.
</event>
<event>
 5   0  0.5002240E-06  0.2790084E+04  0.7818609E-02  0.8306354E-01
       -1   -1    0    0    0  501  0.00000000000E+00  0.00000000000E+00  0.17804600205E+04  0.17804600205E+04  0.50400001928E-02 0.  1.
        1   -1    0    0  501    0  0.00000000000E+00  0.00000000000E+00 -0.10930555658E+04  0.10930555658E+04  0.50400001928E-02 0. -1.
    10030    2    1    2    0    0  0.00000000000E+00  0.00000000000E+00  0.68740445469E+03  0.28735155864E+04  0.27900836799E+04 0.  0.
        4    1    3    3  502    0 -0.10340983284E+04  0.78035127235E+03 -0.18929886202E+03  0.13092528912E+04  0.12699999809E+01 0.  1.
       -4    1    3    3    0  502  0.10340983284E+04 -0.78035127235E+03  0.87670331671E+03  0.15642626952E+04  0.12699999809E+01 0. -1.
</event>
<event>
 5   0  0.1382803E-05  0.2954606E+04  0.7818609E-02  0.8256813E-01
       -2   -1    0    0    0  501  0.00000000000E+00  0.00000000000E+00  0.88745721407E+03  0.88745721407E+03  0.25500000920E-02 0.  1.
        2   -1    0    0  501    0  0.00000000000E+00  0.00000000000E+00 -0.24591884167E+04  0.24591884167E+04  0.25500000920E-02 0. -1.
    10030    2    1    2    0    0  0.00000000000E+00  0.00000000000E+00 -0.15717312026E+04  0.33466456308E+04  0.29546062351E+04 0.  0.
        2    1    3    3  502    0 -0.82674775203E+03 -0.60733098993E+03  0.41823064080E+03  0.11078265414E+04  0.25500000920E-02 0.  1.
       -2    1    3    3    0  502  0.82674775203E+03  0.60733098993E+03 -0.19899618434E+04  0.22388190894E+04  0.25500000920E-02 0. -1.
</event>
<event>
 5   0  0.1336899E-05  0.2863601E+04  0.7818609E-02  0.8283790E-01
       -2   -1    0    0    0  501  0.00000000000E+00  0.00000000000E+00  0.11212627557E+04  0.11212627557E+04  0.25500000920E-02 0.  1.
        2   -1    0    0  501    0  0.00000000000E+00  0.00000000000E+00 -0.18283433551E+04  0.18283433551E+04  0.25500000920E-02 0. -1.
    10030    2    1    2    0    0  0.00000000000E+00  0.00000000000E+00 -0.70708059944E+03  0.29496061109E+04  0.28636014449E+04 0.  0.
        1    1    3    3  502    0  0.85586624770E+03 -0.77945804162E+03  0.51437632379E+03  0.12667457816E+04  0.50400001928E-02 0.  1.
       -1    1    3    3    0  502 -0.85586624770E+03  0.77945804162E+03 -0.12214569232E+04  0.16828603293E+04  0.50400001928E-02 0. -1.
</event>
<event>
 5   0  0.5261878E-06  0.2895413E+04  0.7818609E-02  0.8274244E-01
       -1   -1    0    0    0  501  0.00000000000E+00  0.00000000000E+00  0.10535153011E+04  0.10535153011E+04  0.50400001928E-02 0.  1.
        1   -1    0    0  501    0  0.00000000000E+00  0.00000000000E+00 -0.19893912852E+04  0.19893912852E+04  0.50400001928E-02 0. -1.
    10030    2    1    2    0    0  0.00000000000E+00  0.00000000000E+00 -0.93587598402E+03  0.30429065863E+04  0.28954130337E+04 0.  0.
        5    1    3    3  502    0  0.86130674353E+03  0.10954670867E+04 -0.88026924455E+03  0.16482698436E+04  0.46999998093E+01 0. -1.
       -5    1    3    3    0  502 -0.86130674353E+03 -0.10954670867E+04 -0.55606739475E+02  0.13946367427E+04  0.46999998093E+01 0.  1.
</event>
<event>
 5   0  0.5352212E-06  0.2828770E+04  0.7818609E-02  0.8294392E-01
       -1   -1    0    0    0  501  0.00000000000E+00  0.00000000000E+00  0.97097143044E+03  0.97097143046E+03  0.50400001928E-02 0.  1.
        1   -1    0    0  501    0  0.00000000000E+00  0.00000000000E+00 -0.20602922782E+04  0.20602922782E+04  0.50400001928E-02 0. -1.
    10030    2    1    2    0    0  0.00000000000E+00  0.00000000000E+00 -0.10893208477E+04  0.30312637086E+04  0.28287700087E+04 0.  0.
        2    1    3    3  502    0  0.34329118241E+01  0.11138466438E+04 -0.14787340320E+04  0.18513023708E+04  0.25500000920E-02 0. -1.
       -2    1    3    3    0  502 -0.34329118241E+01 -0.11138466438E+04  0.38941318423E+03  0.11799613379E+04  0.25500000920E-02 0.  1.
</event>
<event>
 5   0  0.5154476E-06  0.2647153E+04  0.7818609E-02  0.8352358E-01
        1   -1    0    0  501    0  0.00000000000E+00  0.00000000000E+00  0.10768960073E+04  0.10768960073E+04  0.50400001928E-02 0.  1.
       -1   -1    0    0    0  501  0.00000000000E+00  0.00000000000E+00 -0.16267637612E+04  0.16267637612E+04  0.50400001928E-02 0. -1.
    10030    2    1    2    0    0  0.00000000000E+00  0.00000000000E+00 -0.54986775392E+03  0.27036597685E+04  0.26471534895E+04 0.  0.
        3    1    3    3  502    0 -0.65097186225E+03  0.10819233896E+04 -0.68031023314E+03  0.14342749423E+04  0.10100000352E+00 0.  1.
       -3    1    3    3    0  502  0.65097186225E+03 -0.10819233896E+04  0.13044247922E+03  0.12693848262E+04  0.10100000352E+00 0. -1.
</event>
<event>
 5   0  0.1382803E-05  0.2866672E+04  0.7818609E-02  0.8282863E-01
        2   -1    0    0  501    0  0.00000000000E+00  0.00000000000E+00  0.10980691417E+04  0.10980691417E+04  0.25500000920E-02 0. -1.
       -2   -1    0    0    0  501  0.00000000000E+00  0.00000000000E+00 -0.18709682173E+04  0.18709682173E+04  0.25500000920E-02 0.  1.
    10030    2    1    2    0    0  0.00000000000E+00  0.00000000000E+00 -0.77289907566E+03  0.29690373590E+04  0.28666722621E+04 0.  0.
        2    1    3    3  502    0  0.11216313361E+03  0.13299497049E+04 -0.92770586118E+03  0.16254183926E+04  0.25500000920E-02 0.  1.
       -2    1    3    3    0  502 -0.11216313361E+03 -0.13299497049E+04  0.15480678551E+03  0.13436189664E+04  0.25500000920E-02 0. -1.
</event>
<event>
 5   0  0.1336899E-05  0.2847480E+04  0.7818609E-02  0.8288677E-01
        2   -1    0    0  501    0  0.00000000000E+00  0.00000000000E+00  0.26251088660E+04  0.26251088660E+04  0.25500000920E-02 0. -1.
       -2   -1    0    0    0  501  0.00000000000E+00  0.00000000000E+00 -0.77217209674E+03  0.77217209674E+03  0.25500000920E-02 0.  1.
    10030    2    1    2    0    0  0.00000000000E+00  0.00000000000E+00  0.18529367693E+04  0.33972809628E+04  0.28474801613E+04 0.  0.
        1    1    3    3  502    0 -0.12265546621E+04  0.11724474821E+03  0.75395035760E+02  0.12344501130E+04  0.50400001928E-02 0.  1.
       -1    1    3    3    0  502  0.12265546621E+04 -0.11724474821E+03  0.17775417335E+04  0.21628308497E+04  0.50400001928E-02 0. -1.
</event>
<event>
 5   0  0.5059249E-06  0.2908652E+04  0.7818609E-02  0.8270308E-01
        1   -1    0    0  501    0  0.00000000000E+00  0.00000000000E+00  0.14239200425E+04  0.14239200425E+04  0.50400001928E-02 0.  1.
       -1   -1    0    0    0  501  0.00000000000E+00  0.00000000000E+00 -0.14853816813E+04  0.14853816813E+04  0.50400001928E-02 0. -1.
    10030    2    1    2    0    0  0.00000000000E+00  0.00000000000E+00 -0.61461638803E+02  0.29093017238E+04  0.29086524349E+04 0.  0.
        1    1    3    3  502    0  0.29692143507E+03  0.31407736907E+03  0.13581963881E+04  0.14253085144E+04  0.50400001928E-02 0.  1.
       -1    1    3    3    0  502 -0.29692143507E+03 -0.31407736907E+03 -0.14196580269E+04  0.14839932095E+04  0.50400001928E-02 0. -1.
</event>
<event>
 5   0  0.1382803E-05  0.2077267E+04  0.7818609E-02  0.8571324E-01
        2   -1    0    0  501    0  0.00000000000E+00  0.00000000000E+00  0.51553567591E+03  0.51553567592E+03  0.25500000920E-02 0.  1.
       -2   -1    0    0    0  501  0.00000000000E+00  0.00000000000E+00 -0.20925027424E+04  0.20925027424E+04  0.25500000920E-02 0. -1.
    10030    2    1    2    0    0  0.00000000000E+00  0.00000000000E+00 -0.15769670665E+04  0.26080384183E+04  0.20772672583E+04 0.  0.
        2    1    3    3  502    0  0.92791495906E+03 -0.58440175360E+02 -0.20724910882E+03  0.95257210670E+03  0.25500000920E-02 0. -1.
       -2    1    3    3    0  502 -0.92791495906E+03  0.58440175360E+02 -0.13697179576E+04  0.16554663116E+04  0.25500000920E-02 0.  1.
</event>
<event>
 5   0  0.5002240E-06  0.2864285E+04  0.7818609E-02  0.8283584E-01
       -1   -1    0    0    0  501  0.00000000000E+00  0.00000000000E+00  0.11047132047E+04  0.11047132047E+04  0.50400001928E-02 0.  1.
        1   -1    0    0  501    0  0.00000000000E+00  0.00000000000E+00 -0.18566198650E+04  0.18566198650E+04  0.50400001928E-02 0. -1.
    10030    2    1    2    0    0  0.00000000000E+00  0.00000000000E+00 -0.75190666028E+03  0.29613330698E+04  0.28642852380E+04 0.  0.
        4    1    3    3  502    0  0.38518405659E+03 -0.12907269538E+04  0.12703643700E+03  0.13529533236E+04  0.12699999809E+01 0.  1.
       -4    1    3    3    0  502 -0.38518405659E+03  0.12907269538E+04 -0.87894309727E+03  0.16083797461E+04  0.12699999809E+01 0. -1.
</event>
<event>
 5   0  0.4590125E-06  0.2790229E+04  0.7818609E-02  0.8306308E-01
        3   -1    0    0  501    0  0.00000000000E+00  0.00000000000E+00  0.21608877867E+04  0.21608877891E+04  0.10100000352E+00 0. -1.
       -3   -1    0    0    0  501  0.00000000000E+00  0.00000000000E+00 -0.90071488021E+03  0.90071488587E+03  0.10100000352E+00 0.  1.
    10030    2    1    2    0    0  0.00000000000E+00  0.00000000000E+00  0.12601729065E+04  0.30616026750E+04  0.27902285184E+04 0.  0.
        3    1    3    3  502    0 -0.95254050061E+03 -0.99567589416E+03  0.86958035046E+03  0.16293783746E+04  0.10100000352E+00 0. -1.
       -3    1    3    3    0  502  0.95254050061E+03  0.99567589416E+03  0.39059255607E+03  0.14322243004E+04  0.10100000352E+00 0.  1.
</event>
<event>
 5   0  0.5154476E-06  0.2869582E+04  0.7818609E-02  0.8281986E-01
        1   -1    0    0  501    0  0.00000000000E+00  0.00000000000E+00  0.12333337109E+04  0.12333337110E+04  0.50400001928E-02 0. -1.
       -1   -1    0    0    0  501  0.00000000000E+00  0.00000000000E+00 -0.16691546052E+04  0.16691546052E+04  0.50400001928E-02 0.  1.
    10030    2    1    2    0    0  0.00000000000E+00  0.00000000000E+00 -0.43582089422E+03  0.29024883161E+04  0.28695816025E+04 0.  0.
        3    1    3    3  502    0 -0.44768398001E+03  0.23078273109E+03 -0.15767984010E+04  0.16552869306E+04  0.10100000352E+00 0.  1.
       -3    1    3    3    0  502  0.44768398001E+03 -0.23078273109E+03  0.11409775068E+04  0.12472013855E+04  0.10100000352E+00 0. -1.
</event>
<event>
 5   0  0.1339837E-05  0.2379689E+04  0.7818609E-02  0.8447147E-01
       -2   -1    0    0    0  501  0.00000000000E+00  0.00000000000E+00  0.75249840247E+03  0.75249840248E+03  0.25500000920E-02 0. -1.
        2   -1    0    0  501    0  0.00000000000E+00  0.00000000000E+00 -0.18813727712E+04  0.18813727712E+04  0.25500000920E-02 0.  1.
    10030    2    1    2    0    0  0.00000000000E+00  0.00000000000E+00 -0.11288743687E+04  0.26338711737E+04  0.23796890594E+04 0.  0.
        5    1    3    3  502    0 -0.20585420157E+02 -0.86073132089E+03  0.34451573023E+03  0.92735933956E+03  0.46999998093E+01 0. -1.
       -5    1    3    3    0  502  0.20585420157E+02  0.86073132089E+03 -0.14733900990E+04  0.17065118341E+04  0.46999998093E+01 0.  1.
</event>
<event>
 5   0  0.1382803E-05  0.2889150E+04  0.7818609E-02  0.8276113E-01
        2   -1    0    0  501    0  0.00000000000E+00  0.00000000000E+00  0.16403922520E+04  0.16403922520E+04  0.25500000920E-02 0.  1.
       -2   -1    0    0    0  501  0.00000000000E+00  0.00000000000E+00 -0.12721330241E+04  0.12721330241E+04  0.25500000920E-02 0. -1.
    10030    2    1    2    0    0  0.00000000000E+00  0.00000000000E+00  0.36825922785E+03  0.29125252761E+04  0.28891501562E+04 0.  0.
        2    1    3    3  502    0 -0.14060200951E+04  0.25719864924E+03  0.39499534462E+03  0.14829244672E+04  0.25500000920E-02 0.  1.
       -2    1    3    3    0  502  0.14060200951E+04 -0.25719864924E+03 -0.26736116772E+02  0.14296008089E+04  0.25500000920E-02 0. -1.
</event>
<event>
 5   0  0.5261878E-06  0.2896212E+04  0.7818609E-02  0.8274005E-01
       -1   -1    0    0    0  501  0.00000000000E+00  0.00000000000E+00  0.97787291317E+03  0.97787291319E+03  0.50400001928E-02 0. -1.
        1   -1    0    0  501    0  0.00000000000E+00  0.00000000000E+00 -0.21444613514E+04  0.21444613514E+04  0.50400001928E-02 0.  1.
    10030    2    1    2    0    0  0.00000000000E+00  0.00000000000E+00 -0.11665884383E+04  0.31223342646E+04  0.28962117802E+04 0.  0.
        5    1    3    3  502    0  0.10935224806E+04 -0.64675761225E+02  0.43775985055E+03  0.11796737458E+04  0.46999998093E+01 0. -1.
       -5    1    3    3    0  502 -0.10935224806E+04  0.64675761225E+02 -0.16043482888E+04  0.19426605189E+04  0.46999998093E+01 0.  1.
</event>
<event>
 5   0  0.5261878E-06  0.1864325E+04  0.7818609E-02  0.8672821E-01
        1   -1    0    0  501    0  0.00000000000E+00  0.00000000000E+00  0.10361828547E+04  0.10361828547E+04  0.50400001928E-02 0.  1.
       -1   -1    0    0    0  501  0.00000000000E+00  0.00000000000E+00 -0.83858444284E+03  0.83858444285E+03  0.50400001928E-02 0. -1.
    10030    2    1    2    0    0  0.00000000000E+00  0.00000000000E+00  0.19759841188E+03  0.18747672976E+04  0.18643248879E+04 0.  0.
        5    1    3    3  502    0 -0.63316437417E+03 -0.34911562538E+03 -0.49282074776E+03  0.87502755615E+03  0.46999998093E+01 0. -1.
       -5    1    3    3    0  502  0.63316437417E+03  0.34911562538E+03  0.69041915964E+03  0.99973974143E+03  0.46999998093E+01 0.  1.
</event>
<event>
 5   0  0.5352212E-06  0.2917064E+04  0.7818609E-02  0.8267818E-01
        1   -1    0    0  501    0  0.00000000000E+00  0.00000000000E+00  0.17226383614E+04  0.17226383614E+04  0.50400001928E-02 0.  1.
       -1   -1    0    0    0  501  0.00000000000E+00  0.00000000000E+00 -0.12349174735E+04  0.12349174735E+04  0.50400001928E-02 0. -1.
    10030    2    1    2    0    0  0.00000000000E+00  0.00000000000E+00  0.48772088786E+03  0.29575558349E+04  0.29170644237E+04 0.  0.
        2    1    3    3  502    0  0.72320231278E+03  0.10274758847E+03 -0.10360964260E+04  0.12677044041E+04  0.25500000920E-02 0. -1.
       -2    1    3    3    0  502 -0.72320231278E+03 -0.10274758847E+03  0.15238173139E+04  0.16898514308E+04  0.25500000920E-02 0.  1.
</event>
<event>
 5   0  0.5059249E-06  0.2876217E+04  0.7818609E-02  0.8279989E-01
       -1   -1    0    0    0  501  0.00000000000E+00  0.00000000000E+00  0.17151683251E+04  0.17151683251E+04  0.50400001928E-02 0.  1.
        1   -1    0    0  501    0  0.00000000000E+00  0.00000000000E+00 -0.12058036222E+04  0.12058036222E+04  0.50400001928E-02 0. -1.
    10030    2    1    2    0    0  0.00000000000E+00  0.00000000000E+00  0.50936470290E+03  0.29209719473E+04  0.28762170844E+04 0.  0.
        1    1    3    3  502    0  0.55426348043E+03 -0.11352247421E+04 -0.44318788230E+03  0.13387900208E+04  0.50400001928E-02 0.  1.
       -1    1    3    3    0  502 -0.55426348043E+03  0.11352247421E+04  0.95255258520E+03  0.15821819265E+04  0.50400001928E-02 0. -1.
</event>
<event>
 5   0  0.1382803E-05  0.2892000E+04  0.7818609E-02  0.8275262E-01
       -2   -1    0    0    0  501  0.00000000000E+00  0.00000000000E+00  0.95492136121E+03  0.95492136121E+03  0.25500000920E-02 0. -1.
        2   -1    0    0  501    0  0.00000000000E+00  0.00000000000E+00 -0.21896218722E+04  0.21896218722E+04  0.25500000920E-02 0.  1.
    10030    2    1    2    0    0  0.00000000000E+00  0.00000000000E+00 -0.12347005110E+04  0.31445432334E+04  0.28920004832E+04 0.  0.
        2    1    3    3  502    0  0.35083014717E+03  0.74570635204E+03 -0.19092808264E+04  0.20795463519E+04  0.25500000920E-02 0.  1.
       -2    1    3    3    0  502 -0.35083014717E+03 -0.74570635204E+03  0.67458031542E+03  0.10649968815E+04  0.25500000920E-02 0. -1.
</event>
<event>
 5   0  0.5059249E-06  0.2934175E+04  0.7818609E-02  0.8262781E-01
       -1   -1    0    0    0  501  0.00000000000E+00  0.00000000000E+00  0.14317713458E+04  0.14317713458E+04  0.50400001928E-02 0.  1.
        1   -1    0    0  501    0  0.00000000000E+00  0.00000000000E+00 -0.15032746301E+04  0.15032746301E+04  0.50400001928E-02 0. -1.
    10030    2    1    2    0    0  0.00000000000E+00  0.00000000000E+00 -0.71503284298E+02  0.29350459759E+04  0.29341748688E+04 0.  0.
        1    1    3    3  502    0  0.10946404832E+04 -0.95986103197E+03 -0.21684282202E+03  0.14719347124E+04  0.50400001928E-02 0. -1.
       -1    1    3    3    0  502 -0.10946404832E+04  0.95986103197E+03  0.14533953772E+03  0.14631112635E+04  0.50400001928E-02 0.  1.
</event>
<event>
 5   0  0.1339837E-05  0.2916035E+04  0.7818609E-02  0.8268123E-01
        2   -1    0    0  501    0  0.00000000000E+00  0.00000000000E+00  0.24656717223E+04  0.24656717223E+04  0.25500000920E-02 0.  1.
       -2   -1    0    0    0  501  0.00000000000E+00  0.00000000000E+00 -0.86216469317E+03  0.86216469317E+03  0.25500000920E-02 0. -1.
    10030    2    1    2    0    0  0.00000000000E+00  0.00000000000E+00  0.16035070291E+04  0.33278364155E+04  0.29160350505E+04 0.  0.
        5    1    3    3  502    0 -0.13206658472E+04 -0.59888131249E+03  0.97473736835E+03  0.17472699086E+04  0.46999998093E+01 0.  1.
       -5    1    3    3    0  502  0.13206658472E+04  0.59888131249E+03  0.62876966079E+03  0.15805665069E+04  0.46999998093E+01 0. -1.
</event>
<event>
 5   0  0.5154476E-06  0.2892540E+04  0.7818609E-02  0.8275101E-01
       -1   -1    0    0    0  501  0.00000000000E+00  0.00000000000E+00  0.95260306503E+03  0.95260306505E+03  0.50400001928E-02 0. -1.
        1   -1    0    0  501    0  0.00000000000E+00  0.00000000000E+00 -0.21957689917E+04  0.21957689917E+04  0.50400001928E-02 0.  1.
    10030    2    1    2    0    0  0.00000000000E+00  0.00000000000E+00 -0.12431659267E+04  0.31483720568E+04  0.28925395566E+04 0.  0.
        3    1    3    3  502    0 -0.10144397930E+04  0.54447881797E+03 -0.15742999846E+04  0.19503757916E+04  0.10100000352E+00 0.  1.
       -3    1    3    3    0  502  0.10144397930E+04 -0.54447881797E+03  0.33113405789E+03  0.11979962652E+04  0.10100000352E+00 0. -1.
</event>
<event>
 5   0  0.5261878E-06  0.2742972E+04  0.7818609E-02  0.8321195E-01
        1   -1    0    0  501    0  0.00000000000E+00  0.00000000000E+00  0.18097847235E+04  0.18097847235E+04  0.50400001928E-02 0. -1.
       -1   -1    0    0    0  501  0.00000000000E+00  0.00000000000E+00 -0.10393356654E+04  0.10393356654E+04  0.50400001928E-02 0.  1.
    10030    2    1    2    0    0  0.00000000000E+00  0.00000000000E+00  0.77044905810E+03  0.28491203888E+04  0.27429719720E+04 0.  0.
        5    1    3    3  502    0 -0.36040308429E+03 -0.13142478679E+04  0.22493524228E+03  0.13812153324E+04  0.46999998093E+01 0.  1.
       -5    1    3    3    0  502  0.36040308429E+03  0.13142478679E+04  0.54551381582E+03  0.14679050564E+04  0.46999998093E+01 0. -1.
</event>
<event>
 5   0  0.5261878E-06  0.2957607E+04  0.7818609E-02  0.8255941E-01
        1   -1    0    0  501    0  0.00000000000E+00  0.00000000000E+00  0.12914428193E+04  0.12914428193E+04  0.50400001928E-02 0. -1.
       -1   -1    0    0    0  501  0.00000000000E+00  0.00000000000E+00 -0.16933466239E+04  0.16933466239E+04  0.50400001928E-02 0.  1.
    10030    2    1    2    0    0  0.00000000000E+00  0.00000000000E+00 -0.40190380465E+03  0.29847894432E+04  0.29576073695E+04 0.  0.
        5    1    3    3  502    0  0.41588998112E+03 -0.13784393882E+04  0.13945904647E+03  0.14465581700E+04  0.46999998093E+01 0.  1.
       -5    1    3    3    0  502 -0.41588998112E+03  0.13784393882E+04 -0.54136285112E+03  0.15382312733E+04  0.46999998093E+01 0. -1.
</event>
<event>
 5   0  0.1382803E-05  0.2888170E+04  0.7818609E-02  0.8276406E-01
        2   -1    0    0  501    0  0.00000000000E+00  0.00000000000E+00  0.10902749355E+04  0.10902749355E+04  0.25500000920E-02 0. -1.
       -2   -1    0    0    0  501  0.00000000000E+00  0.00000000000E+00 -0.19127112398E+04  0.19127112398E+04  0.25500000920E-02 0.  1.
    10030    2    1    2    0    0  0.00000000000E+00  0.00000000000E+00 -0.82243630427E+03  0.30029861753E+04  0.28881697482E+04 0.  0.
        2    1    3    3  502    0  0.29657403849E+03  0.12504903593E+04  0.27352033776E+03  0.13139618237E+04  0.25500000920E-02 0. -1.
       -2    1    3    3    0  502 -0.29657403849E+03 -0.12504903593E+04 -0.10959566420E+04  0.16890243516E+04  0.25500000920E-02 0.  1.
</event>
<event>
 5   0  0.5261878E-06  0.2874735E+04  0.7818609E-02  0.8280434E-01
       -1   -1    0    0    0  501  0.00000000000E+00  0.00000000000E+00  0.77011036013E+03  0.77011036015E+03  0.50400001928E-02 0. -1.
        1   -1    0    0  501    0  0.00000000000E+00  0.00000000000E+00 -0.26827651157E+04  0.26827651157E+04  0.50400001928E-02 0.  1.
    10030    2    1    2    0    0  0.00000000000E+00  0.00000000000E+00 -0.19126547556E+04  0.34528754759E+04  0.28747349161E+04 0.  0.
        5    1    3    3  502    0 -0.10256371450E+04 -0.38775606348E+03 -0.20725962036E+04  0.23447736418E+04  0.46999998093E+01 0.  1.
       -5    1    3    3    0  502  0.10256371450E+04  0.38775606348E+03  0.15994144805E+03  0.11081018341E+04  0.46999998093E+01 0. -1.
</event>
<event>
 5   0  0.5059249E-06  0.2921821E+04  0.7818609E-02  0.8266414E-01
       -1   -1    0    0    0  501  0.00000000000E+00  0.00000000000E+00  0.21809669742E+04  0.21809669742E+04  0.50400001928E-02 0.  1.
        1   -1    0    0  501    0  0.00000000000E+00  0.00000000000E+00 -0.97858424256E+03  0.97858424257E+03  0.50400001928E-02 0. -1.
    10030    2    1    2    0    0  0.00000000000E+00  0.00000000000E+00  0.12023827316E+04  0.31595512168E+04  0.29218212913E+04 0.  0.
        1    1    3    3  502    0  0.12961195733E+04 -0.29515062160E+03 -0.54100774266E+02  0.13304009664E+04  0.50400001928E-02 0. -1.
       -1    1    3    3    0  502 -0.12961195733E+04  0.29515062160E+03  0.12564835059E+04  0.18291502503E+04  0.50400001928E-02 0.  1.
</event>
<event>
 5   0  0.1382803E-05  0.3406229E+04  0.7818609E-02  0.8136379E-01
       -2   -1    0    0    0  501  0.00000000000E+00  0.00000000000E+00  0.17905980337E+04  0.17905980337E+04  0.25500000920E-02 0. -1.
        2   -1    0    0  501    0  0.00000000000E+00  0.00000000000E+00 -0.16199052633E+04  0.16199052633E+04  0.25500000920E-02 0.  1.
    10030    2    1    2    0    0  0.00000000000E+00  0.00000000000E+00  0.17069277045E+03  0.34105032970E+04  0.34062291052E+04 0.  0.
        2    1    3    3  502    0 -0.14777681899E+04 -0.12274341905E+02 -0.76226753186E+03  0.16628292975E+04  0.25500000920E-02 0.  1.
       -2    1    3    3    0  502  0.14777681899E+04  0.12274341905E+02  0.93296030230E+03  0.17476739994E+04  0.25500000920E-02 0. -1.
</event>
<event>
 5   0  0.5352212E-06  0.2867184E+04  0.7818609E-02  0.8282709E-01
       -1   -1    0    0    0  501  0.00000000000E+00  0.00000000000E+00  0.77468692700E+03  0.77468692702E+03  0.50400001928E-02 0. -1.
        1   -1    0    0  501    0  0.00000000000E+00  0.00000000000E+00 -0.26529246624E+04  0.26529246624E+04  0.50400001928E-02 0.  1.
    10030    2    1    2    0    0  0.00000000000E+00  0.00000000000E+00 -0.18782377354E+04  0.34276115894E+04  0.28671840222E+04 0.  0.
        2    1    3    3  502    0 -0.86474279572E+03 -0.11093867538E+04 -0.60810955031E+03  0.15324217101E+04  0.25500000920E-02 0. -1.
       -2    1    3    3    0  502  0.86474279572E+03  0.11093867538E+04 -0.12701281850E+04  0.18951898793E+04  0.25500000920E-02 0.  1.
</event>
<event>
 5   0  0.5352212E-06  0.2582211E+04  0.7818609E-02  0.8374269E-01
        1   -1    0    0  501    0  0.00000000000E+00  0.00000000000E+00  0.13511904774E+04  0.13511904775E+04  0.50400001928E-02 0.  1.
       -1   -1    0    0    0  501  0.00000000000E+00  0.00000000000E+00 -0.12336924035E+04  0.12336924035E+04  0.50400001928E-02 0. -1.
    10030    2    1    2    0    0  0.00000000000E+00  0.00000000000E+00  0.11749807396E+03  0.25848828809E+04  0.25822110121E+04 0.  0.
        2    1    3    3  502    0 -0.86197388859E+03 -0.71233374407E+03  0.70481213110E+03  0.13218087939E+04  0.25500000920E-02 0.  1.
       -2    1    3    3    0  502  0.86197388859E+03  0.71233374407E+03 -0.58731405715E+03  0.12630740870E+04  0.25500000920E-02 0. -1.
</event>
<event>
 5   0  0.5002240E-06  0.2316101E+04  0.7818609E-02  0.8471600E-01
        1   -1    0    0  501    0  0.00000000000E+00  0.00000000000E+00  0.15050946131E+04  0.15050946131E+04  0.50400001928E-02 0.  1.
       -1   -1    0    0    0  501  0.00000000000E+00  0.00000000000E+00 -0.89102776672E+03  0.89102776673E+03  0.50400001928E-02 0. -1.
    10030    2    1    2    0    0  0.00000000000E+00  0.00000000000E+00  0.61406684636E+03  0.23961223798E+04  0.23161011133E+04 0.  0.
        4    1    3    3  502    0  0.19151991164E+03  0.96605812729E+03  0.93728692860E+03  0.13595795605E+04  0.12699999809E+01 0.  1.
       -4    1    3    3    0  502 -0.19151991164E+03 -0.96605812729E+03 -0.32322008224E+03  0.10365428193E+04  0.12699999809E+01 0. -1.
</event>
<event>
 5   0  0.5002240E-06  0.2279888E+04  0.7818609E-02  0.8485893E-01
       -1   -1    0    0    0  501  0.00000000000E+00  0.00000000000E+00  0.14752126302E+04  0.14752126302E+04  0.50400001928E-02 0. -1.
        1   -1    0    0  501    0  0.00000000000E+00  0.00000000000E+00 -0.88087112624E+03  0.88087112625E+03  0.50400001928E-02 0.  1.
    10030    2    1    2    0    0  0.00000000000E+00  0.00000000000E+00  0.59434150394E+03  0.23560837564E+04  0.22798879016E+04 0.  0.
        4    1    3    3  502    0 -0.33665538154E+03 -0.61145711100E+03  0.12285426889E+04  0.14129881089E+04  0.12699999809E+01 0. -1.
       -4    1    3    3    0  502  0.33665538154E+03  0.61145711100E+03 -0.63420118496E+03  0.94309564755E+03  0.12699999809E+01 0.  1.
</event>
<event>
 5   0  0.5261878E-06  0.2928453E+04  0.7818609E-02  0.8264462E-01
        1   -1    0    0  501    0  0.00000000000E+00  0.00000000000E+00  0.15829544165E+04  0.15829544165E+04  0.50400001928E-02 0. -1.
       -1   -1    0    0    0  501  0.00000000000E+00  0.00000000000E+00 -0.13544037260E+04  0.13544037260E+04  0.50400001928E-02 0.  1.
    10030    2    1    2    0    0  0.00000000000E+00  0.00000000000E+00  0.22855069052E+03  0.29373581424E+04  0.29284530795E+04 0.  0.
        5    1    3    3  502    0  0.21241797369E+03 -0.13872719156E+04 -0.30447771079E+03  0.14360966296E+04  0.46999998093E+01 0.  1.
       -5    1    3    3    0  502 -0.21241797369E+03  0.13872719156E+04  0.53302840131E+03  0.15012615128E+04  0.46999998093E+01 0. -1.
</event>
<event>
 5   0  0.5154476E-06  0.2844120E+04  0.7818609E-02  0.8289700E-01
        1   -1    0    0  501    0  0.00000000000E+00  0.00000000000E+00  0.11380699677E+04  0.11380699678E+04  0.50400001928E-02 0.  1.
       -1   -1    0    0    0  501  0.00000000000E+00  0.00000000000E+00 -0.17769154885E+04  0.17769154885E+04  0.50400001928E-02 0. -1.
    10030    2    1    2    0    0  0.00000000000E+00  0.00000000000E+00 -0.63884552078E+03  0.29149854563E+04  0.28441196548E+04 0.  0.
        3    1    3    3  502    0 -0.12764979754E+04 -0.59878543678E+03 -0.12970778434E+03  0.14159149692E+04  0.10100000352E+00 0. -1.
       -3    1    3    3    0  502  0.12764979754E+04  0.59878543678E+03 -0.50913773644E+03  0.14990704871E+04  0.10100000352E+00 0.  1.
</event>
<event>
 5   0  0.1339837E-05  0.2918434E+04  0.7818609E-02  0.8267414E-01
        2   -1    0    0  501    0  0.00000000000E+00  0.00000000000E+00  0.13666906585E+04  0.13666906585E+04  0.25500000920E-02 0.  1.
       -2   -1    0    0    0  501  0.00000000000E+00  0.00000000000E+00 -0.15580078449E+04  0.15580078449E+04  0.25500000920E-02 0. -1.
    10030    2    1    2    0    0  0.00000000000E+00  0.00000000000E+00 -0.19131718641E+03  0.29246985033E+04  0.29184343525E+04 0.  0.
        5    1    3    3  502    0 -0.48842644064E+03 -0.11815191193E+04  0.60923217005E+03  0.14162392963E+04  0.46999998093E+01 0.  1.
       -5    1    3    3    0  502  0.48842644064E+03  0.11815191193E+04 -0.80054935645E+03  0.15084592071E+04  0.46999998093E+01 0. -1.
</event>
<event>
 5   0  0.5261878E-06  0.3071784E+04  0.7818609E-02  0.8223525E-01
       -1   -1    0    0    0  501  0.00000000000E+00  0.00000000000E+00  0.16491663759E+04  0.16491663759E+04  0.50400001928E-02 0.  1.
        1   -1    0    0  501    0  0.00000000000E+00  0.00000000000E+00 -0.14303977075E+04  0.14303977075E+04  0.50400001928E-02 0. -1.
    10030    2    1    2    0    0  0.00000000000E+00  0.00000000000E+00  0.21876866847E+03  0.30795640834E+04  0.30717837185E+04 0.  0.
        5    1    3    3  502    0  0.32115614260E+03  0.79409980629E+03 -0.11686802856E+04  0.14489898102E+04  0.46999998093E+01 0. -1.
       -5    1    3    3    0  502 -0.32115614260E+03 -0.79409980629E+03  0.13874489540E+04  0.16305742732E+04  0.46999998093E+01 0.  1.
</event>
<event>
 5   0  0.1336899E-05  0.2882045E+04  0.7818609E-02  0.8278240E-01
       -2   -1    0    0    0  501  0.00000000000E+00  0.00000000000E+00  0.13205853115E+04  0.13205853115E+04  0.25500000920E-02 0. -1.
        2   -1    0    0  501    0  0.00000000000E+00  0.00000000000E+00 -0.15724431767E+04  0.15724431767E+04  0.25500000920E-02 0.  1.
    10030    2    1    2    0    0  0.00000000000E+00  0.00000000000E+00 -0.25185786518E+03  0.28930284882E+04  0.28820446647E+04 0.  0.
        1    1    3    3  502    0 -0.35600497425E+03 -0.77776051496E+03  0.10381866326E+04  0.13451700429E+04  0.50400001928E-02 0. -1.
       -1    1    3    3    0  502  0.35600497425E+03  0.77776051496E+03 -0.12900444978E+04  0.15478584453E+04  0.50400001928E-02 0.  1.
</event>
<event>
 5   0  0.5154476E-06  0.2902758E+04  0.7818609E-02  0.8272057E-01
       -1   -1    0    0    0  501  0.00000000000E+00  0.00000000000E+00  0.84132215571E+03  0.84132215572E+03  0.50400001928E-02 0. -1.
        1   -1    0    0  501    0  0.00000000000E+00  0.00000000000E+00 -0.25037978498E+04  0.25037978498E+04  0.50400001928E-02 0.  1.
    10030    2    1    2    0    0  0.00000000000E+00  0.00000000000E+00 -0.16624756941E+04  0.33451200056E+04  0.29027577264E+04 0.  0.
        3    1    3    3  502    0 -0.89925890447E+03  0.45179540071E+03 -0.20364208104E+04  0.22715183003E+04  0.10100000352E+00 0.  1.
       -3    1    3    3    0  502  0.89925890447E+03 -0.45179540071E+03  0.37394511626E+03  0.10736017053E+04  0.10100000352E+00 0. -1.
</event>
<event>
 5   0  0.5352212E-06  0.2944715E+04  0.7818609E-02  0.8259697E-01
       -1   -1    0    0    0  501  0.00000000000E+00  0.00000000000E+00  0.14267003787E+04  0.14267003787E+04  0.50400001928E-02 0. -1.
        1   -1    0    0  501    0  0.00000000000E+00  0.00000000000E+00 -0.15194752360E+04  0.15194752360E+04  0.50400001928E-02 0.  1.
    10030    2    1    2    0    0  0.00000000000E+00  0.00000000000E+00 -0.92774857314E+02  0.29461756147E+04  0.29447145157E+04 0.  0.
        2    1    3    3  502    0  0.42287630641E+03  0.29753997443E+03 -0.14256509660E+04  0.15165207165E+04  0.25500000920E-02 0.  1.
       -2    1    3    3    0  502 -0.42287630641E+03 -0.29753997443E+03  0.13328761087E+04  0.14296548982E+04  0.25500000920E-02 0. -1.
</event>
<event>
 5   0  0.4590125E-06  0.2853034E+04  0.7818609E-02  0.8286990E-01
        3   -1    0    0  501    0  0.00000000000E+00  0.00000000000E+00  0.20276168681E+04  0.20276168706E+04  0.10100000352E+00 0.  1.
       -3   -1    0    0    0  501  0.00000000000E+00  0.00000000000E+00 -0.10036172853E+04  0.10036172903E+04  0.10100000352E+00 0. -1.
    10030    2    1    2    0    0  0.00000000000E+00  0.00000000000E+00  0.10239995828E+04  0.30312341609E+04  0.28530344184E+04 0.  0.
        3    1    3    3  502    0  0.11128569795E+04 -0.43167307037E+03 -0.31791594829E+03  0.12352582147E+04  0.10100000352E+00 0. -1.
       -3    1    3    3    0  502 -0.11128569795E+04  0.43167307037E+03  0.13419155311E+04  0.17959759462E+04  0.10100000352E+00 0.  1.
</event>
<event>
 5   0  0.1336899E-05  0.2920574E+04  0.7818609E-02  0.8266782E-01
        2   -1    0    0  501    0  0.00000000000E+00  0.00000000000E+00  0.27579129577E+04  0.27579129577E+04  0.25500000920E-02 0. -1.
       -2   -1    0    0    0  501  0.00000000000E+00  0.00000000000E+00 -0.77320704239E+03  0.77320704239E+03  0.25500000920E-02 0.  1.
    10030    2    1    2    0    0  0.00000000000E+00  0.00000000000E+00  0.19847059153E+04  0.35311200001E+04  0.29205737253E+04 0.  0.
        1    1    3    3  502    0 -0.12020505854E+03 -0.64151221866E+02  0.27502108271E+04  0.27535838881E+04  0.50400001928E-02 0. -1.
       -1    1    3    3    0  502  0.12020505854E+03  0.64151221866E+02 -0.76550491181E+03  0.77753611196E+03  0.50400001928E-02 0.  1.
</event>
<event>
 5   0  0.1385669E-05  0.2874887E+04  0.7818609E-02  0.8280389E-01
        2   -1    0    0  501    0  0.00000000000E+00  0.00000000000E+00  0.15759578316E+04  0.15759578316E+04  0.25500000920E-02 0.  1.
       -2   -1    0    0    0  501  0.00000000000E+00  0.00000000000E+00 -0.13111031830E+04  0.13111031830E+04  0.25500000920E-02 0. -1.
    10030    2    1    2    0    0  0.00000000000E+00  0.00000000000E+00  0.26485464860E+03  0.28870610146E+04  0.28748866616E+04 0.  0.
        3    1    3    3  502    0 -0.14191125630E+04 -0.16438768244E+03 -0.27430765231E+02  0.14288653659E+04  0.10100000352E+00 0. -1.
       -3    1    3    3    0  502  0.14191125630E+04  0.16438768244E+03  0.29228541383E+03  0.14581956488E+04  0.10100000352E+00 0.  1.
</event>
<event>
 5   0  0.1336899E-05  0.1965984E+04  0.7818609E-02  0.8622691E-01
       -2   -1    0    0    0  501  0.00000000000E+00  0.00000000000E+00  0.61357451944E+03  0.61357451945E+03  0.25500000920E-02 0.  1.
        2   -1    0    0  501    0  0.00000000000E+00  0.00000000000E+00 -0.15748268809E+04  0.15748268809E+04  0.25500000920E-02 0. -1.
    10030    2    1    2    0    0  0.00000000000E+00  0.00000000000E+00 -0.96125236142E+03  0.21884014003E+04  0.19659843811E+04 0.  0.
        1    1    3    3  502    0 -0.34763889705E+03  0.70901515948E+03 -0.11322779794E+04  0.13804378732E+04  0.50400001928E-02 0. -1.
       -1    1    3    3    0  502  0.34763889705E+03 -0.70901515948E+03  0.17102561797E+03  0.80796352711E+03  0.50400001928E-02 0.  1.
</event>
<event>
 5   0  0.1385669E-05  0.2876742E+04  0.7818609E-02  0.8279831E-01
       -2   -1    0    0    0  501  0.00000000000E+00  0.00000000000E+00  0.11977278063E+04  0.11977278063E+04  0.25500000920E-02 0.  1.
        2   -1    0    0  501    0  0.00000000000E+00  0.00000000000E+00 -0.17273638652E+04  0.17273638652E+04  0.25500000920E-02 0. -1.
    10030    2    1    2    0    0  0.00000000000E+00  0.00000000000E+00 -0.52963605897E+03  0.29250916715E+04  0.28767424167E+04 0.  0.
        3    1    3    3  502    0 -0.13508363294E+04 -0.47625149233E+03 -0.39870278037E+03  0.14867878766E+04  0.10100000352E+00 0. -1.
       -3    1    3    3    0  502  0.13508363294E+04  0.47625149233E+03 -0.13093327859E+03  0.14383037949E+04  0.10100000352E+00 0.  1.
</event>
<event>
 5   0  0.1382803E-05  0.2932434E+04  0.7818609E-02  0.8263292E-01
       -2   -1    0    0    0  501  0.00000000000E+00  0.00000000000E+00  0.74997999659E+03  0.74997999659E+03  0.25500000920E-02 0.  1.
        2   -1    0    0  501    0  0.00000000000E+00  0.00000000000E+00 -0.28664652509E+04  0.28664652509E+04  0.25500000920E-02 0. -1.
    10030    2    1    2    0    0  0.00000000000E+00  0.00000000000E+00 -0.21164852543E+04  0.36164452475E+04  0.29324335280E+04 0.  0.
        2    1    3    3  502    0  0.13296719622E+04  0.54496486855E+03 -0.14173246578E+04  0.20183714773E+04  0.25500000920E-02 0.  1.
       -2    1    3    3    0  502 -0.13296719622E+04 -0.54496486855E+03 -0.69916059654E+03  0.15980737701E+04  0.25500000920E-02 0. -1.
</event>
<event>
 5   0  0.1336899E-05  0.2851708E+04  0.7818609E-02  0.8287392E-01
        2   -1    0    0  501    0  0.00000000000E+00  0.00000000000E+00  0.13494138426E+04  0.13494138426E+04  0.25500000920E-02 0.  1.
       -2   -1    0    0    0  501  0.00000000000E+00  0.00000000000E+00 -0.15066245887E+04  0.15066245887E+04  0.25500000920E-02 0. -1.
    10030    2    1    2    0    0  0.00000000000E+00  0.00000000000E+00 -0.15721074605E+03  0.28560384313E+04  0.28517083130E+04 0.  0.
        1    1    3    3  502    0 -0.46159516124E+02  0.96501389873E+03  0.97164205077E+03  0.13702083055E+04  0.50400001928E-02 0.  1.
       -1    1    3    3    0  502  0.46159516124E+02 -0.96501389873E+03 -0.11288527968E+04  0.14858301258E+04  0.50400001928E-02 0. -1.
</event>
<event>
 5   0  0.5261878E-06  0.2928102E+04  0.7818609E-02  0.8264565E-01
       -1   -1    0    0    0  501  0.00000000000E+00  0.00000000000E+00  0.19357259530E+04  0.19357259530E+04  0.50400001928E-02 0.  1.
        1   -1    0    0  501    0  0.00000000000E+00  0.00000000000E+00 -0.11073079688E+04  0.11073079688E+04  0.50400001928E-02 0. -1.
    10030    2    1    2    0    0  0.00000000000E+00  0.00000000000E+00  0.82841798424E+03  0.30430339218E+04  0.29281016192E+04 0.  0.
        5    1    3    3  502    0 -0.11566039068E+04  0.83246550430E+03  0.76308072760E+03  0.16164917878E+04  0.46999998093E+01 0.  1.
       -5    1    3    3    0  502  0.11566039068E+04 -0.83246550430E+03  0.65337256639E+02  0.14265421340E+04  0.46999998093E+01 0. -1.
</event>
<event>
 5   0  0.5154476E-06  0.3031286E+04  0.7818609E-02  0.8234853E-01
       -1   -1    0    0    0  501  0.00000000000E+00  0.00000000000E+00  0.32657420885E+04  0.32657420885E+04  0.50400001928E-02 0. -1.
        1   -1    0    0  501    0  0.00000000000E+00  0.00000000000E+00 -0.70341561520E+03  0.70341561522E+03  0.50400001928E-02 0.  1.
    10030    2    1    2    0    0  0.00000000000E+00  0.00000000000E+00  0.25623264733E+04  0.39691577037E+04  0.30312861827E+04 0.  0.
        3    1    3    3  502    0 -0.10239158370E+04  0.10584601502E+04  0.81190837524E+03  0.16816470351E+04  0.10100000352E+00 0. -1.
       -3    1    3    3    0  502  0.10239158370E+04 -0.10584601502E+04  0.17504180980E+04  0.22875106686E+04  0.10100000352E+00 0.  1.
</event>
<event>
 5   0  0.1382803E-05  0.2883875E+04  0.7818609E-02  0.8277691E-01
        2   -1    0    0  501    0  0.00000000000E+00  0.00000000000E+00  0.16650711793E+04  0.16650711794E+04  0.25500000920E-02 0. -1.
       -2   -1    0    0    0  501  0.00000000000E+00  0.00000000000E+00 -0.12487058986E+04  0.12487058986E+04  0.25500000920E-02 0.  1.
    10030    2    1    2    0    0  0.00000000000E+00  0.00000000000E+00  0.41636528076E+03  0.29137770779E+04  0.28838753116E+04 0.  0.
        2    1    3    3  502    0  0.13689627490E+04  0.39958092375E+03  0.42360753967E+03  0.14876717617E+04  0.25500000920E-02 0.  1.
       -2    1    3    3    0  502 -0.13689627490E+04 -0.39958092375E+03 -0.72422589071E+01  0.14261053163E+04  0.25500000920E-02 0. -1.
</event>
<event>
 5   0  0.5154476E-06  0.2826360E+04  0.7818609E-02  0.8295131E-01
        1   -1    0    0  501    0  0.00000000000E+00  0.00000000000E+00  0.21395631252E+04  0.21395631252E+04  0.50400001928E-02 0.  1.
       -1   -1    0    0    0  501  0.00000000000E+00  0.00000000000E+00 -0.93340412868E+03  0.93340412869E+03  0.50400001928E-02 0. -1.
    10030    2    1    2    0    0  0.00000000000E+00  0.00000000000E+00  0.12061589965E+04  0.30729672539E+04  0.28263595346E+04 0.  0.
        3    1    3    3  502    0 -0.77748147331E+02  0.12841982138E+04  0.12387898077E+04  0.17860039262E+04  0.10100000352E+00 0.  1.
       -3    1    3    3    0  502  0.77748147331E+02 -0.12841982138E+04 -0.32630811226E+02  0.12869633276E+04  0.10100000352E+00 0. -1.
</event>
<event>
 5   0  0.5154476E-06  0.2932514E+04  0.7818609E-02  0.8263269E-01
        1   -1    0    0  501    0  0.00000000000E+00  0.00000000000E+00  0.10748319242E+04  0.10748319242E+04  0.50400001928E-02 0.  1.
       -1   -1    0    0    0  501  0.00000000000E+00  0.00000000000E+00 -0.20002281397E+04  0.20002281397E+04  0.50400001928E-02 0. -1.
    10030    2    1    2    0    0  0.00000000000E+00  0.00000000000E+00 -0.92539621555E+03  0.30750600639E+04  0.29325136387E+04 0.  0.
        3    1    3    3  502    0  0.32464661785E+03  0.10775209154E+04  0.52291750270E+03  0.12409228318E+04  0.10100000352E+00 0.  1.
       -3    1    3    3    0  502 -0.32464661785E+03 -0.10775209154E+04 -0.14483137183E+04  0.18341372321E+04  0.10100000352E+00 0. -1.
</event>
<event>
 5   0  0.1339837E-05  0.2880743E+04  0.7818609E-02  0.8278630E-01
        2   -1    0    0  501    0  0.00000000000E+00  0.00000000000E+00  0.20696179103E+04  0.20696179103E+04  0.25500000920E-02 0.  1.
       -2   -1    0    0    0  501  0.00000000000E+00  0.00000000000E+00 -0.10024413945E+04  0.10024413945E+04  0.25500000920E-02 0. -1.
    10030    2    1    2    0    0  0.00000000000E+00  0.00000000000E+00  0.10671765158E+04  0.30720593049E+04  0.28807434209E+04 0.  0.
        5    1    3    3  502    0 -0.13989938186E+04  0.16728786390E+03  0.85258564923E+03  0.16468434392E+04  0.46999998093E+01 0. -1.
       -5    1    3    3    0  502  0.13989938186E+04 -0.16728786390E+03  0.21459086657E+03  0.14252158657E+04  0.46999998093E+01 0.  1.
</event>
<event>
 5   0  0.1385669E-05  0.2797185E+04  0.7818609E-02  0.8304143E-01
       -2   -1    0    0    0  501  0.00000000000E+00  0.00000000000E+00  0.12356388979E+04  0.12356388979E+04  0.25500000920E-02 0.  1.
        2   -1    0    0  501    0  0.00000000000E+00  0.00000000000E+00 -0.15830357717E+04  0.15830357718E+04  0.25500000920E-02 0. -1.
    10030    2    1    2    0    0  0.00000000000E+00  0.00000000000E+00 -0.34739687381E+03  0.28186746697E+04  0.27971847107E+04 0.  0.
        3    1    3    3  502    0 -0.56273591259E+03  0.53764113658E+03  0.99726653700E+03  0.12650178873E+04  0.10100000352E+00 0.  1.
       -3    1    3    3    0  502  0.56273591259E+03 -0.53764113658E+03 -0.13446634108E+04  0.15536567824E+04  0.10100000352E+00 0. -1.
</event>
<event>
 5   0  0.5261878E-06  0.2920685E+04  0.7818609E-02  0.8266750E-01
       -1   -1    0    0    0  501  0.00000000000E+00  0.00000000000E+00  0.13361726447E+04  0.13361726447E+04  0.50400001928E-02 0. -1.
        1   -1    0    0  501    0  0.00000000000E+00  0.00000000000E+00 -0.15960509120E+04  0.15960509120E+04  0.50400001928E-02 0.  1.
    10030    2    1    2    0    0  0.00000000000E+00  0.00000000000E+00 -0.25987826729E+03  0.29322235567E+04  0.29206845555E+04 0.  0.
        5    1    3    3  502    0 -0.12469777731E+04  0.63255257617E+03 -0.55291248830E+03  0.15035992279E+04  0.46999998093E+01 0.  1.
       -5    1    3    3    0  502  0.12469777731E+04 -0.63255257617E+03  0.29303422102E+03  0.14286243288E+04  0.46999998093E+01 0. -1.
</event>
<event>
 5   0  0.1382803E-05  0.2868786E+04  0.7818609E-02  0.8282226E-01
        2   -1    0    0  501    0  0.00000000000E+00  0.00000000000E+00  0.18100059166E+04  0.18100059166E+04  0.25500000920E-02 0. -1.
       -2   -1    0    0    0  501  0.00000000000E+00  0.00000000000E+00 -0.11367271700E+04  0.11367271700E+04  0.25500000920E-02 0.  1.
    10030    2    1    2    0    0  0.00000000000E+00  0.00000000000E+00  0.67327874664E+03  0.29467330867E+04  0.28687857385E+04 0.  0.
        2    1    3    3  502    0  0.89795390046E+03  0.63868402202E+02  0.14837103274E+04  0.17354528849E+04  0.25500000920E-02 0. -1.
       -2    1    3    3    0  502 -0.89795390046E+03 -0.63868402202E+02 -0.81043158071E+03  0.12112802018E+04  0.25500000920E-02 0.  1.
</event>
<event>
 5   0  0.5059249E-06  0.2939106E+04  0.7818609E-02  0.8261337E-01
        1   -1    0    0  501    0  0.00000000000E+00  0.00000000000E+00  0.19950381490E+04  0.19950381490E+04  0.50400001928E-02 0. -1.
       -1   -1    0    0    0  501  0.00000000000E+00  0.00000000000E+00 -0.10824784380E+04  0.10824784380E+04  0.50400001928E-02 0.  1.
    10030    2    1    2    0    0  0.00000000000E+00  0.00000000000E+00  0.91255971095E+03  0.30775165870E+04  0.29391058363E+04 0.  0.
        1    1    3    3  502    0 -0.55992565249E+03  0.80803404627E+02  0.18764480354E+04  0.19598732500E+04  0.50400001928E-02 0. -1.
       -1    1    3    3    0  502  0.55992565249E+03 -0.80803404627E+02 -0.96388832449E+03  0.11176433369E+04  0.50400001928E-02 0.  1.
</event>
<event>
 5   0  0.4590125E-06  0.2922492E+04  0.7818609E-02  0.8266217E-01
       -3   -1    0    0    0  501  0.00000000000E+00  0.00000000000E+00  0.24823441436E+04  0.24823441457E+04  0.10100000352E+00 0.  1.
        3   -1    0    0  501    0  0.00000000000E+00  0.00000000000E+00 -0.86017070422E+03  0.86017071015E+03  0.10100000352E+00 0. -1.
    10030    2    1    2    0    0  0.00000000000E+00  0.00000000000E+00  0.16221734394E+04  0.33425148558E+04  0.29224918980E+04 0.  0.
        4    1    3    3  502    0  0.12354887971E+04 -0.21209493574E+03 -0.47710762039E+02  0.12544699117E+04  0.12699999809E+01 0. -1.
       -4    1    3    3    0  502 -0.12354887971E+04  0.21209493574E+03  0.16698842015E+04  0.20880449442E+04  0.12699999809E+01 0.  1.
</event>
<event>
 5   0  0.1336899E-05  0.1963647E+04  0.7818609E-02  0.8623808E-01
       -2   -1    0    0    0  501  0.00000000000E+00  0.00000000000E+00  0.65654414265E+03  0.65654414265E+03  0.25500000920E-02 0.  1.
        2   -1    0    0  501    0  0.00000000000E+00  0.00000000000E+00 -0.14682594181E+04  0.14682594181E+04  0.25500000920E-02 0. -1.
    10030    2    1    2    0    0  0.00000000000E+00  0.00000000000E+00 -0.81171527542E+03  0.21248035607E+04  0.19636467308E+04 0.  0.
        1    1    3    3  502    0 -0.18307911174E+03  0.28138318593E+03  0.59251419763E+03  0.68100479653E+03  0.50400001928E-02 0.  1.
       -1    1    3    3    0  502  0.18307911174E+03 -0.28138318593E+03 -0.14042294731E+04  0.14437987642E+04  0.50400001928E-02 0. -1.
</event>
<event>
 5   0  0.5352212E-06  0.2861999E+04  0.7818609E-02  0.8284275E-01
        1   -1    0    0  501    0  0.00000000000E+00  0.00000000000E+00  0.12989093931E+04  0.12989093932E+04  0.50400001928E-02 0.  1.
       -1   -1    0    0    0  501  0.00000000000E+00  0.00000000000E+00 -0.15765220472E+04  0.15765220472E+04  0.50400001928E-02 0. -1.
    10030    2    1    2    0    0  0.00000000000E+00  0.00000000000E+00 -0.27761265408E+03  0.28754314404E+04  0.28619988090E+04 0.  0.
        2    1    3    3  502    0 -0.66704522401E+03 -0.12616847017E+04 -0.24399575486E+03  0.14478713844E+04  0.25500000920E-02 0.  1.
       -2    1    3    3    0  502  0.66704522401E+03  0.12616847017E+04 -0.33616899224E+02  0.14275600560E+04  0.25500000920E-02 0. -1.
</event>
<event>
 5   0  0.5154476E-06  0.2802123E+04  0.7818609E-02  0.8302610E-01
       -1   -1    0    0    0  501  0.00000000000E+00  0.00000000000E+00  0.13601667341E+04  0.13601667341E+04  0.50400001928E-02 0.  1.
        1   -1    0    0  501    0  0.00000000000E+00  0.00000000000E+00 -0.14431856656E+04  0.14431856656E+04  0.50400001928E-02 0. -1.
    10030    2    1    2    0    0  0.00000000000E+00  0.00000000000E+00 -0.83018931513E+02  0.28033523997E+04  0.28021228620E+04 0.  0.
        3    1    3    3  502    0 -0.44404383322E+02 -0.29257940410E+03 -0.14115623231E+04  0.14422491668E+04  0.10100000352E+00 0. -1.
       -3    1    3    3    0  502  0.44404383322E+02  0.29257940410E+03  0.13285433916E+04  0.13611032329E+04  0.10100000352E+00 0.  1.
</event>
<event>
 5   0  0.5261878E-06  0.2879889E+04  0.7818609E-02  0.8278886E-01
        1   -1    0    0  501    0  0.00000000000E+00  0.00000000000E+00  0.19492175888E+04  0.19492175888E+04  0.50400001928E-02 0.  1.
       -1   -1    0    0    0  501  0.00000000000E+00  0.00000000000E+00 -0.10637293349E+04  0.10637293349E+04  0.50400001928E-02 0. -1.
    10030    2    1    2    0    0  0.00000000000E+00  0.00000000000E+00  0.88548825384E+03  0.30129469237E+04  0.28798888377E+04 0.  0.
        5    1    3    3  502    0  0.37287361528E+03  0.12410949606E+04 -0.21400644954E+03  0.13134581397E+04  0.46999998093E+01 0. -1.
       -5    1    3    3    0  502 -0.37287361528E+03 -0.12410949606E+04  0.10994947034E+04  0.16994887840E+04  0.46999998093E+01 0.  1.
</event>
<event>
 5   0  0.5352212E-06  0.2220969E+04  0.7818609E-02  0.8509751E-01
        1   -1    0    0  501    0  0.00000000000E+00  0.00000000000E+00  0.18620943122E+04  0.18620943122E+04  0.50400001928E-02 0.  1.
       -1   -1    0    0    0  501  0.00000000000E+00  0.00000000000E+00 -0.66225214350E+03  0.66225214352E+03  0.50400001928E-02 0. -1.
    10030    2    1    2    0    0  0.00000000000E+00  0.00000000000E+00  0.11998421687E+04  0.25243464557E+04  0.22209691125E+04 0.  0.
        2    1    3    3  502    0  0.39224043484E+03  0.77668828184E+02  0.17774326282E+04  0.18218539330E+04  0.25500000920E-02 0.  1.
       -2    1    3    3    0  502 -0.39224043484E+03 -0.77668828184E+02 -0.57759045946E+03  0.70249252270E+03  0.25500000920E-02 0. -1.
</event>
<event>
 5   0  0.1307832E-05  0.2892651E+04  0.7818609E-02  0.8275067E-01
       -2   -1    0    0    0  501  0.00000000000E+00  0.00000000000E+00  0.92436258160E+03  0.92436258160E+03  0.25500000920E-02 0.  1.
        2   -1    0    0  501    0  0.00000000000E+00  0.00000000000E+00 -0.22630265788E+04  0.22630265788E+04  0.25500000920E-02 0. -1.
    10030    2    1    2    0    0  0.00000000000E+00  0.00000000000E+00 -0.13386639972E+04  0.31873891604E+04  0.28926507502E+04 0.  0.
        4    1    3    3  502    0  0.13671922880E+04 -0.24426655327E+02 -0.15010331796E+03  0.13756249608E+04  0.12699999809E+01 0.  1.
       -4    1    3    3    0  502 -0.13671922880E+04  0.24426655327E+02 -0.11885606793E+04  0.18117641996E+04  0.12699999809E+01 0. -1.
</event>
<event>
 5   0  0.5002240E-06  0.2862498E+04  0.7818609E-02  0.8284124E-01
       -1   -1    0    0    0  501  0.00000000000E+00  0.00000000000E+00  0.12344642843E+04  0.12344642843E+04  0.50400001928E-02 0. -1.
        1   -1    0    0  501    0  0.00000000000E+00  0.00000000000E+00 -0.16594028397E+04  0.16594028397E+04  0.50400001928E-02 0.  1.
    10030    2    1    2    0    0  0.00000000000E+00  0.00000000000E+00 -0.42493855538E+03  0.28938671240E+04  0.28624978874E+04 0.  0.
        4    1    3    3  502    0 -0.69515818336E+00  0.29264964116E+03  0.12038934598E+04  0.12389533370E+04  0.12699999809E+01 0. -1.
       -4    1    3    3    0  502  0.69515818336E+00 -0.29264964116E+03 -0.16288320152E+04  0.16549137870E+04  0.12699999809E+01 0.  1.
</event>
<event>
 5   0  0.5154476E-06  0.2959322E+04  0.7818609E-02  0.8255443E-01
        1   -1    0    0  501    0  0.00000000000E+00  0.00000000000E+00  0.22009127818E+04  0.22009127818E+04  0.50400001928E-02 0. -1.
       -1   -1    0    0    0  501  0.00000000000E+00  0.00000000000E+00 -0.99476732041E+03  0.99476732042E+03  0.50400001928E-02 0.  1.
    10030    2    1    2    0    0  0.00000000000E+00  0.00000000000E+00  0.12061454614E+04  0.31956801022E+04  0.29593216185E+04 0.  0.
        3    1    3    3  502    0 -0.19280393677E+03  0.88875629397E+03  0.18634863512E+04  0.20735579325E+04  0.10100000352E+00 0. -1.
       -3    1    3    3    0  502  0.19280393677E+03 -0.88875629397E+03 -0.65734088983E+03  0.11221221697E+04  0.10100000352E+00 0.  1.
</event>
<event>
 5   0  0.4590125E-06  0.2889643E+04  0.7818609E-02  0.8275966E-01
        4   -1    0    0  501    0  0.00000000000E+00  0.00000000000E+00  0.11141663711E+04  0.11141670949E+04  0.12699999809E+01 0.  1.
       -4   -1    0    0    0  501  0.00000000000E+00  0.00000000000E+00 -0.18736054280E+04  0.18736058585E+04  0.12699999809E+01 0. -1.
    10030    2    1    2    0    0  0.00000000000E+00  0.00000000000E+00 -0.75943905698E+03  0.29877729533E+04  0.28896434969E+04 0.  0.
        2    1    3    3  502    0 -0.12314754409E+04 -0.68774363538E+03 -0.56060931716E+02  0.14116181841E+04  0.25500000920E-02 0. -1.
       -2    1    3    3    0  502  0.12314754409E+04  0.68774363538E+03 -0.70337812526E+03  0.15761547693E+04  0.25500000920E-02 0.  1.
</event>
<event>
 5   0  0.1336899E-05  0.2897513E+04  0.7818609E-02  0.8273618E-01
        2   -1    0    0  501    0  0.00000000000E+00  0.00000000000E+00  0.17422120543E+04  0.17422120543E+04  0.25500000920E-02 0.  1.
       -2   -1    0    0    0  501  0.00000000000E+00  0.00000000000E+00 -0.12047304644E+04  0.12047304644E+04  0.25500000920E-02 0. -1.
    10030    2    1    2    0    0  0.00000000000E+00  0.00000000000E+00  0.53748158990E+03  0.29469425188E+04  0.28975133735E+04 0.  0.
        1    1    3    3  502    0  0.12573550034E+04 -0.43569212654E+03  0.85133613103E+03  0.15797285975E+04  0.50400001928E-02 0.  1.
       -1    1    3    3    0  502 -0.12573550034E+04  0.43569212654E+03 -0.31385454113E+03  0.13672139213E+04  0.50400001928E-02 0. -1.
</event>
<event>
 5   0  0.1385669E-05  0.2890439E+04  0.7818609E-02  0.8275728E-01
        2   -1    0    0  501    0  0.00000000000E+00  0.00000000000E+00  0.16657348383E+04  0.16657348383E+04  0.25500000920E-02 0.  1.
       -2   -1    0    0    0  501  0.00000000000E+00  0.00000000000E+00 -0.12538964025E+04  0.12538964025E+04  0.25500000920E-02 0. -1.
    10030    2    1    2    0    0  0.00000000000E+00  0.00000000000E+00  0.41183843581E+03  0.29196312408E+04  0.28904386665E+04 0.  0.
        3    1    3    3  502    0 -0.45886189144E+03  0.40625738841E+03 -0.11161386999E+04  0.12733282800E+04  0.10100000352E+00 0. -1.
       -3    1    3    3    0  502  0.45886189144E+03 -0.40625738841E+03  0.15279771357E+04  0.16463029608E+04  0.10100000352E+00 0.  1.
</event>
<event>
 5   0  0.1385669E-05  0.2020570E+04  0.7818609E-02  0.8597063E-01
        2   -1    0    0  501    0  0.00000000000E+00  0.00000000000E+00  0.19155663457E+04  0.19155663457E+04  0.25500000920E-02 0.  1.
       -2   -1    0    0    0  501  0.00000000000E+00  0.00000000000E+00 -0.53283252484E+03  0.53283252485E+03  0.25500000920E-02 0. -1.
    10030    2    1    2    0    0  0.00000000000E+00  0.00000000000E+00  0.13827338208E+04  0.24483988705E+04  0.20205702685E+04 0.  0.
        3    1    3    3  502    0  0.25742706744E+03 -0.43144279086E+03  0.17534624508E+04  0.18240181340E+04  0.10100000352E+00 0.  1.
       -3    1    3    3    0  502 -0.25742706744E+03  0.43144279086E+03 -0.37072862994E+03  0.62438073649E+03  0.10100000352E+00 0. -1.
</event>
<event>
 5   0  0.5002240E-06  0.2856161E+04  0.7818609E-02  0.8286042E-01
        1   -1    0    0  501    0  0.00000000000E+00  0.00000000000E+00  0.17065765643E+04  0.17065765643E+04  0.50400001928E-02 0. -1.
       -1   -1    0    0    0  501  0.00000000000E+00  0.00000000000E+00 -0.11950325573E+04  0.11950325573E+04  0.50400001928E-02 0.  1.
    10030    2    1    2    0    0  0.00000000000E+00  0.00000000000E+00  0.51154400698E+03  0.29016091217E+04  0.28561614492E+04 0.  0.
        4    1    3    3  502    0 -0.44261154413E+03  0.75850355815E+03 -0.88828235221E+03  0.12491115950E+04  0.12699999809E+01 0.  1.
       -4    1    3    3    0  502  0.44261154413E+03 -0.75850355815E+03  0.13998263592E+04  0.16524975266E+04  0.12699999809E+01 0. -1.
</event>
<event>
 5   0  0.1336899E-05  0.2971064E+04  0.7818609E-02  0.8252042E-01
       -2   -1    0    0    0  501  0.00000000000E+00  0.00000000000E+00  0.13860998932E+04  0.13860998932E+04  0.25500000920E-02 0. -1.
        2   -1    0    0  501    0  0.00000000000E+00  0.00000000000E+00 -0.15920971594E+04  0.15920971594E+04  0.25500000920E-02 0.  1.
    10030    2    1    2    0    0  0.00000000000E+00  0.00000000000E+00 -0.20599726617E+03  0.29781970526E+04  0.29710642555E+04 0.  0.
        1    1    3    3  502    0 -0.13679846486E+04  0.41454454538E+03 -0.50841555519E+03  0.15171405854E+04  0.50400001928E-02 0.  1.
       -1    1    3    3    0  502  0.13679846486E+04 -0.41454454538E+03  0.30241828902E+03  0.14610564673E+04  0.50400001928E-02 0. -1.
</event>
<event>
 5   0  0.5352212E-06  0.2586763E+04  0.7818609E-02  0.8372711E-01
        1   -1    0    0  501    0  0.00000000000E+00  0.00000000000E+00  0.17876565151E+04  0.17876565151E+04  0.50400001928E-02 0. -1.
       -1   -1    0    0    0  501  0.00000000000E+00  0.00000000000E+00 -0.93577011519E+03  0.93577011521E+03  0.50400001928E-02 0.  1.
    10030    2    1    2    0    0  0.00000000000E+00  0.00000000000E+00  0.85188639987E+03  0.27234266303E+04  0.25867628751E+04 0.  0.
        2    1    3    3  502    0  0.41054508492E+03 -0.80993757691E+03 -0.54374269841E+03  0.10583960824E+04  0.25500000920E-02 0.  1.
       -2    1    3    3    0  502 -0.41054508492E+03  0.80993757691E+03  0.13956290983E+04  0.16650305478E+04  0.25500000920E-02 0. -1.
</event>
<event>
 5   0  0.5059249E-06  0.2830116E+04  0.7818609E-02  0.8293979E-01
        1   -1    0    0  501    0  0.00000000000E+00  0.00000000000E+00  0.22403108348E+04  0.22403108348E+04  0.50400001928E-02 0. -1.
       -1   -1    0    0    0  501  0.00000000000E+00  0.00000000000E+00 -0.89380000283E+03  0.89380000285E+03  0.50400001928E-02 0.  1.
    10030    2    1    2    0    0  0.00000000000E+00  0.00000000000E+00  0.13465108320E+04  0.31341108377E+04  0.28301164856E+04 0.  0.
        1    1    3    3  502    0  0.13940779108E+04 -0.18619107128E+03  0.84577579486E+03  0.16411755029E+04  0.50400001928E-02 0.  1.
       -1    1    3    3    0  502 -0.13940779108E+04  0.18619107128E+03  0.50073503714E+03  0.14929353347E+04  0.50400001928E-02 0. -1.
</event>
<event>
 5   0  0.5261878E-06  0.2915754E+04  0.7818609E-02  0.8268206E-01
       -1   -1    0    0    0  501  0.00000000000E+00  0.00000000000E+00  0.11645447647E+04  0.11645447647E+04  0.50400001928E-02 0. -1.
        1   -1    0    0  501    0  0.00000000000E+00  0.00000000000E+00 -0.18250951662E+04  0.18250951662E+04  0.50400001928E-02 0.  1.
    10030    2    1    2    0    0  0.00000000000E+00  0.00000000000E+00 -0.66055040145E+03  0.29896399309E+04  0.29157537762E+04 0.  0.
        5    1    3    3  502    0  0.47860547160E+02  0.13101079396E+04  0.32362307097E+03  0.13503434479E+04  0.46999998093E+01 0. -1.
       -5    1    3    3    0  502 -0.47860547160E+02 -0.13101079396E+04 -0.98417347242E+03  0.16392964830E+04  0.46999998093E+01 0.  1.
</event>
<event>
 5   0  0.1382803E-05  0.3197260E+04  0.7818609E-02  0.8189541E-01
       -2   -1    0    0    0  501  0.00000000000E+00  0.00000000000E+00  0.15704471474E+04  0.15704471474E+04  0.25500000920E-02 0.  1.
        2   -1    0    0  501    0  0.00000000000E+00  0.00000000000E+00 -0.16273183984E+04  0.16273183984E+04  0.25500000920E-02 0. -1.
    10030    2    1    2    0    0  0.00000000000E+00  0.00000000000E+00 -0.56871250952E+02  0.31977655458E+04  0.31972597872E+04 0.  0.
        2    1    3    3  502    0 -0.95980785944E+03 -0.78448545168E+03  0.98116398950E+03  0.15809273624E+04  0.25500000920E-02 0.  1.
       -2    1    3    3    0  502  0.95980785944E+03  0.78448545168E+03 -0.10380352404E+04  0.16168381834E+04  0.25500000920E-02 0. -1.
</event>
<event>
 5   0  0.1336899E-05  0.2853154E+04  0.7818609E-02  0.8286953E-01
       -2   -1    0    0    0  501  0.00000000000E+00  0.00000000000E+00  0.19423451492E+04  0.19423451492E+04  0.25500000920E-02 0.  1.
        2   -1    0    0  501    0  0.00000000000E+00  0.00000000000E+00 -0.10477654905E+04  0.10477654905E+04  0.25500000920E-02 0. -1.
    10030    2    1    2    0    0  0.00000000000E+00  0.00000000000E+00  0.89457965872E+03  0.29901106397E+04  0.28531541969E+04 0.  0.
        1    1    3    3  502    0  0.12746440295E+04  0.26561794029E+03  0.10582415361E+04  0.16778395158E+04  0.50400001928E-02 0. -1.
       -1    1    3    3    0  502 -0.12746440295E+04 -0.26561794029E+03 -0.16366187734E+03  0.13122711238E+04  0.50400001928E-02 0.  1.
</event>
<event>
 5   0  0.1385669E-05  0.2969028E+04  0.7818609E-02  0.8252631E-01
       -2   -1    0    0    0  501  0.00000000000E+00  0.00000000000E+00  0.61110389598E+03  0.61110389598E+03  0.25500000920E-02 0. -1.
        2   -1    0    0  501    0  0.00000000000E+00  0.00000000000E+00 -0.36062314070E+04  0.36062314070E+04  0.25500000920E-02 0.  1.
    10030    2    1    2    0    0  0.00000000000E+00  0.00000000000E+00 -0.29951275110E+04  0.42173353030E+04  0.29690281660E+04 0.  0.
        3    1    3    3  502    0  0.49395248077E+02  0.98130817028E+03 -0.30782663048E+04  0.32312735986E+04  0.10100000352E+00 0.  1.
       -3    1    3    3    0  502 -0.49395248077E+02 -0.98130817028E+03  0.83138793781E+02  0.98606170437E+03  0.10100000352E+00 0. -1.
</event>
<event>
 5   0  0.5261878E-06  0.2923846E+04  0.7818609E-02  0.8265818E-01
       -1   -1    0    0    0  501  0.00000000000E+00  0.00000000000E+00  0.12808552423E+04  0.12808552423E+04  0.50400001928E-02 0.  1.
        1   -1    0    0  501    0  0.00000000000E+00  0.00000000000E+00 -0.16685870370E+04  0.16685870370E+04  0.50400001928E-02 0. -1.
    10030    2    1    2    0    0  0.00000000000E+00  0.00000000000E+00 -0.38773179472E+03  0.29494422794E+04  0.29238457235E+04 0.  0.
        5    1    3    3  502    0 -0.83290134016E+03 -0.70916701672E+03 -0.11721776796E+04  0.16033293806E+04  0.46999998093E+01 0. -1.
       -5    1    3    3    0  502  0.83290134016E+03  0.70916701672E+03  0.78444588487E+03  0.13461128988E+04  0.46999998093E+01 0.  1.
</event>
<event>
 5   0  0.1339837E-05  0.2893516E+04  0.7818609E-02  0.8274809E-01
        2   -1    0    0  501    0  0.00000000000E+00  0.00000000000E+00  0.20512569854E+04  0.20512569854E+04  0.25500000920E-02 0.  1.
       -2   -1    0    0    0  501  0.00000000000E+00  0.00000000000E+00 -0.10204027939E+04  0.10204027940E+04  0.25500000920E-02 0. -1.
    10030    2    1    2    0    0  0.00000000000E+00  0.00000000000E+00  0.10308541915E+04  0.30716597794E+04  0.28935157570E+04 0.  0.
        5    1    3    3  502    0 -0.22447071871E+03  0.68469039416E+03  0.18472165842E+04  0.19827806834E+04  0.46999998093E+01 0.  1.
       -5    1    3    3    0  502  0.22447071871E+03 -0.68469039416E+03 -0.81636239274E+03  0.10888790960E+04  0.46999998093E+01 0. -1.
</event>
<event>
 5   0  0.1307832E-05  0.2918745E+04  0.7818609E-02  0.8267322E-01
        2   -1    0    0  501    0  0.00000000000E+00  0.00000000000E+00  0.24560270523E+04  0.24560270523E+04  0.25500000920E-02 0.  1.
       -2   -1    0    0    0  501  0.00000000000E+00  0.00000000000E+00 -0.86715973992E+03  0.86715973992E+03  0.25500000920E-02 0. -1.
    10030    2    1    2    0    0  0.00000000000E+00  0.00000000000E+00  0.15888673124E+04  0.33231867922E+04  0.29187447850E+04 0.  0.
        4    1    3    3  502    0  0.29256177304E+03  0.48134516028E+02  0.24213726800E+04  0.24394582577E+04  0.12699999809E+01 0.  1.
       -4    1    3    3    0  502 -0.29256177304E+03 -0.48134516028E+02 -0.83250536763E+03  0.88372853452E+03  0.12699999809E+01 0. -1.
</event>
<event>
 5   0  0.1336899E-05  0.2812825E+04  0.7818609E-02  0.8299298E-01
        2   -1    0    0  501    0  0.00000000000E+00  0.00000000000E+00  0.16475183556E+04  0.16475183556E+04  0.25500000920E-02 0.  1.
       -2   -1    0    0    0  501  0.00000000000E+00  0.00000000000E+00 -0.12005915253E+04  0.12005915253E+04  0.25500000920E-02 0. -1.
    10030    2    1    2    0    0  0.00000000000E+00  0.00000000000E+00  0.44692683026E+03  0.28481098809E+04  0.28128253238E+04 0.  0.
        1    1    3    3  502    0  0.46356644238E+03  0.10840381656E+04  0.99987023102E+03  0.15458890872E+04  0.50400001928E-02 0.  1.
       -1    1    3    3    0  502 -0.46356644238E+03 -0.10840381656E+04 -0.55294340076E+03  0.13022207937E+04  0.50400001928E-02 0. -1.
</event>
<event>
 5   0  0.5002240E-06  0.2926125E+04  0.7818609E-02  0.8265147E-01
        1   -1    0    0  501    0  0.00000000000E+00  0.00000000000E+00  0.18588821050E+04  0.18588821050E+04  0.50400001928E-02 0.  1.
       -1   -1    0    0    0  501  0.00000000000E+00  0.00000000000E+00 -0.11515267711E+04  0.11515267711E+04  0.50400001928E-02 0. -1.
    10030    2    1    2    0    0  0.00000000000E+00  0.00000000000E+00  0.70735533387E+03  0.30104088761E+04  0.29261254301E+04 0.  0.
        4    1    3    3  502    0  0.32703087378E+03  0.14106460052E+04  0.13866124556E+03  0.14546820609E+04  0.12699999809E+01 0.  1.
       -4    1    3    3    0  502 -0.32703087378E+03 -0.14106460052E+04  0.56869408831E+03  0.15557268152E+04  0.12699999809E+01 0. -1.
</event>
<event>
 5   0  0.5261878E-06  0.2425036E+04  0.7818609E-02  0.8430190E-01
        1   -1    0    0  501    0  0.00000000000E+00  0.00000000000E+00  0.16662666380E+04  0.16662666380E+04  0.50400001928E-02 0. -1.
       -1   -1    0    0    0  501  0.00000000000E+00  0.00000000000E+00 -0.88233142338E+03  0.88233142339E+03  0.50400001928E-02 0.  1.
    10030    2    1    2    0    0  0.00000000000E+00  0.00000000000E+00  0.78393521463E+03  0.25485980614E+04  0.24250355993E+04 0.  0.
        5    1    3    3  502    0 -0.85651909598E+03  0.73429561330E+03 -0.74923223888E+02  0.11306858931E+04  0.46999998093E+01 0.  1.
       -5    1    3    3    0  502  0.85651909598E+03 -0.73429561330E+03  0.85885843851E+03  0.14179121683E+04  0.46999998093E+01 0. -1.
</event>
<event>
 5   0  0.1339837E-05  0.2995165E+04  0.7818609E-02  0.8245113E-01
        2   -1    0    0  501    0  0.00000000000E+00  0.00000000000E+00  0.22293008447E+04  0.22293008447E+04  0.25500000920E-02 0. -1.
       -2   -1    0    0    0  501  0.00000000000E+00  0.00000000000E+00 -0.10060346195E+04  0.10060346195E+04  0.25500000920E-02 0.  1.
    10030    2    1    2    0    0  0.00000000000E+00  0.00000000000E+00  0.12232662251E+04  0.32353354642E+04  0.29951653224E+04 0.  0.
        5    1    3    3  502    0 -0.11479834389E+02  0.14963390665E+04  0.67616776880E+03  0.16420680041E+04  0.46999998093E+01 0. -1.
       -5    1    3    3    0  502  0.11479834389E+02 -0.14963390665E+04  0.54709845633E+03  0.15932674601E+04  0.46999998093E+01 0.  1.
</event>
<event>
 5   0  0.1339837E-05  0.2893059E+04  0.7818609E-02  0.8274946E-01
        2   -1    0    0  501    0  0.00000000000E+00  0.00000000000E+00  0.19892149351E+04  0.19892149351E+04  0.25500000920E-02 0.  1.
       -2   -1    0    0    0  501  0.00000000000E+00  0.00000000000E+00 -0.10518961183E+04  0.10518961183E+04  0.25500000920E-02 0. -1.
    10030    2    1    2    0    0  0.00000000000E+00  0.00000000000E+00  0.93731881681E+03  0.30411110534E+04  0.28930589131E+04 0.  0.
        5    1    3    3  502    0 -0.12890599440E+04 -0.54337716819E+03  0.85558760099E+03  0.16398129524E+04  0.46999998093E+01 0.  1.
       -5    1    3    3    0  502  0.12890599440E+04  0.54337716819E+03  0.81731215822E+02  0.14012981009E+04  0.46999998093E+01 0. -1.
</event>
<event>
 5   0  0.1339837E-05  0.2941075E+04  0.7818609E-02  0.8260760E-01
        2   -1    0    0  501    0  0.00000000000E+00  0.00000000000E+00  0.19125035000E+04  0.19125035000E+04  0.25500000920E-02 0. -1.
       -2   -1    0    0    0  501  0.00000000000E+00  0.00000000000E+00 -0.11307063483E+04  0.11307063484E+04  0.25500000920E-02 0.  1.
    10030    2    1    2    0    0  0.00000000000E+00  0.00000000000E+00  0.78179715168E+03  0.30432098484E+04  0.29410745307E+04 0.  0.
        5    1    3    3  502    0  0.10547912305E+04 -0.71141911384E+03  0.11539045296E+04  0.17176202866E+04  0.46999998093E+01 0.  1.
       -5    1    3    3    0  502 -0.10547912305E+04  0.71141911384E+03 -0.37210737792E+03  0.13255895618E+04  0.46999998093E+01 0. -1.
</event>
<event>
 5   0  0.1307832E-05  0.3009062E+04  0.7818609E-02  0.8241148E-01
       -2   -1    0    0    0  501  0.00000000000E+00  0.00000000000E+00  0.11932607965E+04  0.11932607965E+04  0.25500000920E-02 0. -1.
        2   -1    0    0  501    0  0.00000000000E+00  0.00000000000E+00 -0.18969986606E+04  0.18969986606E+04  0.25500000920E-02 0.  1.
    10030    2    1    2    0    0  0.00000000000E+00  0.00000000000E+00 -0.70373786403E+03  0.30902594571E+04  0.30090624006E+04 0.  0.
        4    1    3    3  502    0  0.12864700866E+04  0.68343610246E+03 -0.73821476749E+03  0.16331114002E+04  0.12699999809E+01 0.  1.
       -4    1    3    3    0  502 -0.12864700866E+04 -0.68343610246E+03  0.34476903460E+02  0.14571480568E+04  0.12699999809E+01 0. -1.
</event>
<event>
 5   0  0.1307832E-05  0.2878935E+04  0.7818609E-02  0.8279173E-01
        2   -1    0    0  501    0  0.00000000000E+00  0.00000000000E+00  0.22444984714E+04  0.22444984714E+04  0.25500000920E-02 0.  1.
       -2   -1    0    0    0  501  0.00000000000E+00  0.00000000000E+00 -0.92317591327E+03  0.92317591327E+03  0.25500000920E-02 0. -1.
    10030    2    1    2    0    0  0.00000000000E+00  0.00000000000E+00  0.13213225581E+04  0.31676743846E+04  0.28789351685E+04 0.  0.
        4    1    3    3  502    0  0.10141522242E+03 -0.29417331346E+03 -0.88572803329E+03  0.93879643563E+03  0.12699999809E+01 0. -1.
       -4    1    3    3    0  502 -0.10141522242E+03  0.29417331346E+03  0.22070505914E+04  0.22288779490E+04  0.12699999809E+01 0.  1.
</event>
<event>
 5   0  0.5261878E-06  0.2959618E+04  0.7818609E-02  0.8255357E-01
       -1   -1    0    0    0  501  0.00000000000E+00  0.00000000000E+00  0.97783831052E+03  0.97783831053E+03  0.50400001928E-02 0. -1.
        1   -1    0    0  501    0  0.00000000000E+00  0.00000000000E+00 -0.22394650633E+04  0.22394650633E+04  0.50400001928E-02 0.  1.
    10030    2    1    2    0    0  0.00000000000E+00  0.00000000000E+00 -0.12616267528E+04  0.32173033738E+04  0.29596180389E+04 0.  0.
        5    1    3    3  502    0  0.10590565940E+03  0.50867464344E+03 -0.21370376053E+04  0.21992993698E+04  0.46999998093E+01 0.  1.
       -5    1    3    3    0  502 -0.10590565940E+03 -0.50867464344E+03  0.87541085251E+03  0.10180040040E+04  0.46999998093E+01 0. -1.
</event>
<event>
 5   0  0.1385669E-05  0.2897136E+04  0.7818609E-02  0.8273730E-01
       -2   -1    0    0    0  501  0.00000000000E+00  0.00000000000E+00  0.12108692626E+04  0.12108692626E+04  0.25500000920E-02 0. -1.
        2   -1    0    0  501    0  0.00000000000E+00  0.00000000000E+00 -0.17329281290E+04  0.17329281290E+04  0.25500000920E-02 0.  1.
    10030    2    1    2    0    0  0.00000000000E+00  0.00000000000E+00 -0.52205886645E+03  0.29437973916E+04  0.28971361070E+04 0.  0.
        3    1    3    3  502    0  0.10858734141E+03  0.50406795303E+03  0.11144620021E+04  0.12279663173E+04  0.10100000352E+00 0. -1.
       -3    1    3    3    0  502 -0.10858734141E+03 -0.50406795303E+03 -0.16365208686E+04  0.17158310743E+04  0.10100000352E+00 0.  1.
</event>
<event>
 5   0  0.1382803E-05  0.2744376E+04  0.7818609E-02  0.8320748E-01
       -2   -1    0    0    0  501  0.00000000000E+00  0.00000000000E+00  0.94295826190E+03  0.94295826190E+03  0.25500000920E-02 0.  1.
        2   -1    0    0  501    0  0.00000000000E+00  0.00000000000E+00 -0.19968007390E+04  0.19968007390E+04  0.25500000920E-02 0. -1.
    10030    2    1    2    0    0  0.00000000000E+00  0.00000000000E+00 -0.10538424771E+04  0.29397590009E+04  0.27443758884E+04 0.  0.
        2    1    3    3  502    0  0.12719873166E+04 -0.46988056953E+03 -0.30181683066E+03  0.13891842507E+04  0.25500000920E-02 0.  1.
       -2    1    3    3    0  502 -0.12719873166E+04  0.46988056953E+03 -0.75202564642E+03  0.15505747502E+04  0.25500000920E-02 0. -1.
</event>
<event>
 5   0  0.5059249E-06  0.2983207E+04  0.7818609E-02  0.8248543E-01
       -1   -1    0    0    0  501  0.00000000000E+00  0.00000000000E+00  0.11568134032E+04  0.11568134033E+04  0.50400001928E-02 0. -1.
        1   -1    0    0  501    0  0.00000000000E+00  0.00000000000E+00 -0.19232837006E+04  0.19232837006E+04  0.50400001928E-02 0.  1.
    10030    2    1    2    0    0  0.00000000000E+00  0.00000000000E+00 -0.76647029736E+03  0.30800971039E+04  0.29832065722E+04 0.  0.
        1    1    3    3  502    0 -0.79007497229E+02 -0.13386134247E+04 -0.10577150381E+04  0.17078902738E+04  0.50400001928E-02 0.  1.
       -1    1    3    3    0  502  0.79007497229E+02  0.13386134247E+04  0.29124474072E+03  0.13722068301E+04  0.50400001928E-02 0. -1.
</event>
<event>
 5   0  0.1339837E-05  0.2911538E+04  0.7818609E-02  0.8269453E-01
       -2   -1    0    0    0  501  0.00000000000E+00  0.00000000000E+00  0.81120511068E+03  0.81120511068E+03  0.25500000920E-02 0. -1.
        2   -1    0    0  501    0  0.00000000000E+00  0.00000000000E+00 -0.26124881696E+04  0.26124881696E+04  0.25500000920E-02 0.  1.
    10030    2    1    2    0    0  0.00000000000E+00  0.00000000000E+00 -0.18012830589E+04  0.34236932803E+04  0.29115382565E+04 0.  0.
        5    1    3    3  502    0 -0.42001476097E+02 -0.25905881385E+03  0.78314896279E+03  0.82596608947E+03  0.46999998093E+01 0. -1.
       -5    1    3    3    0  502  0.42001476097E+02  0.25905881385E+03 -0.25844320217E+04  0.25977271908E+04  0.46999998093E+01 0.  1.
</event>
<event>
 5   0  0.1382803E-05  0.2932259E+04  0.7818609E-02  0.8263344E-01
        2   -1    0    0  501    0  0.00000000000E+00  0.00000000000E+00  0.12179509060E+04  0.12179509060E+04  0.25500000920E-02 0.  1.
       -2   -1    0    0    0  501  0.00000000000E+00  0.00000000000E+00 -0.17648786641E+04  0.17648786641E+04  0.25500000920E-02 0. -1.
    10030    2    1    2    0    0  0.00000000000E+00  0.00000000000E+00 -0.54692775809E+03  0.29828295701E+04  0.29322589026E+04 0.  0.
        2    1    3    3  502    0  0.10094331070E+04  0.10362241961E+04 -0.30983879309E+02  0.14469539671E+04  0.25500000920E-02 0. -1.
       -2    1    3    3    0  502 -0.10094331070E+04 -0.10362241961E+04 -0.51594387878E+03  0.15358756031E+04  0.25500000920E-02 0.  1.
</event>
<event>
 5   0  0.5059249E-06  0.2933651E+04  0.7818609E-02  0.8262935E-01
        1   -1    0    0  501    0  0.00000000000E+00  0.00000000000E+00  0.21145687990E+04  0.21145687990E+04  0.50400001928E-02 0. -1.
       -1   -1    0    0    0  501  0.00000000000E+00  0.00000000000E+00 -0.10175016285E+04  0.10175016286E+04  0.50400001928E-02 0.  1.
    10030    2    1    2    0    0  0.00000000000E+00  0.00000000000E+00  0.10970671705E+04  0.31320704276E+04  0.29336511018E+04 0.  0.
        1    1    3    3  502    0  0.94739392526E+03  0.85813218831E+03  0.13166609467E+04  0.18350864151E+04  0.50400001928E-02 0. -1.
       -1    1    3    3    0  502 -0.94739392526E+03 -0.85813218831E+03 -0.21959377617E+03  0.12969840125E+04  0.50400001928E-02 0.  1.
</event>
<event>
 5   0  0.1339837E-05  0.1973618E+04  0.7818609E-02  0.8619055E-01
       -2   -1    0    0    0  501  0.00000000000E+00  0.00000000000E+00  0.15693219897E+04  0.15693219897E+04  0.25500000920E-02 0. -1.
        2   -1    0    0  501    0  0.00000000000E+00  0.00000000000E+00 -0.62051771479E+03  0.62051771479E+03  0.25500000920E-02 0.  1.
    10030    2    1    2    0    0  0.00000000000E+00  0.00000000000E+00  0.94880427490E+03  0.21898397045E+04  0.19736180936E+04 0.  0.
        5    1    3    3  502    0 -0.73121832958E+03  0.46332974215E+03 -0.51222178722E+02  0.86717962214E+03  0.46999998093E+01 0.  1.
       -5    1    3    3    0  502  0.73121832958E+03 -0.46332974215E+03  0.10000264536E+04  0.13226600823E+04  0.46999998093E+01 0. -1.
</event>
<event>
 5   0  0.1339837E-05  0.2527866E+04  0.7818609E-02  0.8393125E-01
       -2   -1    0    0    0  501  0.00000000000E+00  0.00000000000E+00  0.10326595240E+04  0.10326595240E+04  0.25500000920E-02 0. -1.
        2   -1    0    0  501    0  0.00000000000E+00  0.00000000000E+00 -0.15470023148E+04  0.15470023148E+04  0.25500000920E-02 0.  1.
    10030    2    1    2    0    0  0.00000000000E+00  0.00000000000E+00 -0.51434279082E+03  0.25796618389E+04  0.25278660361E+04 0.  0.
        5    1    3    3  502    0 -0.65225177848E+03  0.81389724751E+02 -0.13588506180E+04  0.15094879138E+04  0.46999998093E+01 0.  1.
       -5    1    3    3    0  502  0.65225177848E+03 -0.81389724751E+02  0.84450782715E+03  0.10701739251E+04  0.46999998093E+01 0. -1.
</event>
<event>
 5   0  0.1385669E-05  0.2844831E+04  0.7818609E-02  0.8289484E-01
       -2   -1    0    0    0  501  0.00000000000E+00  0.00000000000E+00  0.80888021254E+03  0.80888021254E+03  0.25500000920E-02 0.  1.
        2   -1    0    0  501    0  0.00000000000E+00  0.00000000000E+00 -0.25013162129E+04  0.25013162129E+04  0.25500000920E-02 0. -1.
    10030    2    1    2    0    0  0.00000000000E+00  0.00000000000E+00 -0.16924360004E+04  0.33101964254E+04  0.28448305327E+04 0.  0.
        3    1    3    3  502    0  0.11765992833E+04 -0.79690449138E+03 -0.77427753176E+03  0.16183165167E+04  0.10100000352E+00 0. -1.
       -3    1    3    3    0  502 -0.11765992833E+04  0.79690449138E+03 -0.91815846860E+03  0.16918799087E+04  0.10100000352E+00 0.  1.
</event>
<event>
 5   0  0.5352212E-06  0.2900813E+04  0.7818609E-02  0.8272636E-01
       -1   -1    0    0    0  501  0.00000000000E+00  0.00000000000E+00  0.13668115653E+04  0.13668115653E+04  0.50400001928E-02 0.  1.
        1   -1    0    0  501    0  0.00000000000E+00  0.00000000000E+00 -0.15391143296E+04  0.15391143297E+04  0.50400001928E-02 0. -1.
    10030    2    1    2    0    0  0.00000000000E+00  0.00000000000E+00 -0.17230276434E+03  0.29059258950E+04  0.29008131730E+04 0.  0.
        2    1    3    3  502    0  0.14120002912E+04  0.31957934211E+03  0.23416654880E+01  0.14477158774E+04  0.25500000920E-02 0.  1.
       -2    1    3    3    0  502 -0.14120002912E+04 -0.31957934211E+03 -0.17464442982E+03  0.14582100175E+04  0.25500000920E-02 0. -1.
</event>
<event>
 5   0  0.5261878E-06  0.2903871E+04  0.7818609E-02  0.8271727E-01
       -1   -1    0    0    0  501  0.00000000000E+00  0.00000000000E+00  0.11914501539E+04  0.11914501539E+04  0.50400001928E-02 0. -1.
        1   -1    0    0  501    0  0.00000000000E+00  0.00000000000E+00 -0.17693702199E+04  0.17693702199E+04  0.50400001928E-02 0.  1.
    10030    2    1    2    0    0  0.00000000000E+00  0.00000000000E+00 -0.57792006602E+03  0.29608203738E+04  0.29038708103E+04 0.  0.
        5    1    3    3  502    0 -0.37603620656E+03 -0.82151539399E+03  0.86990539723E+03  0.12542122075E+04  0.46999998093E+01 0. -1.
       -5    1    3    3    0  502  0.37603620656E+03  0.82151539399E+03 -0.14478254633E+04  0.17066081663E+04  0.46999998093E+01 0.  1.
</event>
<event>
 5   0  0.1382803E-05  0.2860264E+04  0.7818609E-02  0.8284799E-01
       -2   -1    0    0    0  501  0.00000000000E+00  0.00000000000E+00  0.10120507043E+04  0.10120507043E+04  0.25500000920E-02 0.  1.
        2   -1    0    0  501    0  0.00000000000E+00  0.00000000000E+00 -0.20209239088E+04  0.20209239088E+04  0.25500000920E-02 0. -1.
    10030    2    1    2    0    0  0.00000000000E+00  0.00000000000E+00 -0.10088732046E+04  0.30329746131E+04  0.28602639495E+04 0.  0.
        2    1    3    3  502    0 -0.10071786050E+04 -0.69313155089E+03  0.28227693030E+03  0.12547989300E+04  0.25500000920E-02 0.  1.
       -2    1    3    3    0  502  0.10071786050E+04  0.69313155089E+03 -0.12911501349E+04  0.17781756831E+04  0.25500000920E-02 0. -1.
</event>
<event>
 5   0  0.1336899E-05  0.2779202E+04  0.7818609E-02  0.8309754E-01
       -2   -1    0    0    0  501  0.00000000000E+00  0.00000000000E+00  0.83354676880E+03  0.83354676880E+03  0.25500000920E-02 0.  1.
        2   -1    0    0  501    0  0.00000000000E+00  0.00000000000E+00 -0.23165964876E+04  0.23165964876E+04  0.25500000920E-02 0. -1.
    10030    2    1    2    0    0  0.00000000000E+00  0.00000000000E+00 -0.14830497188E+04  0.31501432565E+04  0.27792024157E+04 0.  0.
        1    1    3    3  502    0  0.33040043893E+03 -0.94484876932E+03  0.35101809500E+03  0.10607154896E+04  0.50400001928E-02 0.  1.
       -1    1    3    3    0  502 -0.33040043893E+03  0.94484876932E+03 -0.18340678138E+04  0.20894277668E+04  0.50400001928E-02 0. -1.
</event>
<event>
 5   0  0.5352212E-06  0.2841457E+04  0.7818609E-02  0.8290512E-01
        1   -1    0    0  501    0  0.00000000000E+00  0.00000000000E+00  0.22406573995E+04  0.22406573995E+04  0.50400001928E-02 0. -1.
       -1   -1    0    0    0  501  0.00000000000E+00  0.00000000000E+00 -0.90083776397E+03  0.90083776398E+03  0.50400001928E-02 0.  1.
    10030    2    1    2    0    0  0.00000000000E+00  0.00000000000E+00  0.13398196356E+04  0.31414951635E+04  0.28414565291E+04 0.  0.
        2    1    3    3  502    0  0.13016438665E+03 -0.33431110037E+01  0.22340468137E+04  0.22378380437E+04  0.25500000920E-02 0. -1.
       -2    1    3    3    0  502 -0.13016438665E+03  0.33431110037E+01 -0.89422717818E+03  0.90365711979E+03  0.25500000920E-02 0.  1.
</event>
<event>
 5   0  0.5154476E-06  0.2764442E+04  0.7818609E-02  0.8314393E-01
       -1   -1    0    0    0  501  0.00000000000E+00  0.00000000000E+00  0.11566059268E+04  0.11566059268E+04  0.50400001928E-02 0. -1.
        1   -1    0    0  501    0  0.00000000000E+00  0.00000000000E+00 -0.16518464029E+04  0.16518464029E+04  0.50400001928E-02 0.  1.
    10030    2    1    2    0    0  0.00000000000E+00  0.00000000000E+00 -0.49524047606E+03  0.28084523297E+04  0.27644423234E+04 0.  0.
        3    1    3    3  502    0  0.93651946601E+03 -0.84952751092E+03  0.31963227082E+03  0.13041972630E+04  0.10100000352E+00 0. -1.
       -3    1    3    3    0  502 -0.93651946601E+03  0.84952751092E+03 -0.81487274688E+03  0.15042550667E+04  0.10100000352E+00 0.  1.
</event>
<event>
 5   0  0.1382803E-05  0.2877410E+04  0.7818609E-02  0.8279631E-01
        2   -1    0    0  501    0  0.00000000000E+00  0.00000000000E+00  0.16131645943E+04  0.16131645943E+04  0.25500000920E-02 0. -1.
       -2   -1    0    0    0  501  0.00000000000E+00  0.00000000000E+00 -0.12831126622E+04  0.12831126622E+04  0.25500000920E-02 0.  1.
    10030    2    1    2    0    0  0.00000000000E+00  0.00000000000E+00  0.33005193204E+03  0.28962772565E+04  0.28774098889E+04 0.  0.
        2    1    3    3  502    0 -0.69684131403E+03 -0.89573115067E+03 -0.72505156967E+03  0.13467077968E+04  0.25500000920E-02 0.  1.
       -2    1    3    3    0  502  0.69684131403E+03  0.89573115067E+03  0.10551035017E+04  0.15495694597E+04  0.25500000920E-02 0. -1.
</event>
<event>
 5   0  0.5059249E-06  0.2907451E+04  0.7818609E-02  0.8270664E-01
       -1   -1    0    0    0  501  0.00000000000E+00  0.00000000000E+00  0.14408685677E+04  0.14408685678E+04  0.50400001928E-02 0. -1.
        1   -1    0    0  501    0  0.00000000000E+00  0.00000000000E+00 -0.14666971210E+04  0.14666971210E+04  0.50400001928E-02 0.  1.
    10030    2    1    2    0    0  0.00000000000E+00  0.00000000000E+00 -0.25828553230E+02  0.29075656887E+04  0.29074509661E+04 0.  0.
        1    1    3    3  502    0  0.12471375689E+04  0.56100866825E+03 -0.50612227941E+03  0.14581641208E+04  0.50400001928E-02 0. -1.
       -1    1    3    3    0  502 -0.12471375689E+04 -0.56100866825E+03  0.48029372618E+03  0.14494015679E+04  0.50400001928E-02 0.  1.
</event>
<event>
 5   0  0.5059249E-06  0.2559844E+04  0.7818609E-02  0.8381971E-01
       -1   -1    0    0    0  501  0.00000000000E+00  0.00000000000E+00  0.88682912141E+03  0.88682912143E+03  0.50400001928E-02 0.  1.
        1   -1    0    0  501    0  0.00000000000E+00  0.00000000000E+00 -0.18472554004E+04  0.18472554004E+04  0.50400001928E-02 0. -1.
    10030    2    1    2    0    0  0.00000000000E+00  0.00000000000E+00 -0.96042627897E+03  0.27340845218E+04  0.25598436544E+04 0.  0.
        1    1    3    3  502    0 -0.87204116799E+03  0.49868642167E+02  0.51901887991E+03  0.10160331086E+04  0.50400001928E-02 0.  1.
       -1    1    3    3    0  502  0.87204116799E+03 -0.49868642167E+02 -0.14794451589E+04  0.17180514132E+04  0.50400001928E-02 0. -1.
</event>
<event>
 5   0  0.5352212E-06  0.2893909E+04  0.7818609E-02  0.8274692E-01
        1   -1    0    0  501    0  0.00000000000E+00  0.00000000000E+00  0.23111005246E+04  0.23111005246E+04  0.50400001928E-02 0. -1.
       -1   -1    0    0    0  501  0.00000000000E+00  0.00000000000E+00 -0.90592245755E+03  0.90592245756E+03  0.50400001928E-02 0.  1.
    10030    2    1    2    0    0  0.00000000000E+00  0.00000000000E+00  0.14051780670E+04  0.32170229822E+04  0.28939093745E+04 0.  0.
        2    1    3    3  502    0 -0.88852985036E+03 -0.15397665008E+03  0.19605184547E+04  0.21579681914E+04  0.25500000920E-02 0. -1.
       -2    1    3    3    0  502  0.88852985036E+03  0.15397665008E+03 -0.55534038765E+03  0.10590547908E+04  0.25500000920E-02 0.  1.
</event>
<event>
 5   0  0.1307832E-05  0.2930275E+04  0.7818609E-02  0.8263926E-01
       -2   -1    0    0    0  501  0.00000000000E+00  0.00000000000E+00  0.14607692882E+04  0.14607692882E+04  0.25500000920E-02 0. -1.
        2   -1    0    0  501    0  0.00000000000E+00  0.00000000000E+00 -0.14695188411E+04  0.14695188411E+04  0.25500000920E-02 0.  1.
    10030    2    1    2    0    0  0.00000000000E+00  0.00000000000E+00 -0.87495529792E+01  0.29302881293E+04  0.29302750666E+04 0.  0.
        4    1    3    3  502    0 -0.26893123119E+03 -0.12552417243E+04  0.70179448877E+03  0.14630355125E+04  0.12699999809E+01 0. -1.
       -4    1    3    3    0  502  0.26893123119E+03  0.12552417243E+04 -0.71054404175E+03  0.14672526168E+04  0.12699999809E+01 0.  1.
</event>
<event>
 5   0  0.1339837E-05  0.2947884E+04  0.7818609E-02  0.8258771E-01
        2   -1    0    0  501    0  0.00000000000E+00  0.00000000000E+00  0.18940253276E+04  0.18940253276E+04  0.25500000920E-02 0. -1.
       -2   -1    0    0    0  501  0.00000000000E+00  0.00000000000E+00 -0.11470305757E+04  0.11470305757E+04  0.25500000920E-02 0.  1.
    10030    2    1    2    0    0  0.00000000000E+00  0.00000000000E+00  0.74699475187E+03  0.30410559034E+04  0.29478839611E+04 0.  0.
        5    1    3    3  502    0  0.46631933670E+02  0.14161211862E+04  0.79242245260E+03  0.16234312996E+04  0.46999998093E+01 0. -1.
       -5    1    3    3    0  502 -0.46631933670E+02 -0.14161211862E+04 -0.45427700734E+02  0.14176246038E+04  0.46999998093E+01 0.  1.
</event>
<event>
 5   0  0.1307832E-05  0.2193418E+04  0.7818609E-02  0.8521172E-01
        2   -1    0    0  501    0  0.00000000000E+00  0.00000000000E+00  0.10347737797E+04  0.10347737797E+04  0.25500000920E-02 0.  1.
       -2   -1    0    0    0  501  0.00000000000E+00  0.00000000000E+00 -0.11623517381E+04  0.11623517381E+04  0.25500000920E-02 0. -1.
    10030    2    1    2    0    0  0.00000000000E+00  0.00000000000E+00 -0.12757795837E+03  0.21971255178E+04  0.21934184292E+04 0.  0.
        4    1    3    3  502    0 -0.10314606027E+04 -0.24004310246E+03  0.22171523105E+03  0.10819847146E+04  0.12699999809E+01 0. -1.
       -4    1    3    3    0  502  0.10314606027E+04  0.24004310246E+03 -0.34929318942E+03  0.11151408033E+04  0.12699999809E+01 0.  1.
</event>
<event>
 5   0  0.1336899E-05  0.2436234E+04  0.7818609E-02  0.8426061E-01
        2   -1    0    0  501    0  0.00000000000E+00  0.00000000000E+00  0.14611725862E+04  0.14611725862E+04  0.25500000920E-02 0.  1.
       -2   -1    0    0    0  501  0.00000000000E+00  0.00000000000E+00 -0.10154920446E+04  0.10154920446E+04  0.25500000920E-02 0. -1.
    10030    2    1    2    0    0  0.00000000000E+00  0.00000000000E+00  0.44568054161E+03  0.24766646308E+04  0.24362340915E+04 0.  0.
        1    1    3    3  502    0  0.94934658967E+02  0.74506662271E+03 -0.75207019586E+03  0.10628953106E+04  0.50400001928E-02 0. -1.
       -1    1    3    3    0  502 -0.94934658967E+02 -0.74506662271E+03  0.11977507375E+04  0.14137693203E+04  0.50400001928E-02 0.  1.
</event>
<event>
 5   0  0.1339837E-05  0.2860773E+04  0.7818609E-02  0.8284645E-01
        2   -1    0    0  501    0  0.00000000000E+00  0.00000000000E+00  0.20199747336E+04  0.20199747336E+04  0.25500000920E-02 0.  1.
       -2   -1    0    0    0  501  0.00000000000E+00  0.00000000000E+00 -0.10128869346E+04  0.10128869346E+04  0.25500000920E-02 0. -1.
    10030    2    1    2    0    0  0.00000000000E+00  0.00000000000E+00  0.10070877991E+04  0.30328616682E+04  0.28607733332E+04 0.  0.
        5    1    3    3  502    0 -0.23416069830E+03 -0.33027109518E+03 -0.95086815674E+03  0.10334808031E+04  0.46999998093E+01 0. -1.
       -5    1    3    3    0  502  0.23416069830E+03  0.33027109518E+03  0.19579559558E+04  0.19993808651E+04  0.46999998093E+01 0.  1.
</event>
<event>
 5   0  0.1385669E-05  0.2567938E+04  0.7818609E-02  0.8379174E-01
       -2   -1    0    0    0  501  0.00000000000E+00  0.00000000000E+00  0.12101716370E+04  0.12101716370E+04  0.25500000920E-02 0.  1.
        2   -1    0    0  501    0  0.00000000000E+00  0.00000000000E+00 -0.13622662476E+04  0.13622662476E+04  0.25500000920E-02 0. -1.
    10030    2    1    2    0    0  0.00000000000E+00  0.00000000000E+00 -0.15209461059E+03  0.25724378845E+04  0.25679376743E+04 0.  0.
        3    1    3    3  502    0  0.32777523724E+03 -0.59839455945E+03 -0.11656405722E+04  0.13506408141E+04  0.10100000352E+00 0. -1.
       -3    1    3    3    0  502 -0.32777523724E+03  0.59839455945E+03  0.10135459616E+04  0.12217970705E+04  0.10100000352E+00 0.  1.
</event>
<event>
 5   0  0.1307832E-05  0.2912497E+04  0.7818609E-02  0.8269169E-01
        2   -1    0    0  501    0  0.00000000000E+00  0.00000000000E+00  0.31069733976E+04  0.31069733976E+04  0.25500000920E-02 0.  1.
       -2   -1    0    0    0  501  0.00000000000E+00  0.00000000000E+00 -0.68254859400E+03  0.68254859400E+03  0.25500000920E-02 0. -1.
    10030    2    1    2    0    0  0.00000000000E+00  0.00000000000E+00  0.24244248036E+04  0.37895219916E+04  0.29124974329E+04 0.  0.
        4    1    3    3  502    0 -0.16278102138E+03 -0.10212246191E+04  0.25462689064E+04  0.27482511422E+04  0.12699999809E+01 0.  1.
       -4    1    3    3    0  502  0.16278102138E+03  0.10212246191E+04 -0.12184410280E+03  0.10412708495E+04  0.12699999809E+01 0. -1.
</event>
<event>
 5   0  0.5154476E-06  0.2787940E+04  0.7818609E-02  0.8307022E-01
       -1   -1    0    0    0  501  0.00000000000E+00  0.00000000000E+00  0.13293782153E+04  0.13293782153E+04  0.50400001928E-02 0.  1.
        1   -1    0    0  501    0  0.00000000000E+00  0.00000000000E+00 -0.14616998288E+04  0.14616998288E+04  0.50400001928E-02 0. -1.
    10030    2    1    2    0    0  0.00000000000E+00  0.00000000000E+00 -0.13232161349E+03  0.27910780441E+04  0.27879396763E+04 0.  0.
        3    1    3    3  502    0  0.11998443422E+04  0.23779088102E+03  0.60315813447E+03  0.13638074256E+04  0.10100000352E+00 0. -1.
       -3    1    3    3    0  502 -0.11998443422E+04 -0.23779088102E+03 -0.73547974796E+03  0.14272706185E+04  0.10100000352E+00 0.  1.
</event>
<event>
 5   0  0.5352212E-06  0.2805993E+04  0.7818609E-02  0.8301410E-01
       -1   -1    0    0    0  501  0.00000000000E+00  0.00000000000E+00  0.15636802397E+04  0.15636802397E+04  0.50400001928E-02 0. -1.
        1   -1    0    0  501    0  0.00000000000E+00  0.00000000000E+00 -0.12588246268E+04  0.12588246268E+04  0.50400001928E-02 0.  1.
    10030    2    1    2    0    0  0.00000000000E+00  0.00000000000E+00  0.30485561293E+03  0.28225048665E+04  0.28059930108E+04 0.  0.
        2    1    3    3  502    0  0.11559184282E+04 -0.64025722864E+03  0.62671323996E+03  0.14624794757E+04  0.25500000920E-02 0. -1.
       -2    1    3    3    0  502 -0.11559184282E+04  0.64025722864E+03 -0.32185762702E+03  0.13600253908E+04  0.25500000920E-02 0.  1.
</event>
<event>
 5   0  0.5154476E-06  0.2789592E+04  0.7818609E-02  0.8306507E-01
       -1   -1    0    0    0  501  0.00000000000E+00  0.00000000000E+00  0.10741600686E+04  0.10741600686E+04  0.50400001928E-02 0. -1.
        1   -1    0    0  501    0  0.00000000000E+00  0.00000000000E+00 -0.18111414426E+04  0.18111414426E+04  0.50400001928E-02 0.  1.
    10030    2    1    2    0    0  0.00000000000E+00  0.00000000000E+00 -0.73698137403E+03  0.28853015112E+04  0.27895919531E+04 0.  0.
        3    1    3    3  502    0  0.90642933994E+03 -0.19528321728E+03 -0.14462124804E+04  0.17179290532E+04  0.10100000352E+00 0.  1.
       -3    1    3    3    0  502 -0.90642933994E+03  0.19528321728E+03  0.70923110632E+03  0.11673724580E+04  0.10100000352E+00 0. -1.
</event>
<event>
 5   0  0.1307832E-05  0.2937087E+04  0.7818609E-02  0.8261928E-01
        2   -1    0    0  501    0  0.00000000000E+00  0.00000000000E+00  0.19184119724E+04  0.19184119724E+04  0.25500000920E-02 0.  1.
       -2   -1    0    0    0  501  0.00000000000E+00  0.00000000000E+00 -0.11241691138E+04  0.11241691138E+04  0.25500000920E-02 0. -1.
    10030    2    1    2    0    0  0.00000000000E+00  0.00000000000E+00  0.79424285854E+03  0.30425810862E+04  0.29370866429E+04 0.  0.
        4    1    3    3  502    0 -0.11437367891E+04 -0.88504856926E+03  0.13266175205E+03  0.14522553378E+04  0.12699999809E+01 0. -1.
       -4    1    3    3    0  502  0.11437367891E+04  0.88504856926E+03  0.66158110649E+03  0.15903257484E+04  0.12699999809E+01 0.  1.
</event>
<event>
 5   0  0.5059249E-06  0.3007370E+04  0.7818609E-02  0.8241629E-01
        1   -1    0    0  501    0  0.00000000000E+00  0.00000000000E+00  0.26115047248E+04  0.26115047248E+04  0.50400001928E-02 0.  1.
       -1   -1    0    0    0  501  0.00000000000E+00  0.00000000000E+00 -0.86581063068E+03  0.86581063070E+03  0.50400001928E-02 0. -1.
    10030    2    1    2    0    0  0.00000000000E+00  0.00000000000E+00  0.17456940941E+04  0.34773153555E+04  0.30073699825E+04 0.  0.
        1    1    3    3  502    0  0.13985552024E+04 -0.51446143778E+03  0.11053721905E+04  0.18553907687E+04  0.50400001928E-02 0.  1.
       -1    1    3    3    0  502 -0.13985552024E+04  0.51446143778E+03  0.64032190361E+03  0.16219245868E+04  0.50400001928E-02 0. -1.
</event>
<event>
 5   0  0.5261878E-06  0.2805523E+04  0.7818609E-02  0.8301556E-01
        1   -1    0    0  501    0  0.00000000000E+00  0.00000000000E+00  0.23470791272E+04  0.23470791272E+04  0.50400001928E-02 0.  1.
       -1   -1    0    0    0  501  0.00000000000E+00  0.00000000000E+00 -0.83837809145E+03  0.83837809146E+03  0.50400001928E-02 0. -1.
    10030    2    1    2    0    0  0.00000000000E+00  0.00000000000E+00  0.15087010358E+04  0.31854572187E+04  0.28055229240E+04 0.  0.
        5    1    3    3  502    0 -0.26602500560E+03  0.52865794067E+03  0.21983796420E+04  0.22766518536E+04  0.46999998093E+01 0.  1.
       -5    1    3    3    0  502  0.26602500560E+03 -0.52865794067E+03 -0.68967860623E+03  0.90880536515E+03  0.46999998093E+01 0. -1.
</event>
<event>
 5   0  0.5059249E-06  0.2819806E+04  0.7818609E-02  0.8297146E-01
        1   -1    0    0  501    0  0.00000000000E+00  0.00000000000E+00  0.20101988177E+04  0.20101988177E+04  0.50400001928E-02 0.  1.
       -1   -1    0    0    0  501  0.00000000000E+00  0.00000000000E+00 -0.98887033510E+03  0.98887033512E+03  0.50400001928E-02 0. -1.
    10030    2    1    2    0    0  0.00000000000E+00  0.00000000000E+00  0.10213284826E+04  0.29990691528E+04  0.28198056518E+04 0.  0.
        1    1    3    3  502    0  0.56218605625E+03  0.12135376286E+04  0.98523623467E+03  0.16611493539E+04  0.50400001928E-02 0.  1.
       -1    1    3    3    0  502 -0.56218605625E+03 -0.12135376286E+04  0.36092247940E+02  0.13379197989E+04  0.50400001928E-02 0. -1.
</event>
<event>
 5   0  0.5352212E-06  0.1864268E+04  0.7818609E-02  0.8672850E-01
        1   -1    0    0  501    0  0.00000000000E+00  0.00000000000E+00  0.95940357801E+03  0.95940357802E+03  0.50400001928E-02 0.  1.
       -1   -1    0    0    0  501  0.00000000000E+00  0.00000000000E+00 -0.90563992595E+03  0.90563992597E+03  0.50400001928E-02 0. -1.
    10030    2    1    2    0    0  0.00000000000E+00  0.00000000000E+00  0.53763652053E+02  0.18650435040E+04  0.18642684199E+04 0.  0.
        2    1    3    3  502    0  0.25438731048E+03 -0.27108215150E+03  0.88203294911E+03  0.95717321312E+03  0.25500000920E-02 0.  1.
       -2    1    3    3    0  502 -0.25438731048E+03  0.27108215150E+03 -0.82826929705E+03  0.90787029087E+03  0.25500000920E-02 0. -1.
</event>
<event>
 5   0  0.1339837E-05  0.2945960E+04  0.7818609E-02  0.8259333E-01
        2   -1    0    0  501    0  0.00000000000E+00  0.00000000000E+00  0.24642846696E+04  0.24642846696E+04  0.25500000920E-02 0.  1.
       -2   -1    0    0    0  501  0.00000000000E+00  0.00000000000E+00 -0.88044617273E+03  0.88044617274E+03  0.25500000920E-02 0. -1.
    10030    2    1    2    0    0  0.00000000000E+00  0.00000000000E+00  0.15838384968E+04  0.33447308423E+04  0.29459599494E+04 0.  0.
        5    1    3    3  502    0 -0.12781847201E+03 -0.59162753617E+03 -0.73271892092E+03  0.95039981609E+03  0.46999998093E+01 0. -1.
       -5    1    3    3    0  502  0.12781847201E+03  0.59162753617E+03  0.23165574177E+04  0.23943310262E+04  0.46999998093E+01 0.  1.
</event>
<event>
 5   0  0.1307832E-05  0.2895399E+04  0.7818609E-02  0.8274248E-01
        2   -1    0    0  501    0  0.00000000000E+00  0.00000000000E+00  0.11819964888E+04  0.11819964888E+04  0.25500000920E-02 0. -1.
       -2   -1    0    0    0  501  0.00000000000E+00  0.00000000000E+00 -0.17731301669E+04  0.17731301669E+04  0.25500000920E-02 0.  1.
    10030    2    1    2    0    0  0.00000000000E+00  0.00000000000E+00 -0.59113367811E+03  0.29551266556E+04  0.28953988543E+04 0.  0.
        4    1    3    3  502    0  0.14306839449E+04  0.19958963183E+03 -0.39313939046E+03  0.14970814155E+04  0.12699999809E+01 0. -1.
       -4    1    3    3    0  502 -0.14306839449E+04 -0.19958963183E+03 -0.19799428764E+03  0.14580452401E+04  0.12699999809E+01 0.  1.
</event>
<event>
 5   0  0.5154476E-06  0.2675873E+04  0.7818609E-02  0.8342876E-01
       -1   -1    0    0    0  501  0.00000000000E+00  0.00000000000E+00  0.11874409437E+04  0.11874409437E+04  0.50400001928E-02 0. -1.
        1   -1    0    0  501    0  0.00000000000E+00  0.00000000000E+00 -0.15075053811E+04  0.15075053812E+04  0.50400001928E-02 0.  1.
    10030    2    1    2    0    0  0.00000000000E+00  0.00000000000E+00 -0.32006443748E+03  0.26949463248E+04  0.26758726520E+04 0.  0.
        3    1    3    3  502    0  0.72387282071E+02  0.12930117546E+04 -0.49851457535E+03  0.13876729111E+04  0.10100000352E+00 0. -1.
       -3    1    3    3    0  502 -0.72387282071E+02 -0.12930117546E+04  0.17845013787E+03  0.13072734137E+04  0.10100000352E+00 0.  1.
</event>
<event>
 5   0  0.5352212E-06  0.2941673E+04  0.7818609E-02  0.8260585E-01
       -1   -1    0    0    0  501  0.00000000000E+00  0.00000000000E+00  0.13642383063E+04  0.13642383063E+04  0.50400001928E-02 0.  1.
        1   -1    0    0  501    0  0.00000000000E+00  0.00000000000E+00 -0.15857639187E+04  0.15857639187E+04  0.50400001928E-02 0. -1.
    10030    2    1    2    0    0  0.00000000000E+00  0.00000000000E+00 -0.22152561238E+03  0.29500022250E+04  0.29416729136E+04 0.  0.
        2    1    3    3  502    0  0.65201585189E+03  0.17742955121E+03  0.11993642701E+04  0.13766192535E+04  0.25500000920E-02 0.  1.
       -2    1    3    3    0  502 -0.65201585189E+03 -0.17742955121E+03 -0.14208898825E+04  0.15733829715E+04  0.25500000920E-02 0. -1.
</event>
<event>
 5   0  0.1307832E-05  0.2883072E+04  0.7818609E-02  0.8277932E-01
       -2   -1    0    0    0  501  0.00000000000E+00  0.00000000000E+00  0.12478226178E+04  0.12478226178E+04  0.25500000920E-02 0.  1.
        2   -1    0    0  501    0  0.00000000000E+00  0.00000000000E+00 -0.16653215646E+04  0.16653215646E+04  0.25500000920E-02 0. -1.
    10030    2    1    2    0    0  0.00000000000E+00  0.00000000000E+00 -0.41749894686E+03  0.29131441824E+04  0.28830719132E+04 0.  0.
        4    1    3    3  502    0 -0.11780752065E+04  0.58394806652E+03  0.38831822464E+03  0.13710029880E+04  0.12699999809E+01 0.  1.
       -4    1    3    3    0  502  0.11780752065E+04 -0.58394806652E+03 -0.80581717150E+03  0.15421411944E+04  0.12699999809E+01 0. -1.
</event>
<event>
 5   0  0.5059249E-06  0.3017120E+04  0.7818609E-02  0.8238859E-01
       -1   -1    0    0    0  501  0.00000000000E+00  0.00000000000E+00  0.13541467757E+04  0.13541467757E+04  0.50400001928E-02 0.  1.
        1   -1    0    0  501    0  0.00000000000E+00  0.00000000000E+00 -0.16805805334E+04  0.16805805334E+04  0.50400001928E-02 0. -1.
    10030    2    1    2    0    0  0.00000000000E+00  0.00000000000E+00 -0.32643375763E+03  0.30347273091E+04  0.30171196268E+04 0.  0.
        1    1    3    3  502    0  0.76275354903E+03 -0.45315567793E+03 -0.13904231336E+04  0.16493694357E+04  0.50400001928E-02 0. -1.
       -1    1    3    3    0  502 -0.76275354903E+03  0.45315567793E+03  0.10639893760E+04  0.13853578734E+04  0.50400001928E-02 0.  1.
</event>
<event>
 5   0  0.1307832E-05  0.2894990E+04  0.7818609E-02  0.8274370E-01
       -2   -1    0    0    0  501  0.00000000000E+00  0.00000000000E+00  0.12102190420E+04  0.12102190420E+04  0.25500000920E-02 0.  1.
        2   -1    0    0  501    0  0.00000000000E+00  0.00000000000E+00 -0.17312914000E+04  0.17312914000E+04  0.25500000920E-02 0. -1.
    10030    2    1    2    0    0  0.00000000000E+00  0.00000000000E+00 -0.52107235800E+03  0.29415104420E+04  0.28949900308E+04 0.  0.
        4    1    3    3  502    0 -0.24841021397E+03 -0.65344441881E+03  0.10273263106E+04  0.12426174811E+04  0.12699999809E+01 0.  1.
       -4    1    3    3    0  502  0.24841021397E+03  0.65344441881E+03 -0.15483986686E+04  0.16988929610E+04  0.12699999809E+01 0. -1.
</event>
<event>
 5   0  0.5002240E-06  0.2299192E+04  0.7818609E-02  0.8478240E-01
        1   -1    0    0  501    0  0.00000000000E+00  0.00000000000E+00  0.14689783867E+04  0.14689783867E+04  0.50400001928E-02 0.  1.
       -1   -1    0    0    0  501  0.00000000000E+00  0.00000000000E+00 -0.89965307676E+03  0.89965307678E+03  0.50400001928E-02 0. -1.
    10030    2    1    2    0    0  0.00000000000E+00  0.00000000000E+00  0.56932530990E+03  0.23686314634E+04  0.22991919670E+04 0.  0.
        4    1    3    3  502    0  0.26350753925E+03 -0.89555772266E+03 -0.40650169318E+03  0.10181871622E+04  0.12699999809E+01 0. -1.
       -4    1    3    3    0  502 -0.26350753925E+03  0.89555772266E+03  0.97582700308E+03  0.13504443012E+04  0.12699999809E+01 0.  1.
</event>
<event>
 5   0  0.5059249E-06  0.2890569E+04  0.7818609E-02  0.8275689E-01
        1   -1    0    0  501    0  0.00000000000E+00  0.00000000000E+00  0.99683120529E+03  0.99683120530E+03  0.50400001928E-02 0. -1.
       -1   -1    0    0    0  501  0.00000000000E+00  0.00000000000E+00 -0.20954878933E+04  0.20954878933E+04  0.50400001928E-02 0.  1.
    10030    2    1    2    0    0  0.00000000000E+00  0.00000000000E+00 -0.10986566880E+04  0.30923190986E+04  0.28905693020E+04 0.  0.
        1    1    3    3  502    0 -0.94221503891E+03 -0.10774829509E+04 -0.76357892798E+03  0.16222797133E+04  0.50400001928E-02 0. -1.
       -1    1    3    3    0  502  0.94221503891E+03  0.10774829509E+04 -0.33507775999E+03  0.14700393853E+04  0.50400001928E-02 0.  1.
</event>
<event>
 5   0  0.1385669E-05  0.2905746E+04  0.7818609E-02  0.8271170E-01
        2   -1    0    0  501    0  0.00000000000E+00  0.00000000000E+00  0.25400164108E+04  0.25400164108E+04  0.25500000920E-02 0. -1.
       -2   -1    0    0    0  501  0.00000000000E+00  0.00000000000E+00 -0.83103423013E+03  0.83103423013E+03  0.25500000920E-02 0.  1.
    10030    2    1    2    0    0  0.00000000000E+00  0.00000000000E+00  0.17089821807E+04  0.33710506410E+04  0.29057464325E+04 0.  0.
        3    1    3    3  502    0  0.25038963953E+03  0.10126094356E+04 -0.31877379317E+03  0.10907289223E+04  0.10100000352E+00 0.  1.
       -3    1    3    3    0  502 -0.25038963953E+03 -0.10126094356E+04  0.20277559739E+04  0.22803217186E+04  0.10100000352E+00 0. -1.
</event>
<event>
 5   0  0.5261878E-06  0.2729686E+04  0.7818609E-02  0.8325437E-01
        1   -1    0    0  501    0  0.00000000000E+00  0.00000000000E+00  0.17851232419E+04  0.17851232419E+04  0.50400001928E-02 0.  1.
       -1   -1    0    0    0  501  0.00000000000E+00  0.00000000000E+00 -0.10435113175E+04  0.10435113175E+04  0.50400001928E-02 0. -1.
    10030    2    1    2    0    0  0.00000000000E+00  0.00000000000E+00  0.74161192446E+03  0.28286345594E+04  0.27296859204E+04 0.  0.
        5    1    3    3  502    0 -0.13174920525E+03 -0.43572266413E+03  0.17041336703E+04  0.17638893813E+04  0.46999998093E+01 0.  1.
       -5    1    3    3    0  502  0.13174920525E+03  0.43572266413E+03 -0.96252174583E+03  0.10647451781E+04  0.46999998093E+01 0. -1.
</event>
<event>
 5   0  0.1385669E-05  0.2948330E+04  0.7818609E-02  0.8258641E-01
        2   -1    0    0  501    0  0.00000000000E+00  0.00000000000E+00  0.22709374277E+04  0.22709374277E+04  0.25500000920E-02 0.  1.
       -2   -1    0    0    0  501  0.00000000000E+00  0.00000000000E+00 -0.95694542601E+03  0.95694542602E+03  0.25500000920E-02 0. -1.
    10030    2    1    2    0    0  0.00000000000E+00  0.00000000000E+00  0.13139920017E+04  0.32278828537E+04  0.29483304999E+04 0.  0.
        3    1    3    3  502    0 -0.12769123518E+04  0.58784415090E+03  0.11430470766E+04  0.18118009078E+04  0.10100000352E+00 0.  1.
       -3    1    3    3    0  502  0.12769123518E+04 -0.58784415090E+03  0.17094492506E+03  0.14160819459E+04  0.10100000352E+00 0. -1.
</event>
<event>
 5   0  0.1307832E-05  0.2950411E+04  0.7818609E-02  0.8258035E-01
        2   -1    0    0  501    0  0.00000000000E+00  0.00000000000E+00  0.19488347978E+04  0.19488347978E+04  0.25500000920E-02 0. -1.
       -2   -1    0    0    0  501  0.00000000000E+00  0.00000000000E+00 -0.11166833269E+04  0.11166833269E+04  0.25500000920E-02 0.  1.
    10030    2    1    2    0    0  0.00000000000E+00  0.00000000000E+00  0.83215147092E+03  0.30655181247E+04  0.29504110396E+04 0.  0.
        4    1    3    3  502    0  0.55209436247E+03  0.95510225291E+03 -0.60152221536E+03  0.12565265962E+04  0.12699999809E+01 0.  1.
       -4    1    3    3    0  502 -0.55209436247E+03 -0.95510225291E+03  0.14336736863E+04  0.18089915285E+04  0.12699999809E+01 0. -1.
</event>
<event>
 5   0  0.1385669E-05  0.2917095E+04  0.7818609E-02  0.8267809E-01
        2   -1    0    0  501    0  0.00000000000E+00  0.00000000000E+00  0.20538438257E+04  0.20538438257E+04  0.25500000920E-02 0.  1.
       -2   -1    0    0    0  501  0.00000000000E+00  0.00000000000E+00 -0.10357951555E+04  0.10357951555E+04  0.25500000920E-02 0. -1.
    10030    2    1    2    0    0  0.00000000000E+00  0.00000000000E+00  0.10180486702E+04  0.30896389813E+04  0.29170954629E+04 0.  0.
        3    1    3    3  502    0  0.34504710960E+03  0.12572560653E+04 -0.18357425972E+03  0.13166054233E+04  0.10100000352E+00 0. -1.
       -3    1    3    3    0  502 -0.34504710960E+03 -0.12572560653E+04  0.12016229299E+04  0.17730335580E+04  0.10100000352E+00 0.  1.
</event>
<event>
 5   0  0.1336899E-05  0.2899378E+04  0.7818609E-02  0.8273063E-01
        2   -1    0    0  501    0  0.00000000000E+00  0.00000000000E+00  0.15932572430E+04  0.15932572430E+04  0.25500000920E-02 0. -1.
       -2   -1    0    0    0  501  0.00000000000E+00  0.00000000000E+00 -0.13190577942E+04  0.13190577943E+04  0.25500000920E-02 0.  1.
    10030    2    1    2    0    0  0.00000000000E+00  0.00000000000E+00  0.27419944874E+03  0.29123150372E+04  0.28993781296E+04 0.  0.
        1    1    3    3  502    0 -0.11078108355E+04  0.92030806379E+03 -0.29127668309E+02  0.14405069249E+04  0.50400001928E-02 0.  1.
       -1    1    3    3    0  502  0.11078108355E+04 -0.92030806379E+03  0.30332711705E+03  0.14718081123E+04  0.50400001928E-02 0. -1.
</event>
<event>
 5   0  0.5352212E-06  0.3388103E+04  0.7818609E-02  0.8140833E-01
       -1   -1    0    0    0  501  0.00000000000E+00  0.00000000000E+00  0.16325591381E+04  0.16325591381E+04  0.50400001928E-02 0. -1.
        1   -1    0    0  501    0  0.00000000000E+00  0.00000000000E+00 -0.17578595564E+04  0.17578595564E+04  0.50400001928E-02 0.  1.
    10030    2    1    2    0    0  0.00000000000E+00  0.00000000000E+00 -0.12530041836E+03  0.33904186945E+04  0.33881025264E+04 0.  0.
        2    1    3    3  502    0 -0.13160811006E+04 -0.62792800412E+02 -0.11281773002E+04  0.17345882566E+04  0.25500000920E-02 0.  1.
       -2    1    3    3    0  502  0.13160811006E+04  0.62792800412E+02  0.10028768819E+04  0.16558304379E+04  0.25500000920E-02 0. -1.
</event>
<event>
 5   0  0.5002240E-06  0.2481809E+04  0.7818609E-02  0.8409495E-01
        1   -1    0    0  501    0  0.00000000000E+00  0.00000000000E+00  0.24604243088E+04  0.24604243088E+04  0.50400001928E-02 0. -1.
       -1   -1    0    0    0  501  0.00000000000E+00  0.00000000000E+00 -0.62584477466E+03  0.62584477468E+03  0.50400001928E-02 0.  1.
    10030    2    1    2    0    0  0.00000000000E+00  0.00000000000E+00  0.18345795341E+04  0.30862690835E+04  0.24818087736E+04 0.  0.
        4    1    3    3  502    0  0.83917300645E+03  0.44402706356E+03  0.19109455497E+04  0.21337961184E+04  0.12699999809E+01 0. -1.
       -4    1    3    3    0  502 -0.83917300645E+03 -0.44402706356E+03 -0.76366015624E+02  0.95247296506E+03  0.12699999809E+01 0.  1.
</event>
<event>
 5   0  0.1339837E-05  0.2858806E+04  0.7818609E-02  0.8285241E-01
        2   -1    0    0  501    0  0.00000000000E+00  0.00000000000E+00  0.11088791316E+04  0.11088791317E+04  0.25500000920E-02 0. -1.
       -2   -1    0    0    0  501  0.00000000000E+00  0.00000000000E+00 -0.18425745628E+04  0.18425745628E+04  0.25500000920E-02 0.  1.
    10030    2    1    2    0    0  0.00000000000E+00  0.00000000000E+00 -0.73369543120E+03  0.29514536945E+04  0.28588056816E+04 0.  0.
        5    1    3    3  502    0  0.55091740677E+03  0.26241748192E+03 -0.17013313174E+04  0.18074632128E+04  0.46999998093E+01 0.  1.
       -5    1    3    3    0  502 -0.55091740677E+03 -0.26241748192E+03  0.96763588624E+03  0.11439904817E+04  0.46999998093E+01 0. -1.
</event>
<event>
 5   0  0.5059249E-06  0.2963487E+04  0.7818609E-02  0.8254235E-01
       -1   -1    0    0    0  501  0.00000000000E+00  0.00000000000E+00  0.11404848972E+04  0.11404848972E+04  0.50400001928E-02 0.  1.
        1   -1    0    0  501    0  0.00000000000E+00  0.00000000000E+00 -0.19251140494E+04  0.19251140494E+04  0.50400001928E-02 0. -1.
    10030    2    1    2    0    0  0.00000000000E+00  0.00000000000E+00 -0.78462915219E+03  0.30655989466E+04  0.29634867968E+04 0.  0.
        1    1    3    3  502    0  0.34316953919E+03 -0.57057525746E+02  0.10976416889E+04  0.11514504640E+04  0.50400001928E-02 0.  1.
       -1    1    3    3    0  502 -0.34316953919E+03  0.57057525746E+02 -0.18822708411E+04  0.19141484825E+04  0.50400001928E-02 0. -1.
</event>
<event>
 5   0  0.5002240E-06  0.3005665E+04  0.7818609E-02  0.8242115E-01
       -1   -1    0    0    0  501  0.00000000000E+00  0.00000000000E+00  0.10323443095E+04  0.10323443095E+04  0.50400001928E-02 0. -1.
        1   -1    0    0  501    0  0.00000000000E+00  0.00000000000E+00 -0.21877438391E+04  0.21877438391E+04  0.50400001928E-02 0.  1.
    10030    2    1    2    0    0  0.00000000000E+00  0.00000000000E+00 -0.11553995296E+04  0.32200881486E+04  0.30056645874E+04 0.  0.
        4    1    3    3  502    0 -0.11784708697E+04  0.42978290024E+03  0.30898935032E+03  0.12918912352E+04  0.12699999809E+01 0. -1.
       -4    1    3    3    0  502  0.11784708697E+04 -0.42978290024E+03 -0.14643888799E+04  0.19281969134E+04  0.12699999809E+01 0.  1.
</event>
<event>
 5   0  0.5261878E-06  0.2963094E+04  0.7818609E-02  0.8254349E-01
       -1   -1    0    0    0  501  0.00000000000E+00  0.00000000000E+00  0.13804531716E+04  0.13804531716E+04  0.50400001928E-02 0. -1.
        1   -1    0    0  501    0  0.00000000000E+00  0.00000000000E+00 -0.15900439639E+04  0.15900439639E+04  0.50400001928E-02 0.  1.
    10030    2    1    2    0    0  0.00000000000E+00  0.00000000000E+00 -0.20959079229E+03  0.29704971354E+04  0.29630938108E+04 0.  0.
        5    1    3    3  502    0 -0.70168757250E+03 -0.82705402769E+03  0.90697114416E+03  0.14138608703E+04  0.46999998093E+01 0. -1.
       -5    1    3    3    0  502  0.70168757250E+03  0.82705402769E+03 -0.11165619365E+04  0.15566362652E+04  0.46999998093E+01 0.  1.
</event>
<event>
 5   0  0.1307832E-05  0.2891409E+04  0.7818609E-02  0.8275438E-01
       -2   -1    0    0    0  501  0.00000000000E+00  0.00000000000E+00  0.10779602237E+04  0.10779602237E+04  0.25500000920E-02 0.  1.
        2   -1    0    0  501    0  0.00000000000E+00  0.00000000000E+00 -0.19389040090E+04  0.19389040090E+04  0.25500000920E-02 0. -1.
    10030    2    1    2    0    0  0.00000000000E+00  0.00000000000E+00 -0.86094378529E+03  0.30168642327E+04  0.28914089294E+04 0.  0.
        4    1    3    3  502    0 -0.63620762858E+03  0.11365590074E+04  0.22406928155E+03  0.13216410934E+04  0.12699999809E+01 0.  1.
       -4    1    3    3    0  502  0.63620762858E+03 -0.11365590074E+04 -0.10850130668E+04  0.16952231393E+04  0.12699999809E+01 0. -1.
</event>
<event>
 5   0  0.5059249E-06  0.2871627E+04  0.7818609E-02  0.8281370E-01
        1   -1    0    0  501    0  0.00000000000E+00  0.00000000000E+00  0.78250197522E+03  0.78250197524E+03  0.50400001928E-02 0.  1.
       -1   -1    0    0    0  501  0.00000000000E+00  0.00000000000E+00 -0.26345749195E+04  0.26345749195E+04  0.50400001928E-02 0. -1.
    10030    2    1    2    0    0  0.00000000000E+00  0.00000000000E+00 -0.18520729442E+04  0.34170768947E+04  0.28716267713E+04 0.  0.
        1    1    3    3  502    0  0.19379521746E+02 -0.54053958770E+03 -0.25087082382E+04  0.25663545422E+04  0.50400001928E-02 0. -1.
       -1    1    3    3    0  502 -0.19379521746E+02  0.54053958770E+03  0.65663529398E+03  0.85072235251E+03  0.50400001928E-02 0.  1.
</event>
<event>
 5   0  0.1382803E-05  0.2924332E+04  0.7818609E-02  0.8265675E-01
        2   -1    0    0  501    0  0.00000000000E+00  0.00000000000E+00  0.19107265962E+04  0.19107265962E+04  0.25500000920E-02 0.  1.
       -2   -1    0    0    0  501  0.00000000000E+00  0.00000000000E+00 -0.11189089676E+04  0.11189089676E+04  0.25500000920E-02 0. -1.
    10030    2    1    2    0    0  0.00000000000E+00  0.00000000000E+00  0.79181762855E+03  0.30296355638E+04  0.29243318027E+04 0.  0.
        2    1    3    3  502    0 -0.70737517299E+03 -0.28462136805E+03 -0.89663093761E+03  0.11770029723E+04  0.25500000920E-02 0. -1.
       -2    1    3    3    0  502  0.70737517299E+03  0.28462136805E+03  0.16884485662E+04  0.18526325915E+04  0.25500000920E-02 0.  1.
</event>
<event>
 5   0  0.1339837E-05  0.2878468E+04  0.7818609E-02  0.8279313E-01
        2   -1    0    0  501    0  0.00000000000E+00  0.00000000000E+00  0.16482933110E+04  0.16482933110E+04  0.25500000920E-02 0. -1.
       -2   -1    0    0    0  501  0.00000000000E+00  0.00000000000E+00 -0.12566903527E+04  0.12566903527E+04  0.25500000920E-02 0.  1.
    10030    2    1    2    0    0  0.00000000000E+00  0.00000000000E+00  0.39160295829E+03  0.29049836636E+04  0.28784678579E+04 0.  0.
        5    1    3    3  502    0 -0.12278015850E+04 -0.45175375103E+03  0.80115529692E+03  0.15340958521E+04  0.46999998093E+01 0. -1.
       -5    1    3    3    0  502  0.12278015850E+04  0.45175375103E+03 -0.40955233863E+03  0.13708878115E+04  0.46999998093E+01 0.  1.
</event>
<event>
 5   0  0.5154476E-06  0.2930004E+04  0.7818609E-02  0.8264006E-01
        1   -1    0    0  501    0  0.00000000000E+00  0.00000000000E+00  0.29878178334E+04  0.29878178335E+04  0.50400001928E-02 0. -1.
       -1   -1    0    0    0  501  0.00000000000E+00  0.00000000000E+00 -0.71832734523E+03  0.71832734525E+03  0.50400001928E-02 0.  1.
    10030    2    1    2    0    0  0.00000000000E+00  0.00000000000E+00  0.22694904882E+04  0.37061451787E+04  0.29300042678E+04 0.  0.
        3    1    3    3  502    0 -0.70869717238E+03 -0.55062247570E+03 -0.32990954648E+03  0.95617838919E+03  0.10100000352E+00 0.  1.
       -3    1    3    3    0  502  0.70869717238E+03  0.55062247570E+03  0.25994000347E+04  0.27499667895E+04  0.10100000352E+00 0. -1.
</event>
<event>
 5   0  0.4590125E-06  0.2878246E+04  0.7818609E-02  0.8279380E-01
       -3   -1    0    0    0  501  0.00000000000E+00  0.00000000000E+00  0.18296527059E+04  0.18296527087E+04  0.10100000352E+00 0.  1.
        3   -1    0    0  501    0  0.00000000000E+00  0.00000000000E+00 -0.11319495214E+04  0.11319495259E+04  0.10100000352E+00 0. -1.
    10030    2    1    2    0    0  0.00000000000E+00  0.00000000000E+00  0.69770318447E+03  0.29616022346E+04  0.28782456570E+04 0.  0.
        3    1    3    3  502    0  0.48257629029E+03  0.10810131818E+04  0.11908441584E+04  0.16791602649E+04  0.10100000352E+00 0.  1.
       -3    1    3    3    0  502 -0.48257629029E+03 -0.10810131818E+04 -0.49314097396E+03  0.12824419697E+04  0.10100000352E+00 0. -1.
</event>
<event>
 5   0  0.5261878E-06  0.2832105E+04  0.7818609E-02  0.8293370E-01
       -1   -1    0    0    0  501  0.00000000000E+00  0.00000000000E+00  0.98306824991E+03  0.98306824992E+03  0.50400001928E-02 0. -1.
        1   -1    0    0  501    0  0.00000000000E+00  0.00000000000E+00 -0.20397406915E+04  0.20397406915E+04  0.50400001928E-02 0.  1.
    10030    2    1    2    0    0  0.00000000000E+00  0.00000000000E+00 -0.10566724416E+04  0.30228089414E+04  0.28321047381E+04 0.  0.
        5    1    3    3  502    0 -0.12634987698E+04 -0.57195127939E+03 -0.22339755803E+03  0.14048081599E+04  0.46999998093E+01 0. -1.
       -5    1    3    3    0  502  0.12634987698E+04  0.57195127939E+03 -0.83327488354E+03  0.16180007815E+04  0.46999998093E+01 0.  1.
</event>
<event>
 5   0  0.1382803E-05  0.2902872E+04  0.7818609E-02  0.8272023E-01
       -2   -1    0    0    0  501  0.00000000000E+00  0.00000000000E+00  0.14701220046E+04  0.14701220046E+04  0.25500000920E-02 0.  1.
        2   -1    0    0  501    0  0.00000000000E+00  0.00000000000E+00 -0.14329875414E+04  0.14329875414E+04  0.25500000920E-02 0. -1.
    10030    2    1    2    0    0  0.00000000000E+00  0.00000000000E+00  0.37134463210E+02  0.29031095460E+04  0.29028720378E+04 0.  0.
        2    1    3    3  502    0  0.50560736458E+03 -0.31601172150E+03  0.13419911502E+04  0.14684830480E+04  0.25500000920E-02 0.  1.
       -2    1    3    3    0  502 -0.50560736458E+03  0.31601172150E+03 -0.13048566870E+04  0.14346264980E+04  0.25500000920E-02 0. -1.
</event>
<event>
 5   0  0.5002240E-06  0.1791118E+04  0.7818609E-02  0.8711037E-01
        1   -1    0    0  501    0  0.00000000000E+00  0.00000000000E+00  0.72814356224E+03  0.72814356225E+03  0.50400001928E-02 0. -1.
       -1   -1    0    0    0  501  0.00000000000E+00  0.00000000000E+00 -0.11014669265E+04  0.11014669265E+04  0.50400001928E-02 0.  1.
    10030    2    1    2    0    0  0.00000000000E+00  0.00000000000E+00 -0.37332336423E+03  0.18296104887E+04  0.17911181441E+04 0.  0.
        4    1    3    3  502    0 -0.47885586201E+03 -0.62093168110E+03 -0.62858521900E+03  0.10049776513E+04  0.12699999809E+01 0.  1.
       -4    1    3    3    0  502  0.47885586201E+03  0.62093168110E+03  0.25526185477E+03  0.82463283743E+03  0.12699999809E+01 0. -1.
</event>
<event>
 5   0  0.1385669E-05  0.2862920E+04  0.7818609E-02  0.8283996E-01
        2   -1    0    0  501    0  0.00000000000E+00  0.00000000000E+00  0.16459612318E+04  0.16459612318E+04  0.25500000920E-02 0. -1.
       -2   -1    0    0    0  501  0.00000000000E+00  0.00000000000E+00 -0.12449129200E+04  0.12449129200E+04  0.25500000920E-02 0.  1.
    10030    2    1    2    0    0  0.00000000000E+00  0.00000000000E+00  0.40104831176E+03  0.28908741518E+04  0.28629204692E+04 0.  0.
        3    1    3    3  502    0  0.17465460094E+03  0.50052726592E+03 -0.11421380318E+04  0.12591707857E+04  0.10100000352E+00 0.  1.
       -3    1    3    3    0  502 -0.17465460094E+03 -0.50052726592E+03  0.15431863436E+04  0.16317033661E+04  0.10100000352E+00 0. -1.
</event>
<event>
 5   0  0.1339837E-05  0.2933838E+04  0.7818609E-02  0.8262880E-01
       -2   -1    0    0    0  501  0.00000000000E+00  0.00000000000E+00  0.95558892657E+03  0.95558892658E+03  0.25500000920E-02 0. -1.
        2   -1    0    0  501    0  0.00000000000E+00  0.00000000000E+00 -0.22518589314E+04  0.22518589314E+04  0.25500000920E-02 0.  1.
    10030    2    1    2    0    0  0.00000000000E+00  0.00000000000E+00 -0.12962700048E+04  0.32074478580E+04  0.29338380726E+04 0.  0.
        5    1    3    3  502    0 -0.36200997198E+03 -0.65338302258E+03 -0.20283595467E+04  0.21615330520E+04  0.46999998093E+01 0.  1.
       -5    1    3    3    0  502  0.36200997198E+03  0.65338302258E+03  0.73208954192E+03  0.10459148060E+04  0.46999998093E+01 0. -1.
</event>
<event>
 5   0  0.1307832E-05  0.2834606E+04  0.7818609E-02  0.8292604E-01
       -2   -1    0    0    0  501  0.00000000000E+00  0.00000000000E+00  0.11864641174E+04  0.11864641174E+04  0.25500000920E-02 0. -1.
        2   -1    0    0  501    0  0.00000000000E+00  0.00000000000E+00 -0.16930541850E+04  0.16930541850E+04  0.25500000920E-02 0.  1.
    10030    2    1    2    0    0  0.00000000000E+00  0.00000000000E+00 -0.50659006763E+03  0.28795183024E+04  0.28346061733E+04 0.  0.
        4    1    3    3  502    0 -0.11871068898E+04  0.16671875523E+03 -0.10214025970E+04  0.15748913579E+04  0.12699999809E+01 0.  1.
       -4    1    3    3    0  502  0.11871068898E+04 -0.16671875523E+03  0.51481252935E+03  0.13046269445E+04  0.12699999809E+01 0. -1.
</event>
<event>
 5   0  0.5002240E-06  0.2845211E+04  0.7818609E-02  0.8289368E-01
        1   -1    0    0  501    0  0.00000000000E+00  0.00000000000E+00  0.22152099407E+04  0.22152099407E+04  0.50400001928E-02 0. -1.
       -1   -1    0    0    0  501  0.00000000000E+00  0.00000000000E+00 -0.91359606091E+03  0.91359606093E+03  0.50400001928E-02 0.  1.
    10030    2    1    2    0    0  0.00000000000E+00  0.00000000000E+00  0.13016138798E+04  0.31288060016E+04  0.28452114691E+04 0.  0.
        4    1    3    3  502    0  0.11211706704E+04  0.72392727220E+03  0.11925693901E+04  0.17897814756E+04  0.12699999809E+01 0. -1.
       -4    1    3    3    0  502 -0.11211706704E+04 -0.72392727220E+03  0.10904448970E+03  0.13390245260E+04  0.12699999809E+01 0.  1.
</event>
<event>
 5   0  0.1336899E-05  0.2653485E+04  0.7818609E-02  0.8350257E-01
       -2   -1    0    0    0  501  0.00000000000E+00  0.00000000000E+00  0.14631448793E+04  0.14631448793E+04  0.25500000920E-02 0.  1.
        2   -1    0    0  501    0  0.00000000000E+00  0.00000000000E+00 -0.12030562380E+04  0.12030562380E+04  0.25500000920E-02 0. -1.
    10030    2    1    2    0    0  0.00000000000E+00  0.00000000000E+00  0.26008864136E+03  0.26662011173E+04  0.26534849343E+04 0.  0.
        1    1    3    3  502    0 -0.10632345201E+04  0.69987646183E+03 -0.24584854016E+03  0.12964321082E+04  0.50400001928E-02 0.  1.
       -1    1    3    3    0  502  0.10632345201E+04 -0.69987646183E+03  0.50593718152E+03  0.13697690091E+04  0.50400001928E-02 0. -1.
</event>
<event>
 5   0  0.5002240E-06  0.2905722E+04  0.7818609E-02  0.8271177E-01
       -1   -1    0    0    0  501  0.00000000000E+00  0.00000000000E+00  0.15807180740E+04  0.15807180740E+04  0.50400001928E-02 0.  1.
        1   -1    0    0  501    0  0.00000000000E+00  0.00000000000E+00 -0.13353459238E+04  0.13353459238E+04  0.50400001928E-02 0. -1.
    10030    2    1    2    0    0  0.00000000000E+00  0.00000000000E+00  0.24537215021E+03  0.29160639978E+04  0.29057222419E+04 0.  0.
        4    1    3    3  502    0  0.49866211575E+03  0.92690232901E+03  0.11277453735E+04  0.15426026947E+04  0.12699999809E+01 0.  1.
       -4    1    3    3    0  502 -0.49866211575E+03 -0.92690232901E+03 -0.88237322329E+03  0.13734613032E+04  0.12699999809E+01 0. -1.
</event>
<event>
 5   0  0.1307832E-05  0.2925957E+04  0.7818609E-02  0.8265196E-01
        2   -1    0    0  501    0  0.00000000000E+00  0.00000000000E+00  0.21925707455E+04  0.21925707455E+04  0.25500000920E-02 0.  1.
       -2   -1    0    0    0  501  0.00000000000E+00  0.00000000000E+00 -0.97616280513E+03  0.97616280513E+03  0.25500000920E-02 0. -1.
    10030    2    1    2    0    0  0.00000000000E+00  0.00000000000E+00  0.12164079404E+04  0.31687335506E+04  0.29259569439E+04 0.  0.
        4    1    3    3  502    0  0.14595491597E+04 -0.93101468396E+02  0.56837227940E+03  0.15690762549E+04  0.12699999809E+01 0. -1.
       -4    1    3    3    0  502 -0.14595491597E+04  0.93101468396E+02  0.64803566098E+03  0.15996572957E+04  0.12699999809E+01 0.  1.
</event>
<event>
 5   0  0.5059249E-06  0.2977511E+04  0.7818609E-02  0.8250182E-01
       -1   -1    0    0    0  501  0.00000000000E+00  0.00000000000E+00  0.12438680475E+04  0.12438680475E+04  0.50400001928E-02 0. -1.
        1   -1    0    0  501    0  0.00000000000E+00  0.00000000000E+00 -0.17818547868E+04  0.17818547868E+04  0.50400001928E-02 0.  1.
    10030    2    1    2    0    0  0.00000000000E+00  0.00000000000E+00 -0.53798673933E+03  0.30257228343E+04  0.29775105270E+04 0.  0.
        1    1    3    3  502    0 -0.84836081397E+03 -0.36999971283E+03 -0.14539694479E+04  0.17235553410E+04  0.50400001928E-02 0.  1.
       -1    1    3    3    0  502  0.84836081397E+03  0.36999971283E+03  0.91598270853E+03  0.13021674933E+04  0.50400001928E-02 0. -1.
</event>
<event>
 5   0  0.1339837E-05  0.2914512E+04  0.7818609E-02  0.8268573E-01
       -2   -1    0    0    0  501  0.00000000000E+00  0.00000000000E+00  0.11722649523E+04  0.11722649523E+04  0.25500000920E-02 0.  1.
        2   -1    0    0  501    0  0.00000000000E+00  0.00000000000E+00 -0.18115316279E+04  0.18115316279E+04  0.25500000920E-02 0. -1.
    10030    2    1    2    0    0  0.00000000000E+00  0.00000000000E+00 -0.63926667555E+03  0.29837965802E+04  0.29145119916E+04 0.  0.
        5    1    3    3  502    0 -0.91225549186E+03 -0.10443232642E+04  0.13907123830E+03  0.13936226397E+04  0.46999998093E+01 0.  1.
       -5    1    3    3    0  502  0.91225549186E+03  0.10443232642E+04 -0.77833791386E+03  0.15901739404E+04  0.46999998093E+01 0. -1.
</event>
<event>
 5   0  0.1339837E-05  0.2889457E+04  0.7818609E-02  0.8276021E-01
        2   -1    0    0  501    0  0.00000000000E+00  0.00000000000E+00  0.15896978226E+04  0.15896978226E+04  0.25500000920E-02 0.  1.
       -2   -1    0    0    0  501  0.00000000000E+00  0.00000000000E+00 -0.13129797309E+04  0.13129797309E+04  0.25500000920E-02 0. -1.
    10030    2    1    2    0    0  0.00000000000E+00  0.00000000000E+00  0.27671809166E+03  0.29026775535E+04  0.28894574019E+04 0.  0.
        5    1    3    3  502    0 -0.61843517660E+01  0.11573458593E+04  0.10070299249E+04  0.15341509195E+04  0.46999998093E+01 0.  1.
       -5    1    3    3    0  502  0.61843517660E+01 -0.11573458593E+04 -0.73031183323E+03  0.13685266340E+04  0.46999998093E+01 0. -1.
</event>
<event>
 5   0  0.1382803E-05  0.2956433E+04  0.7818609E-02  0.8256282E-01
        2   -1    0    0  501    0  0.00000000000E+00  0.00000000000E+00  0.26721610333E+04  0.26721610333E+04  0.25500000920E-02 0.  1.
       -2   -1    0    0    0  501  0.00000000000E+00  0.00000000000E+00 -0.81773653431E+03  0.81773653431E+03  0.25500000920E-02 0. -1.
    10030    2    1    2    0    0  0.00000000000E+00  0.00000000000E+00  0.18544244990E+04  0.34898975676E+04  0.29564327846E+04 0.  0.
        2    1    3    3  502    0  0.21550956145E+03  0.26904251136E+03 -0.76962770250E+03  0.84330009158E+03  0.25500000920E-02 0. -1.
       -2    1    3    3    0  502 -0.21550956145E+03 -0.26904251136E+03  0.26240522015E+04  0.26465974760E+04  0.25500000920E-02 0.  1.
</event>
<event>
 5   0  0.1382803E-05  0.2908714E+04  0.7818609E-02  0.8270290E-01
       -2   -1    0    0    0  501  0.00000000000E+00  0.00000000000E+00  0.98178955563E+03  0.98178955563E+03  0.25500000920E-02 0. -1.
        2   -1    0    0  501    0  0.00000000000E+00  0.00000000000E+00 -0.21543859100E+04  0.21543859100E+04  0.25500000920E-02 0.  1.
    10030    2    1    2    0    0  0.00000000000E+00  0.00000000000E+00 -0.11725963543E+04  0.31361754656E+04  0.29087135199E+04 0.  0.
        2    1    3    3  502    0 -0.12117933702E+04  0.51239069573E+03 -0.12545789599E+04  0.18179537298E+04  0.25500000920E-02 0.  1.
       -2    1    3    3    0  502  0.12117933702E+04 -0.51239069573E+03  0.81982605543E+02  0.13182217358E+04  0.25500000920E-02 0. -1.
</event>
<event>
 5   0  0.1336899E-05  0.2856084E+04  0.7818609E-02  0.8286065E-01
        2   -1    0    0  501    0  0.00000000000E+00  0.00000000000E+00  0.15594401918E+04  0.15594401918E+04  0.25500000920E-02 0. -1.
       -2   -1    0    0    0  501  0.00000000000E+00  0.00000000000E+00 -0.13077151529E+04  0.13077151529E+04  0.25500000920E-02 0.  1.
    10030    2    1    2    0    0  0.00000000000E+00  0.00000000000E+00  0.25172503884E+03  0.28671553447E+04  0.28560837305E+04 0.  0.
        1    1    3    3  502    0  0.29338979909E+03 -0.79646152648E+03  0.12787372281E+04  0.15347955681E+04  0.50400001928E-02 0. -1.
       -1    1    3    3    0  502 -0.29338979909E+03  0.79646152648E+03 -0.10270121893E+04  0.13323597766E+04  0.50400001928E-02 0.  1.
</event>
<event>
 5   0  0.5154476E-06  0.2925354E+04  0.7818609E-02  0.8265374E-01
        1   -1    0    0  501    0  0.00000000000E+00  0.00000000000E+00  0.26325969417E+04  0.26325969417E+04  0.50400001928E-02 0.  1.
       -1   -1    0    0    0  501  0.00000000000E+00  0.00000000000E+00 -0.81266682434E+03  0.81266682435E+03  0.50400001928E-02 0. -1.
    10030    2    1    2    0    0  0.00000000000E+00  0.00000000000E+00  0.18199301174E+04  0.34452637661E+04  0.29253541300E+04 0.  0.
        3    1    3    3  502    0 -0.87420965923E+03  0.16195250105E+03  0.22778275660E+04  0.24451931563E+04  0.10100000352E+00 0.  1.
       -3    1    3    3    0  502  0.87420965923E+03 -0.16195250105E+03 -0.45789744863E+03  0.10000706098E+04  0.10100000352E+00 0. -1.
</event>
<event>
 5   0  0.5154476E-06  0.2571263E+04  0.7818609E-02  0.8378028E-01
       -1   -1    0    0    0  501  0.00000000000E+00  0.00000000000E+00  0.12637155955E+04  0.12637155955E+04  0.50400001928E-02 0. -1.
        1   -1    0    0  501    0  0.00000000000E+00  0.00000000000E+00 -0.13079278522E+04  0.13079278522E+04  0.50400001928E-02 0.  1.
    10030    2    1    2    0    0  0.00000000000E+00  0.00000000000E+00 -0.44212256720E+02  0.25716434476E+04  0.25712633662E+04 0.  0.
        3    1    3    3  502    0  0.56634521553E+03  0.11005954159E+04  0.32549616586E+03  0.12798456691E+04  0.10100000352E+00 0. -1.
       -3    1    3    3    0  502 -0.56634521553E+03 -0.11005954159E+04 -0.36970842258E+03  0.12917977785E+04  0.10100000352E+00 0.  1.
</event>
<event>
 5   0  0.4590125E-06  0.2858145E+04  0.7818609E-02  0.8285441E-01
       -3   -1    0    0    0  501  0.00000000000E+00  0.00000000000E+00  0.22551152522E+04  0.22551152545E+04  0.10100000352E+00 0. -1.
        3   -1    0    0  501    0  0.00000000000E+00  0.00000000000E+00 -0.90560710775E+03  0.90560711338E+03  0.10100000352E+00 0.  1.
    10030    2    1    2    0    0  0.00000000000E+00  0.00000000000E+00  0.13495081445E+04  0.31607223679E+04  0.28581451424E+04 0.  0.
        4    1    3    3  502    0 -0.34143815593E+02 -0.25818265664E+03  0.22286507568E+04  0.22438159223E+04  0.12699999809E+01 0. -1.
       -4    1    3    3    0  502  0.34143815593E+02  0.25818265664E+03 -0.87914261231E+03  0.91690644561E+03  0.12699999809E+01 0.  1.
</event>
<event>
 5   0  0.1385669E-05  0.2809205E+04  0.7818609E-02  0.8300416E-01
        2   -1    0    0  501    0  0.00000000000E+00  0.00000000000E+00  0.18299621191E+04  0.18299621191E+04  0.25500000920E-02 0.  1.
       -2   -1    0    0    0  501  0.00000000000E+00  0.00000000000E+00 -0.10781142161E+04  0.10781142162E+04  0.25500000920E-02 0. -1.
    10030    2    1    2    0    0  0.00000000000E+00  0.00000000000E+00  0.75184790294E+03  0.29080763352E+04  0.28092049947E+04 0.  0.
        3    1    3    3  502    0  0.77672698911E+03 -0.10744204719E+04 -0.10432643052E+03  0.13298752500E+04  0.10100000352E+00 0. -1.
       -3    1    3    3    0  502 -0.77672698911E+03  0.10744204719E+04  0.85617433347E+03  0.15782010853E+04  0.10100000352E+00 0.  1.
</event>
<event>
 5   0  0.5059249E-06  0.2947377E+04  0.7818609E-02  0.8258919E-01
       -1   -1    0    0    0  501  0.00000000000E+00  0.00000000000E+00  0.13092461418E+04  0.13092461418E+04  0.50400001928E-02 0.  1.
        1   -1    0    0  501    0  0.00000000000E+00  0.00000000000E+00 -0.16587849625E+04  0.16587849625E+04  0.50400001928E-02 0. -1.
    10030    2    1    2    0    0  0.00000000000E+00  0.00000000000E+00 -0.34953882072E+03  0.29680311043E+04  0.29473770116E+04 0.  0.
        1    1    3    3  502    0 -0.72524458999E+02  0.92549087699E+03 -0.13273267598E+04  0.16197498226E+04  0.50400001928E-02 0. -1.
       -1    1    3    3    0  502  0.72524458999E+02 -0.92549087699E+03  0.97778793910E+03  0.13482812816E+04  0.50400001928E-02 0.  1.
</event>
<event>
 5   0  0.1382803E-05  0.1784912E+04  0.7818609E-02  0.8714365E-01
        2   -1    0    0  501    0  0.00000000000E+00  0.00000000000E+00  0.24393467827E+04  0.24393467827E+04  0.25500000920E-02 0.  1.
       -2   -1    0    0    0  501  0.00000000000E+00  0.00000000000E+00 -0.32651256755E+03  0.32651256756E+03  0.25500000920E-02 0. -1.
    10030    2    1    2    0    0  0.00000000000E+00  0.00000000000E+00  0.21128342152E+04  0.27658593503E+04  0.17849116294E+04 0.  0.
        2    1    3    3  502    0 -0.69278315423E+03  0.13168309976E+03  0.19040070207E+04  0.20304018500E+04  0.25500000920E-02 0.  1.
       -2    1    3    3    0  502  0.69278315423E+03 -0.13168309976E+03  0.20882719443E+03  0.73545750026E+03  0.25500000920E-02 0. -1.
</event>
<event>
 5   0  0.5002240E-06  0.2918918E+04  0.7818609E-02  0.8267271E-01
        1   -1    0    0  501    0  0.00000000000E+00  0.00000000000E+00  0.15157415770E+04  0.15157415770E+04  0.50400001928E-02 0.  1.
       -1   -1    0    0    0  501  0.00000000000E+00  0.00000000000E+00 -0.14052664991E+04  0.14052664991E+04  0.50400001928E-02 0. -1.
    10030    2    1    2    0    0  0.00000000000E+00  0.00000000000E+00  0.11047507788E+03  0.29210080760E+04  0.29189181964E+04 0.  0.
        4    1    3    3  502    0  0.36117518301E+02  0.26131184189E+03  0.14916853775E+04  0.15148317505E+04  0.12699999809E+01 0.  1.
       -4    1    3    3    0  502 -0.36117518301E+02 -0.26131184189E+03 -0.13812102996E+04  0.14061763256E+04  0.12699999809E+01 0. -1.
</event>
<event>
 5   0  0.5059249E-06  0.3157628E+04  0.7818609E-02  0.8200098E-01
        1   -1    0    0  501    0  0.00000000000E+00  0.00000000000E+00  0.18835096536E+04  0.18835096536E+04  0.50400001928E-02 0.  1.
       -1   -1    0    0    0  501  0.00000000000E+00  0.00000000000E+00 -0.13234094106E+04  0.13234094107E+04  0.50400001928E-02 0. -1.
    10030    2    1    2    0    0  0.00000000000E+00  0.00000000000E+00  0.56010024294E+03  0.32069190642E+04  0.31576284776E+04 0.  0.
        1    1    3    3  502    0  0.39250304952E+03 -0.43037820900E+02  0.18325532755E+04  0.18746099342E+04  0.50400001928E-02 0.  1.
       -1    1    3    3    0  502 -0.39250304952E+03  0.43037820900E+02 -0.12724530325E+04  0.13323091300E+04  0.50400001928E-02 0. -1.
</event>
<event>
 5   0  0.5352212E-06  0.2780401E+04  0.7818609E-02  0.8309379E-01
        1   -1    0    0  501    0  0.00000000000E+00  0.00000000000E+00  0.27771970049E+04  0.27771970049E+04  0.50400001928E-02 0. -1.
       -1   -1    0    0    0  501  0.00000000000E+00  0.00000000000E+00 -0.69590239288E+03  0.69590239290E+03  0.50400001928E-02 0.  1.
    10030    2    1    2    0    0  0.00000000000E+00  0.00000000000E+00  0.20812946120E+04  0.34730993978E+04  0.27804014396E+04 0.  0.
        2    1    3    3  502    0 -0.99428039639E+03 -0.52390245466E+02 -0.17128483748E+03  0.10102854745E+04  0.25500000920E-02 0.  1.
       -2    1    3    3    0  502  0.99428039639E+03  0.52390245466E+02  0.22525794495E+04  0.24628139233E+04  0.25500000920E-02 0. -1.
</event>
<event>
 5   0  0.5154476E-06  0.2888158E+04  0.7818609E-02  0.8276410E-01
       -1   -1    0    0    0  501  0.00000000000E+00  0.00000000000E+00  0.10970588009E+04  0.10970588009E+04  0.50400001928E-02 0.  1.
        1   -1    0    0  501    0  0.00000000000E+00  0.00000000000E+00 -0.19008677355E+04  0.19008677355E+04  0.50400001928E-02 0. -1.
    10030    2    1    2    0    0  0.00000000000E+00  0.00000000000E+00 -0.80380893454E+03  0.29979265364E+04  0.28881576679E+04 0.  0.
        3    1    3    3  502    0 -0.30400287481E+03 -0.52881642476E+02  0.10624389319E+04  0.11063411365E+04  0.10100000352E+00 0.  1.
       -3    1    3    3    0  502  0.30400287481E+03  0.52881642476E+02 -0.18662478664E+04  0.18915853999E+04  0.10100000352E+00 0. -1.
</event>
<event>
 5   0  0.1307832E-05  0.2892684E+04  0.7818609E-02  0.8275058E-01
       -2   -1    0    0    0  501  0.00000000000E+00  0.00000000000E+00  0.10721159603E+04  0.10721159603E+04  0.25500000920E-02 0.  1.
        2   -1    0    0  501    0  0.00000000000E+00  0.00000000000E+00 -0.19511925317E+04  0.19511925317E+04  0.25500000920E-02 0. -1.
    10030    2    1    2    0    0  0.00000000000E+00  0.00000000000E+00 -0.87907657137E+03  0.30233084919E+04  0.28926836362E+04 0.  0.
        4    1    3    3  502    0  0.35995101940E+03  0.14007483148E+04 -0.45581269556E+03  0.15163862978E+04  0.12699999809E+01 0.  1.
       -4    1    3    3    0  502 -0.35995101940E+03 -0.14007483148E+04 -0.42326387581E+03  0.15069221942E+04  0.12699999809E+01 0. -1.
</event>
<event>
 5   0  0.1307832E-05  0.2908227E+04  0.7818609E-02  0.8270434E-01
       -2   -1    0    0    0  501  0.00000000000E+00  0.00000000000E+00  0.18038249652E+04  0.18038249652E+04  0.25500000920E-02 0. -1.
        2   -1    0    0  501    0  0.00000000000E+00  0.00000000000E+00 -0.11722011765E+04  0.11722011765E+04  0.25500000920E-02 0.  1.
    10030    2    1    2    0    0  0.00000000000E+00  0.00000000000E+00  0.63162378874E+03  0.29760261417E+04  0.29082267769E+04 0.  0.
        4    1    3    3  502    0  0.11123968818E+04  0.61144155998E+03  0.10416838699E+04  0.16420701878E+04  0.12699999809E+01 0. -1.
       -4    1    3    3    0  502 -0.11123968818E+04 -0.61144155998E+03 -0.41006008120E+03  0.13339559539E+04  0.12699999809E+01 0.  1.
</event>
<event>
 5   0  0.5352212E-06  0.2614604E+04  0.7818609E-02  0.8363258E-01
        1   -1    0    0  501    0  0.00000000000E+00  0.00000000000E+00  0.20106101256E+04  0.20106101256E+04  0.50400001928E-02 0. -1.
       -1   -1    0    0    0  501  0.00000000000E+00  0.00000000000E+00 -0.85000958142E+03  0.85000958143E+03  0.50400001928E-02 0.  1.
    10030    2    1    2    0    0  0.00000000000E+00  0.00000000000E+00  0.11606005442E+04  0.28606197071E+04  0.26146035044E+04 0.  0.
        2    1    3    3  502    0 -0.79474524249E+03 -0.95292164516E+03  0.13004644452E+03  0.12476344577E+04  0.25500000920E-02 0. -1.
       -2    1    3    3    0  502  0.79474524249E+03  0.95292164516E+03  0.10305540997E+04  0.16129852494E+04  0.25500000920E-02 0.  1.
</event>
<event>
 5   0  0.1307832E-05  0.2913931E+04  0.7818609E-02  0.8268745E-01
        2   -1    0    0  501    0  0.00000000000E+00  0.00000000000E+00  0.22065710355E+04  0.22065710355E+04  0.25500000920E-02 0.  1.
       -2   -1    0    0    0  501  0.00000000000E+00  0.00000000000E+00 -0.96201221802E+03  0.96201221802E+03  0.25500000920E-02 0. -1.
    10030    2    1    2    0    0  0.00000000000E+00  0.00000000000E+00  0.12445588175E+04  0.31685832535E+04  0.29139308819E+04 0.  0.
        4    1    3    3  502    0  0.43611257900E+03  0.33389197479E+03  0.20896811683E+04  0.21606589343E+04  0.12699999809E+01 0.  1.
       -4    1    3    3    0  502 -0.43611257900E+03 -0.33389197479E+03 -0.84512235085E+03  0.10079243192E+04  0.12699999809E+01 0. -1.
</event>
<event>
 5   0  0.1336899E-05  0.3029061E+04  0.7818609E-02  0.8235481E-01
       -2   -1    0    0    0  501  0.00000000000E+00  0.00000000000E+00  0.15450178503E+04  0.15450178503E+04  0.25500000920E-02 0. -1.
        2   -1    0    0  501    0  0.00000000000E+00  0.00000000000E+00 -0.14846443028E+04  0.14846443028E+04  0.25500000920E-02 0.  1.
    10030    2    1    2    0    0  0.00000000000E+00  0.00000000000E+00  0.60373547464E+02  0.30296621531E+04  0.30290605469E+04 0.  0.
        1    1    3    3  502    0  0.14012654528E+04 -0.39222811912E+03  0.45028707769E+03  0.15232026191E+04  0.50400001928E-02 0. -1.
       -1    1    3    3    0  502 -0.14012654528E+04  0.39222811912E+03 -0.38991353023E+03  0.15064595340E+04  0.50400001928E-02 0.  1.
</event>
<event>
 5   0  0.1307832E-05  0.2895086E+04  0.7818609E-02  0.8274341E-01
       -2   -1    0    0    0  501  0.00000000000E+00  0.00000000000E+00  0.88046722801E+03  0.88046722802E+03  0.25500000920E-02 0.  1.
        2   -1    0    0  501    0  0.00000000000E+00  0.00000000000E+00 -0.23798517217E+04  0.23798517217E+04  0.25500000920E-02 0. -1.
    10030    2    1    2    0    0  0.00000000000E+00  0.00000000000E+00 -0.14993844936E+04  0.32603189497E+04  0.28950864916E+04 0.  0.
        4    1    3    3  502    0 -0.10713716374E+04  0.93776924651E+03 -0.45574290621E+03  0.14949754361E+04  0.12699999809E+01 0.  1.
       -4    1    3    3    0  502  0.10713716374E+04 -0.93776924651E+03 -0.10436415874E+04  0.17653435136E+04  0.12699999809E+01 0. -1.
</event>
<event>
 5   0  0.5154476E-06  0.2165948E+04  0.7818609E-02  0.8532736E-01
       -1   -1    0    0    0  501  0.00000000000E+00  0.00000000000E+00  0.10812342845E+04  0.10812342846E+04  0.50400001928E-02 0.  1.
        1   -1    0    0  501    0  0.00000000000E+00  0.00000000000E+00 -0.10847169576E+04  0.10847169576E+04  0.50400001928E-02 0. -1.
    10030    2    1    2    0    0  0.00000000000E+00  0.00000000000E+00 -0.34826730856E+01  0.21659512422E+04  0.21659484423E+04 0.  0.
        3    1    3    3  502    0 -0.84697578068E+03 -0.25049634031E+03  0.62493065040E+03  0.10819679836E+04  0.10100000352E+00 0.  1.
       -3    1    3    3    0  502  0.84697578068E+03  0.25049634031E+03 -0.62841332348E+03  0.10839832586E+04  0.10100000352E+00 0. -1.
</event>
<event>
 5   0  0.1339837E-05  0.2897604E+04  0.7818609E-02  0.8273591E-01
       -2   -1    0    0    0  501  0.00000000000E+00  0.00000000000E+00  0.16018097553E+04  0.16018097553E+04  0.25500000920E-02 0.  1.
        2   -1    0    0  501    0  0.00000000000E+00  0.00000000000E+00 -0.13104095006E+04  0.13104095006E+04  0.25500000920E-02 0. -1.
    10030    2    1    2    0    0  0.00000000000E+00  0.00000000000E+00  0.29140025473E+03  0.29122192560E+04  0.28976036455E+04 0.  0.
        5    1    3    3  502    0 -0.88061813892E+03  0.49378267876E+03  0.11900250274E+04  0.15606060670E+04  0.46999998093E+01 0.  1.
       -5    1    3    3    0  502  0.88061813892E+03 -0.49378267876E+03 -0.89862477271E+03  0.13516131890E+04  0.46999998093E+01 0. -1.
</event>
<event>
 5   0  0.5154476E-06  0.2893675E+04  0.7818609E-02  0.8274762E-01
        1   -1    0    0  501    0  0.00000000000E+00  0.00000000000E+00  0.17395712530E+04  0.17395712530E+04  0.50400001928E-02 0. -1.
       -1   -1    0    0    0  501  0.00000000000E+00  0.00000000000E+00 -0.12033646476E+04  0.12033646476E+04  0.50400001928E-02 0.  1.
    10030    2    1    2    0    0  0.00000000000E+00  0.00000000000E+00  0.53620660537E+03  0.29429359006E+04  0.28936748594E+04 0.  0.
        3    1    3    3  502    0 -0.71776435133E+03  0.45183528588E+03  0.14602345796E+04  0.16886757614E+04  0.10100000352E+00 0. -1.
       -3    1    3    3    0  502  0.71776435133E+03 -0.45183528588E+03 -0.92402797419E+03  0.12542601392E+04  0.10100000352E+00 0.  1.
</event>
<event>
 5   0  0.5154476E-06  0.2990005E+04  0.7818609E-02  0.8246591E-01
       -1   -1    0    0    0  501  0.00000000000E+00  0.00000000000E+00  0.19088879805E+04  0.19088879805E+04  0.50400001928E-02 0.  1.
        1   -1    0    0  501    0  0.00000000000E+00  0.00000000000E+00 -0.11708560157E+04  0.11708560157E+04  0.50400001928E-02 0. -1.
    10030    2    1    2    0    0  0.00000000000E+00  0.00000000000E+00  0.73803196481E+03  0.30797439963E+04  0.29900053347E+04 0.  0.
        3    1    3    3  502    0 -0.89138776548E+03 -0.10558434785E+04 -0.21877344909E+03  0.13990137354E+04  0.10100000352E+00 0. -1.
       -3    1    3    3    0  502  0.89138776548E+03  0.10558434785E+04  0.95680541390E+03  0.16807302609E+04  0.10100000352E+00 0.  1.
</event>
<event>
 5   0  0.1385669E-05  0.2753504E+04  0.7818609E-02  0.8317851E-01
       -2   -1    0    0    0  501  0.00000000000E+00  0.00000000000E+00  0.12004232064E+04  0.12004232064E+04  0.25500000920E-02 0. -1.
        2   -1    0    0  501    0  0.00000000000E+00  0.00000000000E+00 -0.15789816463E+04  0.15789816463E+04  0.25500000920E-02 0.  1.
    10030    2    1    2    0    0  0.00000000000E+00  0.00000000000E+00 -0.37855843992E+03  0.27794048527E+04  0.27535041025E+04 0.  0.
        3    1    3    3  502    0  0.51101850729E+03 -0.95091743035E+03  0.67319486099E+03  0.12722323708E+04  0.10100000352E+00 0. -1.
       -3    1    3    3    0  502 -0.51101850729E+03  0.95091743035E+03 -0.10517533009E+04  0.15071724819E+04  0.10100000352E+00 0.  1.
</event>
<event>
 5   0  0.5059249E-06  0.2916705E+04  0.7818609E-02  0.8267925E-01
        1   -1    0    0  501    0  0.00000000000E+00  0.00000000000E+00  0.12649154456E+04  0.12649154456E+04  0.50400001928E-02 0.  1.
       -1   -1    0    0    0  501  0.00000000000E+00  0.00000000000E+00 -0.16813708646E+04  0.16813708646E+04  0.50400001928E-02 0. -1.
    10030    2    1    2    0    0  0.00000000000E+00  0.00000000000E+00 -0.41645541895E+03  0.29462863102E+04  0.29167049741E+04 0.  0.
        1    1    3    3  502    0 -0.78919284057E+03  0.11802593245E+04 -0.54470443630E+03  0.15207038948E+04  0.50400001928E-02 0. -1.
       -1    1    3    3    0  502  0.78919284057E+03 -0.11802593245E+04  0.12824901736E+03  0.14255824154E+04  0.50400001928E-02 0.  1.
</event>
<event>
 5   0  0.5002240E-06  0.2846351E+04  0.7818609E-02  0.8289021E-01
       -1   -1    0    0    0  501  0.00000000000E+00  0.00000000000E+00  0.17335972350E+04  0.17335972350E+04  0.50400001928E-02 0.  1.
        1   -1    0    0  501    0  0.00000000000E+00  0.00000000000E+00 -0.11683382529E+04  0.11683382529E+04  0.50400001928E-02 0. -1.
    10030    2    1    2    0    0  0.00000000000E+00  0.00000000000E+00  0.56525898215E+03  0.29019354879E+04  0.28463506212E+04 0.  0.
        4    1    3    3  502    0  0.96803357181E+03 -0.41771923865E+03  0.12572517778E+04  0.16408113859E+04  0.12699999809E+01 0.  1.
       -4    1    3    3    0  502 -0.96803357181E+03  0.41771923865E+03 -0.69199279563E+03  0.12611241020E+04  0.12699999809E+01 0. -1.
</event>
<event>
 5   0  0.5261878E-06  0.3005449E+04  0.7818609E-02  0.8242177E-01
        1   -1    0    0  501    0  0.00000000000E+00  0.00000000000E+00  0.21536788792E+04  0.21536788792E+04  0.50400001928E-02 0. -1.
       -1   -1    0    0    0  501  0.00000000000E+00  0.00000000000E+00 -0.10485223590E+04  0.10485223590E+04  0.50400001928E-02 0.  1.
    10030    2    1    2    0    0  0.00000000000E+00  0.00000000000E+00  0.11051565202E+04  0.32022012382E+04  0.30054486913E+04 0.  0.
        5    1    3    3  502    0 -0.28550917184E+03  0.54415737629E+03 -0.90852222961E+03  0.10968397645E+04  0.46999998093E+01 0.  1.
       -5    1    3    3    0  502  0.28550917184E+03 -0.54415737629E+03  0.20136787498E+04  0.21053614737E+04  0.46999998093E+01 0. -1.
</event>
<event>
 5   0  0.5002240E-06  0.2719614E+04  0.7818609E-02  0.8328669E-01
       -1   -1    0    0    0  501  0.00000000000E+00  0.00000000000E+00  0.59555861890E+03  0.59555861892E+03  0.50400001928E-02 0.  1.
        1   -1    0    0  501    0  0.00000000000E+00  0.00000000000E+00 -0.31047745341E+04  0.31047745341E+04  0.50400001928E-02 0. -1.
    10030    2    1    2    0    0  0.00000000000E+00  0.00000000000E+00 -0.25092159152E+04  0.37003331530E+04  0.27196141150E+04 0.  0.
        4    1    3    3  502    0 -0.76391247495E+03 -0.70408981157E+03 -0.60857042689E+02  0.10406776277E+04  0.12699999809E+01 0.  1.
       -4    1    3    3    0  502  0.76391247495E+03  0.70408981157E+03 -0.24483588725E+04  0.26596555253E+04  0.12699999809E+01 0. -1.
</event>
<event>
 5   0  0.5059249E-06  0.2951320E+04  0.7818609E-02  0.8257770E-01
       -1   -1    0    0    0  501  0.00000000000E+00  0.00000000000E+00  0.10535449165E+04  0.10535449165E+04  0.50400001928E-02 0.  1.
        1   -1    0    0  501    0  0.00000000000E+00  0.00000000000E+00 -0.20669008530E+04  0.20669008530E+04  0.50400001928E-02 0. -1.
    10030    2    1    2    0    0  0.00000000000E+00  0.00000000000E+00 -0.10133559366E+04  0.31204457695E+04  0.29513203056E+04 0.  0.
        1    1    3    3  502    0 -0.24294487563E+03  0.65271384305E+03  0.86884104167E+03  0.11135269773E+04  0.50400001928E-02 0.  1.
       -1    1    3    3    0  502  0.24294487563E+03 -0.65271384305E+03 -0.18821969782E+04  0.20069187922E+04  0.50400001928E-02 0. -1.
</event>
<event>
 5   0  0.1307832E-05  0.2704967E+04  0.7818609E-02  0.8333395E-01
        2   -1    0    0  501    0  0.00000000000E+00  0.00000000000E+00  0.22813848484E+04  0.22813848484E+04  0.25500000920E-02 0.  1.
       -2   -1    0    0    0  501  0.00000000000E+00  0.00000000000E+00 -0.80179885616E+03  0.80179885617E+03  0.25500000920E-02 0. -1.
    10030    2    1    2    0    0  0.00000000000E+00  0.00000000000E+00  0.14795859923E+04  0.30831837046E+04  0.27049671066E+04 0.  0.
        4    1    3    3  502    0  0.10493134102E+04  0.15826045161E+03  0.16955501377E+04  0.20002492059E+04  0.12699999809E+01 0.  1.
       -4    1    3    3    0  502 -0.10493134102E+04 -0.15826045161E+03 -0.21596414542E+03  0.10829344987E+04  0.12699999809E+01 0. -1.
</event>
<event>
 5   0  0.5002240E-06  0.2875854E+04  0.7818609E-02  0.8280098E-01
        1   -1    0    0  501    0  0.00000000000E+00  0.00000000000E+00  0.16137608335E+04  0.16137608335E+04  0.50400001928E-02 0. -1.
       -1   -1    0    0    0  501  0.00000000000E+00  0.00000000000E+00 -0.12812520815E+04  0.12812520815E+04  0.50400001928E-02 0.  1.
    10030    2    1    2    0    0  0.00000000000E+00  0.00000000000E+00  0.33250875202E+03  0.28950129151E+04  0.28758542571E+04 0.  0.
        4    1    3    3  502    0  0.10766869817E+04  0.53064163321E+03  0.96323402306E+03  0.15390441175E+04  0.12699999809E+01 0. -1.
       -4    1    3    3    0  502 -0.10766869817E+04 -0.53064163321E+03 -0.63072527104E+03  0.13559687976E+04  0.12699999809E+01 0.  1.
</event>
<event>
 5   0  0.5002240E-06  0.2632192E+04  0.7818609E-02  0.8357348E-01
       -1   -1    0    0    0  501  0.00000000000E+00  0.00000000000E+00  0.58196393335E+03  0.58196393337E+03  0.50400001928E-02 0.  1.
        1   -1    0    0  501    0  0.00000000000E+00  0.00000000000E+00 -0.29763172804E+04  0.29763172804E+04  0.50400001928E-02 0. -1.
    10030    2    1    2    0    0  0.00000000000E+00  0.00000000000E+00 -0.23943533470E+04  0.35582812137E+04  0.26321924789E+04 0.  0.
        4    1    3    3  502    0 -0.39831164084E+03 -0.24136754331E+02 -0.28925660052E+04  0.29199613787E+04  0.12699999809E+01 0. -1.
       -4    1    3    3    0  502  0.39831164084E+03  0.24136754331E+02  0.49821265815E+03  0.63831983502E+03  0.12699999809E+01 0.  1.
</event>
<event>
 5   0  0.5154476E-06  0.2899651E+04  0.7818609E-02  0.8272981E-01
       -1   -1    0    0    0  501  0.00000000000E+00  0.00000000000E+00  0.14480179342E+04  0.14480179342E+04  0.50400001928E-02 0. -1.
        1   -1    0    0  501    0  0.00000000000E+00  0.00000000000E+00 -0.14516352590E+04  0.14516352590E+04  0.50400001928E-02 0.  1.
    10030    2    1    2    0    0  0.00000000000E+00  0.00000000000E+00 -0.36173248588E+01  0.28996531932E+04  0.28996509369E+04 0.  0.
        3    1    3    3  502    0 -0.67916242128E+02 -0.44226665167E+03 -0.13808606670E+04  0.14515469676E+04  0.10100000352E+00 0.  1.
       -3    1    3    3    0  502  0.67916242128E+02  0.44226665167E+03  0.13772433421E+04  0.14481062257E+04  0.10100000352E+00 0. -1.
</event>
<event>
 5   0  0.5154476E-06  0.2936791E+04  0.7818609E-02  0.8262014E-01
       -1   -1    0    0    0  501  0.00000000000E+00  0.00000000000E+00  0.15178352156E+04  0.15178352156E+04  0.50400001928E-02 0. -1.
        1   -1    0    0  501    0  0.00000000000E+00  0.00000000000E+00 -0.14205662738E+04  0.14205662738E+04  0.50400001928E-02 0.  1.
    10030    2    1    2    0    0  0.00000000000E+00  0.00000000000E+00  0.97268941755E+02  0.29384014894E+04  0.29367911171E+04 0.  0.
        3    1    3    3  502    0  0.12527255466E+04 -0.70489586779E+03 -0.25150673004E+03  0.14592652689E+04  0.10100000352E+00 0.  1.
       -3    1    3    3    0  502 -0.12527255466E+04  0.70489586779E+03  0.34877567179E+03  0.14791362205E+04  0.10100000352E+00 0. -1.
</event>
<event>
 5   0  0.1307832E-05  0.2915704E+04  0.7818609E-02  0.8268220E-01
        2   -1    0    0  501    0  0.00000000000E+00  0.00000000000E+00  0.17294922145E+04  0.17294922145E+04  0.25500000920E-02 0. -1.
       -2   -1    0    0    0  501  0.00000000000E+00  0.00000000000E+00 -0.12288767333E+04  0.12288767333E+04  0.25500000920E-02 0.  1.
    10030    2    1    2    0    0  0.00000000000E+00  0.00000000000E+00  0.50061548114E+03  0.29583689478E+04  0.29157041982E+04 0.  0.
        4    1    3    3  502    0  0.12887123651E+04 -0.43563494472E+03  0.78216673152E+03  0.15691857041E+04  0.12699999809E+01 0.  1.
       -4    1    3    3    0  502 -0.12887123651E+04  0.43563494472E+03 -0.28155125038E+03  0.13891832437E+04  0.12699999809E+01 0. -1.
</event>
<event>
 5   0  0.5352212E-06  0.2919173E+04  0.7818609E-02  0.8267196E-01
       -1   -1    0    0    0  501  0.00000000000E+00  0.00000000000E+00  0.23184945151E+04  0.23184945151E+04  0.50400001928E-02 0.  1.
        1   -1    0    0  501    0  0.00000000000E+00  0.00000000000E+00 -0.91886869357E+03  0.91886869358E+03  0.50400001928E-02 0. -1.
    10030    2    1    2    0    0  0.00000000000E+00  0.00000000000E+00  0.13996258215E+04  0.32373632087E+04  0.29191725034E+04 0.  0.
        2    1    3    3  502    0 -0.96527441254E+03 -0.71114322453E+03  0.16229600153E+04  0.20177905214E+04  0.25500000920E-02 0.  1.
       -2    1    3    3    0  502  0.96527441254E+03  0.71114322453E+03 -0.22333419376E+03  0.12195726872E+04  0.25500000920E-02 0. -1.
</event>
<event>
 5   0  0.5002240E-06  0.2949614E+04  0.7818609E-02  0.8258267E-01
       -1   -1    0    0    0  501  0.00000000000E+00  0.00000000000E+00  0.90629774455E+03  0.90629774456E+03  0.50400001928E-02 0. -1.
        1   -1    0    0  501    0  0.00000000000E+00  0.00000000000E+00 -0.23999350335E+04  0.23999350335E+04  0.50400001928E-02 0.  1.
    10030    2    1    2    0    0  0.00000000000E+00  0.00000000000E+00 -0.14936372890E+04  0.33062327781E+04  0.29496140141E+04 0.  0.
        4    1    3    3  502    0  0.26503623955E+03  0.74770765028E+03  0.64677740129E+03  0.10235397199E+04  0.12699999809E+01 0. -1.
       -4    1    3    3    0  502 -0.26503623955E+03 -0.74770765028E+03 -0.21404146903E+04  0.22826930582E+04  0.12699999809E+01 0.  1.
</event>
<event>
 5   0  0.1307832E-05  0.2909265E+04  0.7818609E-02  0.8270126E-01
        2   -1    0    0  501    0  0.00000000000E+00  0.00000000000E+00  0.19612827386E+04  0.19612827386E+04  0.25500000920E-02 0. -1.
       -2   -1    0    0    0  501  0.00000000000E+00  0.00000000000E+00 -0.10788633627E+04  0.10788633627E+04  0.25500000920E-02 0.  1.
    10030    2    1    2    0    0  0.00000000000E+00  0.00000000000E+00  0.88241937591E+03  0.30401461013E+04  0.29092652616E+04 0.  0.
        4    1    3    3  502    0 -0.93676767466E+01 -0.14500885546E+04  0.56085920770E+03  0.15548019916E+04  0.12699999809E+01 0. -1.
       -4    1    3    3    0  502  0.93676767466E+01  0.14500885546E+04  0.32156016821E+03  0.14853441097E+04  0.12699999809E+01 0.  1.
</event>
<event>
 5   0  0.1339837E-05  0.2932099E+04  0.7818609E-02  0.8263391E-01
       -2   -1    0    0    0  501  0.00000000000E+00  0.00000000000E+00  0.11534315916E+04  0.11534315916E+04  0.25500000920E-02 0. -1.
        2   -1    0    0  501    0  0.00000000000E+00  0.00000000000E+00 -0.18633971405E+04  0.18633971405E+04  0.25500000920E-02 0.  1.
    10030    2    1    2    0    0  0.00000000000E+00  0.00000000000E+00 -0.70996554885E+03  0.30168287321E+04  0.29320989953E+04 0.  0.
        5    1    3    3  502    0 -0.10161961508E+04  0.15163014218E+03 -0.14309716336E+04  0.17616322610E+04  0.46999998093E+01 0.  1.
       -5    1    3    3    0  502  0.10161961508E+04 -0.15163014218E+03  0.72100608471E+03  0.12551964711E+04  0.46999998093E+01 0. -1.
</event>
<event>
 5   0  0.5002240E-06  0.2982669E+04  0.7818609E-02  0.8248697E-01
       -1   -1    0    0    0  501  0.00000000000E+00  0.00000000000E+00  0.89666969122E+03  0.89666969123E+03  0.50400001928E-02 0. -1.
        1   -1    0    0  501    0  0.00000000000E+00  0.00000000000E+00 -0.24803767953E+04  0.24803767953E+04  0.50400001928E-02 0.  1.
    10030    2    1    2    0    0  0.00000000000E+00  0.00000000000E+00 -0.15837071041E+04  0.33770464866E+04  0.29826690699E+04 0.  0.
        4    1    3    3  502    0 -0.42342066746E+02 -0.14126273319E+04 -0.25268681004E+03  0.14356744291E+04  0.12699999809E+01 0. -1.
       -4    1    3    3    0  502  0.42342066746E+02  0.14126273319E+04 -0.13310202941E+04  0.19413720575E+04  0.12699999809E+01 0.  1.
</event>
<event>
 5   0  0.1307832E-05  0.2859874E+04  0.7818609E-02  0.8284917E-01
        2   -1    0    0  501    0  0.00000000000E+00  0.00000000000E+00  0.20507237247E+04  0.20507237247E+04  0.25500000920E-02 0.  1.
       -2   -1    0    0    0  501  0.00000000000E+00  0.00000000000E+00 -0.99707264665E+03  0.99707264666E+03  0.25500000920E-02 0. -1.
    10030    2    1    2    0    0  0.00000000000E+00  0.00000000000E+00  0.10536510780E+04  0.30477963713E+04  0.28598744950E+04 0.  0.
        4    1    3    3  502    0 -0.96371582169E+03  0.53035937456E+03  0.15004724533E+04  0.18604968280E+04  0.12699999809E+01 0.  1.
       -4    1    3    3    0  502  0.96371582169E+03 -0.53035937456E+03 -0.44682137529E+03  0.11872995433E+04  0.12699999809E+01 0. -1.
</event>
<event>
 5   0  0.1385669E-05  0.2098415E+04  0.7818609E-02  0.8561942E-01
       -2   -1    0    0    0  501  0.00000000000E+00  0.00000000000E+00  0.10793993092E+04  0.10793993092E+04  0.25500000920E-02 0. -1.
        2   -1    0    0  501    0  0.00000000000E+00  0.00000000000E+00 -0.10198599882E+04  0.10198599882E+04  0.25500000920E-02 0.  1.
    10030    2    1    2    0    0  0.00000000000E+00  0.00000000000E+00  0.59539320960E+02  0.20992592974E+04  0.20984147986E+04 0.  0.
        3    1    3    3  502    0 -0.44570297692E+03 -0.94496632487E+03  0.12584818745E+03  0.10523546338E+04  0.10100000352E+00 0. -1.
       -3    1    3    3    0  502  0.44570297692E+03  0.94496632487E+03 -0.66308866489E+02  0.10469046636E+04  0.10100000352E+00 0.  1.
</event>
<event>
 5   0  0.5261878E-06  0.2865862E+04  0.7818609E-02  0.8283108E-01
       -1   -1    0    0    0  501  0.00000000000E+00  0.00000000000E+00  0.87635734141E+03  0.87635734142E+03  0.50400001928E-02 0.  1.
        1   -1    0    0  501    0  0.00000000000E+00  0.00000000000E+00 -0.23429841830E+04  0.23429841830E+04  0.50400001928E-02 0. -1.
    10030    2    1    2    0    0  0.00000000000E+00  0.00000000000E+00 -0.14666268415E+04  0.32193415244E+04  0.28658620969E+04 0.  0.
        5    1    3    3  502    0 -0.83407503604E+03 -0.97193819032E+03 -0.11463393851E+02  0.12808194685E+04  0.46999998093E+01 0.  1.
       -5    1    3    3    0  502  0.83407503604E+03  0.97193819032E+03 -0.14551634477E+04  0.19385220559E+04  0.46999998093E+01 0. -1.
</event>
<event>
 5   0  0.1382803E-05  0.2933600E+04  0.7818609E-02  0.8262950E-01
        2   -1    0    0  501    0  0.00000000000E+00  0.00000000000E+00  0.18258210744E+04  0.18258210744E+04  0.25500000920E-02 0. -1.
       -2   -1    0    0    0  501  0.00000000000E+00  0.00000000000E+00 -0.11783749855E+04  0.11783749855E+04  0.25500000920E-02 0.  1.
    10030    2    1    2    0    0  0.00000000000E+00  0.00000000000E+00  0.64744608891E+03  0.30041960599E+04  0.29335997560E+04 0.  0.
        2    1    3    3  502    0 -0.52504863582E+03 -0.10175060018E+04  0.12625772775E+04  0.17044341921E+04  0.25500000920E-02 0. -1.
       -2    1    3    3    0  502  0.52504863582E+03  0.10175060018E+04 -0.61513118858E+03  0.12997618678E+04  0.25500000920E-02 0.  1.
</event>
<event>
 5   0  0.5261878E-06  0.2935379E+04  0.7818609E-02  0.8262428E-01
       -1   -1    0    0    0  501  0.00000000000E+00  0.00000000000E+00  0.11319849972E+04  0.11319849972E+04  0.50400001928E-02 0.  1.
        1   -1    0    0  501    0  0.00000000000E+00  0.00000000000E+00 -0.19029511264E+04  0.19029511264E+04  0.50400001928E-02 0. -1.
    10030    2    1    2    0    0  0.00000000000E+00  0.00000000000E+00 -0.77096612923E+03  0.30349361236E+04  0.29353787664E+04 0.  0.
        5    1    3    3  502    0  0.21618075269E+03 -0.10956184142E+03 -0.18821112316E+04  0.18976571590E+04  0.46999998093E+01 0. -1.
       -5    1    3    3    0  502 -0.21618075269E+03  0.10956184142E+03  0.11111451024E+04  0.11372789646E+04  0.46999998093E+01 0.  1.
</event>
<event>
 5   0  0.1382803E-05  0.2895826E+04  0.7818609E-02  0.8274121E-01
        2   -1    0    0  501    0  0.00000000000E+00  0.00000000000E+00  0.21697101677E+04  0.21697101677E+04  0.25500000920E-02 0. -1.
       -2   -1    0    0    0  501  0.00000000000E+00  0.00000000000E+00 -0.96623577041E+03  0.96623577041E+03  0.25500000920E-02 0.  1.
    10030    2    1    2    0    0  0.00000000000E+00  0.00000000000E+00  0.12034743973E+04  0.31359459381E+04  0.28958256684E+04 0.  0.
        2    1    3    3  502    0  0.10277153997E+04 -0.11955471851E+03  0.16986225090E+04  0.19889219949E+04  0.25500000920E-02 0. -1.
       -2    1    3    3    0  502 -0.10277153997E+04  0.11955471851E+03 -0.49514811179E+03  0.11470239432E+04  0.25500000920E-02 0.  1.
</event>
<event>
 5   0  0.5154476E-06  0.1917181E+04  0.7818609E-02  0.8646351E-01
       -1   -1    0    0    0  501  0.00000000000E+00  0.00000000000E+00  0.11025129638E+04  0.11025129638E+04  0.50400001928E-02 0. -1.
        1   -1    0    0  501    0  0.00000000000E+00  0.00000000000E+00 -0.83345610685E+03  0.83345610686E+03  0.50400001928E-02 0.  1.
    10030    2    1    2    0    0  0.00000000000E+00  0.00000000000E+00  0.26905685696E+03  0.19359690707E+04  0.19171814339E+04 0.  0.
        3    1    3    3  502    0  0.87410056950E+03  0.23332532129E+03 -0.18544206541E+03  0.92351571778E+03  0.10100000352E+00 0.  1.
       -3    1    3    3    0  502 -0.87410056950E+03 -0.23332532129E+03  0.45449892237E+03  0.10124533529E+04  0.10100000352E+00 0. -1.
</event>
<event>
 5   0  0.1385669E-05  0.2888675E+04  0.7818609E-02  0.8276255E-01
       -2   -1    0    0    0  501  0.00000000000E+00  0.00000000000E+00  0.14752365446E+04  0.14752365446E+04  0.25500000920E-02 0.  1.
        2   -1    0    0  501    0  0.00000000000E+00  0.00000000000E+00 -0.14140854398E+04  0.14140854398E+04  0.25500000920E-02 0. -1.
    10030    2    1    2    0    0  0.00000000000E+00  0.00000000000E+00  0.61151104810E+02  0.28893219845E+04  0.28886747952E+04 0.  0.
        3    1    3    3  502    0  0.18431280787E+03  0.12169759072E+04  0.78646236496E+03  0.14606589717E+04  0.10100000352E+00 0.  1.
       -3    1    3    3    0  502 -0.18431280787E+03 -0.12169759072E+04 -0.72531126015E+03  0.14286630128E+04  0.10100000352E+00 0. -1.
</event>
<event>
 5   0  0.5352212E-06  0.2776421E+04  0.7818609E-02  0.8310626E-01
       -1   -1    0    0    0  501  0.00000000000E+00  0.00000000000E+00  0.10201715785E+04  0.10201715785E+04  0.50400001928E-02 0.  1.
        1   -1    0    0  501    0  0.00000000000E+00  0.00000000000E+00 -0.18890232154E+04  0.18890232154E+04  0.50400001928E-02 0. -1.
    10030    2    1    2    0    0  0.00000000000E+00  0.00000000000E+00 -0.86885163685E+03  0.29091947939E+04  0.27764205701E+04 0.  0.
        2    1    3    3  502    0  0.10230576766E+04 -0.76115822595E+03  0.14055927468E+03  0.12828740251E+04  0.25500000920E-02 0.  1.
       -2    1    3    3    0  502 -0.10230576766E+04  0.76115822595E+03 -0.10094109115E+04  0.16263207688E+04  0.25500000920E-02 0. -1.
</event>
<event>
 5   0  0.5059249E-06  0.2903144E+04  0.7818609E-02  0.8271943E-01
        1   -1    0    0  501    0  0.00000000000E+00  0.00000000000E+00  0.16241318848E+04  0.16241318848E+04  0.50400001928E-02 0. -1.
       -1   -1    0    0    0  501  0.00000000000E+00  0.00000000000E+00 -0.12973457782E+04  0.12973457783E+04  0.50400001928E-02 0.  1.
    10030    2    1    2    0    0  0.00000000000E+00  0.00000000000E+00  0.32678610657E+03  0.29214776631E+04  0.29031435680E+04 0.  0.
        1    1    3    3  502    0 -0.13347465639E+03 -0.94612312971E+03  0.12630411122E+04  0.15837415546E+04  0.50400001928E-02 0. -1.
       -1    1    3    3    0  502  0.13347465639E+03  0.94612312971E+03 -0.93625500564E+03  0.13377361085E+04  0.50400001928E-02 0.  1.
</event>
<event>
 5   0  0.1382803E-05  0.2868499E+04  0.7818609E-02  0.8282312E-01
       -2   -1    0    0    0  501  0.00000000000E+00  0.00000000000E+00  0.11322072456E+04  0.11322072457E+04  0.25500000920E-02 0.  1.
        2   -1    0    0  501    0  0.00000000000E+00  0.00000000000E+00 -0.18168681580E+04  0.18168681580E+04  0.25500000920E-02 0. -1.
    10030    2    1    2    0    0  0.00000000000E+00  0.00000000000E+00 -0.68466091233E+03  0.29490754036E+04  0.28684987662E+04 0.  0.
        2    1    3    3  502    0 -0.58482405012E+03 -0.13049225665E+04 -0.45602262864E+03  0.15009326141E+04  0.25500000920E-02 0.  1.
       -2    1    3    3    0  502  0.58482405012E+03  0.13049225665E+04 -0.22863828369E+03  0.14481427896E+04  0.25500000920E-02 0. -1.
</event>
<event>
 5   0  0.5154476E-06  0.2759991E+04  0.7818609E-02  0.8315798E-01
       -1   -1    0    0    0  501  0.00000000000E+00  0.00000000000E+00  0.14310233501E+04  0.14310233501E+04  0.50400001928E-02 0. -1.
        1   -1    0    0  501    0  0.00000000000E+00  0.00000000000E+00 -0.13307876539E+04  0.13307876539E+04  0.50400001928E-02 0.  1.
    10030    2    1    2    0    0  0.00000000000E+00  0.00000000000E+00  0.10023569616E+03  0.27618110040E+04  0.27599914541E+04 0.  0.
        3    1    3    3  502    0  0.39571407467E+03  0.12680026087E+04 -0.32425170612E+03  0.13673183330E+04  0.10100000352E+00 0.  1.
       -3    1    3    3    0  502 -0.39571407467E+03 -0.12680026087E+04  0.42448740227E+03  0.13944926710E+04  0.10100000352E+00 0. -1.
</event>
<event>
 5   0  0.1307832E-05  0.2881541E+04  0.7818609E-02  0.8278391E-01
        2   -1    0    0  501    0  0.00000000000E+00  0.00000000000E+00  0.10524613680E+04  0.10524613680E+04  0.25500000920E-02 0.  1.
       -2   -1    0    0    0  501  0.00000000000E+00  0.00000000000E+00 -0.19723472243E+04  0.19723472243E+04  0.25500000920E-02 0. -1.
    10030    2    1    2    0    0  0.00000000000E+00  0.00000000000E+00 -0.91988585628E+03  0.30248085923E+04  0.28815407392E+04 0.  0.
        4    1    3    3  502    0  0.11853102214E+04 -0.60229134838E+03 -0.10426103196E+04  0.16896014562E+04  0.12699999809E+01 0. -1.
       -4    1    3    3    0  502 -0.11853102214E+04  0.60229134838E+03  0.12272446336E+03  0.13352071361E+04  0.12699999809E+01 0.  1.
</event>
<event>
 5   0  0.1385669E-05  0.2887511E+04  0.7818609E-02  0.8276603E-01
       -2   -1    0    0    0  501  0.00000000000E+00  0.00000000000E+00  0.81058969319E+03  0.81058969320E+03  0.25500000920E-02 0. -1.
        2   -1    0    0  501    0  0.00000000000E+00  0.00000000000E+00 -0.25714979231E+04  0.25714979231E+04  0.25500000920E-02 0.  1.
    10030    2    1    2    0    0  0.00000000000E+00  0.00000000000E+00 -0.17609082299E+04  0.33820876163E+04  0.28875108398E+04 0.  0.
        3    1    3    3  502    0  0.29649987975E+03  0.22487335595E+02 -0.25352437345E+04  0.25526219192E+04  0.10100000352E+00 0.  1.
       -3    1    3    3    0  502 -0.29649987975E+03 -0.22487335595E+02  0.77433550453E+03  0.82946569714E+03  0.10100000352E+00 0. -1.
</event>
<event>
 5   0  0.1339837E-05  0.2931075E+04  0.7818609E-02  0.8263691E-01
        2   -1    0    0  501    0  0.00000000000E+00  0.00000000000E+00  0.22625895273E+04  0.22625895273E+04  0.25500000920E-02 0. -1.
       -2   -1    0    0    0  501  0.00000000000E+00  0.00000000000E+00 -0.94926664279E+03  0.94926664279E+03  0.25500000920E-02 0.  1.
    10030    2    1    2    0    0  0.00000000000E+00  0.00000000000E+00  0.13133228845E+04  0.32118561701E+04  0.29310754099E+04 0.  0.
        5    1    3    3  502    0  0.11230396142E+04 -0.89965055384E+03  0.96110615568E+03  0.17304150446E+04  0.46999998093E+01 0. -1.
       -5    1    3    3    0  502 -0.11230396142E+04  0.89965055384E+03  0.35221672882E+03  0.14814411255E+04  0.46999998093E+01 0.  1.
</event>
<event>
 5   0  0.5002240E-06  0.2915139E+04  0.7818609E-02  0.8268387E-01
        1   -1    0    0  501    0  0.00000000000E+00  0.00000000000E+00  0.16572396254E+04  0.16572396254E+04  0.50400001928E-02 0.  1.
       -1   -1    0    0    0  501  0.00000000000E+00  0.00000000000E+00 -0.12819565967E+04  0.12819565967E+04  0.50400001928E-02 0. -1.
    10030    2    1    2    0    0  0.00000000000E+00  0.00000000000E+00  0.37528302868E+03  0.29391962221E+04  0.29151392901E+04 0.  0.
        4    1    3    3  502    0 -0.10939707434E+04  0.95515410276E+03  0.31282858724E+03  0.14855822715E+04  0.12699999809E+01 0. -1.
       -4    1    3    3    0  502  0.10939707434E+04 -0.95515410276E+03  0.62454441434E+02  0.14536139507E+04  0.12699999809E+01 0.  1.
</event>
<event>
 5   0  0.5059249E-06  0.3086985E+04  0.7818609E-02  0.8219319E-01
       -1   -1    0    0    0  501  0.00000000000E+00  0.00000000000E+00  0.12578386701E+04  0.12578386701E+04  0.50400001928E-02 0. -1.
        1   -1    0    0  501    0  0.00000000000E+00  0.00000000000E+00 -0.18940180104E+04  0.18940180104E+04  0.50400001928E-02 0.  1.
    10030    2    1    2    0    0  0.00000000000E+00  0.00000000000E+00 -0.63617934034E+03  0.31518566805E+04  0.30869849986E+04 0.  0.
        1    1    3    3  502    0 -0.11070247797E+04  0.83543216668E+03 -0.10097607914E+04  0.17155371240E+04  0.50400001928E-02 0.  1.
       -1    1    3    3    0  502  0.11070247797E+04 -0.83543216668E+03  0.37358145104E+03  0.14363195566E+04  0.50400001928E-02 0. -1.
</event>
<event>
 5   0  0.5261878E-06  0.2902294E+04  0.7818609E-02  0.8272195E-01
       -1   -1    0    0    0  501  0.00000000000E+00  0.00000000000E+00  0.98270981568E+03  0.98270981569E+03  0.50400001928E-02 0. -1.
        1   -1    0    0  501    0  0.00000000000E+00  0.00000000000E+00 -0.21428789166E+04  0.21428789166E+04  0.50400001928E-02 0.  1.
    10030    2    1    2    0    0  0.00000000000E+00  0.00000000000E+00 -0.11601691009E+04  0.31255887323E+04  0.29022943649E+04 0.  0.
        5    1    3    3  502    0  0.25190860488E+03  0.77311713686E+02  0.95672066859E+03  0.99235657603E+03  0.46999998093E+01 0. -1.
       -5    1    3    3    0  502 -0.25190860488E+03 -0.77311713686E+02 -0.21168897695E+04  0.21332321563E+04  0.46999998093E+01 0.  1.
</event>
<event>
 5   0  0.1307832E-05  0.2984687E+04  0.7818609E-02  0.8248117E-01
       -2   -1    0    0    0  501  0.00000000000E+00  0.00000000000E+00  0.97490293922E+03  0.97490293922E+03  0.25500000920E-02 0. -1.
        2   -1    0    0  501    0  0.00000000000E+00  0.00000000000E+00 -0.22844214375E+04  0.22844214375E+04  0.25500000920E-02 0.  1.
    10030    2    1    2    0    0  0.00000000000E+00  0.00000000000E+00 -0.13095184983E+04  0.32593243767E+04  0.29846870347E+04 0.  0.
        4    1    3    3  502    0 -0.69979986167E+03 -0.76928328966E+02 -0.20916830266E+04  0.22069837586E+04  0.12699999809E+01 0.  1.
       -4    1    3    3    0  502  0.69979986167E+03  0.76928328966E+02  0.78216452833E+03  0.10523406181E+04  0.12699999809E+01 0. -1.
</event>
<event>
 5   0  0.1307832E-05  0.2906931E+04  0.7818609E-02  0.8270818E-01
       -2   -1    0    0    0  501  0.00000000000E+00  0.00000000000E+00  0.15471904860E+04  0.15471904860E+04  0.25500000920E-02 0.  1.
        2   -1    0    0  501    0  0.00000000000E+00  0.00000000000E+00 -0.13654181530E+04  0.13654181530E+04  0.25500000920E-02 0. -1.
    10030    2    1    2    0    0  0.00000000000E+00  0.00000000000E+00  0.18177233299E+03  0.29126086390E+04  0.29069310110E+04 0.  0.
        4    1    3    3  502    0  0.93519793381E+03 -0.86230988408E+03  0.79538595036E+03  0.15002712870E+04  0.12699999809E+01 0.  1.
       -4    1    3    3    0  502 -0.93519793381E+03  0.86230988408E+03 -0.61361361737E+03  0.14123373520E+04  0.12699999809E+01 0. -1.
</event>
<event>
 5   0  0.1339837E-05  0.2902532E+04  0.7818609E-02  0.8272124E-01
       -2   -1    0    0    0  501  0.00000000000E+00  0.00000000000E+00  0.98842962342E+03  0.98842962342E+03  0.25500000920E-02 0.  1.
        2   -1    0    0  501    0  0.00000000000E+00  0.00000000000E+00 -0.21308276751E+04  0.21308276751E+04  0.25500000920E-02 0. -1.
    10030    2    1    2    0    0  0.00000000000E+00  0.00000000000E+00 -0.11423980517E+04  0.31192572985E+04  0.29025321335E+04 0.  0.
        5    1    3    3  502    0 -0.73768119208E+03 -0.12213192628E+04 -0.85625311527E+03  0.16640269740E+04  0.46999998093E+01 0.  1.
       -5    1    3    3    0  502  0.73768119208E+03  0.12213192628E+04 -0.28614493643E+03  0.14552303245E+04  0.46999998093E+01 0. -1.
</event>
<event>
 5   0  0.1307832E-05  0.2871623E+04  0.7818609E-02  0.8281371E-01
       -2   -1    0    0    0  501  0.00000000000E+00  0.00000000000E+00  0.22927471865E+04  0.22927471865E+04  0.25500000920E-02 0. -1.
        2   -1    0    0  501    0  0.00000000000E+00  0.00000000000E+00 -0.89916352016E+03  0.89916352016E+03  0.25500000920E-02 0.  1.
    10030    2    1    2    0    0  0.00000000000E+00  0.00000000000E+00  0.13935836664E+04  0.31919107067E+04  0.28716229774E+04 0.  0.
        4    1    3    3  502    0  0.39038415422E+03 -0.67645884016E+03 -0.64239235012E+03  0.10112694471E+04  0.12699999809E+01 0.  1.
       -4    1    3    3    0  502 -0.39038415422E+03  0.67645884016E+03  0.20359760165E+04  0.21806412596E+04  0.12699999809E+01 0. -1.
</event>
<event>
 5   0  0.1382803E-05  0.2950720E+04  0.7818609E-02  0.8257945E-01
        2   -1    0    0  501    0  0.00000000000E+00  0.00000000000E+00  0.16944881824E+04  0.16944881824E+04  0.25500000920E-02 0.  1.
       -2   -1    0    0    0  501  0.00000000000E+00  0.00000000000E+00 -0.12845689346E+04  0.12845689346E+04  0.25500000920E-02 0. -1.
    10030    2    1    2    0    0  0.00000000000E+00  0.00000000000E+00  0.40991924782E+03  0.29790571170E+04  0.29507198303E+04 0.  0.
        2    1    3    3  502    0 -0.79573852671E+03 -0.10032610412E+04 -0.53484925787E+03  0.13877306109E+04  0.25500000920E-02 0. -1.
       -2    1    3    3    0  502  0.79573852671E+03  0.10032610412E+04  0.94476850569E+03  0.15913265061E+04  0.25500000920E-02 0.  1.
</event>
<event>
 5   0  0.1339837E-05  0.2917825E+04  0.7818609E-02  0.8267594E-01
        2   -1    0    0  501    0  0.00000000000E+00  0.00000000000E+00  0.98638092994E+03  0.98638092994E+03  0.25500000920E-02 0. -1.
       -2   -1    0    0    0  501  0.00000000000E+00  0.00000000000E+00 -0.21578134883E+04  0.21578134883E+04  0.25500000920E-02 0.  1.
    10030    2    1    2    0    0  0.00000000000E+00  0.00000000000E+00 -0.11714325584E+04  0.31441944183E+04  0.29178252691E+04 0.  0.
        5    1    3    3  502    0 -0.10748169199E+03  0.13807265619E+04 -0.91382513696E+02  0.13879232712E+04  0.46999998093E+01 0. -1.
       -5    1    3    3    0  502  0.10748169199E+03 -0.13807265619E+04 -0.10800500447E+04  0.17562711471E+04  0.46999998093E+01 0.  1.
</event>
<event>
 5   0  0.1339837E-05  0.2879422E+04  0.7818609E-02  0.8279026E-01
        2   -1    0    0  501    0  0.00000000000E+00  0.00000000000E+00  0.24574016626E+04  0.24574016626E+04  0.25500000920E-02 0.  1.
       -2   -1    0    0    0  501  0.00000000000E+00  0.00000000000E+00 -0.84347967222E+03  0.84347967223E+03  0.25500000920E-02 0. -1.
    10030    2    1    2    0    0  0.00000000000E+00  0.00000000000E+00  0.16139219904E+04  0.33008813348E+04  0.28794224066E+04 0.  0.
        5    1    3    3  502    0  0.98718490872E+03  0.66906236120E+03  0.17315970085E+04  0.21025291382E+04  0.46999998093E+01 0.  1.
       -5    1    3    3    0  502 -0.98718490872E+03 -0.66906236120E+03 -0.11767501815E+03  0.11983521966E+04  0.46999998093E+01 0. -1.
</event>
<event>
 5   0  0.5352212E-06  0.2903578E+04  0.7818609E-02  0.8271814E-01
       -1   -1    0    0    0  501  0.00000000000E+00  0.00000000000E+00  0.17991490189E+04  0.17991490189E+04  0.50400001928E-02 0.  1.
        1   -1    0    0  501    0  0.00000000000E+00  0.00000000000E+00 -0.11714934688E+04  0.11714934688E+04  0.50400001928E-02 0. -1.
    10030    2    1    2    0    0  0.00000000000E+00  0.00000000000E+00  0.62765555005E+03  0.29706424877E+04  0.29035780169E+04 0.  0.
        2    1    3    3  502    0  0.44910090819E+03  0.12679145169E+03  0.17203254410E+04  0.17824946903E+04  0.25500000920E-02 0.  1.
       -2    1    3    3    0  502 -0.44910090819E+03 -0.12679145169E+03 -0.10926698909E+04  0.11881477974E+04  0.25500000920E-02 0. -1.
</event>
<event>
 5   0  0.5352212E-06  0.2845507E+04  0.7818609E-02  0.8289278E-01
       -1   -1    0    0    0  501  0.00000000000E+00  0.00000000000E+00  0.16099318753E+04  0.16099318753E+04  0.50400001928E-02 0.  1.
        1   -1    0    0  501    0  0.00000000000E+00  0.00000000000E+00 -0.12573372468E+04  0.12573372468E+04  0.50400001928E-02 0. -1.
    10030    2    1    2    0    0  0.00000000000E+00  0.00000000000E+00  0.35259462850E+03  0.28672691221E+04  0.28455068523E+04 0.  0.
        2    1    3    3  502    0  0.33072797551E+03 -0.13075851824E+04 -0.28000958755E+03  0.13775214598E+04  0.25500000920E-02 0. -1.
       -2    1    3    3    0  502 -0.33072797551E+03  0.13075851824E+04  0.63260421605E+03  0.14897476623E+04  0.25500000920E-02 0.  1.
</event>
<event>
 5   0  0.4590125E-06  0.2885587E+04  0.7818609E-02  0.8277179E-01
        4   -1    0    0  501    0  0.00000000000E+00  0.00000000000E+00  0.15458993896E+04  0.15458999113E+04  0.12699999809E+01 0. -1.
       -4   -1    0    0    0  501  0.00000000000E+00  0.00000000000E+00 -0.13465629105E+04  0.13465635094E+04  0.12699999809E+01 0.  1.
    10030    2    1    2    0    0  0.00000000000E+00  0.00000000000E+00  0.19933647909E+03  0.28924634207E+04  0.28855865276E+04 0.  0.
        2    1    3    3  502    0 -0.34248966317E+02 -0.10239113269E+04 -0.91866872358E+03  0.13760521868E+04  0.25500000920E-02 0.  1.
       -2    1    3    3    0  502  0.34248966317E+02  0.10239113269E+04  0.11180052027E+04  0.15164112339E+04  0.25500000920E-02 0. -1.
</event>
<event>
 5   0  0.5154476E-06  0.2684379E+04  0.7818609E-02  0.8340091E-01
       -1   -1    0    0    0  501  0.00000000000E+00  0.00000000000E+00  0.12308957433E+04  0.12308957434E+04  0.50400001928E-02 0. -1.
        1   -1    0    0  501    0  0.00000000000E+00  0.00000000000E+00 -0.14635455563E+04  0.14635455563E+04  0.50400001928E-02 0.  1.
    10030    2    1    2    0    0  0.00000000000E+00  0.00000000000E+00 -0.23264981293E+03  0.26944412996E+04  0.26843785094E+04 0.  0.
        3    1    3    3  502    0 -0.11281294429E+03  0.25750111432E+03 -0.14336617032E+04  0.14609652541E+04  0.10100000352E+00 0.  1.
       -3    1    3    3    0  502  0.11281294429E+03 -0.25750111432E+03  0.12010118902E+04  0.12334760456E+04  0.10100000352E+00 0. -1.
</event>
<event>
 5   0  0.1385669E-05  0.2199839E+04  0.7818609E-02  0.8518495E-01
        2   -1    0    0  501    0  0.00000000000E+00  0.00000000000E+00  0.85840775283E+03  0.85840775283E+03  0.25500000920E-02 0. -1.
       -2   -1    0    0    0  501  0.00000000000E+00  0.00000000000E+00 -0.14093804774E+04  0.14093804774E+04  0.25500000920E-02 0.  1.
    10030    2    1    2    0    0  0.00000000000E+00  0.00000000000E+00 -0.55097272453E+03  0.22677882302E+04  0.21998392018E+04 0.  0.
        3    1    3    3  502    0  0.90155667623E+03 -0.52666498738E+02 -0.92276997430E+03  0.12911555430E+04  0.10100000352E+00 0.  1.
       -3    1    3    3    0  502 -0.90155667623E+03  0.52666498738E+02  0.37179724977E+03  0.97663268719E+03  0.10100000352E+00 0. -1.
</event>
<event>
 5   0  0.5059249E-06  0.2883905E+04  0.7818609E-02  0.8277682E-01
        1   -1    0    0  501    0  0.00000000000E+00  0.00000000000E+00  0.12869132278E+04  0.12869132278E+04  0.50400001928E-02 0.  1.
       -1   -1    0    0    0  501  0.00000000000E+00  0.00000000000E+00 -0.16156704208E+04  0.16156704208E+04  0.50400001928E-02 0. -1.
    10030    2    1    2    0    0  0.00000000000E+00  0.00000000000E+00 -0.32875719303E+03  0.29025836486E+04  0.28839054328E+04 0.  0.
        1    1    3    3  502    0 -0.22226077612E+03 -0.11154225407E+04 -0.10564942183E+04  0.15523360880E+04  0.50400001928E-02 0. -1.
       -1    1    3    3    0  502  0.22226077612E+03  0.11154225407E+04  0.72773702529E+03  0.13502475606E+04  0.50400001928E-02 0.  1.
</event>
<event>
 5   0  0.5352212E-06  0.2867640E+04  0.7818609E-02  0.8282571E-01
       -1   -1    0    0    0  501  0.00000000000E+00  0.00000000000E+00  0.96698838943E+03  0.96698838944E+03  0.50400001928E-02 0. -1.
        1   -1    0    0  501    0  0.00000000000E+00  0.00000000000E+00 -0.21260237775E+04  0.21260237775E+04  0.50400001928E-02 0.  1.
    10030    2    1    2    0    0  0.00000000000E+00  0.00000000000E+00 -0.11590353880E+04  0.30930121669E+04  0.28676403599E+04 0.  0.
        2    1    3    3  502    0 -0.12033962771E+04 -0.74799407798E+03 -0.81627419681E+03  0.16352251542E+04  0.25500000920E-02 0.  1.
       -2    1    3    3    0  502  0.12033962771E+04  0.74799407798E+03 -0.34276119123E+03  0.14577870128E+04  0.25500000920E-02 0. -1.
</event>
<event>
 5   0  0.5261878E-06  0.2694812E+04  0.7818609E-02  0.8336690E-01
       -1   -1    0    0    0  501  0.00000000000E+00  0.00000000000E+00  0.16059170448E+04  0.16059170448E+04  0.50400001928E-02 0.  1.
        1   -1    0    0  501    0  0.00000000000E+00  0.00000000000E+00 -0.11305084183E+04  0.11305084183E+04  0.50400001928E-02 0. -1.
    10030    2    1    2    0    0  0.00000000000E+00  0.00000000000E+00  0.47540862646E+03  0.27364254631E+04  0.26948118585E+04 0.  0.
        5    1    3    3  502    0 -0.19611152132E+03  0.44648248954E+03 -0.10377468949E+04  0.11466241975E+04  0.46999998093E+01 0. -1.
       -5    1    3    3    0  502  0.19611152132E+03 -0.44648248954E+03  0.15131555214E+04  0.15898012656E+04  0.46999998093E+01 0.  1.
</event>
<event>
 5   0  0.1382803E-05  0.2188957E+04  0.7818609E-02  0.8523038E-01
        2   -1    0    0  501    0  0.00000000000E+00  0.00000000000E+00  0.20291681607E+04  0.20291681607E+04  0.25500000920E-02 0. -1.
       -2   -1    0    0    0  501  0.00000000000E+00  0.00000000000E+00 -0.59033236051E+03  0.59033236052E+03  0.25500000920E-02 0.  1.
    10030    2    1    2    0    0  0.00000000000E+00  0.00000000000E+00  0.14388358002E+04  0.26195005212E+04  0.21889574050E+04 0.  0.
        2    1    3    3  502    0 -0.86729468246E+03  0.26873321655E+03  0.14507366809E+04  0.17114480784E+04  0.25500000920E-02 0. -1.
       -2    1    3    3    0  502  0.86729468246E+03 -0.26873321655E+03 -0.11900880700E+02  0.90805244279E+03  0.25500000920E-02 0.  1.
</event>
<event>
 5   0  0.1307832E-05  0.2925261E+04  0.7818609E-02  0.8265401E-01
       -2   -1    0    0    0  501  0.00000000000E+00  0.00000000000E+00  0.12751456770E+04  0.12751456770E+04  0.25500000920E-02 0.  1.
        2   -1    0    0  501    0  0.00000000000E+00  0.00000000000E+00 -0.16776808700E+04  0.16776808700E+04  0.25500000920E-02 0. -1.
    10030    2    1    2    0    0  0.00000000000E+00  0.00000000000E+00 -0.40253519305E+03  0.29528265470E+04  0.29252606781E+04 0.  0.
        4    1    3    3  502    0  0.88230659241E+03  0.60465195609E+02 -0.13772198215E+04  0.16367214218E+04  0.12699999809E+01 0. -1.
       -4    1    3    3    0  502 -0.88230659241E+03 -0.60465195609E+02  0.97468462843E+03  0.13161051252E+04  0.12699999809E+01 0.  1.
</event>
<event>
 5   0  0.5154476E-06  0.2662272E+04  0.7818609E-02  0.8347351E-01
       -1   -1    0    0    0  501  0.00000000000E+00  0.00000000000E+00  0.13065566514E+04  0.13065566514E+04  0.50400001928E-02 0. -1.
        1   -1    0    0  501    0  0.00000000000E+00  0.00000000000E+00 -0.13561781701E+04  0.13561781701E+04  0.50400001928E-02 0.  1.
    10030    2    1    2    0    0  0.00000000000E+00  0.00000000000E+00 -0.49621518705E+02  0.26627348215E+04  0.26622724193E+04 0.  0.
        3    1    3    3  502    0  0.38086359070E+02  0.11606657957E+04  0.62593881176E+03  0.13192403368E+04  0.10100000352E+00 0. -1.
       -3    1    3    3    0  502 -0.38086359070E+02 -0.11606657957E+04 -0.67556033047E+03  0.13434944847E+04  0.10100000352E+00 0.  1.
</event>
<event>
 5   0  0.1382803E-05  0.2901756E+04  0.7818609E-02  0.8272355E-01
       -2   -1    0    0    0  501  0.00000000000E+00  0.00000000000E+00  0.77705146412E+03  0.77705146412E+03  0.25500000920E-02 0.  1.
        2   -1    0    0  501    0  0.00000000000E+00  0.00000000000E+00 -0.27090190639E+04  0.27090190639E+04  0.25500000920E-02 0. -1.
    10030    2    1    2    0    0  0.00000000000E+00  0.00000000000E+00 -0.19319675997E+04  0.34860705280E+04  0.29017561785E+04 0.  0.
        2    1    3    3  502    0  0.55263389115E+03 -0.40633948883E+03 -0.25019153556E+04  0.25942429425E+04  0.25500000920E-02 0. -1.
       -2    1    3    3    0  502 -0.55263389115E+03  0.40633948883E+03  0.56994775589E+03  0.89182758551E+03  0.25500000920E-02 0.  1.
</event>
<event>
 5   0  0.5261878E-06  0.3029676E+04  0.7818609E-02  0.8235307E-01
       -1   -1    0    0    0  501  0.00000000000E+00  0.00000000000E+00  0.87442831614E+03  0.87442831616E+03  0.50400001928E-02 0. -1.
        1   -1    0    0  501    0  0.00000000000E+00  0.00000000000E+00 -0.26242686468E+04  0.26242686468E+04  0.50400001928E-02 0.  1.
    10030    2    1    2    0    0  0.00000000000E+00  0.00000000000E+00 -0.17498403307E+04  0.34986969630E+04  0.30296764276E+04 0.  0.
        5    1    3    3  502    0  0.13793967906E+04  0.39729513232E+03 -0.31613851873E+03  0.14698791043E+04  0.46999998093E+01 0.  1.
       -5    1    3    3    0  502 -0.13793967906E+04 -0.39729513232E+03 -0.14337018119E+04  0.20288178587E+04  0.46999998093E+01 0. -1.
</event>
<event>
 5   0  0.4590125E-06  0.2933268E+04  0.7818609E-02  0.8263048E-01
        3   -1    0    0  501    0  0.00000000000E+00  0.00000000000E+00  0.12071594185E+04  0.12071594227E+04  0.10100000352E+00 0.  1.
       -3   -1    0    0    0  501  0.00000000000E+00  0.00000000000E+00 -0.17818811817E+04  0.17818811845E+04  0.10100000352E+00 0. -1.
    10030    2    1    2    0    0  0.00000000000E+00  0.00000000000E+00 -0.57472176315E+03  0.29890406073E+04  0.29332675716E+04 0.  0.
        4    1    3    3  502    0  0.37233467101E+03 -0.27325747263E+03 -0.17058452606E+04  0.17672612765E+04  0.12699999809E+01 0. -1.
       -4    1    3    3    0  502 -0.37233467101E+03  0.27325747263E+03  0.11311234974E+04  0.12217793307E+04  0.12699999809E+01 0.  1.
</event>
<event>
 5   0  0.5002240E-06  0.2728326E+04  0.7818609E-02  0.8325872E-01
        1   -1    0    0  501    0  0.00000000000E+00  0.00000000000E+00  0.12131162481E+04  0.12131162481E+04  0.50400001928E-02 0.  1.
       -1   -1    0    0    0  501  0.00000000000E+00  0.00000000000E+00 -0.15340166288E+04  0.15340166288E+04  0.50400001928E-02 0. -1.
    10030    2    1    2    0    0  0.00000000000E+00  0.00000000000E+00 -0.32090038071E+03  0.27471328769E+04  0.27283258583E+04 0.  0.
        4    1    3    3  502    0 -0.84211562324E+03 -0.13329267804E+03  0.91179099994E+03  0.12483149047E+04  0.12699999809E+01 0.  1.
       -4    1    3    3    0  502  0.84211562324E+03  0.13329267804E+03 -0.12326913806E+04  0.14988179722E+04  0.12699999809E+01 0. -1.
</event>
<event>
 5   0  0.5352212E-06  0.2927369E+04  0.7818609E-02  0.8264781E-01
       -1   -1    0    0    0  501  0.00000000000E+00  0.00000000000E+00  0.89695642314E+03  0.89695642315E+03  0.50400001928E-02 0.  1.
        1   -1    0    0  501    0  0.00000000000E+00  0.00000000000E+00 -0.23884905539E+04  0.23884905539E+04  0.50400001928E-02 0. -1.
    10030    2    1    2    0    0  0.00000000000E+00  0.00000000000E+00 -0.14915341307E+04  0.32854469770E+04  0.29273687461E+04 0.  0.
        2    1    3    3  502    0 -0.14446509058E+04  0.23351121701E+03 -0.71346808901E+03  0.16280603313E+04  0.25500000920E-02 0. -1.
       -2    1    3    3    0  502  0.14446509058E+04 -0.23351121701E+03 -0.77806604171E+03  0.16573866457E+04  0.25500000920E-02 0.  1.
</event>
<event>
 5   0  0.5261878E-06  0.2905573E+04  0.7818609E-02  0.8271221E-01
       -1   -1    0    0    0  501  0.00000000000E+00  0.00000000000E+00  0.17166030473E+04  0.17166030473E+04  0.50400001928E-02 0.  1.
        1   -1    0    0  501    0  0.00000000000E+00  0.00000000000E+00 -0.12295144996E+04  0.12295144997E+04  0.50400001928E-02 0. -1.
    10030    2    1    2    0    0  0.00000000000E+00  0.00000000000E+00  0.48708854765E+03  0.29461175470E+04  0.29055728088E+04 0.  0.
        5    1    3    3  502    0  0.12367055428E+04  0.24580209941E+03  0.97521386507E+03  0.15940274290E+04  0.46999998093E+01 0.  1.
       -5    1    3    3    0  502 -0.12367055428E+04 -0.24580209941E+03 -0.48812531742E+03  0.13520901180E+04  0.46999998093E+01 0. -1.
</event>
<event>
 5   0  0.5059249E-06  0.2857294E+04  0.7818609E-02  0.8285698E-01
        1   -1    0    0  501    0  0.00000000000E+00  0.00000000000E+00  0.20333434113E+04  0.20333434113E+04  0.50400001928E-02 0.  1.
       -1   -1    0    0    0  501  0.00000000000E+00  0.00000000000E+00 -0.10037812750E+04  0.10037812750E+04  0.50400001928E-02 0. -1.
    10030    2    1    2    0    0  0.00000000000E+00  0.00000000000E+00  0.10295621363E+04  0.30371246864E+04  0.28572938540E+04 0.  0.
        1    1    3    3  502    0  0.46852613554E+03 -0.13444948981E+04  0.63986840149E+03  0.15609659964E+04  0.50400001928E-02 0.  1.
       -1    1    3    3    0  502 -0.46852613554E+03  0.13444948981E+04  0.38969373484E+03  0.14761586899E+04  0.50400001928E-02 0. -1.
</event>
<event>
 5   0  0.1385669E-05  0.3028747E+04  0.7818609E-02  0.8235569E-01
       -2   -1    0    0    0  501  0.00000000000E+00  0.00000000000E+00  0.15285654626E+04  0.15285654626E+04  0.25500000920E-02 0.  1.
        2   -1    0    0  501    0  0.00000000000E+00  0.00000000000E+00 -0.15003132389E+04  0.15003132389E+04  0.25500000920E-02 0. -1.
    10030    2    1    2    0    0  0.00000000000E+00  0.00000000000E+00  0.28252223625E+02  0.30288787015E+04  0.30287469357E+04 0.  0.
        3    1    3    3  502    0 -0.51779274484E+03 -0.53477436097E+02  0.14362842593E+04  0.15277046988E+04  0.10100000352E+00 0.  1.
       -3    1    3    3    0  502  0.51779274484E+03  0.53477436097E+02 -0.14080320357E+04  0.15011740028E+04  0.10100000352E+00 0. -1.
</event>
<event>
 5   0  0.1385669E-05  0.2804553E+04  0.7818609E-02  0.8301856E-01
        2   -1    0    0  501    0  0.00000000000E+00  0.00000000000E+00  0.15233776656E+04  0.15233776656E+04  0.25500000920E-02 0.  1.
       -2   -1    0    0    0  501  0.00000000000E+00  0.00000000000E+00 -0.12908022881E+04  0.12908022881E+04  0.25500000920E-02 0. -1.
    10030    2    1    2    0    0  0.00000000000E+00  0.00000000000E+00  0.23257537753E+03  0.28141799538E+04  0.28045529957E+04 0.  0.
        3    1    3    3  502    0  0.80015655935E+03  0.27331818398E+03 -0.10062238241E+04  0.13143210200E+04  0.10100000352E+00 0. -1.
       -3    1    3    3    0  502 -0.80015655935E+03 -0.27331818398E+03  0.12387992016E+04  0.14998589338E+04  0.10100000352E+00 0.  1.
</event>
<event>
 5   0  0.5261878E-06  0.2840622E+04  0.7818609E-02  0.8290767E-01
       -1   -1    0    0    0  501  0.00000000000E+00  0.00000000000E+00  0.17567683677E+04  0.17567683677E+04  0.50400001928E-02 0. -1.
        1   -1    0    0  501    0  0.00000000000E+00  0.00000000000E+00 -0.11482922039E+04  0.11482922039E+04  0.50400001928E-02 0.  1.
    10030    2    1    2    0    0  0.00000000000E+00  0.00000000000E+00  0.60847616374E+03  0.29050605716E+04  0.28406220592E+04 0.  0.
        5    1    3    3  502    0 -0.13270542674E+04 -0.25768850989E+01 -0.21338752892E+03  0.13441116012E+04  0.46999998093E+01 0.  1.
       -5    1    3    3    0  502  0.13270542674E+04  0.25768850989E+01  0.82186369266E+03  0.15609489704E+04  0.46999998093E+01 0. -1.
</event>
<event>
 5   0  0.5154476E-06  0.2867119E+04  0.7818609E-02  0.8282728E-01
        1   -1    0    0  501    0  0.00000000000E+00  0.00000000000E+00  0.12910919802E+04  0.12910919802E+04  0.50400001928E-02 0. -1.
       -1   -1    0    0    0  501  0.00000000000E+00  0.00000000000E+00 -0.15917482012E+04  0.15917482012E+04  0.50400001928E-02 0.  1.
    10030    2    1    2    0    0  0.00000000000E+00  0.00000000000E+00 -0.30065622104E+03  0.28828401814E+04  0.28671193467E+04 0.  0.
        3    1    3    3  502    0 -0.81157323665E+03 -0.15856818344E+03 -0.13277734919E+04  0.15642178376E+04  0.10100000352E+00 0.  1.
       -3    1    3    3    0  502  0.81157323665E+03  0.15856818344E+03  0.10271172709E+04  0.13186223438E+04  0.10100000352E+00 0. -1.
</event>
<event>
 5   0  0.5154476E-06  0.2396348E+04  0.7818609E-02  0.8440872E-01
       -1   -1    0    0    0  501  0.00000000000E+00  0.00000000000E+00  0.15310870333E+04  0.15310870333E+04  0.50400001928E-02 0. -1.
        1   -1    0    0  501    0  0.00000000000E+00  0.00000000000E+00 -0.93764848233E+03  0.93764848234E+03  0.50400001928E-02 0.  1.
    10030    2    1    2    0    0  0.00000000000E+00  0.00000000000E+00  0.59343855097E+03  0.24687355156E+04  0.23963484163E+04 0.  0.
        3    1    3    3  502    0  0.61145109497E+01  0.95704372794E+03  0.10393631917E+04  0.14128856779E+04  0.10100000352E+00 0. -1.
       -3    1    3    3    0  502 -0.61145109497E+01 -0.95704372794E+03 -0.44592464072E+03  0.10558498377E+04  0.10100000352E+00 0.  1.
</event>
<event>
 5   0  0.1382803E-05  0.2896284E+04  0.7818609E-02  0.8273984E-01
        2   -1    0    0  501    0  0.00000000000E+00  0.00000000000E+00  0.29838955812E+04  0.29838955812E+04  0.25500000920E-02 0.  1.
       -2   -1    0    0    0  501  0.00000000000E+00  0.00000000000E+00 -0.70281105671E+03  0.70281105671E+03  0.25500000920E-02 0. -1.
    10030    2    1    2    0    0  0.00000000000E+00  0.00000000000E+00  0.22810845245E+04  0.36867066379E+04  0.28962836923E+04 0.  0.
        2    1    3    3  502    0  0.28987404432E+03 -0.13318672671E+04  0.51796408999E+03  0.14581440866E+04  0.25500000920E-02 0.  1.
       -2    1    3    3    0  502 -0.28987404432E+03  0.13318672671E+04  0.17631204345E+04  0.22285625513E+04  0.25500000920E-02 0. -1.
</event>
<event>
 5   0  0.1382803E-05  0.2910858E+04  0.7818609E-02  0.8269654E-01
        2   -1    0    0  501    0  0.00000000000E+00  0.00000000000E+00  0.13677640100E+04  0.13677640100E+04  0.25500000920E-02 0. -1.
       -2   -1    0    0    0  501  0.00000000000E+00  0.00000000000E+00 -0.15487129212E+04  0.15487129212E+04  0.25500000920E-02 0.  1.
    10030    2    1    2    0    0  0.00000000000E+00  0.00000000000E+00 -0.18094891119E+03  0.29164769312E+04  0.29108581521E+04 0.  0.
        2    1    3    3  502    0 -0.53896419112E+03  0.38104783474E+03 -0.13901267079E+04  0.15388736517E+04  0.25500000920E-02 0.  1.
       -2    1    3    3    0  502  0.53896419112E+03 -0.38104783474E+03  0.12091777967E+04  0.13776032795E+04  0.25500000920E-02 0. -1.
</event>
<event>
 5   0  0.5002240E-06  0.1951846E+04  0.7818609E-02  0.8629471E-01
       -1   -1    0    0    0  501  0.00000000000E+00  0.00000000000E+00  0.54547479060E+03  0.54547479062E+03  0.50400001928E-02 0.  1.
        1   -1    0    0  501    0  0.00000000000E+00  0.00000000000E+00 -0.17460486452E+04  0.17460486452E+04  0.50400001928E-02 0. -1.
    10030    2    1    2    0    0  0.00000000000E+00  0.00000000000E+00 -0.12005738546E+04  0.22915234358E+04  0.19518458127E+04 0.  0.
        4    1    3    3  502    0  0.40478253489E+03 -0.65245309213E+02 -0.16400272868E+04  0.16905019862E+04  0.12699999809E+01 0. -1.
       -4    1    3    3    0  502 -0.40478253489E+03  0.65245309213E+02  0.43945343222E+03  0.60102144963E+03  0.12699999809E+01 0.  1.
</event>
<event>
 5   0  0.1336899E-05  0.2896623E+04  0.7818609E-02  0.8273883E-01
       -2   -1    0    0    0  501  0.00000000000E+00  0.00000000000E+00  0.11959324494E+04  0.11959324494E+04  0.25500000920E-02 0. -1.
        2   -1    0    0  501    0  0.00000000000E+00  0.00000000000E+00 -0.17539502095E+04  0.17539502095E+04  0.25500000920E-02 0.  1.
    10030    2    1    2    0    0  0.00000000000E+00  0.00000000000E+00 -0.55801776007E+03  0.29498826589E+04  0.28966228406E+04 0.  0.
        1    1    3    3  502    0 -0.13913921127E+04 -0.80962108056E+02 -0.68005047648E+03  0.15508047990E+04  0.50400001928E-02 0.  1.
       -1    1    3    3    0  502  0.13913921127E+04  0.80962108056E+02  0.12203271641E+03  0.13990778599E+04  0.50400001928E-02 0. -1.
</event>
<event>
 5   0  0.4590125E-06  0.2798259E+04  0.7818609E-02  0.8303809E-01
        3   -1    0    0  501    0  0.00000000000E+00  0.00000000000E+00  0.20604414646E+04  0.20604414671E+04  0.10100000352E+00 0.  1.
       -3   -1    0    0    0  501  0.00000000000E+00  0.00000000000E+00 -0.95006984323E+03  0.95006984860E+03  0.10100000352E+00 0. -1.
    10030    2    1    2    0    0  0.00000000000E+00  0.00000000000E+00  0.11103716213E+04  0.30105113157E+04  0.27982589666E+04 0.  0.
        2    1    3    3  502    0  0.33166962518E+03 -0.10739865832E+04  0.14515137735E+04  0.18358497095E+04  0.25500000920E-02 0.  1.
       -2    1    3    3    0  502 -0.33166962518E+03  0.10739865832E+04 -0.34114215214E+03  0.11746616062E+04  0.25500000920E-02 0. -1.
</event>
<event>
 5   0  0.1339837E-05  0.2881041E+04  0.7818609E-02  0.8278541E-01
       -2   -1    0    0    0  501  0.00000000000E+00  0.00000000000E+00  0.95121285503E+03  0.95121285504E+03  0.25500000920E-02 0. -1.
        2   -1    0    0  501    0  0.00000000000E+00  0.00000000000E+00 -0.21815305972E+04  0.21815305972E+04  0.25500000920E-02 0.  1.
    10030    2    1    2    0    0  0.00000000000E+00  0.00000000000E+00 -0.12303177422E+04  0.31327434522E+04  0.28810414420E+04 0.  0.
        5    1    3    3  502    0  0.14884713056E+03 -0.38620657597E+03 -0.21154730304E+04  0.21555879058E+04  0.46999998093E+01 0.  1.
       -5    1    3    3    0  502 -0.14884713056E+03  0.38620657597E+03  0.88515528821E+03  0.97715554639E+03  0.46999998093E+01 0. -1.
</event>
<event>
 5   0  0.1339837E-05  0.2728653E+04  0.7818609E-02  0.8325768E-01
       -2   -1    0    0    0  501  0.00000000000E+00  0.00000000000E+00  0.10275680378E+04  0.10275680378E+04  0.25500000920E-02 0.  1.
        2   -1    0    0  501    0  0.00000000000E+00  0.00000000000E+00 -0.18114486392E+04  0.18114486392E+04  0.25500000920E-02 0. -1.
    10030    2    1    2    0    0  0.00000000000E+00  0.00000000000E+00 -0.78388060147E+03  0.28390166770E+04  0.27286529451E+04 0.  0.
        5    1    3    3  502    0 -0.79381673196E+03 -0.31924891728E+03 -0.14976070765E+04  0.17247938778E+04  0.46999998093E+01 0. -1.
       -5    1    3    3    0  502  0.79381673196E+03  0.31924891728E+03  0.71372647507E+03  0.11142227992E+04  0.46999998093E+01 0.  1.
</event>
<event>
 5   0  0.1382803E-05  0.2907000E+04  0.7818609E-02  0.8270798E-01
        2   -1    0    0  501    0  0.00000000000E+00  0.00000000000E+00  0.22451190490E+04  0.22451190490E+04  0.25500000920E-02 0. -1.
       -2   -1    0    0    0  501  0.00000000000E+00  0.00000000000E+00 -0.94100207056E+03  0.94100207056E+03  0.25500000920E-02 0.  1.
    10030    2    1    2    0    0  0.00000000000E+00  0.00000000000E+00  0.13041169785E+04  0.31861211196E+04  0.29069996036E+04 0.  0.
        2    1    3    3  502    0 -0.48469694152E+03 -0.26485998671E+03 -0.82149546043E+03  0.98991753656E+03  0.25500000920E-02 0.  1.
       -2    1    3    3    0  502  0.48469694152E+03  0.26485998671E+03  0.21256124389E+04  0.21962035830E+04  0.25500000920E-02 0. -1.
</event>
<event>
 5   0  0.5261878E-06  0.2288756E+04  0.7818609E-02  0.8482368E-01
        1   -1    0    0  501    0  0.00000000000E+00  0.00000000000E+00  0.12635334254E+04  0.12635334254E+04  0.50400001928E-02 0.  1.
       -1   -1    0    0    0  501  0.00000000000E+00  0.00000000000E+00 -0.10364589119E+04  0.10364589120E+04  0.50400001928E-02 0. -1.
    10030    2    1    2    0    0  0.00000000000E+00  0.00000000000E+00  0.22707451348E+03  0.22999923374E+04  0.22887555390E+04 0.  0.
        5    1    3    3  502    0  0.94424510133E+03 -0.57790823339E+03  0.40479058281E+03  0.11787511372E+04  0.46999998093E+01 0.  1.
       -5    1    3    3    0  502 -0.94424510133E+03  0.57790823339E+03 -0.17771606933E+03  0.11212412001E+04  0.46999998093E+01 0. -1.
</event>
<event>
 5   0  0.1385669E-05  0.2240224E+04  0.7818609E-02  0.8501870E-01
        2   -1    0    0  501    0  0.00000000000E+00  0.00000000000E+00  0.10843860452E+04  0.10843860452E+04  0.25500000920E-02 0.  1.
       -2   -1    0    0    0  501  0.00000000000E+00  0.00000000000E+00 -0.11570150842E+04  0.11570150842E+04  0.25500000920E-02 0. -1.
    10030    2    1    2    0    0  0.00000000000E+00  0.00000000000E+00 -0.72629039030E+02  0.22414011294E+04  0.22402241061E+04 0.  0.
        3    1    3    3  502    0 -0.10674785215E+04  0.27385466314E+03 -0.23678004199E+03  0.11271963312E+04  0.10100000352E+00 0. -1.
       -3    1    3    3    0  502  0.10674785215E+04 -0.27385466314E+03  0.16415100296E+03  0.11142047983E+04  0.10100000352E+00 0.  1.
</event>
<event>
 5   0  0.5154476E-06  0.3164398E+04  0.7818609E-02  0.8198283E-01
        1   -1    0    0  501    0  0.00000000000E+00  0.00000000000E+00  0.23581285228E+04  0.23581285228E+04  0.50400001928E-02 0. -1.
       -1   -1    0    0    0  501  0.00000000000E+00  0.00000000000E+00 -0.10615852192E+04  0.10615852192E+04  0.50400001928E-02 0.  1.
    10030    2    1    2    0    0  0.00000000000E+00  0.00000000000E+00  0.12965433037E+04  0.34197137420E+04  0.31643984482E+04 0.  0.
        3    1    3    3  502    0 -0.13880759343E+04  0.30267682920E+03 -0.10432681895E+03  0.14245182195E+04  0.10100000352E+00 0. -1.
       -3    1    3    3    0  502  0.13880759343E+04 -0.30267682920E+03  0.14008701226E+04  0.19951955225E+04  0.10100000352E+00 0.  1.
</event>
<event>
 5   0  0.1307832E-05  0.2919913E+04  0.7818609E-02  0.8266977E-01
        2   -1    0    0  501    0  0.00000000000E+00  0.00000000000E+00  0.20436703727E+04  0.20436703727E+04  0.25500000920E-02 0.  1.
       -2   -1    0    0    0  501  0.00000000000E+00  0.00000000000E+00 -0.10429633971E+04  0.10429633971E+04  0.25500000920E-02 0. -1.
    10030    2    1    2    0    0  0.00000000000E+00  0.00000000000E+00  0.10007069756E+04  0.30866337698E+04  0.29199132826E+04 0.  0.
        4    1    3    3  502    0 -0.11189219798E+04  0.12139090052E+03 -0.48266196086E+03  0.12246168090E+04  0.12699999809E+01 0. -1.
       -4    1    3    3    0  502  0.11189219798E+04 -0.12139090052E+03  0.14833689365E+04  0.18620169608E+04  0.12699999809E+01 0.  1.
</event>
<event>
 5   0  0.5352212E-06  0.2841727E+04  0.7818609E-02  0.8290430E-01
       -1   -1    0    0    0  501  0.00000000000E+00  0.00000000000E+00  0.11490552297E+04  0.11490552297E+04  0.50400001928E-02 0. -1.
        1   -1    0    0  501    0  0.00000000000E+00  0.00000000000E+00 -0.17569673677E+04  0.17569673677E+04  0.50400001928E-02 0.  1.
    10030    2    1    2    0    0  0.00000000000E+00  0.00000000000E+00 -0.60791213799E+03  0.29060225975E+04  0.28417266177E+04 0.  0.
        2    1    3    3  502    0 -0.67072345944E+03  0.62668615994E+03 -0.14130439600E+04  0.16850218797E+04  0.25500000920E-02 0.  1.
       -2    1    3    3    0  502  0.67072345944E+03 -0.62668615994E+03  0.80513182199E+03  0.12210007178E+04  0.25500000920E-02 0. -1.
</event>
<event>
 5   0  0.5059249E-06  0.2861936E+04  0.7818609E-02  0.8284293E-01
       -1   -1    0    0    0  501  0.00000000000E+00  0.00000000000E+00  0.15055132648E+04  0.15055132648E+04  0.50400001928E-02 0. -1.
        1   -1    0    0  501    0  0.00000000000E+00  0.00000000000E+00 -0.13601140699E+04  0.13601140700E+04  0.50400001928E-02 0.  1.
    10030    2    1    2    0    0  0.00000000000E+00  0.00000000000E+00  0.14539919488E+03  0.28656273348E+04  0.28619362495E+04 0.  0.
        1    1    3    3  502    0 -0.11924670271E+03 -0.86173591056E+03  0.12103256584E+04  0.14905357275E+04  0.50400001928E-02 0. -1.
       -1    1    3    3    0  502  0.11924670271E+03  0.86173591056E+03 -0.10649264635E+04  0.13750916073E+04  0.50400001928E-02 0.  1.
</event>
<event>
 5   0  0.1339837E-05  0.3003066E+04  0.7818609E-02  0.8242856E-01
       -2   -1    0    0    0  501  0.00000000000E+00  0.00000000000E+00  0.96018193747E+03  0.96018193747E+03  0.25500000920E-02 0. -1.
        2   -1    0    0  501    0  0.00000000000E+00  0.00000000000E+00 -0.23480977893E+04  0.23480977893E+04  0.25500000920E-02 0.  1.
    10030    2    1    2    0    0  0.00000000000E+00  0.00000000000E+00 -0.13879158518E+04  0.33082797268E+04  0.30030658232E+04 0.  0.
        5    1    3    3  502    0  0.97535727945E+03  0.76087822642E+03 -0.16315265375E+04  0.20474761123E+04  0.46999998093E+01 0.  1.
       -5    1    3    3    0  502 -0.97535727945E+03 -0.76087822642E+03  0.24361068566E+03  0.12608036144E+04  0.46999998093E+01 0. -1.
</event>
<event>
 5   0  0.5261878E-06  0.3060374E+04  0.7818609E-02  0.8226698E-01
       -1   -1    0    0    0  501  0.00000000000E+00  0.00000000000E+00  0.88386054571E+03  0.88386054572E+03  0.50400001928E-02 0. -1.
        1   -1    0    0  501    0  0.00000000000E+00  0.00000000000E+00 -0.26491424276E+04  0.26491424276E+04  0.50400001928E-02 0.  1.
    10030    2    1    2    0    0  0.00000000000E+00  0.00000000000E+00 -0.17652818819E+04  0.35330029734E+04  0.30603741417E+04 0.  0.
        5    1    3    3  502    0 -0.58518928367E+03 -0.99285305537E+03  0.27941511137E+03  0.11858746062E+04  0.46999998093E+01 0. -1.
       -5    1    3    3    0  502  0.58518928367E+03  0.99285305537E+03 -0.20446969933E+04  0.23471283671E+04  0.46999998093E+01 0.  1.
</event>
<event>
 5   0  0.1385669E-05  0.2956229E+04  0.7818609E-02  0.8256341E-01
       -2   -1    0    0    0  501  0.00000000000E+00  0.00000000000E+00  0.10082033878E+04  0.10082033878E+04  0.25500000920E-02 0.  1.
        2   -1    0    0  501    0  0.00000000000E+00  0.00000000000E+00 -0.21670457091E+04  0.21670457091E+04  0.25500000920E-02 0. -1.
    10030    2    1    2    0    0  0.00000000000E+00  0.00000000000E+00 -0.11588423213E+04  0.31752490969E+04  0.29562292370E+04 0.  0.
        3    1    3    3  502    0  0.27534197152E+02  0.11433871673E+04 -0.15851311022E+04  0.19546695291E+04  0.10100000352E+00 0. -1.
       -3    1    3    3    0  502 -0.27534197152E+02 -0.11433871673E+04  0.42628878086E+03  0.12205795678E+04  0.10100000352E+00 0.  1.
</event>
<event>
 5   0  0.1336899E-05  0.2925855E+04  0.7818609E-02  0.8265226E-01
        2   -1    0    0  501    0  0.00000000000E+00  0.00000000000E+00  0.24498498164E+04  0.24498498164E+04  0.25500000920E-02 0. -1.
       -2   -1    0    0    0  501  0.00000000000E+00  0.00000000000E+00 -0.87358701142E+03  0.87358701142E+03  0.25500000920E-02 0.  1.
    10030    2    1    2    0    0  0.00000000000E+00  0.00000000000E+00  0.15762628049E+04  0.33234368278E+04  0.29258550747E+04 0.  0.
        1    1    3    3  502    0 -0.11448518434E+04 -0.51156986859E+03  0.16440252101E+04  0.20676577002E+04  0.50400001928E-02 0.  1.
       -1    1    3    3    0  502  0.11448518434E+04  0.51156986859E+03 -0.67762405143E+02  0.12557791276E+04  0.50400001928E-02 0. -1.
</event>
<event>
 5   0  0.5352212E-06  0.2797050E+04  0.7818609E-02  0.8304185E-01
        1   -1    0    0  501    0  0.00000000000E+00  0.00000000000E+00  0.13291988350E+04  0.13291988350E+04  0.50400001928E-02 0.  1.
       -1   -1    0    0    0  501  0.00000000000E+00  0.00000000000E+00 -0.14714669045E+04  0.14714669045E+04  0.50400001928E-02 0. -1.
    10030    2    1    2    0    0  0.00000000000E+00  0.00000000000E+00 -0.14226806956E+03  0.28006657395E+04  0.27970499425E+04 0.  0.
        2    1    3    3  502    0  0.10853234488E+04  0.14778826039E+03 -0.94180036481E+03  0.14445609318E+04  0.25500000920E-02 0. -1.
       -2    1    3    3    0  502 -0.10853234488E+04 -0.14778826039E+03  0.79953229525E+03  0.13561048077E+04  0.25500000920E-02 0.  1.
</event>
<event>
 5   0  0.5352212E-06  0.1945638E+04  0.7818609E-02  0.8632467E-01
        1   -1    0    0  501    0  0.00000000000E+00  0.00000000000E+00  0.10040850042E+04  0.10040850042E+04  0.50400001928E-02 0.  1.
       -1   -1    0    0    0  501  0.00000000000E+00  0.00000000000E+00 -0.94252640249E+03  0.94252640250E+03  0.50400001928E-02 0. -1.
    10030    2    1    2    0    0  0.00000000000E+00  0.00000000000E+00  0.61558601663E+02  0.19466114067E+04  0.19456378150E+04 0.  0.
        2    1    3    3  502    0  0.38194351188E+02  0.62165868763E+03  0.77845392000E+03  0.99694976701E+03  0.25500000920E-02 0.  1.
       -2    1    3    3    0  502 -0.38194351188E+02 -0.62165868763E+03 -0.71689531834E+03  0.94966163966E+03  0.25500000920E-02 0. -1.
</event>
<event>
 5   0  0.1385669E-05  0.2949286E+04  0.7818609E-02  0.8258363E-01
       -2   -1    0    0    0  501  0.00000000000E+00  0.00000000000E+00  0.15216745156E+04  0.15216745156E+04  0.25500000920E-02 0. -1.
        2   -1    0    0  501    0  0.00000000000E+00  0.00000000000E+00 -0.14290651879E+04  0.14290651879E+04  0.25500000920E-02 0.  1.
    10030    2    1    2    0    0  0.00000000000E+00  0.00000000000E+00  0.92609327680E+02  0.29507397035E+04  0.29492860678E+04 0.  0.
        3    1    3    3  502    0  0.20174320333E+03  0.11636983991E+04 -0.83712419187E+03  0.14476433287E+04  0.10100000352E+00 0.  1.
       -3    1    3    3    0  502 -0.20174320333E+03 -0.11636983991E+04  0.92973351955E+03  0.15030963748E+04  0.10100000352E+00 0. -1.
</event>
<event>
 5   0  0.1385669E-05  0.2877159E+04  0.7818609E-02  0.8279706E-01
       -2   -1    0    0    0  501  0.00000000000E+00  0.00000000000E+00  0.80843345312E+03  0.80843345312E+03  0.25500000920E-02 0. -1.
        2   -1    0    0  501    0  0.00000000000E+00  0.00000000000E+00 -0.25599022047E+04  0.25599022047E+04  0.25500000920E-02 0.  1.
    10030    2    1    2    0    0  0.00000000000E+00  0.00000000000E+00 -0.17514687516E+04  0.33683356578E+04  0.28771587228E+04 0.  0.
        3    1    3    3  502    0  0.25767286345E+03 -0.49307880561E+03 -0.24288595664E+04  0.24917625923E+04  0.10100000352E+00 0.  1.
       -3    1    3    3    0  502 -0.25767286345E+03  0.49307880561E+03  0.67739081476E+03  0.87657306554E+03  0.10100000352E+00 0. -1.
</event>
<event>
 5   0  0.5002240E-06  0.2768044E+04  0.7818609E-02  0.8313259E-01
       -1   -1    0    0    0  501  0.00000000000E+00  0.00000000000E+00  0.11552080518E+04  0.11552080518E+04  0.50400001928E-02 0.  1.
        1   -1    0    0  501    0  0.00000000000E+00  0.00000000000E+00 -0.16581569284E+04  0.16581569284E+04  0.50400001928E-02 0. -1.
    10030    2    1    2    0    0  0.00000000000E+00  0.00000000000E+00 -0.50294887658E+03  0.28133649802E+04  0.27680435219E+04 0.  0.
        4    1    3    3  502    0  0.87637928857E+03  0.93770550865E+03  0.27486783726E+03  0.13125876044E+04  0.12699999809E+01 0.  1.
       -4    1    3    3    0  502 -0.87637928857E+03 -0.93770550865E+03 -0.77781671384E+03  0.15007773758E+04  0.12699999809E+01 0. -1.
</event>
<event>
 5   0  0.5002240E-06  0.2887647E+04  0.7818609E-02  0.8276562E-01
       -1   -1    0    0    0  501  0.00000000000E+00  0.00000000000E+00  0.16510360774E+04  0.16510360774E+04  0.50400001928E-02 0. -1.
        1   -1    0    0  501    0  0.00000000000E+00  0.00000000000E+00 -0.12626174176E+04  0.12626174176E+04  0.50400001928E-02 0.  1.
    10030    2    1    2    0    0  0.00000000000E+00  0.00000000000E+00  0.38841865981E+03  0.29136534950E+04  0.28876474220E+04 0.  0.
        4    1    3    3  502    0 -0.28613492167E+03 -0.13750228743E+04  0.53198407847E+03  0.15018554427E+04  0.12699999809E+01 0.  1.
       -4    1    3    3    0  502  0.28613492167E+03  0.13750228743E+04 -0.14356541866E+03  0.14117980523E+04  0.12699999809E+01 0. -1.
</event>
<event>
 5   0  0.5059249E-06  0.2892623E+04  0.7818609E-02  0.8275076E-01
        1   -1    0    0  501    0  0.00000000000E+00  0.00000000000E+00  0.85090510442E+03  0.85090510443E+03  0.50400001928E-02 0. -1.
       -1   -1    0    0    0  501  0.00000000000E+00  0.00000000000E+00 -0.24583436587E+04  0.24583436587E+04  0.50400001928E-02 0.  1.
    10030    2    1    2    0    0  0.00000000000E+00  0.00000000000E+00 -0.16074385543E+04  0.33092487631E+04  0.28926231470E+04 0.  0.
        1    1    3    3  502    0 -0.13909108600E+04  0.39113847307E+03 -0.87781538005E+03  0.16906159135E+04  0.50400001928E-02 0. -1.
       -1    1    3    3    0  502  0.13909108600E+04 -0.39113847307E+03 -0.72962317423E+03  0.16186328496E+04  0.50400001928E-02 0.  1.
</event>
<event>
 5   0  0.5059249E-06  0.2784252E+04  0.7818609E-02  0.8308174E-01
       -1   -1    0    0    0  501  0.00000000000E+00  0.00000000000E+00  0.20988409614E+04  0.20988409614E+04  0.50400001928E-02 0. -1.
        1   -1    0    0  501    0  0.00000000000E+00  0.00000000000E+00 -0.92337383085E+03  0.92337383086E+03  0.50400001928E-02 0.  1.
    10030    2    1    2    0    0  0.00000000000E+00  0.00000000000E+00  0.11754671306E+04  0.30222147923E+04  0.27842520137E+04 0.  0.
        1    1    3    3  502    0 -0.12871429747E+04 -0.33545611385E+03  0.14183632395E+03  0.13376791037E+04  0.50400001928E-02 0.  1.
       -1    1    3    3    0  502  0.12871429747E+04  0.33545611385E+03  0.10336308066E+04  0.16845356886E+04  0.50400001928E-02 0. -1.
</event>
<event>
 5   0  0.5352212E-06  0.2866957E+04  0.7818609E-02  0.8282777E-01
       -1   -1    0    0    0  501  0.00000000000E+00  0.00000000000E+00  0.12373567555E+04  0.12373567555E+04  0.50400001928E-02 0. -1.
        1   -1    0    0  501    0  0.00000000000E+00  0.00000000000E+00 -0.16606857288E+04  0.16606857288E+04  0.50400001928E-02 0.  1.
    10030    2    1    2    0    0  0.00000000000E+00  0.00000000000E+00 -0.42332897323E+03  0.28980424843E+04  0.28669570665E+04 0.  0.
        2    1    3    3  502    0  0.67889523677E+03  0.54882876724E+03 -0.13609836679E+04  0.16169070173E+04  0.25500000920E-02 0.  1.
       -2    1    3    3    0  502 -0.67889523677E+03 -0.54882876724E+03  0.93765469470E+03  0.12811354670E+04  0.25500000920E-02 0. -1.
</event>
<event>
 5   0  0.5261878E-06  0.2779569E+04  0.7818609E-02  0.8309640E-01
        1   -1    0    0  501    0  0.00000000000E+00  0.00000000000E+00  0.13875509832E+04  0.13875509832E+04  0.50400001928E-02 0. -1.
       -1   -1    0    0    0  501  0.00000000000E+00  0.00000000000E+00 -0.13920212932E+04  0.13920212932E+04  0.50400001928E-02 0.  1.
    10030    2    1    2    0    0  0.00000000000E+00  0.00000000000E+00 -0.44703100042E+01  0.27795722765E+04  0.27795686817E+04 0.  0.
        5    1    3    3  502    0 -0.10048885733E+04 -0.69209065183E+03  0.66311366635E+03  0.13887160759E+04  0.46999998093E+01 0.  1.
       -5    1    3    3    0  502  0.10048885733E+04  0.69209065183E+03 -0.66758397635E+03  0.13908562005E+04  0.46999998093E+01 0. -1.
</event>
<event>
 5   0  0.5352212E-06  0.2879607E+04  0.7818609E-02  0.8278971E-01
       -1   -1    0    0    0  501  0.00000000000E+00  0.00000000000E+00  0.15998582559E+04  0.15998582559E+04  0.50400001928E-02 0.  1.
        1   -1    0    0  501    0  0.00000000000E+00  0.00000000000E+00 -0.12957606761E+04  0.12957606761E+04  0.50400001928E-02 0. -1.
    10030    2    1    2    0    0  0.00000000000E+00  0.00000000000E+00  0.30409757978E+03  0.28956189320E+04  0.28796065115E+04 0.  0.
        2    1    3    3  502    0 -0.12975434874E+04  0.61475900739E+03  0.44281601679E+02  0.14364917678E+04  0.25500000920E-02 0.  1.
       -2    1    3    3    0  502  0.12975434874E+04 -0.61475900739E+03  0.25981597810E+03  0.14591271642E+04  0.25500000920E-02 0. -1.
</event>
<event>
 5   0  0.1336899E-05  0.2894548E+04  0.7818609E-02  0.8274502E-01
        2   -1    0    0  501    0  0.00000000000E+00  0.00000000000E+00  0.14965868387E+04  0.14965868387E+04  0.25500000920E-02 0. -1.
       -2   -1    0    0    0  501  0.00000000000E+00  0.00000000000E+00 -0.13995855578E+04  0.13995855578E+04  0.25500000920E-02 0.  1.
    10030    2    1    2    0    0  0.00000000000E+00  0.00000000000E+00  0.97001280886E+02  0.28961723965E+04  0.28945475124E+04 0.  0.
        1    1    3    3  502    0  0.60869675130E+03 -0.11776668536E+04  0.62950756737E+03  0.14675458189E+04  0.50400001928E-02 0. -1.
       -1    1    3    3    0  502 -0.60869675130E+03  0.11776668536E+04 -0.53250628648E+03  0.14286265776E+04  0.50400001928E-02 0.  1.
</event>
<event>
 5   0  0.1336899E-05  0.3102090E+04  0.7818609E-02  0.8215165E-01
       -2   -1    0    0    0  501  0.00000000000E+00  0.00000000000E+00  0.14795880152E+04  0.14795880152E+04  0.25500000920E-02 0.  1.
        2   -1    0    0  501    0  0.00000000000E+00  0.00000000000E+00 -0.16259528533E+04  0.16259528533E+04  0.25500000920E-02 0. -1.
    10030    2    1    2    0    0  0.00000000000E+00  0.00000000000E+00 -0.14636483815E+03  0.31055408685E+04  0.31020898472E+04 0.  0.
        1    1    3    3  502    0 -0.94582941914E+03 -0.66521196861E+03 -0.11080829512E+04  0.16015455286E+04  0.50400001928E-02 0. -1.
       -1    1    3    3    0  502  0.94582941914E+03  0.66521196861E+03  0.96171811310E+03  0.15039953399E+04  0.50400001928E-02 0.  1.
</event>
<event>
 5   0  0.1382803E-05  0.3121259E+04  0.7818609E-02  0.8209928E-01
        2   -1    0    0  501    0  0.00000000000E+00  0.00000000000E+00  0.13376976137E+04  0.13376976137E+04  0.25500000920E-02 0.  1.
       -2   -1    0    0    0  501  0.00000000000E+00  0.00000000000E+00 -0.18207136280E+04  0.18207136280E+04  0.25500000920E-02 0. -1.
    10030    2    1    2    0    0  0.00000000000E+00  0.00000000000E+00 -0.48301601434E+03  0.31584112417E+04  0.31212588969E+04 0.  0.
        2    1    3    3  502    0 -0.81335720785E+03 -0.12796420561E+04 -0.61540655732E+03  0.16363859478E+04  0.25500000920E-02 0.  1.
       -2    1    3    3    0  502  0.81335720785E+03  0.12796420561E+04  0.13239054298E+03  0.15220252939E+04  0.25500000920E-02 0. -1.
</event>
<event>
 5   0  0.5002240E-06  0.2953904E+04  0.7818609E-02  0.8257018E-01
        1   -1    0    0  501    0  0.00000000000E+00  0.00000000000E+00  0.16337143769E+04  0.16337143769E+04  0.50400001928E-02 0.  1.
       -1   -1    0    0    0  501  0.00000000000E+00  0.00000000000E+00 -0.13352319833E+04  0.13352319834E+04  0.50400001928E-02 0. -1.
    10030    2    1    2    0    0  0.00000000000E+00  0.00000000000E+00  0.29848239356E+03  0.29689463603E+04  0.29539043232E+04 0.  0.
        4    1    3    3  502    0 -0.93183963114E+02 -0.27261711972E+03  0.16051972907E+04  0.16308474177E+04  0.12699999809E+01 0.  1.
       -4    1    3    3    0  502  0.93183963114E+02  0.27261711972E+03 -0.13067148971E+04  0.13380989426E+04  0.12699999809E+01 0. -1.
</event>
<event>
 5   0  0.5002240E-06  0.2997220E+04  0.7818609E-02  0.8244525E-01
       -1   -1    0    0    0  501  0.00000000000E+00  0.00000000000E+00  0.10291269528E+04  0.10291269528E+04  0.50400001928E-02 0. -1.
        1   -1    0    0  501    0  0.00000000000E+00  0.00000000000E+00 -0.21822697033E+04  0.21822697033E+04  0.50400001928E-02 0.  1.
    10030    2    1    2    0    0  0.00000000000E+00  0.00000000000E+00 -0.11531427506E+04  0.32113966561E+04  0.29972204256E+04 0.  0.
        4    1    3    3  502    0 -0.13518774268E+03 -0.74967348133E+03  0.80620974105E+03  0.11091716792E+04  0.12699999809E+01 0. -1.
       -4    1    3    3    0  502  0.13518774268E+03  0.74967348133E+03 -0.19593524916E+04  0.21022249770E+04  0.12699999809E+01 0.  1.
</event>
<event>
 5   0  0.5059249E-06  0.2816305E+04  0.7818609E-02  0.8298224E-01
       -1   -1    0    0    0  501  0.00000000000E+00  0.00000000000E+00  0.84201322453E+03  0.84201322455E+03  0.50400001928E-02 0.  1.
        1   -1    0    0  501    0  0.00000000000E+00  0.00000000000E+00 -0.23549432540E+04  0.23549432540E+04  0.50400001928E-02 0. -1.
    10030    2    1    2    0    0  0.00000000000E+00  0.00000000000E+00 -0.15129300294E+04  0.31969564785E+04  0.28163049287E+04 0.  0.
        1    1    3    3  502    0  0.97889273688E+03  0.16655456166E+03  0.37694651998E+03  0.10621017330E+04  0.50400001928E-02 0.  1.
       -1    1    3    3    0  502 -0.97889273688E+03 -0.16655456166E+03 -0.18898765494E+04  0.21348547455E+04  0.50400001928E-02 0. -1.
</event>
<event>
 5   0  0.5352212E-06  0.2931423E+04  0.7818609E-02  0.8263589E-01
       -1   -1    0    0    0  501  0.00000000000E+00  0.00000000000E+00  0.86629084355E+03  0.86629084357E+03  0.50400001928E-02 0. -1.
        1   -1    0    0  501    0  0.00000000000E+00  0.00000000000E+00 -0.24798951393E+04  0.24798951393E+04  0.50400001928E-02 0.  1.
    10030    2    1    2    0    0  0.00000000000E+00  0.00000000000E+00 -0.16136042957E+04  0.33461859828E+04  0.29314231712E+04 0.  0.
        2    1    3    3  502    0  0.10868925274E+03 -0.14353873698E+04 -0.11218203067E+04  0.18250016591E+04  0.25500000920E-02 0. -1.
       -2    1    3    3    0  502 -0.10868925274E+03  0.14353873698E+04 -0.49178398900E+03  0.15211843238E+04  0.25500000920E-02 0.  1.
</event>
<event>
 5   0  0.5352212E-06  0.2876045E+04  0.7818609E-02  0.8280041E-01
        1   -1    0    0  501    0  0.00000000000E+00  0.00000000000E+00  0.12373825541E+04  0.12373825541E+04  0.50400001928E-02 0. -1.
       -1   -1    0    0    0  501  0.00000000000E+00  0.00000000000E+00 -0.16711964570E+04  0.16711964570E+04  0.50400001928E-02 0.  1.
    10030    2    1    2    0    0  0.00000000000E+00  0.00000000000E+00 -0.43381390290E+03  0.29085790110E+04  0.28760454379E+04 0.  0.
        2    1    3    3  502    0 -0.75406371119E+03 -0.22866896601E+03  0.99961669035E+03  0.12728452790E+04  0.25500000920E-02 0. -1.
       -2    1    3    3    0  502  0.75406371119E+03  0.22866896601E+03 -0.14334305932E+04  0.16357337321E+04  0.25500000920E-02 0.  1.
</event>
<event>
 5   0  0.1385669E-05  0.3123721E+04  0.7818609E-02  0.8209258E-01
        2   -1    0    0  501    0  0.00000000000E+00  0.00000000000E+00  0.17312101135E+04  0.17312101135E+04  0.25500000920E-02 0.  1.
       -2   -1    0    0    0  501  0.00000000000E+00  0.00000000000E+00 -0.14090770638E+04  0.14090770638E+04  0.25500000920E-02 0. -1.
    10030    2    1    2    0    0  0.00000000000E+00  0.00000000000E+00  0.32213304976E+03  0.31402871773E+04  0.31237211550E+04 0.  0.
        3    1    3    3  502    0 -0.12515326356E+04 -0.52207701347E+03 -0.61796900969E+03  0.14902295303E+04  0.10100000352E+00 0. -1.
       -3    1    3    3    0  502  0.12515326356E+04  0.52207701347E+03  0.94010205945E+03  0.16500576470E+04  0.10100000352E+00 0.  1.
</event>
<event>
 5   0  0.1336899E-05  0.2736379E+04  0.7818609E-02  0.8323297E-01
        2   -1    0    0  501    0  0.00000000000E+00  0.00000000000E+00  0.18527083500E+04  0.18527083500E+04  0.25500000920E-02 0.  1.
       -2   -1    0    0    0  501  0.00000000000E+00  0.00000000000E+00 -0.10103816770E+04  0.10103816770E+04  0.25500000920E-02 0. -1.
    10030    2    1    2    0    0  0.00000000000E+00  0.00000000000E+00  0.84232667298E+03  0.28630900271E+04  0.27363790452E+04 0.  0.
        1    1    3    3  502    0 -0.43291914101E+03 -0.11997896198E+04  0.93908849687E+03  0.15839196064E+04  0.50400001928E-02 0.  1.
       -1    1    3    3    0  502  0.43291914101E+03  0.11997896198E+04 -0.96761823889E+02  0.12791704207E+04  0.50400001928E-02 0. -1.
</event>
<event>
 5   0  0.1385669E-05  0.2881845E+04  0.7818609E-02  0.8278300E-01
        2   -1    0    0  501    0  0.00000000000E+00  0.00000000000E+00  0.13005279657E+04  0.13005279657E+04  0.25500000920E-02 0. -1.
       -2   -1    0    0    0  501  0.00000000000E+00  0.00000000000E+00 -0.15964723480E+04  0.15964723480E+04  0.25500000920E-02 0.  1.
    10030    2    1    2    0    0  0.00000000000E+00  0.00000000000E+00 -0.29594438222E+03  0.28970003137E+04  0.28818445031E+04 0.  0.
        3    1    3    3  502    0  0.43029364880E+03 -0.29731405357E+03  0.12017387560E+04  0.13106198223E+04  0.10100000352E+00 0. -1.
       -3    1    3    3    0  502 -0.43029364880E+03  0.29731405357E+03 -0.14976831383E+04  0.15863804914E+04  0.10100000352E+00 0.  1.
</event>
<event>
 5   0  0.5002240E-06  0.2395458E+04  0.7818609E-02  0.8441206E-01
        1   -1    0    0  501    0  0.00000000000E+00  0.00000000000E+00  0.16599669876E+04  0.16599669876E+04  0.50400001928E-02 0.  1.
       -1   -1    0    0    0  501  0.00000000000E+00  0.00000000000E+00 -0.86420715025E+03  0.86420715027E+03  0.50400001928E-02 0. -1.
    10030    2    1    2    0    0  0.00000000000E+00  0.00000000000E+00  0.79575983735E+03  0.25241741379E+04  0.23954584863E+04 0.  0.
        4    1    3    3  502    0  0.10430669554E+04 -0.55568710463E+03  0.19307339098E+03  0.11975206800E+04  0.12699999809E+01 0.  1.
       -4    1    3    3    0  502 -0.10430669554E+04  0.55568710463E+03  0.60268644637E+03  0.13266534579E+04  0.12699999809E+01 0. -1.
</event>
<event>
 5   0  0.1382803E-05  0.2883952E+04  0.7818609E-02  0.8277668E-01
        2   -1    0    0  501    0  0.00000000000E+00  0.00000000000E+00  0.16923961167E+04  0.16923961167E+04  0.25500000920E-02 0.  1.
       -2   -1    0    0    0  501  0.00000000000E+00  0.00000000000E+00 -0.12286101871E+04  0.12286101871E+04  0.25500000920E-02 0. -1.
    10030    2    1    2    0    0  0.00000000000E+00  0.00000000000E+00  0.46378592956E+03  0.29210063038E+04  0.28839522254E+04 0.  0.
        2    1    3    3  502    0 -0.82206296705E+03  0.36426815415E+03  0.13736818755E+04  0.16417919189E+04  0.25500000920E-02 0.  1.
       -2    1    3    3    0  502  0.82206296705E+03 -0.36426815415E+03 -0.90989594596E+03  0.12792143848E+04  0.25500000920E-02 0. -1.
</event>
<event>
 5   0  0.1382803E-05  0.2870879E+04  0.7818609E-02  0.8281595E-01
       -2   -1    0    0    0  501  0.00000000000E+00  0.00000000000E+00  0.13873112970E+04  0.13873112970E+04  0.25500000920E-02 0.  1.
        2   -1    0    0  501    0  0.00000000000E+00  0.00000000000E+00 -0.14852373362E+04  0.14852373362E+04  0.25500000920E-02 0. -1.
    10030    2    1    2    0    0  0.00000000000E+00  0.00000000000E+00 -0.97926039156E+02  0.28725486332E+04  0.28708789841E+04 0.  0.
        2    1    3    3  502    0 -0.86164901523E+03  0.59662529850E+03  0.93246713606E+03  0.14028170701E+04  0.25500000920E-02 0.  1.
       -2    1    3    3    0  502  0.86164901523E+03 -0.59662529850E+03 -0.10303931752E+04  0.14697315632E+04  0.25500000920E-02 0. -1.
</event>
<event>
 5   0  0.5002240E-06  0.2919263E+04  0.7818609E-02  0.8267169E-01
       -1   -1    0    0    0  501  0.00000000000E+00  0.00000000000E+00  0.93829664533E+03  0.93829664535E+03  0.50400001928E-02 0.  1.
        1   -1    0    0  501    0  0.00000000000E+00  0.00000000000E+00 -0.22706288117E+04  0.22706288117E+04  0.50400001928E-02 0. -1.
    10030    2    1    2    0    0  0.00000000000E+00  0.00000000000E+00 -0.13323321664E+04  0.32089254571E+04  0.29192625075E+04 0.  0.
        4    1    3    3  502    0 -0.58198493767E+03  0.76912242784E+03  0.53810770102E+03  0.11044533886E+04  0.12699999809E+01 0.  1.
       -4    1    3    3    0  502  0.58198493767E+03 -0.76912242784E+03 -0.18704398674E+04  0.21044720685E+04  0.12699999809E+01 0. -1.
</event>
<event>
 5   0  0.5352212E-06  0.2866064E+04  0.7818609E-02  0.8283046E-01
       -1   -1    0    0    0  501  0.00000000000E+00  0.00000000000E+00  0.10872434676E+04  0.10872434676E+04  0.50400001928E-02 0. -1.
        1   -1    0    0  501    0  0.00000000000E+00  0.00000000000E+00 -0.18887962011E+04  0.18887962011E+04  0.50400001928E-02 0.  1.
    10030    2    1    2    0    0  0.00000000000E+00  0.00000000000E+00 -0.80155273351E+03  0.29760396688E+04  0.28660644315E+04 0.  0.
        2    1    3    3  502    0  0.85441438950E+03 -0.23841204627E+03 -0.15694482062E+04  0.18027844920E+04  0.25500000920E-02 0.  1.
       -2    1    3    3    0  502 -0.85441438950E+03  0.23841204627E+03  0.76789547267E+03  0.11732551767E+04  0.25500000920E-02 0. -1.
</event>
<event>
 5   0  0.5261878E-06  0.2861560E+04  0.7818609E-02  0.8284407E-01
       -1   -1    0    0    0  501  0.00000000000E+00  0.00000000000E+00  0.10907653742E+04  0.10907653742E+04  0.50400001928E-02 0. -1.
        1   -1    0    0  501    0  0.00000000000E+00  0.00000000000E+00 -0.18767838856E+04  0.18767838856E+04  0.50400001928E-02 0.  1.
    10030    2    1    2    0    0  0.00000000000E+00  0.00000000000E+00 -0.78601851133E+03  0.29675492598E+04  0.28615596288E+04 0.  0.
        5    1    3    3  502    0 -0.29102546363E+03  0.76947748550E+03 -0.16069730026E+04  0.18053187371E+04  0.46999998093E+01 0.  1.
       -5    1    3    3    0  502  0.29102546363E+03 -0.76947748550E+03  0.82095449131E+03  0.11622305227E+04  0.46999998093E+01 0. -1.
</event>
<event>
 5   0  0.1307832E-05  0.2653909E+04  0.7818609E-02  0.8350117E-01
        2   -1    0    0  501    0  0.00000000000E+00  0.00000000000E+00  0.69223171233E+03  0.69223171234E+03  0.25500000920E-02 0.  1.
       -2   -1    0    0    0  501  0.00000000000E+00  0.00000000000E+00 -0.25436694104E+04  0.25436694104E+04  0.25500000920E-02 0. -1.
    10030    2    1    2    0    0  0.00000000000E+00  0.00000000000E+00 -0.18514376981E+04  0.32359011227E+04  0.26539092913E+04 0.  0.
        4    1    3    3  502    0 -0.93855656615E+03 -0.45156697707E+03 -0.19282188849E+04  0.21915361835E+04  0.12699999809E+01 0. -1.
       -4    1    3    3    0  502  0.93855656615E+03  0.45156697707E+03  0.76781186882E+02  0.10443649392E+04  0.12699999809E+01 0.  1.
</event>
<event>
 5   0  0.5261878E-06  0.2917830E+04  0.7818609E-02  0.8267592E-01
       -1   -1    0    0    0  501  0.00000000000E+00  0.00000000000E+00  0.83336096764E+03  0.83336096765E+03  0.50400001928E-02 0.  1.
        1   -1    0    0  501    0  0.00000000000E+00  0.00000000000E+00 -0.25540342214E+04  0.25540342214E+04  0.50400001928E-02 0. -1.
    10030    2    1    2    0    0  0.00000000000E+00  0.00000000000E+00 -0.17206732538E+04  0.33873951891E+04  0.29178296250E+04 0.  0.
        5    1    3    3  502    0 -0.35144967172E+03  0.61528358950E+03  0.62016497416E+03  0.94165675935E+03  0.46999998093E+01 0.  1.
       -5    1    3    3    0  502  0.35144967172E+03 -0.61528358950E+03 -0.23408382279E+04  0.24457384297E+04  0.46999998093E+01 0. -1.
</event>
<event>
 5   0  0.1336899E-05  0.2776490E+04  0.7818609E-02  0.8310604E-01
       -2   -1    0    0    0  501  0.00000000000E+00  0.00000000000E+00  0.87919975534E+03  0.87919975534E+03  0.25500000920E-02 0.  1.
        2   -1    0    0  501    0  0.00000000000E+00  0.00000000000E+00 -0.21920215803E+04  0.21920215803E+04  0.25500000920E-02 0. -1.
    10030    2    1    2    0    0  0.00000000000E+00  0.00000000000E+00 -0.13128218249E+04  0.30712213356E+04  0.27764904733E+04 0.  0.
        1    1    3    3  502    0 -0.12578550164E+04  0.54124749253E+03 -0.90883852004E+03  0.16435131718E+04  0.50400001928E-02 0. -1.
       -1    1    3    3    0  502  0.12578550164E+04 -0.54124749253E+03 -0.40398330488E+03  0.14277081638E+04  0.50400001928E-02 0.  1.
</event>
<event>
 5   0  0.5261878E-06  0.2967442E+04  0.7818609E-02  0.8253090E-01
       -1   -1    0    0    0  501  0.00000000000E+00  0.00000000000E+00  0.13170984864E+04  0.13170984864E+04  0.50400001928E-02 0.  1.
        1   -1    0    0  501    0  0.00000000000E+00  0.00000000000E+00 -0.16714224813E+04  0.16714224813E+04  0.50400001928E-02 0. -1.
    10030    2    1    2    0    0  0.00000000000E+00  0.00000000000E+00 -0.35432399486E+03  0.29885209677E+04  0.29674420097E+04 0.  0.
        5    1    3    3  502    0  0.32067546738E+03  0.23838538347E+02  0.12815760668E+04  0.13213100833E+04  0.46999998093E+01 0.  1.
       -5    1    3    3    0  502 -0.32067546738E+03 -0.23838538347E+02 -0.16359000617E+04  0.16672108844E+04  0.46999998093E+01 0. -1.
</event>
<event>
 5   0  0.5059249E-06  0.2900645E+04  0.7818609E-02  0.8272685E-01
       -1   -1    0    0    0  501  0.00000000000E+00  0.00000000000E+00  0.26500679561E+04  0.26500679561E+04  0.50400001928E-02 0.  1.
        1   -1    0    0  501    0  0.00000000000E+00  0.00000000000E+00 -0.79372906058E+03  0.79372906059E+03  0.50400001928E-02 0. -1.
    10030    2    1    2    0    0  0.00000000000E+00  0.00000000000E+00  0.18563388956E+04  0.34437970167E+04  0.29006454105E+04 0.  0.
        1    1    3    3  502    0 -0.97935836838E+03  0.88733154490E+03  0.16374825758E+04  0.21042455347E+04  0.50400001928E-02 0.  1.
       -1    1    3    3    0  502  0.97935836838E+03 -0.88733154490E+03  0.21885631978E+03  0.13395514820E+04  0.50400001928E-02 0. -1.
</event>
<event>
 5   0  0.5154476E-06  0.2895403E+04  0.7818609E-02  0.8274247E-01
        1   -1    0    0  501    0  0.00000000000E+00  0.00000000000E+00  0.21441389528E+04  0.21441389528E+04  0.50400001928E-02 0. -1.
       -1   -1    0    0    0  501  0.00000000000E+00  0.00000000000E+00 -0.97747362843E+03  0.97747362844E+03  0.50400001928E-02 0.  1.
    10030    2    1    2    0    0  0.00000000000E+00  0.00000000000E+00  0.11666653244E+04  0.31216125813E+04  0.28954027575E+04 0.  0.
        3    1    3    3  502    0 -0.19040540362E+03 -0.65451143481E+03  0.19602998875E+04  0.20754313035E+04  0.10100000352E+00 0. -1.
       -3    1    3    3    0  502  0.19040540362E+03  0.65451143481E+03 -0.79363456315E+03  0.10461812778E+04  0.10100000352E+00 0.  1.
</event>
<event>
 5   0  0.5261878E-06  0.2883103E+04  0.7818609E-02  0.8277923E-01
        1   -1    0    0  501    0  0.00000000000E+00  0.00000000000E+00  0.21086166091E+04  0.21086166091E+04  0.50400001928E-02 0.  1.
       -1   -1    0    0    0  501  0.00000000000E+00  0.00000000000E+00 -0.98551381368E+03  0.98551381369E+03  0.50400001928E-02 0. -1.
    10030    2    1    2    0    0  0.00000000000E+00  0.00000000000E+00  0.11231027954E+04  0.30941304228E+04  0.28831030478E+04 0.  0.
        5    1    3    3  502    0 -0.85169884980E+03  0.90837014074E+03  0.13410198056E+04  0.18299954788E+04  0.46999998093E+01 0.  1.
       -5    1    3    3    0  502  0.85169884980E+03 -0.90837014074E+03 -0.21791701018E+03  0.12641349440E+04  0.46999998093E+01 0. -1.
</event>
<event>
 5   0  0.1307832E-05  0.2857225E+04  0.7818609E-02  0.8285719E-01
        2   -1    0    0  501    0  0.00000000000E+00  0.00000000000E+00  0.23013635073E+04  0.23013635073E+04  0.25500000920E-02 0. -1.
       -2   -1    0    0    0  501  0.00000000000E+00  0.00000000000E+00 -0.88683701308E+03  0.88683701308E+03  0.25500000920E-02 0.  1.
    10030    2    1    2    0    0  0.00000000000E+00  0.00000000000E+00  0.14145264942E+04  0.31882005204E+04  0.28572254646E+04 0.  0.
        4    1    3    3  502    0  0.49154638258E+03 -0.90144230963E+03  0.18156653546E+04  0.20858711313E+04  0.12699999809E+01 0. -1.
       -4    1    3    3    0  502 -0.49154638258E+03  0.90144230963E+03 -0.40113886034E+03  0.11023293891E+04  0.12699999809E+01 0.  1.
</event>
<event>
 5   0  0.1385669E-05  0.2751126E+04  0.7818609E-02  0.8318604E-01
        2   -1    0    0  501    0  0.00000000000E+00  0.00000000000E+00  0.28755869148E+04  0.28755869148E+04  0.25500000920E-02 0. -1.
       -2   -1    0    0    0  501  0.00000000000E+00  0.00000000000E+00 -0.65801320805E+03  0.65801320806E+03  0.25500000920E-02 0.  1.
    10030    2    1    2    0    0  0.00000000000E+00  0.00000000000E+00  0.22175737068E+04  0.35336001229E+04  0.27511264390E+04 0.  0.
        3    1    3    3  502    0 -0.10244233015E+04  0.54564838328E+03  0.20569971443E+04  0.23618663215E+04  0.10100000352E+00 0. -1.
       -3    1    3    3    0  502  0.10244233015E+04 -0.54564838328E+03  0.16057656251E+03  0.11717338014E+04  0.10100000352E+00 0.  1.
</event>
<event>
 5   0  0.1382803E-05  0.2941538E+04  0.7818609E-02  0.8260625E-01
        2   -1    0    0  501    0  0.00000000000E+00  0.00000000000E+00  0.22413023553E+04  0.22413023553E+04  0.25500000920E-02 0. -1.
       -2   -1    0    0    0  501  0.00000000000E+00  0.00000000000E+00 -0.96513578602E+03  0.96513578602E+03  0.25500000920E-02 0.  1.
    10030    2    1    2    0    0  0.00000000000E+00  0.00000000000E+00  0.12761665692E+04  0.32064381413E+04  0.29415377681E+04 0.  0.
        2    1    3    3  502    0  0.14148616950E+04  0.36136437164E+03  0.44695561042E+03  0.15271500066E+04  0.25500000920E-02 0. -1.
       -2    1    3    3    0  502 -0.14148616950E+04 -0.36136437164E+03  0.82921095882E+03  0.16792881347E+04  0.25500000920E-02 0.  1.
</event>
<event>
 5   0  0.1336899E-05  0.2940040E+04  0.7818609E-02  0.8261063E-01
       -2   -1    0    0    0  501  0.00000000000E+00  0.00000000000E+00  0.13721324654E+04  0.13721324654E+04  0.25500000920E-02 0. -1.
        2   -1    0    0  501    0  0.00000000000E+00  0.00000000000E+00 -0.15748904487E+04  0.15748904487E+04  0.25500000920E-02 0.  1.
    10030    2    1    2    0    0  0.00000000000E+00  0.00000000000E+00 -0.20275798329E+03  0.29470229142E+04  0.29400396693E+04 0.  0.
        1    1    3    3  502    0 -0.12510120360E+04 -0.39734140310E+03 -0.76480223348E+03  0.15191556080E+04  0.50400001928E-02 0.  1.
       -1    1    3    3    0  502  0.12510120360E+04  0.39734140310E+03  0.56204425018E+03  0.14278673062E+04  0.50400001928E-02 0. -1.
</event>
<event>
 5   0  0.1339837E-05  0.2465584E+04  0.7818609E-02  0.8415350E-01
       -2   -1    0    0    0  501  0.00000000000E+00  0.00000000000E+00  0.15523219516E+04  0.15523219516E+04  0.25500000920E-02 0.  1.
        2   -1    0    0  501    0  0.00000000000E+00  0.00000000000E+00 -0.97903395999E+03  0.97903395999E+03  0.25500000920E-02 0. -1.
    10030    2    1    2    0    0  0.00000000000E+00  0.00000000000E+00  0.57328799162E+03  0.25313559116E+04  0.24655838314E+04 0.  0.
        5    1    3    3  502    0  0.66237994979E+03  0.50607928759E+03  0.12191068845E+04  0.14768571797E+04  0.46999998093E+01 0.  1.
       -5    1    3    3    0  502 -0.66237994979E+03 -0.50607928759E+03 -0.64581889291E+03  0.10544987319E+04  0.46999998093E+01 0. -1.
</event>
<event>
 5   0  0.1385669E-05  0.2892009E+04  0.7818609E-02  0.8275259E-01
       -2   -1    0    0    0  501  0.00000000000E+00  0.00000000000E+00  0.12484099209E+04  0.12484099209E+04  0.25500000920E-02 0.  1.
        2   -1    0    0  501    0  0.00000000000E+00  0.00000000000E+00 -0.16748738394E+04  0.16748738394E+04  0.25500000920E-02 0. -1.
    10030    2    1    2    0    0  0.00000000000E+00  0.00000000000E+00 -0.42646391846E+03  0.29232837603E+04  0.28920090715E+04 0.  0.
        3    1    3    3  502    0  0.11452610661E+04 -0.66475018297E+03  0.37392265864E+03  0.13759846947E+04  0.10100000352E+00 0.  1.
       -3    1    3    3    0  502 -0.11452610661E+04  0.66475018297E+03 -0.80038657710E+03  0.15472990656E+04  0.10100000352E+00 0. -1.
</event>
<event>
 5   0  0.5059249E-06  0.2964511E+04  0.7818609E-02  0.8253938E-01
       -1   -1    0    0    0  501  0.00000000000E+00  0.00000000000E+00  0.12065063768E+04  0.12065063768E+04  0.50400001928E-02 0. -1.
        1   -1    0    0  501    0  0.00000000000E+00  0.00000000000E+00 -0.18210270842E+04  0.18210270843E+04  0.50400001928E-02 0.  1.
    10030    2    1    2    0    0  0.00000000000E+00  0.00000000000E+00 -0.61452070750E+03  0.30275334610E+04  0.29645106101E+04 0.  0.
        1    1    3    3  502    0  0.74905363437E+03 -0.87169262414E+03  0.64866840004E+03  0.13197348489E+04  0.50400001928E-02 0. -1.
       -1    1    3    3    0  502 -0.74905363437E+03  0.87169262414E+03 -0.12631891075E+04  0.17077986121E+04  0.50400001928E-02 0.  1.
</event>
<event>
 5   0  0.5154476E-06  0.3055075E+04  0.7818609E-02  0.8228177E-01
        1   -1    0    0  501    0  0.00000000000E+00  0.00000000000E+00  0.18472147089E+04  0.18472147089E+04  0.50400001928E-02 0.  1.
       -1   -1    0    0    0  501  0.00000000000E+00  0.00000000000E+00 -0.12631830382E+04  0.12631830382E+04  0.50400001928E-02 0. -1.
    10030    2    1    2    0    0  0.00000000000E+00  0.00000000000E+00  0.58403167076E+03  0.31103977471E+04  0.30550746558E+04 0.  0.
        3    1    3    3  502    0  0.39190717045E+03  0.14083456909E+04  0.74314417728E+03  0.16399061235E+04  0.10100000352E+00 0.  1.
       -3    1    3    3    0  502 -0.39190717045E+03 -0.14083456909E+04 -0.15911250651E+03  0.14704916237E+04  0.10100000352E+00 0. -1.
</event>
<event>
 5   0  0.5261878E-06  0.2736290E+04  0.7818609E-02  0.8323325E-01
        1   -1    0    0  501    0  0.00000000000E+00  0.00000000000E+00  0.10766133139E+04  0.10766133139E+04  0.50400001928E-02 0.  1.
       -1   -1    0    0    0  501  0.00000000000E+00  0.00000000000E+00 -0.17386198838E+04  0.17386198838E+04  0.50400001928E-02 0. -1.
    10030    2    1    2    0    0  0.00000000000E+00  0.00000000000E+00 -0.66200656990E+03  0.28152331978E+04  0.27362904194E+04 0.  0.
        5    1    3    3  502    0 -0.12741620831E+04 -0.50145597160E+02 -0.84108442251E+03  0.15275629907E+04  0.46999998093E+01 0.  1.
       -5    1    3    3    0  502  0.12741620831E+04  0.50145597160E+02  0.17907785261E+03  0.12876702071E+04  0.46999998093E+01 0. -1.
</event>
<event>
 5   0  0.5154476E-06  0.2758842E+04  0.7818609E-02  0.8316161E-01
        1   -1    0    0  501    0  0.00000000000E+00  0.00000000000E+00  0.17263239554E+04  0.17263239554E+04  0.50400001928E-02 0. -1.
       -1   -1    0    0    0  501  0.00000000000E+00  0.00000000000E+00 -0.11022279649E+04  0.11022279649E+04  0.50400001928E-02 0.  1.
    10030    2    1    2    0    0  0.00000000000E+00  0.00000000000E+00  0.62409599044E+03  0.28285519203E+04  0.27588421775E+04 0.  0.
        3    1    3    3  502    0 -0.23825330934E+03 -0.13512760304E+04  0.45737216873E+03  0.14463405064E+04  0.10100000352E+00 0.  1.
       -3    1    3    3    0  502  0.23825330934E+03  0.13512760304E+04  0.16672382171E+03  0.13822114138E+04  0.10100000352E+00 0. -1.
</event>
<event>
 5   0  0.1382803E-05  0.2999273E+04  0.7818609E-02  0.8243938E-01
        2   -1    0    0  501    0  0.00000000000E+00  0.00000000000E+00  0.13823341057E+04  0.13823341057E+04  0.25500000920E-02 0.  1.
       -2   -1    0    0    0  501  0.00000000000E+00  0.00000000000E+00 -0.16268930644E+04  0.16268930644E+04  0.25500000920E-02 0. -1.
    10030    2    1    2    0    0  0.00000000000E+00  0.00000000000E+00 -0.24455895867E+03  0.30092271702E+04  0.29992730915E+04 0.  0.
        2    1    3    3  502    0  0.13254580894E+04 -0.42889848799E+03  0.43464536074E+03  0.14593524761E+04  0.25500000920E-02 0.  1.
       -2    1    3    3    0  502 -0.13254580894E+04  0.42889848799E+03 -0.67920431940E+03  0.15498746941E+04  0.25500000920E-02 0. -1.
</event>
<event>
 5   0  0.1385669E-05  0.2907159E+04  0.7818609E-02  0.8270751E-01
        2   -1    0    0  501    0  0.00000000000E+00  0.00000000000E+00  0.21265140692E+04  0.21265140692E+04  0.25500000920E-02 0.  1.
       -2   -1    0    0    0  501  0.00000000000E+00  0.00000000000E+00 -0.99359475051E+03  0.99359475051E+03  0.25500000920E-02 0. -1.
    10030    2    1    2    0    0  0.00000000000E+00  0.00000000000E+00  0.11329193186E+04  0.31201088197E+04  0.29071588990E+04 0.  0.
        3    1    3    3  502    0  0.49913958943E+03 -0.26860835832E+03  0.20030131178E+04  0.20816705647E+04  0.10100000352E+00 0.  1.
       -3    1    3    3    0  502 -0.49913958943E+03  0.26860835832E+03 -0.87009379911E+03  0.10384382549E+04  0.10100000352E+00 0. -1.
</event>
<event>
 5   0  0.5154476E-06  0.2891971E+04  0.7818609E-02  0.8275270E-01
        1   -1    0    0  501    0  0.00000000000E+00  0.00000000000E+00  0.10703923895E+04  0.10703923895E+04  0.50400001928E-02 0.  1.
       -1   -1    0    0    0  501  0.00000000000E+00  0.00000000000E+00 -0.19533710583E+04  0.19533710583E+04  0.50400001928E-02 0. -1.
    10030    2    1    2    0    0  0.00000000000E+00  0.00000000000E+00 -0.88297866885E+03  0.30237634478E+04  0.28919706185E+04 0.  0.
        3    1    3    3  502    0 -0.11244514943E+04  0.88598195336E+03 -0.22844312030E+03  0.14496694292E+04  0.10100000352E+00 0.  1.
       -3    1    3    3    0  502  0.11244514943E+04 -0.88598195336E+03 -0.65453554855E+03  0.15740940185E+04  0.10100000352E+00 0. -1.
</event>
<event>
 5   0  0.5352212E-06  0.2908028E+04  0.7818609E-02  0.8270493E-01
       -1   -1    0    0    0  501  0.00000000000E+00  0.00000000000E+00  0.15428220131E+04  0.15428220131E+04  0.50400001928E-02 0. -1.
        1   -1    0    0  501    0  0.00000000000E+00  0.00000000000E+00 -0.13703180967E+04  0.13703180967E+04  0.50400001928E-02 0.  1.
    10030    2    1    2    0    0  0.00000000000E+00  0.00000000000E+00  0.17250391645E+03  0.29131401098E+04  0.29080281461E+04 0.  0.
        2    1    3    3  502    0 -0.61401240978E+03 -0.26070693875E+03 -0.12079857179E+04  0.13799307381E+04  0.25500000920E-02 0.  1.
       -2    1    3    3    0  502  0.61401240978E+03  0.26070693875E+03  0.13804896343E+04  0.15332093718E+04  0.25500000920E-02 0. -1.
</event>
<event>
 5   0  0.1382803E-05  0.2846056E+04  0.7818609E-02  0.8289111E-01
       -2   -1    0    0    0  501  0.00000000000E+00  0.00000000000E+00  0.80516622896E+03  0.80516622896E+03  0.25500000920E-02 0. -1.
        2   -1    0    0  501    0  0.00000000000E+00  0.00000000000E+00 -0.25150201833E+04  0.25150201833E+04  0.25500000920E-02 0.  1.
    10030    2    1    2    0    0  0.00000000000E+00  0.00000000000E+00 -0.17098539544E+04  0.33201864123E+04  0.28460564413E+04 0.  0.
        2    1    3    3  502    0 -0.81253871081E+03 -0.10601167016E+03 -0.22121661365E+04  0.23590541846E+04  0.25500000920E-02 0.  1.
       -2    1    3    3    0  502  0.81253871081E+03  0.10601167016E+03  0.50231218208E+03  0.96113222766E+03  0.25500000920E-02 0. -1.
</event>
<event>
 5   0  0.5002240E-06  0.2854363E+04  0.7818609E-02  0.8286587E-01
       -1   -1    0    0    0  501  0.00000000000E+00  0.00000000000E+00  0.13935227346E+04  0.13935227346E+04  0.50400001928E-02 0. -1.
        1   -1    0    0  501    0  0.00000000000E+00  0.00000000000E+00 -0.14616537432E+04  0.14616537432E+04  0.50400001928E-02 0.  1.
    10030    2    1    2    0    0  0.00000000000E+00  0.00000000000E+00 -0.68131008656E+02  0.28551764778E+04  0.28543634816E+04 0.  0.
        4    1    3    3  502    0  0.37092167426E+02  0.13581614904E+04 -0.47107395836E+03  0.14380162552E+04  0.12699999809E+01 0.  1.
       -4    1    3    3    0  502 -0.37092167426E+02 -0.13581614904E+04  0.40294294970E+03  0.14171602226E+04  0.12699999809E+01 0. -1.
</event>
<event>
 5   0  0.4590125E-06  0.2890730E+04  0.7818609E-02  0.8275641E-01
       -3   -1    0    0    0  501  0.00000000000E+00  0.00000000000E+00  0.16969048792E+04  0.16969048822E+04  0.10100000352E+00 0. -1.
        3   -1    0    0  501    0  0.00000000000E+00  0.00000000000E+00 -0.12311123739E+04  0.12311123780E+04  0.10100000352E+00 0.  1.
    10030    2    1    2    0    0  0.00000000000E+00  0.00000000000E+00  0.46579250533E+03  0.29280172603E+04  0.28907304299E+04 0.  0.
        1    1    3    3  502    0 -0.50092663195E+03 -0.75306962397E+03  0.13748421280E+04  0.16456707526E+04  0.50400001928E-02 0. -1.
       -1    1    3    3    0  502  0.50092663195E+03  0.75306962397E+03 -0.90904962266E+03  0.12823465076E+04  0.50400001928E-02 0.  1.
</event>
<event>
 5   0  0.1336899E-05  0.2909625E+04  0.7818609E-02  0.8270020E-01
       -2   -1    0    0    0  501  0.00000000000E+00  0.00000000000E+00  0.14493640848E+04  0.14493640848E+04  0.25500000920E-02 0. -1.
        2   -1    0    0  501    0  0.00000000000E+00  0.00000000000E+00 -0.14602811112E+04  0.14602811112E+04  0.25500000920E-02 0.  1.
    10030    2    1    2    0    0  0.00000000000E+00  0.00000000000E+00 -0.10917026435E+02  0.29096451960E+04  0.29096247155E+04 0.  0.
        1    1    3    3  502    0  0.11856806644E+03  0.13652948660E+04 -0.49371448578E+03  0.14566545407E+04  0.50400001928E-02 0.  1.
       -1    1    3    3    0  502 -0.11856806644E+03 -0.13652948660E+04  0.48279745935E+03  0.14529906553E+04  0.50400001928E-02 0. -1.
</event>
<event>
 5   0  0.5002240E-06  0.2915892E+04  0.7818609E-02  0.8268165E-01
       -1   -1    0    0    0  501  0.00000000000E+00  0.00000000000E+00  0.13411639288E+04  0.13411639288E+04  0.50400001928E-02 0. -1.
        1   -1    0    0  501    0  0.00000000000E+00  0.00000000000E+00 -0.15848968347E+04  0.15848968347E+04  0.50400001928E-02 0.  1.
    10030    2    1    2    0    0  0.00000000000E+00  0.00000000000E+00 -0.24373290584E+03  0.29260607635E+04  0.29158919497E+04 0.  0.
        4    1    3    3  502    0 -0.66925687811E+03  0.12712516656E+04 -0.37096445606E+03  0.14837795681E+04  0.12699999809E+01 0.  1.
       -4    1    3    3    0  502  0.66925687811E+03 -0.12712516656E+04  0.12723155022E+03  0.14422811954E+04  0.12699999809E+01 0. -1.
</event>
<event>
 5   0  0.5059249E-06  0.2895543E+04  0.7818609E-02  0.8274205E-01
        1   -1    0    0  501    0  0.00000000000E+00  0.00000000000E+00  0.10087480827E+04  0.10087480827E+04  0.50400001928E-02 0. -1.
       -1   -1    0    0    0  501  0.00000000000E+00  0.00000000000E+00 -0.20778645298E+04  0.20778645298E+04  0.50400001928E-02 0.  1.
    10030    2    1    2    0    0  0.00000000000E+00  0.00000000000E+00 -0.10691164471E+04  0.30866126125E+04  0.28955426853E+04 0.  0.
        1    1    3    3  502    0  0.11167425907E+04  0.64930552466E+03  0.16228316740E+03  0.13019399005E+04  0.50400001928E-02 0. -1.
       -1    1    3    3    0  502 -0.11167425907E+04 -0.64930552466E+03 -0.12313996145E+04  0.17846727120E+04  0.50400001928E-02 0.  1.
</event>
<event>
 5   0  0.5352212E-06  0.2858580E+04  0.7818609E-02  0.8285309E-01
       -1   -1    0    0    0  501  0.00000000000E+00  0.00000000000E+00  0.97434417266E+03  0.97434417267E+03  0.50400001928E-02 0. -1.
        1   -1    0    0  501    0  0.00000000000E+00  0.00000000000E+00 -0.20966612021E+04  0.20966612021E+04  0.50400001928E-02 0.  1.
    10030    2    1    2    0    0  0.00000000000E+00  0.00000000000E+00 -0.11223170294E+04  0.30710053747E+04  0.28585798042E+04 0.  0.
        2    1    3    3  502    0 -0.99232194209E+03  0.10262498801E+04 -0.63695628650E+03  0.15632034302E+04  0.25500000920E-02 0.  1.
       -2    1    3    3    0  502  0.99232194209E+03 -0.10262498801E+04 -0.48536074289E+03  0.15078019445E+04  0.25500000920E-02 0. -1.
</event>
<event>
 5   0  0.1336899E-05  0.3009117E+04  0.7818609E-02  0.8241132E-01
        2   -1    0    0  501    0  0.00000000000E+00  0.00000000000E+00  0.26726135434E+04  0.26726135434E+04  0.25500000920E-02 0. -1.
       -2   -1    0    0    0  501  0.00000000000E+00  0.00000000000E+00 -0.84699714295E+03  0.84699714295E+03  0.25500000920E-02 0.  1.
    10030    2    1    2    0    0  0.00000000000E+00  0.00000000000E+00  0.18256164004E+04  0.35196106863E+04  0.30091168375E+04 0.  0.
        1    1    3    3  502    0 -0.12764477762E+04 -0.42658835107E+03  0.12609465141E+03  0.13517382911E+04  0.50400001928E-02 0.  1.
       -1    1    3    3    0  502  0.12764477762E+04  0.42658835107E+03  0.16995217490E+04  0.21678723952E+04  0.50400001928E-02 0. -1.
</event>
<event>
 5   0  0.1339837E-05  0.1953633E+04  0.7818609E-02  0.8628611E-01
       -2   -1    0    0    0  501  0.00000000000E+00  0.00000000000E+00  0.39295257513E+03  0.39295257513E+03  0.25500000920E-02 0.  1.
        2   -1    0    0  501    0  0.00000000000E+00  0.00000000000E+00 -0.24282080385E+04  0.24282080385E+04  0.25500000920E-02 0. -1.
    10030    2    1    2    0    0  0.00000000000E+00  0.00000000000E+00 -0.20352554634E+04  0.28211606137E+04  0.19536331300E+04 0.  0.
        5    1    3    3  502    0  0.90882757060E+02 -0.96697172889E+03 -0.86717850979E+03  0.13020424946E+04  0.46999998093E+01 0. -1.
       -5    1    3    3    0  502 -0.90882757060E+02  0.96697172889E+03 -0.11680769536E+04  0.15191181190E+04  0.46999998093E+01 0.  1.
</event>
<event>
 5   0  0.5154476E-06  0.2815233E+04  0.7818609E-02  0.8298555E-01
       -1   -1    0    0    0  501  0.00000000000E+00  0.00000000000E+00  0.94660703718E+03  0.94660703719E+03  0.50400001928E-02 0.  1.
        1   -1    0    0  501    0  0.00000000000E+00  0.00000000000E+00 -0.20931427666E+04  0.20931427666E+04  0.50400001928E-02 0. -1.
    10030    2    1    2    0    0  0.00000000000E+00  0.00000000000E+00 -0.11465357294E+04  0.30397498038E+04  0.28152326175E+04 0.  0.
        3    1    3    3  502    0  0.73212972279E+03 -0.18901921073E+03  0.70870220930E+03  0.10363402070E+04  0.10100000352E+00 0.  1.
       -3    1    3    3    0  502 -0.73212972279E+03  0.18901921073E+03 -0.18552379387E+04  0.20034095968E+04  0.10100000352E+00 0. -1.
</event>
<event>
 5   0  0.1307832E-05  0.2877032E+04  0.7818609E-02  0.8279744E-01
       -2   -1    0    0    0  501  0.00000000000E+00  0.00000000000E+00  0.14921313007E+04  0.14921313007E+04  0.25500000920E-02 0.  1.
        2   -1    0    0  501    0  0.00000000000E+00  0.00000000000E+00 -0.13868269370E+04  0.13868269370E+04  0.25500000920E-02 0. -1.
    10030    2    1    2    0    0  0.00000000000E+00  0.00000000000E+00  0.10530436367E+03  0.28789582377E+04  0.28770317214E+04 0.  0.
        4    1    3    3  502    0 -0.12245832224E+04 -0.55953848358E+03 -0.45428243062E+03  0.14209368469E+04  0.12699999809E+01 0. -1.
       -4    1    3    3    0  502  0.12245832224E+04  0.55953848358E+03  0.55958679429E+03  0.14580213909E+04  0.12699999809E+01 0.  1.
</event>
<event>
 5   0  0.5002240E-06  0.2762517E+04  0.7818609E-02  0.8315001E-01
       -1   -1    0    0    0  501  0.00000000000E+00  0.00000000000E+00  0.12282466381E+04  0.12282466381E+04  0.50400001928E-02 0.  1.
        1   -1    0    0  501    0  0.00000000000E+00  0.00000000000E+00 -0.15533320250E+04  0.15533320250E+04  0.50400001928E-02 0. -1.
    10030    2    1    2    0    0  0.00000000000E+00  0.00000000000E+00 -0.32508538685E+03  0.27815786631E+04  0.27625168507E+04 0.  0.
        4    1    3    3  502    0  0.81573380403E+03  0.10489327230E+04  0.21714242636E+03  0.13464152192E+04  0.12699999809E+01 0.  1.
       -4    1    3    3    0  502 -0.81573380403E+03 -0.10489327230E+04 -0.54222781321E+03  0.14351634439E+04  0.12699999809E+01 0. -1.
</event>
<event>
 5   0  0.5261878E-06  0.2377978E+04  0.7818609E-02  0.8447795E-01
        1   -1    0    0  501    0  0.00000000000E+00  0.00000000000E+00  0.14497502184E+04  0.14497502184E+04  0.50400001928E-02 0.  1.
       -1   -1    0    0    0  501  0.00000000000E+00  0.00000000000E+00 -0.97513000762E+03  0.97513000763E+03  0.50400001928E-02 0. -1.
    10030    2    1    2    0    0  0.00000000000E+00  0.00000000000E+00  0.47462021075E+03  0.24248802260E+04  0.23779780836E+04 0.  0.
        5    1    3    3  502    0 -0.37995611730E+03  0.40040537803E+03  0.13111626257E+04  0.14226245601E+04  0.46999998093E+01 0.  1.
       -5    1    3    3    0  502  0.37995611730E+03 -0.40040537803E+03 -0.83654241498E+03  0.10022556659E+04  0.46999998093E+01 0. -1.
</event>
<event>
 5   0  0.5352212E-06  0.2975456E+04  0.7818609E-02  0.8250774E-01
        1   -1    0    0  501    0  0.00000000000E+00  0.00000000000E+00  0.29018636756E+04  0.29018636756E+04  0.50400001928E-02 0. -1.
       -1   -1    0    0    0  501  0.00000000000E+00  0.00000000000E+00 -0.76272886677E+03  0.76272886678E+03  0.50400001928E-02 0.  1.
    10030    2    1    2    0    0  0.00000000000E+00  0.00000000000E+00  0.21391348088E+04  0.36645925424E+04  0.29754563972E+04 0.  0.
        2    1    3    3  502    0  0.11516956968E+04  0.65021634893E+02 -0.87556190018E+02  0.11568478195E+04  0.25500000920E-02 0.  1.
       -2    1    3    3    0  502 -0.11516956968E+04 -0.65021634893E+02  0.22266909988E+04  0.25077447229E+04  0.25500000920E-02 0. -1.
</event>
<event>
 5   0  0.5352212E-06  0.2878180E+04  0.7818609E-02  0.8279399E-01
       -1   -1    0    0    0  501  0.00000000000E+00  0.00000000000E+00  0.13573403622E+04  0.13573403622E+04  0.50400001928E-02 0. -1.
        1   -1    0    0  501    0  0.00000000000E+00  0.00000000000E+00 -0.15257634447E+04  0.15257634447E+04  0.50400001928E-02 0.  1.
    10030    2    1    2    0    0  0.00000000000E+00  0.00000000000E+00 -0.16842308243E+03  0.28831038069E+04  0.28781801936E+04 0.  0.
        2    1    3    3  502    0  0.97430929679E+03  0.50338472086E+03  0.84921163782E+03  0.13870238602E+04  0.25500000920E-02 0. -1.
       -2    1    3    3    0  502 -0.97430929679E+03 -0.50338472086E+03 -0.10176347202E+04  0.14960799467E+04  0.25500000920E-02 0.  1.
</event>
<event>
 5   0  0.5261878E-06  0.2825319E+04  0.7818609E-02  0.8295451E-01
        1   -1    0    0  501    0  0.00000000000E+00  0.00000000000E+00  0.11910703753E+04  0.11910703753E+04  0.50400001928E-02 0. -1.
       -1   -1    0    0    0  501  0.00000000000E+00  0.00000000000E+00 -0.16754730705E+04  0.16754730705E+04  0.50400001928E-02 0.  1.
    10030    2    1    2    0    0  0.00000000000E+00  0.00000000000E+00 -0.48440269514E+03  0.28665434458E+04  0.28253186290E+04 0.  0.
        5    1    3    3  502    0 -0.20341634534E+03  0.63617456035E+03  0.10207458672E+04  0.12198526535E+04  0.46999998093E+01 0. -1.
       -5    1    3    3    0  502  0.20341634534E+03 -0.63617456035E+03 -0.15051485623E+04  0.16466907923E+04  0.46999998093E+01 0.  1.
</event>
<event>
 5   0  0.5261878E-06  0.1963723E+04  0.7818609E-02  0.8623772E-01
        1   -1    0    0  501    0  0.00000000000E+00  0.00000000000E+00  0.94303112250E+03  0.94303112251E+03  0.50400001928E-02 0.  1.
       -1   -1    0    0    0  501  0.00000000000E+00  0.00000000000E+00 -0.10222903917E+04  0.10222903917E+04  0.50400001928E-02 0. -1.
    10030    2    1    2    0    0  0.00000000000E+00  0.00000000000E+00 -0.79259269183E+02  0.19653215142E+04  0.19637226440E+04 0.  0.
        5    1    3    3  502    0 -0.89847941242E+03 -0.14176281282E+03 -0.40961646833E+03  0.99758192183E+03  0.46999998093E+01 0. -1.
       -5    1    3    3    0  502  0.89847941242E+03  0.14176281282E+03  0.33035719915E+03  0.96773959238E+03  0.46999998093E+01 0.  1.
</event>
<event>
 5   0  0.5352212E-06  0.2784622E+04  0.7818609E-02  0.8308058E-01
        1   -1    0    0  501    0  0.00000000000E+00  0.00000000000E+00  0.75435311277E+03  0.75435311279E+03  0.50400001928E-02 0.  1.
       -1   -1    0    0    0  501  0.00000000000E+00  0.00000000000E+00 -0.25697917133E+04  0.25697917133E+04  0.50400001928E-02 0. -1.
    10030    2    1    2    0    0  0.00000000000E+00  0.00000000000E+00 -0.18154386005E+04  0.33241448261E+04  0.27846223285E+04 0.  0.
        2    1    3    3  502    0 -0.83437717680E+03  0.20511115362E+03  0.40011863064E+03  0.94781368269E+03  0.25500000920E-02 0.  1.
       -2    1    3    3    0  502  0.83437717680E+03 -0.20511115362E+03 -0.22155572311E+04  0.23763311434E+04  0.25500000920E-02 0. -1.
</event>
<event>
 5   0  0.5352212E-06  0.2898997E+04  0.7818609E-02  0.8273176E-01
       -1   -1    0    0    0  501  0.00000000000E+00  0.00000000000E+00  0.18165976279E+04  0.18165976279E+04  0.50400001928E-02 0.  1.
        1   -1    0    0  501    0  0.00000000000E+00  0.00000000000E+00 -0.11565832264E+04  0.11565832264E+04  0.50400001928E-02 0. -1.
    10030    2    1    2    0    0  0.00000000000E+00  0.00000000000E+00  0.66001440149E+03  0.29731808543E+04  0.28989973063E+04 0.  0.
        2    1    3    3  502    0  0.17585885389E+03  0.48792791990E+03 -0.10581598908E+04  0.11784321559E+04  0.25500000920E-02 0. -1.
       -2    1    3    3    0  502 -0.17585885389E+03 -0.48792791990E+03  0.17181742923E+04  0.17947486984E+04  0.25500000920E-02 0.  1.
</event>
<event>
 5   0  0.1339837E-05  0.2828388E+04  0.7818609E-02  0.8294509E-01
        2   -1    0    0  501    0  0.00000000000E+00  0.00000000000E+00  0.18043408070E+04  0.18043408070E+04  0.25500000920E-02 0. -1.
       -2   -1    0    0    0  501  0.00000000000E+00  0.00000000000E+00 -0.11084074360E+04  0.11084074360E+04  0.25500000920E-02 0.  1.
    10030    2    1    2    0    0  0.00000000000E+00  0.00000000000E+00  0.69593337105E+03  0.29127482430E+04  0.28283880693E+04 0.  0.
        5    1    3    3  502    0 -0.21868148721E+03  0.12336172499E+04  0.10234962485E+04  0.16177761813E+04  0.46999998093E+01 0. -1.
       -5    1    3    3    0  502  0.21868148721E+03 -0.12336172499E+04 -0.32756287747E+03  0.12949720618E+04  0.46999998093E+01 0.  1.
</event>
<event>
 5   0  0.1336899E-05  0.2865907E+04  0.7818609E-02  0.8283094E-01
       -2   -1    0    0    0  501  0.00000000000E+00  0.00000000000E+00  0.81870388550E+03  0.81870388550E+03  0.25500000920E-02 0.  1.
        2   -1    0    0  501    0  0.00000000000E+00  0.00000000000E+00 -0.25080562191E+04  0.25080562191E+04  0.25500000920E-02 0. -1.
    10030    2    1    2    0    0  0.00000000000E+00  0.00000000000E+00 -0.16893523336E+04  0.33267601046E+04  0.28659067477E+04 0.  0.
        1    1    3    3  502    0 -0.66821793319E+03 -0.12245765570E+04 -0.12248331588E+04  0.18564264642E+04  0.50400001928E-02 0. -1.
       -1    1    3    3    0  502  0.66821793319E+03  0.12245765570E+04 -0.46451917482E+03  0.14703336404E+04  0.50400001928E-02 0.  1.
</event>
<event>
 5   0  0.5261878E-06  0.2908582E+04  0.7818609E-02  0.8270329E-01
        1   -1    0    0  501    0  0.00000000000E+00  0.00000000000E+00  0.16249848590E+04  0.16249848590E+04  0.50400001928E-02 0.  1.
       -1   -1    0    0    0  501  0.00000000000E+00  0.00000000000E+00 -0.13015274220E+04  0.13015274221E+04  0.50400001928E-02 0. -1.
    10030    2    1    2    0    0  0.00000000000E+00  0.00000000000E+00  0.32345743698E+03  0.29265122811E+04  0.29085820287E+04 0.  0.
        5    1    3    3  502    0  0.84210714146E+03  0.27503769212E+02 -0.10309220195E+04  0.13314365157E+04  0.46999998093E+01 0.  1.
       -5    1    3    3    0  502 -0.84210714146E+03 -0.27503769212E+02  0.13543794565E+04  0.15950757654E+04  0.46999998093E+01 0. -1.
</event>
<event>
 5   0  0.5352212E-06  0.1823038E+04  0.7818609E-02  0.8694143E-01
       -1   -1    0    0    0  501  0.00000000000E+00  0.00000000000E+00  0.59522989976E+03  0.59522989978E+03  0.50400001928E-02 0.  1.
        1   -1    0    0  501    0  0.00000000000E+00  0.00000000000E+00 -0.13958760783E+04  0.13958760783E+04  0.50400001928E-02 0. -1.
    10030    2    1    2    0    0  0.00000000000E+00  0.00000000000E+00 -0.80064617850E+03  0.19911059780E+04  0.18230383190E+04 0.  0.
        2    1    3    3  502    0 -0.46630907601E+03 -0.66310573208E+03  0.54891061560E+02  0.81250624301E+03  0.25500000920E-02 0.  1.
       -2    1    3    3    0  502  0.46630907601E+03  0.66310573208E+03 -0.85553724006E+03  0.11785997350E+04  0.25500000920E-02 0. -1.
</event>
<event>
 5   0  0.5059249E-06  0.2861057E+04  0.7818609E-02  0.8284559E-01
        1   -1    0    0  501    0  0.00000000000E+00  0.00000000000E+00  0.11832003298E+04  0.11832003298E+04  0.50400001928E-02 0. -1.
       -1   -1    0    0    0  501  0.00000000000E+00  0.00000000000E+00 -0.17295559485E+04  0.17295559485E+04  0.50400001928E-02 0.  1.
    10030    2    1    2    0    0  0.00000000000E+00  0.00000000000E+00 -0.54635561872E+03  0.29127562784E+04  0.28610565662E+04 0.  0.
        1    1    3    3  502    0 -0.38644443894E+02 -0.89892575360E+03  0.85905638280E+03  0.12440011143E+04  0.50400001928E-02 0. -1.
       -1    1    3    3    0  502  0.38644443894E+02  0.89892575360E+03 -0.14054120015E+04  0.16687551641E+04  0.50400001928E-02 0.  1.
</event>
<event>
 5   0  0.1339837E-05  0.2936579E+04  0.7818609E-02  0.8262077E-01
       -2   -1    0    0    0  501  0.00000000000E+00  0.00000000000E+00  0.12293201544E+04  0.12293201544E+04  0.25500000920E-02 0. -1.
        2   -1    0    0  501    0  0.00000000000E+00  0.00000000000E+00 -0.17537123377E+04  0.17537123377E+04  0.25500000920E-02 0.  1.
    10030    2    1    2    0    0  0.00000000000E+00  0.00000000000E+00 -0.52439218333E+03  0.29830324921E+04  0.29365789087E+04 0.  0.
        5    1    3    3  502    0  0.29136017635E+03  0.15257569818E+03 -0.17158048697E+04  0.17470485216E+04  0.46999998093E+01 0.  1.
       -5    1    3    3    0  502 -0.29136017635E+03 -0.15257569818E+03  0.11914126864E+04  0.12359839705E+04  0.46999998093E+01 0. -1.
</event>
<event>
 5   0  0.1339837E-05  0.1948456E+04  0.7818609E-02  0.8631105E-01
        2   -1    0    0  501    0  0.00000000000E+00  0.00000000000E+00  0.86945943446E+03  0.86945943446E+03  0.25500000920E-02 0. -1.
       -2   -1    0    0    0  501  0.00000000000E+00  0.00000000000E+00 -0.10916215258E+04  0.10916215258E+04  0.25500000920E-02 0.  1.
    10030    2    1    2    0    0  0.00000000000E+00  0.00000000000E+00 -0.22216209135E+03  0.19610809603E+04  0.19484564501E+04 0.  0.
        5    1    3    3  502    0 -0.19899845309E+03 -0.37703973967E+03 -0.99273571299E+03  0.10804191943E+04  0.46999998093E+01 0.  1.
       -5    1    3    3    0  502  0.19899845309E+03  0.37703973967E+03  0.77057362164E+03  0.88066176594E+03  0.46999998093E+01 0. -1.
</event>
<event>
 5   0  0.1307832E-05  0.2940590E+04  0.7818609E-02  0.8260902E-01
       -2   -1    0    0    0  501  0.00000000000E+00  0.00000000000E+00  0.10587717152E+04  0.10587717152E+04  0.25500000920E-02 0. -1.
        2   -1    0    0  501    0  0.00000000000E+00  0.00000000000E+00 -0.20417693334E+04  0.20417693334E+04  0.25500000920E-02 0.  1.
    10030    2    1    2    0    0  0.00000000000E+00  0.00000000000E+00 -0.98299761818E+03  0.31005410487E+04  0.29405901580E+04 0.  0.
        4    1    3    3  502    0  0.13783613786E+04 -0.84815293111E+02 -0.10236203975E+04  0.17189747104E+04  0.12699999809E+01 0.  1.
       -4    1    3    3    0  502 -0.13783613786E+04  0.84815293111E+02  0.40622779324E+02  0.13815663383E+04  0.12699999809E+01 0. -1.
</event>
<event>
 5   0  0.5261878E-06  0.2857604E+04  0.7818609E-02  0.8285604E-01
        1   -1    0    0  501    0  0.00000000000E+00  0.00000000000E+00  0.20052500938E+04  0.20052500938E+04  0.50400001928E-02 0.  1.
       -1   -1    0    0    0  501  0.00000000000E+00  0.00000000000E+00 -0.10180652379E+04  0.10180652379E+04  0.50400001928E-02 0. -1.
    10030    2    1    2    0    0  0.00000000000E+00  0.00000000000E+00  0.98718485593E+03  0.30233153317E+04  0.28576041810E+04 0.  0.
        5    1    3    3  502    0 -0.10276852354E+04  0.62902511588E+03 -0.31881939718E+03  0.12463857499E+04  0.46999998093E+01 0. -1.
       -5    1    3    3    0  502  0.10276852354E+04 -0.62902511588E+03  0.13060042531E+04  0.17769295818E+04  0.46999998093E+01 0.  1.
</event>
<event>
 5   0  0.1382803E-05  0.2910257E+04  0.7818609E-02  0.8269832E-01
        2   -1    0    0  501    0  0.00000000000E+00  0.00000000000E+00  0.27760280968E+04  0.27760280968E+04  0.25500000920E-02 0. -1.
       -2   -1    0    0    0  501  0.00000000000E+00  0.00000000000E+00 -0.76274424374E+03  0.76274424374E+03  0.25500000920E-02 0.  1.
    10030    2    1    2    0    0  0.00000000000E+00  0.00000000000E+00  0.20132838530E+04  0.35387723405E+04  0.29102573435E+04 0.  0.
        2    1    3    3  502    0 -0.63936583934E+03 -0.10720350852E+04  0.97223700835E+02  0.12519985417E+04  0.25500000920E-02 0.  1.
       -2    1    3    3    0  502  0.63936583934E+03  0.10720350852E+04  0.19160601522E+04  0.22867737989E+04  0.25500000920E-02 0. -1.
</event>
<event>
 5   0  0.5352212E-06  0.2756510E+04  0.7818609E-02  0.8316899E-01
       -1   -1    0    0    0  501  0.00000000000E+00  0.00000000000E+00  0.96429687500E+03  0.96429687502E+03  0.50400001928E-02 0.  1.
        1   -1    0    0  501    0  0.00000000000E+00  0.00000000000E+00 -0.19699195938E+04  0.19699195938E+04  0.50400001928E-02 0. -1.
    10030    2    1    2    0    0  0.00000000000E+00  0.00000000000E+00 -0.10056227188E+04  0.29342164688E+04  0.27565103361E+04 0.  0.
        2    1    3    3  502    0  0.12203749636E+04  0.21071508570E+03 -0.11466792410E+04  0.16877764014E+04  0.25500000920E-02 0.  1.
       -2    1    3    3    0  502 -0.12203749636E+04 -0.21071508570E+03  0.14105652227E+03  0.12464400674E+04  0.25500000920E-02 0. -1.
</event>
<event>
 5   0  0.1382803E-05  0.1775458E+04  0.7818609E-02  0.8719461E-01
        2   -1    0    0  501    0  0.00000000000E+00  0.00000000000E+00  0.11029300001E+04  0.11029300001E+04  0.25500000920E-02 0. -1.
       -2   -1    0    0    0  501  0.00000000000E+00  0.00000000000E+00 -0.71451757621E+03  0.71451757621E+03  0.25500000920E-02 0.  1.
    10030    2    1    2    0    0  0.00000000000E+00  0.00000000000E+00  0.38841242387E+03  0.18174475763E+04  0.17754581047E+04 0.  0.
        2    1    3    3  502    0  0.50923563640E+03 -0.15883142215E+03 -0.53216305682E+03  0.75348913270E+03  0.25500000920E-02 0.  1.
       -2    1    3    3    0  502 -0.50923563640E+03  0.15883142215E+03  0.92057548069E+03  0.10639584436E+04  0.25500000920E-02 0. -1.
</event>
<event>
 5   0  0.5261878E-06  0.2854144E+04  0.7818609E-02  0.8286653E-01
        1   -1    0    0  501    0  0.00000000000E+00  0.00000000000E+00  0.15381325827E+04  0.15381325827E+04  0.50400001928E-02 0. -1.
       -1   -1    0    0    0  501  0.00000000000E+00  0.00000000000E+00 -0.13240309793E+04  0.13240309793E+04  0.50400001928E-02 0.  1.
    10030    2    1    2    0    0  0.00000000000E+00  0.00000000000E+00  0.21410160337E+03  0.28621635620E+04  0.28541444881E+04 0.  0.
        5    1    3    3  502    0  0.14166523009E+04  0.16365707994E+03  0.53743962796E+02  0.14270942102E+04  0.46999998093E+01 0.  1.
       -5    1    3    3    0  502 -0.14166523009E+04 -0.16365707994E+03  0.16035764057E+03  0.14350693517E+04  0.46999998093E+01 0. -1.
</event>
<event>
 5   0  0.1307832E-05  0.2525628E+04  0.7818609E-02  0.8393912E-01
       -2   -1    0    0    0  501  0.00000000000E+00  0.00000000000E+00  0.88593454617E+03  0.88593454617E+03  0.25500000920E-02 0. -1.
        2   -1    0    0  501    0  0.00000000000E+00  0.00000000000E+00 -0.18000196189E+04  0.18000196189E+04  0.25500000920E-02 0.  1.
    10030    2    1    2    0    0  0.00000000000E+00  0.00000000000E+00 -0.91408507269E+03  0.26859541650E+04  0.25256282895E+04 0.  0.
        4    1    3    3  502    0  0.41946329437E+03 -0.36490840355E+03 -0.16628569372E+04  0.17533403563E+04  0.12699999809E+01 0.  1.
       -4    1    3    3    0  502 -0.41946329437E+03  0.36490840355E+03  0.74877186453E+03  0.93261380878E+03  0.12699999809E+01 0. -1.
</event>
<event>
 5   0  0.5059249E-06  0.2839159E+04  0.7818609E-02  0.8291213E-01
        1   -1    0    0  501    0  0.00000000000E+00  0.00000000000E+00  0.14438444247E+04  0.14438444248E+04  0.50400001928E-02 0. -1.
       -1   -1    0    0    0  501  0.00000000000E+00  0.00000000000E+00 -0.13957220164E+04  0.13957220165E+04  0.50400001928E-02 0.  1.
    10030    2    1    2    0    0  0.00000000000E+00  0.00000000000E+00  0.48122408300E+02  0.28395664412E+04  0.28391586444E+04 0.  0.
        1    1    3    3  502    0 -0.23042828149E+02  0.54620049508E+03 -0.12862183769E+04  0.13975777853E+04  0.50400001928E-02 0.  1.
       -1    1    3    3    0  502  0.23042828149E+02 -0.54620049508E+03  0.13343407852E+04  0.14419886559E+04  0.50400001928E-02 0. -1.
</event>
<event>
 5   0  0.5261878E-06  0.2686583E+04  0.7818609E-02  0.8339371E-01
        1   -1    0    0  501    0  0.00000000000E+00  0.00000000000E+00  0.16154416613E+04  0.16154416613E+04  0.50400001928E-02 0. -1.
       -1   -1    0    0    0  501  0.00000000000E+00  0.00000000000E+00 -0.11169901518E+04  0.11169901518E+04  0.50400001928E-02 0.  1.
    10030    2    1    2    0    0  0.00000000000E+00  0.00000000000E+00  0.49845150956E+03  0.27324318131E+04  0.26865832773E+04 0.  0.
        5    1    3    3  502    0  0.61308540540E+03 -0.68887685649E+03 -0.74416443546E+03  0.11850011961E+04  0.46999998093E+01 0.  1.
       -5    1    3    3    0  502 -0.61308540540E+03  0.68887685649E+03  0.12426159450E+04  0.15474306170E+04  0.46999998093E+01 0. -1.
</event>
<event>
 5   0  0.5002240E-06  0.2855836E+04  0.7818609E-02  0.8286140E-01
       -1   -1    0    0    0  501  0.00000000000E+00  0.00000000000E+00  0.16173067802E+04  0.16173067802E+04  0.50400001928E-02 0.  1.
        1   -1    0    0  501    0  0.00000000000E+00  0.00000000000E+00 -0.12607067727E+04  0.12607067727E+04  0.50400001928E-02 0. -1.
    10030    2    1    2    0    0  0.00000000000E+00  0.00000000000E+00  0.35660000751E+03  0.28780135529E+04  0.28558358575E+04 0.  0.
        4    1    3    3  502    0  0.26103636809E+03 -0.93207387943E+02  0.15899350067E+04  0.16139152831E+04  0.12699999809E+01 0.  1.
       -4    1    3    3    0  502 -0.26103636809E+03  0.93207387943E+02 -0.12333349991E+04  0.12640982698E+04  0.12699999809E+01 0. -1.
</event>
<event>
 5   0  0.1382803E-05  0.2796034E+04  0.7818609E-02  0.8304501E-01
        2   -1    0    0  501    0  0.00000000000E+00  0.00000000000E+00  0.14337974939E+04  0.14337974939E+04  0.25500000920E-02 0. -1.
       -2   -1    0    0    0  501  0.00000000000E+00  0.00000000000E+00 -0.13631296654E+04  0.13631296654E+04  0.25500000920E-02 0.  1.
    10030    2    1    2    0    0  0.00000000000E+00  0.00000000000E+00  0.70667828483E+02  0.27969271593E+04  0.27960342617E+04 0.  0.
        2    1    3    3  502    0  0.11227047193E+04  0.57421568036E+03  0.63906816972E+03  0.14137176733E+04  0.25500000920E-02 0.  1.
       -2    1    3    3    0  502 -0.11227047193E+04 -0.57421568036E+03 -0.56840034123E+03  0.13832094860E+04  0.25500000920E-02 0. -1.
</event>
<event>
 5   0  0.1336899E-05  0.2597985E+04  0.7818609E-02  0.8368886E-01
       -2   -1    0    0    0  501  0.00000000000E+00  0.00000000000E+00  0.10711436612E+04  0.10711436612E+04  0.25500000920E-02 0. -1.
        2   -1    0    0  501    0  0.00000000000E+00  0.00000000000E+00 -0.15753082142E+04  0.15753082142E+04  0.25500000920E-02 0.  1.
    10030    2    1    2    0    0  0.00000000000E+00  0.00000000000E+00 -0.50416455297E+03  0.26464518753E+04  0.25979849176E+04 0.  0.
        1    1    3    3  502    0 -0.43088117512E+03 -0.10513743263E+03  0.99162443189E+03  0.10862925392E+04  0.50400001928E-02 0. -1.
       -1    1    3    3    0  502  0.43088117512E+03  0.10513743263E+03 -0.14957889849E+04  0.15601593361E+04  0.50400001928E-02 0.  1.
</event>
<event>
 5   0  0.5261878E-06  0.2943004E+04  0.7818609E-02  0.8260196E-01
        1   -1    0    0  501    0  0.00000000000E+00  0.00000000000E+00  0.14395075296E+04  0.14395075297E+04  0.50400001928E-02 0. -1.
       -1   -1    0    0    0  501  0.00000000000E+00  0.00000000000E+00 -0.15042074203E+04  0.15042074203E+04  0.50400001928E-02 0.  1.
    10030    2    1    2    0    0  0.00000000000E+00  0.00000000000E+00 -0.64699890661E+02  0.29437149500E+04  0.29430038449E+04 0.  0.
        5    1    3    3  502    0  0.16504302566E+03  0.56722063016E+03 -0.13803837794E+04  0.15014859014E+04  0.46999998093E+01 0.  1.
       -5    1    3    3    0  502 -0.16504302566E+03 -0.56722063016E+03  0.13156838887E+04  0.14422290486E+04  0.46999998093E+01 0. -1.
</event>
<event>
 5   0  0.1339837E-05  0.2865847E+04  0.7818609E-02  0.8283112E-01
        2   -1    0    0  501    0  0.00000000000E+00  0.00000000000E+00  0.87137385110E+03  0.87137385110E+03  0.25500000920E-02 0. -1.
       -2   -1    0    0    0  501  0.00000000000E+00  0.00000000000E+00 -0.23563597765E+04  0.23563597765E+04  0.25500000920E-02 0.  1.
    10030    2    1    2    0    0  0.00000000000E+00  0.00000000000E+00 -0.14849859254E+04  0.32277336276E+04  0.28658473742E+04 0.  0.
        5    1    3    3  502    0 -0.78642528348E+03  0.99165463839E+03  0.14213769463E+02  0.12657281578E+04  0.46999998093E+01 0. -1.
       -5    1    3    3    0  502  0.78642528348E+03 -0.99165463839E+03 -0.14991996949E+04  0.19620054698E+04  0.46999998093E+01 0.  1.
</event>
<event>
 5   0  0.1339837E-05  0.2893767E+04  0.7818609E-02  0.8274734E-01
        2   -1    0    0  501    0  0.00000000000E+00  0.00000000000E+00  0.21248200819E+04  0.21248200819E+04  0.25500000920E-02 0. -1.
       -2   -1    0    0    0  501  0.00000000000E+00  0.00000000000E+00 -0.98524676969E+03  0.98524676969E+03  0.25500000920E-02 0.  1.
    10030    2    1    2    0    0  0.00000000000E+00  0.00000000000E+00  0.11395733122E+04  0.31100668516E+04  0.28937671792E+04 0.  0.
        5    1    3    3  502    0  0.11977527792E+04  0.47034122221E+03  0.12807602182E+04  0.18155443845E+04  0.46999998093E+01 0. -1.
       -5    1    3    3    0  502 -0.11977527792E+04 -0.47034122221E+03 -0.14118690600E+03  0.12945224671E+04  0.46999998093E+01 0.  1.
</event>
<event>
 5   0  0.1339837E-05  0.2911084E+04  0.7818609E-02  0.8269587E-01
       -2   -1    0    0    0  501  0.00000000000E+00  0.00000000000E+00  0.11659424584E+04  0.11659424584E+04  0.25500000920E-02 0. -1.
        2   -1    0    0  501    0  0.00000000000E+00  0.00000000000E+00 -0.18170728068E+04  0.18170728068E+04  0.25500000920E-02 0.  1.
    10030    2    1    2    0    0  0.00000000000E+00  0.00000000000E+00 -0.65113034847E+03  0.29830152652E+04  0.29110838775E+04 0.  0.
        5    1    3    3  502    0  0.39874931513E+03  0.11247241551E+04 -0.11795698910E+04  0.16779191456E+04  0.46999998093E+01 0.  1.
       -5    1    3    3    0  502 -0.39874931513E+03 -0.11247241551E+04  0.52843954254E+03  0.13050961196E+04  0.46999998093E+01 0. -1.
</event>
<event>
 5   0  0.5002240E-06  0.2880308E+04  0.7818609E-02  0.8278761E-01
        1   -1    0    0  501    0  0.00000000000E+00  0.00000000000E+00  0.13771836788E+04  0.13771836788E+04  0.50400001928E-02 0.  1.
       -1   -1    0    0    0  501  0.00000000000E+00  0.00000000000E+00 -0.15060034637E+04  0.15060034637E+04  0.50400001928E-02 0. -1.
    10030    2    1    2    0    0  0.00000000000E+00  0.00000000000E+00 -0.12881978492E+03  0.28831871425E+04  0.28803078935E+04 0.  0.
        4    1    3    3  502    0 -0.74171880532E+03 -0.24759683315E+03  0.11461752418E+04  0.13875050543E+04  0.12699999809E+01 0.  1.
       -4    1    3    3    0  502  0.74171880532E+03  0.24759683315E+03 -0.12749950267E+04  0.14956820882E+04  0.12699999809E+01 0. -1.
</event>
<event>
 5   0  0.1307832E-05  0.2803700E+04  0.7818609E-02  0.8302120E-01
        2   -1    0    0  501    0  0.00000000000E+00  0.00000000000E+00  0.17232645737E+04  0.17232645737E+04  0.25500000920E-02 0. -1.
       -2   -1    0    0    0  501  0.00000000000E+00  0.00000000000E+00 -0.11403843665E+04  0.11403843666E+04  0.25500000920E-02 0.  1.
    10030    2    1    2    0    0  0.00000000000E+00  0.00000000000E+00  0.58288020711E+03  0.28636489402E+04  0.28037003971E+04 0.  0.
        4    1    3    3  502    0  0.13116731093E+03  0.13930639716E+04  0.20387321100E+03  0.14140007042E+04  0.12699999809E+01 0. -1.
       -4    1    3    3    0  502 -0.13116731093E+03 -0.13930639716E+04  0.37900699611E+03  0.14496482361E+04  0.12699999809E+01 0.  1.
</event>
<event>
 5   0  0.5059249E-06  0.2706966E+04  0.7818609E-02  0.8332748E-01
       -1   -1    0    0    0  501  0.00000000000E+00  0.00000000000E+00  0.10589299362E+04  0.10589299362E+04  0.50400001928E-02 0. -1.
        1   -1    0    0  501    0  0.00000000000E+00  0.00000000000E+00 -0.17299688431E+04  0.17299688431E+04  0.50400001928E-02 0.  1.
    10030    2    1    2    0    0  0.00000000000E+00  0.00000000000E+00 -0.67103890688E+03  0.27888987793E+04  0.27069656788E+04 0.  0.
        1    1    3    3  502    0 -0.10162128618E+04  0.69984721555E+03  0.23759187688E+03  0.12565526673E+04  0.50400001928E-02 0. -1.
       -1    1    3    3    0  502  0.10162128618E+04 -0.69984721555E+03 -0.90863078376E+03  0.15323461120E+04  0.50400001928E-02 0.  1.
</event>
<event>
 5   0  0.5059249E-06  0.3097010E+04  0.7818609E-02  0.8216559E-01
       -1   -1    0    0    0  501  0.00000000000E+00  0.00000000000E+00  0.10160954805E+04  0.10160954806E+04  0.50400001928E-02 0. -1.
        1   -1    0    0  501    0  0.00000000000E+00  0.00000000000E+00 -0.23598839008E+04  0.23598839008E+04  0.50400001928E-02 0.  1.
    10030    2    1    2    0    0  0.00000000000E+00  0.00000000000E+00 -0.13437884203E+04  0.33759793814E+04  0.30970097619E+04 0.  0.
        1    1    3    3  502    0 -0.10235883644E+04 -0.10516124357E+04 -0.12106233996E+04  0.19024276255E+04  0.50400001928E-02 0. -1.
       -1    1    3    3    0  502  0.10235883644E+04  0.10516124357E+04 -0.13316502066E+03  0.14735517559E+04  0.50400001928E-02 0.  1.
</event>
<event>
 5   0  0.5352212E-06  0.2805207E+04  0.7818609E-02  0.8301654E-01
       -1   -1    0    0    0  501  0.00000000000E+00  0.00000000000E+00  0.85797464745E+03  0.85797464746E+03  0.50400001928E-02 0.  1.
        1   -1    0    0  501    0  0.00000000000E+00  0.00000000000E+00 -0.22929547042E+04  0.22929547042E+04  0.50400001928E-02 0. -1.
    10030    2    1    2    0    0  0.00000000000E+00  0.00000000000E+00 -0.14349800567E+04  0.31509293516E+04  0.28052073035E+04 0.  0.
        2    1    3    3  502    0  0.20880603751E+03  0.63392174154E+02  0.83879074620E+03  0.86671128120E+03  0.25500000920E-02 0.  1.
       -2    1    3    3    0  502 -0.20880603751E+03 -0.63392174154E+02 -0.22737708029E+04  0.22842180704E+04  0.25500000920E-02 0. -1.
</event>
<event>
 5   0  0.1307832E-05  0.2903685E+04  0.7818609E-02  0.8271782E-01
       -2   -1    0    0    0  501  0.00000000000E+00  0.00000000000E+00  0.10239760715E+04  0.10239760715E+04  0.25500000920E-02 0. -1.
        2   -1    0    0  501    0  0.00000000000E+00  0.00000000000E+00 -0.20584919908E+04  0.20584919908E+04  0.25500000920E-02 0.  1.
    10030    2    1    2    0    0  0.00000000000E+00  0.00000000000E+00 -0.10345159193E+04  0.30824680623E+04  0.29036849291E+04 0.  0.
        4    1    3    3  502    0 -0.47926703466E+03 -0.70222230155E+03  0.73207724970E+03  0.11219410696E+04  0.12699999809E+01 0. -1.
       -4    1    3    3    0  502  0.47926703466E+03  0.70222230155E+03 -0.17665931690E+04  0.19605269926E+04  0.12699999809E+01 0.  1.
</event>
<event>
 5   0  0.5002240E-06  0.2442572E+04  0.7818609E-02  0.8423735E-01
       -1   -1    0    0    0  501  0.00000000000E+00  0.00000000000E+00  0.14073028185E+04  0.14073028185E+04  0.50400001928E-02 0. -1.
        1   -1    0    0  501    0  0.00000000000E+00  0.00000000000E+00 -0.10598566400E+04  0.10598566400E+04  0.50400001928E-02 0.  1.
    10030    2    1    2    0    0  0.00000000000E+00  0.00000000000E+00  0.34744617852E+03  0.24671594586E+04  0.24425717895E+04 0.  0.
        4    1    3    3  502    0 -0.10340560387E+04  0.44986649192E+03  0.64736327875E+03  0.13002817308E+04  0.12699999809E+01 0. -1.
       -4    1    3    3    0  502  0.10340560387E+04 -0.44986649192E+03 -0.29991710022E+03  0.11668777278E+04  0.12699999809E+01 0.  1.
</event>
<event>
 5   0  0.5059249E-06  0.2907225E+04  0.7818609E-02  0.8270731E-01
        1   -1    0    0  501    0  0.00000000000E+00  0.00000000000E+00  0.93118786728E+03  0.93118786730E+03  0.50400001928E-02 0. -1.
       -1   -1    0    0    0  501  0.00000000000E+00  0.00000000000E+00 -0.22691336118E+04  0.22691336118E+04  0.50400001928E-02 0.  1.
    10030    2    1    2    0    0  0.00000000000E+00  0.00000000000E+00 -0.13379457445E+04  0.32003214791E+04  0.29072252672E+04 0.  0.
        1    1    3    3  502    0 -0.11815036354E+04 -0.83990818488E+03 -0.55044663207E+03  0.15506089431E+04  0.50400001928E-02 0. -1.
       -1    1    3    3    0  502  0.11815036354E+04  0.83990818488E+03 -0.78749911247E+03  0.16497125361E+04  0.50400001928E-02 0.  1.
</event>
<event>
 5   0  0.1336899E-05  0.2999985E+04  0.7818609E-02  0.8243735E-01
        2   -1    0    0  501    0  0.00000000000E+00  0.00000000000E+00  0.20664219271E+04  0.20664219271E+04  0.25500000920E-02 0.  1.
       -2   -1    0    0    0  501  0.00000000000E+00  0.00000000000E+00 -0.10888278455E+04  0.10888278455E+04  0.25500000920E-02 0. -1.
    10030    2    1    2    0    0  0.00000000000E+00  0.00000000000E+00  0.97759408163E+03  0.31552497727E+04  0.29999851565E+04 0.  0.
        1    1    3    3  502    0  0.68644058280E+02  0.13349947705E+04 -0.22690257202E+03  0.13558789847E+04  0.50400001928E-02 0. -1.
       -1    1    3    3    0  502 -0.68644058280E+02 -0.13349947705E+04  0.12044966536E+04  0.17993707880E+04  0.50400001928E-02 0.  1.
</event>
<event>
 5   0  0.1339837E-05  0.1999403E+04  0.7818609E-02  0.8606900E-01
        2   -1    0    0  501    0  0.00000000000E+00  0.00000000000E+00  0.10385252321E+04  0.10385252321E+04  0.25500000920E-02 0. -1.
       -2   -1    0    0    0  501  0.00000000000E+00  0.00000000000E+00 -0.96232924938E+03  0.96232924939E+03  0.25500000920E-02 0.  1.
    10030    2    1    2    0    0  0.00000000000E+00  0.00000000000E+00  0.76195982724E+02  0.20008544815E+04  0.19994031180E+04 0.  0.
        5    1    3    3  502    0 -0.27656114550E+03  0.80695619896E+03  0.55974093774E+03  0.10202923020E+04  0.46999998093E+01 0. -1.
       -5    1    3    3    0  502  0.27656114550E+03 -0.80695619896E+03 -0.48354495502E+03  0.98056217945E+03  0.46999998093E+01 0.  1.
</event>
<event>
 5   0  0.5002240E-06  0.2879643E+04  0.7818609E-02  0.8278960E-01
       -1   -1    0    0    0  501  0.00000000000E+00  0.00000000000E+00  0.17909987122E+04  0.17909987122E+04  0.50400001928E-02 0.  1.
        1   -1    0    0  501    0  0.00000000000E+00  0.00000000000E+00 -0.11575023690E+04  0.11575023690E+04  0.50400001928E-02 0. -1.
    10030    2    1    2    0    0  0.00000000000E+00  0.00000000000E+00  0.63349634319E+03  0.29485010813E+04  0.28796425142E+04 0.  0.
        4    1    3    3  502    0 -0.79245859750E+03  0.12018902646E+04  0.29267419932E+03  0.14690781588E+04  0.12699999809E+01 0.  1.
       -4    1    3    3    0  502  0.79245859750E+03 -0.12018902646E+04  0.34082214387E+03  0.14794229225E+04  0.12699999809E+01 0. -1.
</event>
<event>
 5   0  0.1307832E-05  0.2821863E+04  0.7818609E-02  0.8296513E-01
        2   -1    0    0  501    0  0.00000000000E+00  0.00000000000E+00  0.19024472074E+04  0.19024472074E+04  0.25500000920E-02 0. -1.
       -2   -1    0    0    0  501  0.00000000000E+00  0.00000000000E+00 -0.10464033333E+04  0.10464033333E+04  0.25500000920E-02 0.  1.
    10030    2    1    2    0    0  0.00000000000E+00  0.00000000000E+00  0.85604387403E+03  0.29488505407E+04  0.28218625759E+04 0.  0.
        4    1    3    3  502    0  0.58955827705E+03  0.21733762632E+03 -0.89212179885E+03  0.10911908736E+04  0.12699999809E+01 0.  1.
       -4    1    3    3    0  502 -0.58955827705E+03 -0.21733762632E+03  0.17481656729E+04  0.18576596670E+04  0.12699999809E+01 0. -1.
</event>
<event>
 5   0  0.1382803E-05  0.2919489E+04  0.7818609E-02  0.8267102E-01
        2   -1    0    0  501    0  0.00000000000E+00  0.00000000000E+00  0.21897211859E+04  0.21897211859E+04  0.25500000920E-02 0.  1.
       -2   -1    0    0    0  501  0.00000000000E+00  0.00000000000E+00 -0.97311669009E+03  0.97311669010E+03  0.25500000920E-02 0. -1.
    10030    2    1    2    0    0  0.00000000000E+00  0.00000000000E+00  0.12166044958E+04  0.31628378760E+04  0.29194891558E+04 0.  0.
        2    1    3    3  502    0  0.76934478678E+03  0.79445101799E+03 -0.42390675873E+03  0.11843735733E+04  0.25500000920E-02 0. -1.
       -2    1    3    3    0  502 -0.76934478678E+03 -0.79445101799E+03  0.16405112545E+04  0.19784643027E+04  0.25500000920E-02 0.  1.
</event>
<event>
 5   0  0.5059249E-06  0.2141771E+04  0.7818609E-02  0.8543063E-01
       -1   -1    0    0    0  501  0.00000000000E+00  0.00000000000E+00  0.86585582756E+03  0.86585582757E+03  0.50400001928E-02 0.  1.
        1   -1    0    0  501    0  0.00000000000E+00  0.00000000000E+00 -0.13244646668E+04  0.13244646668E+04  0.50400001928E-02 0. -1.
    10030    2    1    2    0    0  0.00000000000E+00  0.00000000000E+00 -0.45860883919E+03  0.21903204943E+04  0.21417707161E+04 0.  0.
        1    1    3    3  502    0  0.51749722382E+02 -0.93812805682E+03 -0.75479378525E+03  0.12051870988E+04  0.50400001928E-02 0. -1.
       -1    1    3    3    0  502 -0.51749722382E+02  0.93812805682E+03  0.29618494606E+03  0.98513339557E+03  0.50400001928E-02 0.  1.
</event>
<event>
 5   0  0.1382803E-05  0.2910937E+04  0.7818609E-02  0.8269631E-01
       -2   -1    0    0    0  501  0.00000000000E+00  0.00000000000E+00  0.13682217553E+04  0.13682217553E+04  0.25500000920E-02 0. -1.
        2   -1    0    0  501    0  0.00000000000E+00  0.00000000000E+00 -0.15482789857E+04  0.15482789857E+04  0.25500000920E-02 0.  1.
    10030    2    1    2    0    0  0.00000000000E+00  0.00000000000E+00 -0.18005723035E+03  0.29165007410E+04  0.29109373002E+04 0.  0.
        2    1    3    3  502    0  0.10698918705E+04  0.98499821373E+03 -0.30764097791E+02  0.14545915321E+04  0.25500000920E-02 0.  1.
       -2    1    3    3    0  502 -0.10698918705E+04 -0.98499821373E+03 -0.14929313256E+03  0.14619092089E+04  0.25500000920E-02 0. -1.
</event>
<event>
 5   0  0.5352212E-06  0.1787503E+04  0.7818609E-02  0.8712973E-01
       -1   -1    0    0    0  501  0.00000000000E+00  0.00000000000E+00  0.92115315314E+03  0.92115315315E+03  0.50400001928E-02 0. -1.
        1   -1    0    0  501    0  0.00000000000E+00  0.00000000000E+00 -0.86716527546E+03  0.86716527548E+03  0.50400001928E-02 0.  1.
    10030    2    1    2    0    0  0.00000000000E+00  0.00000000000E+00  0.53987877677E+02  0.17883184286E+04  0.17875033178E+04 0.  0.
        2    1    3    3  502    0  0.26772750800E+03  0.45455075550E+03  0.74877813610E+03  0.91594929170E+03  0.25500000920E-02 0. -1.
       -2    1    3    3    0  502 -0.26772750800E+03 -0.45455075550E+03 -0.69479025842E+03  0.87236913693E+03  0.25500000920E-02 0.  1.
</event>
<event>
 5   0  0.5002240E-06  0.2651319E+04  0.7818609E-02  0.8350975E-01
        1   -1    0    0  501    0  0.00000000000E+00  0.00000000000E+00  0.15412449514E+04  0.15412449514E+04  0.50400001928E-02 0.  1.
       -1   -1    0    0    0  501  0.00000000000E+00  0.00000000000E+00 -0.11402299811E+04  0.11402299811E+04  0.50400001928E-02 0. -1.
    10030    2    1    2    0    0  0.00000000000E+00  0.00000000000E+00  0.40101497035E+03  0.26814749325E+04  0.26513194465E+04 0.  0.
        4    1    3    3  502    0  0.22887803300E+03  0.41717164531E+03 -0.10508830385E+04  0.11535918295E+04  0.12699999809E+01 0. -1.
       -4    1    3    3    0  502 -0.22887803300E+03 -0.41717164531E+03  0.14518980088E+04  0.15278831030E+04  0.12699999809E+01 0.  1.
</event>
<event>
 5   0  0.1336899E-05  0.2826070E+04  0.7818609E-02  0.8295220E-01
        2   -1    0    0  501    0  0.00000000000E+00  0.00000000000E+00  0.17683145711E+04  0.17683145711E+04  0.25500000920E-02 0.  1.
       -2   -1    0    0    0  501  0.00000000000E+00  0.00000000000E+00 -0.11291361118E+04  0.11291361118E+04  0.25500000920E-02 0. -1.
    10030    2    1    2    0    0  0.00000000000E+00  0.00000000000E+00  0.63917845932E+03  0.28974506829E+04  0.28260699491E+04 0.  0.
        1    1    3    3  502    0 -0.48832099770E+02  0.10016807180E+04  0.13401813816E+04  0.16738682656E+04  0.50400001928E-02 0.  1.
       -1    1    3    3    0  502  0.48832099770E+02 -0.10016807180E+04 -0.70100292230E+03  0.12235824173E+04  0.50400001928E-02 0. -1.
</event>
<event>
 5   0  0.1382803E-05  0.2920752E+04  0.7818609E-02  0.8266730E-01
       -2   -1    0    0    0  501  0.00000000000E+00  0.00000000000E+00  0.20589432707E+04  0.20589432707E+04  0.25500000920E-02 0. -1.
        2   -1    0    0  501    0  0.00000000000E+00  0.00000000000E+00 -0.10358217113E+04  0.10358217113E+04  0.25500000920E-02 0.  1.
    10030    2    1    2    0    0  0.00000000000E+00  0.00000000000E+00  0.10231215594E+04  0.30947649820E+04  0.29207520552E+04 0.  0.
        2    1    3    3  502    0 -0.37164764375E+03 -0.11044254199E+04 -0.42112118745E+03  0.12390401664E+04  0.25500000920E-02 0. -1.
       -2    1    3    3    0  502  0.37164764375E+03  0.11044254199E+04  0.14442427469E+04  0.18557248156E+04  0.25500000920E-02 0.  1.
</event>
<event>
 5   0  0.5059249E-06  0.2865669E+04  0.7818609E-02  0.8283166E-01
       -1   -1    0    0    0  501  0.00000000000E+00  0.00000000000E+00  0.11691574871E+04  0.11691574871E+04  0.50400001928E-02 0. -1.
        1   -1    0    0  501    0  0.00000000000E+00  0.00000000000E+00 -0.17559782277E+04  0.17559782277E+04  0.50400001928E-02 0.  1.
    10030    2    1    2    0    0  0.00000000000E+00  0.00000000000E+00 -0.58682074058E+03  0.29251357148E+04  0.28656692706E+04 0.  0.
        1    1    3    3  502    0 -0.40119086042E+03 -0.13659790333E+04 -0.45851438531E+03  0.14956898968E+04  0.50400001928E-02 0. -1.
       -1    1    3    3    0  502  0.40119086042E+03  0.13659790333E+04 -0.12830635527E+03  0.14294458180E+04  0.50400001928E-02 0.  1.
</event>
<event>
 5   0  0.5352212E-06  0.2888972E+04  0.7818609E-02  0.8276166E-01
       -1   -1    0    0    0  501  0.00000000000E+00  0.00000000000E+00  0.16419102859E+04  0.16419102859E+04  0.50400001928E-02 0. -1.
        1   -1    0    0  501    0  0.00000000000E+00  0.00000000000E+00 -0.12708002992E+04  0.12708002992E+04  0.50400001928E-02 0.  1.
    10030    2    1    2    0    0  0.00000000000E+00  0.00000000000E+00  0.37110998662E+03  0.29127105851E+04  0.28889721927E+04 0.  0.
        2    1    3    3  502    0 -0.25880625209E+02  0.12359968361E+04  0.93880982118E+03  0.15523278861E+04  0.25500000920E-02 0. -1.
       -2    1    3    3    0  502  0.25880625209E+02 -0.12359968361E+04 -0.56769983457E+03  0.13603826990E+04  0.25500000920E-02 0.  1.
</event>
<event>
 5   0  0.1336899E-05  0.2133566E+04  0.7818609E-02  0.8546600E-01
       -2   -1    0    0    0  501  0.00000000000E+00  0.00000000000E+00  0.10935200017E+04  0.10935200017E+04  0.25500000920E-02 0.  1.
        2   -1    0    0  501    0  0.00000000000E+00  0.00000000000E+00 -0.10406999176E+04  0.10406999176E+04  0.25500000920E-02 0. -1.
    10030    2    1    2    0    0  0.00000000000E+00  0.00000000000E+00  0.52820084057E+02  0.21342199194E+04  0.21335661937E+04 0.  0.
        1    1    3    3  502    0 -0.10241326177E+04  0.29806512294E+03  0.44738853119E+02  0.10675635818E+04  0.50400001928E-02 0.  1.
       -1    1    3    3    0  502  0.10241326177E+04 -0.29806512294E+03  0.80812309377E+01  0.10666563376E+04  0.50400001928E-02 0. -1.
</event>
<event>
 5   0  0.5352212E-06  0.2879552E+04  0.7818609E-02  0.8278988E-01
       -1   -1    0    0    0  501  0.00000000000E+00  0.00000000000E+00  0.97643624820E+03  0.97643624821E+03  0.50400001928E-02 0.  1.
        1   -1    0    0  501    0  0.00000000000E+00  0.00000000000E+00 -0.21229798126E+04  0.21229798126E+04  0.50400001928E-02 0. -1.
    10030    2    1    2    0    0  0.00000000000E+00  0.00000000000E+00 -0.11465435644E+04  0.30994160608E+04  0.28795516618E+04 0.  0.
        2    1    3    3  502    0  0.40763639491E+02  0.66088885837E+03 -0.19493716384E+04  0.20587582525E+04  0.25500000920E-02 0. -1.
       -2    1    3    3    0  502 -0.40763639491E+02 -0.66088885837E+03  0.80282807408E+03  0.10406578083E+04  0.25500000920E-02 0.  1.
</event>
<event>
 5   0  0.5154476E-06  0.2015600E+04  0.7818609E-02  0.8599362E-01
       -1   -1    0    0    0  501  0.00000000000E+00  0.00000000000E+00  0.13908856339E+04  0.13908856339E+04  0.50400001928E-02 0. -1.
        1   -1    0    0  501    0  0.00000000000E+00  0.00000000000E+00 -0.73022580584E+03  0.73022580586E+03  0.50400001928E-02 0.  1.
    10030    2    1    2    0    0  0.00000000000E+00  0.00000000000E+00  0.66065982804E+03  0.21211114397E+04  0.20155997448E+04 0.  0.
        3    1    3    3  502    0  0.70911765721E+03  0.52476895236E+03  0.84310537351E+03  0.12202692269E+04  0.10100000352E+00 0.  1.
       -3    1    3    3    0  502 -0.70911765721E+03 -0.52476895236E+03 -0.18244554548E+03  0.90084221282E+03  0.10100000352E+00 0. -1.
</event>
<event>
 5   0  0.1307832E-05  0.2875667E+04  0.7818609E-02  0.8280154E-01
        2   -1    0    0  501    0  0.00000000000E+00  0.00000000000E+00  0.13435291236E+04  0.13435291236E+04  0.25500000920E-02 0. -1.
       -2   -1    0    0    0  501  0.00000000000E+00  0.00000000000E+00 -0.15387573813E+04  0.15387573813E+04  0.25500000920E-02 0.  1.
    10030    2    1    2    0    0  0.00000000000E+00  0.00000000000E+00 -0.19522825773E+03  0.28822865049E+04  0.28756671267E+04 0.  0.
        4    1    3    3  502    0  0.13276129670E+02 -0.72670563848E+03 -0.13410690234E+04  0.15253671949E+04  0.12699999809E+01 0.  1.
       -4    1    3    3    0  502 -0.13276129670E+02  0.72670563848E+03  0.11458407657E+04  0.13569193100E+04  0.12699999809E+01 0. -1.
</event>
<event>
 5   0  0.1307832E-05  0.2921504E+04  0.7818609E-02  0.8266508E-01
       -2   -1    0    0    0  501  0.00000000000E+00  0.00000000000E+00  0.10479711247E+04  0.10479711247E+04  0.25500000920E-02 0.  1.
        2   -1    0    0  501    0  0.00000000000E+00  0.00000000000E+00 -0.20361213973E+04  0.20361213973E+04  0.25500000920E-02 0. -1.
    10030    2    1    2    0    0  0.00000000000E+00  0.00000000000E+00 -0.98815027253E+03  0.30840925220E+04  0.29215040173E+04 0.  0.
        4    1    3    3  502    0 -0.67627822803E+02  0.91892583574E+03  0.70249483697E+03  0.11586625147E+04  0.12699999809E+01 0.  1.
       -4    1    3    3    0  502  0.67627822803E+02 -0.91892583574E+03 -0.16906451095E+04  0.19254300073E+04  0.12699999809E+01 0. -1.
</event>
<event>
 5   0  0.1307832E-05  0.2921413E+04  0.7818609E-02  0.8266535E-01
        2   -1    0    0  501    0  0.00000000000E+00  0.00000000000E+00  0.17013003707E+04  0.17013003707E+04  0.25500000920E-02 0.  1.
       -2   -1    0    0    0  501  0.00000000000E+00  0.00000000000E+00 -0.12541366076E+04  0.12541366076E+04  0.25500000920E-02 0. -1.
    10030    2    1    2    0    0  0.00000000000E+00  0.00000000000E+00  0.44716376314E+03  0.29554369783E+04  0.29214127236E+04 0.  0.
        4    1    3    3  502    0 -0.27923366550E+03  0.98552626056E+02  0.16706174384E+04  0.16966579793E+04  0.12699999809E+01 0.  1.
       -4    1    3    3    0  502  0.27923366550E+03 -0.98552626056E+02 -0.12234536753E+04  0.12587789991E+04  0.12699999809E+01 0. -1.
</event>
<event>
 5   0  0.1385669E-05  0.2879314E+04  0.7818609E-02  0.8279059E-01
       -2   -1    0    0    0  501  0.00000000000E+00  0.00000000000E+00  0.99169102988E+03  0.99169102988E+03  0.25500000920E-02 0. -1.
        2   -1    0    0  501    0  0.00000000000E+00  0.00000000000E+00 -0.20899783707E+04  0.20899783707E+04  0.25500000920E-02 0.  1.
    10030    2    1    2    0    0  0.00000000000E+00  0.00000000000E+00 -0.10982873408E+04  0.30816694006E+04  0.28793143648E+04 0.  0.
        3    1    3    3  502    0  0.32797665129E+03  0.13014315725E+04  0.83473071019E+01  0.13421484677E+04  0.10100000352E+00 0. -1.
       -3    1    3    3    0  502 -0.32797665129E+03 -0.13014315725E+04 -0.11066346479E+04  0.17395209329E+04  0.10100000352E+00 0.  1.
</event>
<event>
 5   0  0.5059249E-06  0.2910198E+04  0.7818609E-02  0.8269850E-01
        1   -1    0    0  501    0  0.00000000000E+00  0.00000000000E+00  0.12157278404E+04  0.12157278405E+04  0.50400001928E-02 0. -1.
       -1   -1    0    0    0  501  0.00000000000E+00  0.00000000000E+00 -0.17416008200E+04  0.17416008200E+04  0.50400001928E-02 0.  1.
    10030    2    1    2    0    0  0.00000000000E+00  0.00000000000E+00 -0.52587297955E+03  0.29573286605E+04  0.29101976592E+04 0.  0.
        1    1    3    3  502    0 -0.15062018502E+03 -0.14430116064E+04 -0.15003512017E+03  0.14585881783E+04  0.50400001928E-02 0.  1.
       -1    1    3    3    0  502  0.15062018502E+03  0.14430116064E+04 -0.37583785938E+03  0.14987404822E+04  0.50400001928E-02 0. -1.
</event>
<event>
 5   0  0.1382803E-05  0.1798233E+04  0.7818609E-02  0.8707240E-01
        2   -1    0    0  501    0  0.00000000000E+00  0.00000000000E+00  0.11353978964E+04  0.11353978964E+04  0.25500000920E-02 0.  1.
       -2   -1    0    0    0  501  0.00000000000E+00  0.00000000000E+00 -0.71200650239E+03  0.71200650240E+03  0.25500000920E-02 0. -1.
    10030    2    1    2    0    0  0.00000000000E+00  0.00000000000E+00  0.42339139403E+03  0.18474043988E+04  0.17982332274E+04 0.  0.
        2    1    3    3  502    0 -0.28256716226E+03 -0.31706366217E+03  0.10258535405E+04  0.11102923280E+04  0.25500000920E-02 0.  1.
       -2    1    3    3    0  502  0.28256716226E+03  0.31706366217E+03 -0.60246214645E+03  0.73711207084E+03  0.25500000920E-02 0. -1.
</event>
<event>
 5   0  0.1336899E-05  0.2888707E+04  0.7818609E-02  0.8276245E-01
       -2   -1    0    0    0  501  0.00000000000E+00  0.00000000000E+00  0.85754815551E+03  0.85754815551E+03  0.25500000920E-02 0. -1.
        2   -1    0    0  501    0  0.00000000000E+00  0.00000000000E+00 -0.24327002201E+04  0.24327002201E+04  0.25500000920E-02 0.  1.
    10030    2    1    2    0    0  0.00000000000E+00  0.00000000000E+00 -0.15751520646E+04  0.32902483757E+04  0.28887073834E+04 0.  0.
        1    1    3    3  502    0 -0.12930701962E+04  0.55828017807E+03 -0.42300534842E+03  0.14705919945E+04  0.50400001928E-02 0. -1.
       -1    1    3    3    0  502  0.12930701962E+04 -0.55828017807E+03 -0.11521467162E+04  0.18196563811E+04  0.50400001928E-02 0.  1.
</event>
<event>
 5   0  0.5352212E-06  0.2832744E+04  0.7818609E-02  0.8293174E-01
        1   -1    0    0  501    0  0.00000000000E+00  0.00000000000E+00  0.19837866445E+04  0.19837866445E+04  0.50400001928E-02 0. -1.
       -1   -1    0    0    0  501  0.00000000000E+00  0.00000000000E+00 -0.10112527066E+04  0.10112527066E+04  0.50400001928E-02 0.  1.
    10030    2    1    2    0    0  0.00000000000E+00  0.00000000000E+00  0.97253393791E+03  0.29950393511E+04  0.28327439796E+04 0.  0.
        2    1    3    3  502    0  0.48088250304E+03 -0.57376522914E+03 -0.78497304088E+03  0.10847290882E+04  0.25500000920E-02 0.  1.
       -2    1    3    3    0  502 -0.48088250304E+03  0.57376522914E+03  0.17575069788E+04  0.19103102629E+04  0.25500000920E-02 0. -1.
</event>
<event>
 5   0  0.5352212E-06  0.2881796E+04  0.7818609E-02  0.8278314E-01
        1   -1    0    0  501    0  0.00000000000E+00  0.00000000000E+00  0.19038217081E+04  0.19038217081E+04  0.50400001928E-02 0. -1.
       -1   -1    0    0    0  501  0.00000000000E+00  0.00000000000E+00 -0.10905362126E+04  0.10905362126E+04  0.50400001928E-02 0.  1.
    10030    2    1    2    0    0  0.00000000000E+00  0.00000000000E+00  0.81328549556E+03  0.29943579207E+04  0.28817956312E+04 0.  0.
        2    1    3    3  502    0 -0.11422552561E+04 -0.87683316842E+03  0.45965557074E+03  0.15115775597E+04  0.25500000920E-02 0.  1.
       -2    1    3    3    0  502  0.11422552561E+04  0.87683316842E+03  0.35362992482E+03  0.14827803610E+04  0.25500000920E-02 0. -1.
</event>
<event>
 5   0  0.1307832E-05  0.2854653E+04  0.7818609E-02  0.8286499E-01
       -2   -1    0    0    0  501  0.00000000000E+00  0.00000000000E+00  0.16190054420E+04  0.16190054420E+04  0.25500000920E-02 0.  1.
        2   -1    0    0  501    0  0.00000000000E+00  0.00000000000E+00 -0.12583411183E+04  0.12583411183E+04  0.25500000920E-02 0. -1.
    10030    2    1    2    0    0  0.00000000000E+00  0.00000000000E+00  0.36066432373E+03  0.28773465602E+04  0.28546531266E+04 0.  0.
        4    1    3    3  502    0  0.38807362400E+03  0.12982512885E+04  0.63245342548E+03  0.14953449414E+04  0.12699999809E+01 0.  1.
       -4    1    3    3    0  502 -0.38807362400E+03 -0.12982512885E+04 -0.27178910174E+03  0.13820016188E+04  0.12699999809E+01 0. -1.
</event>
<event>
 5   0  0.1307832E-05  0.2893994E+04  0.7818609E-02  0.8274667E-01
        2   -1    0    0  501    0  0.00000000000E+00  0.00000000000E+00  0.14609863847E+04  0.14609863847E+04  0.25500000920E-02 0.  1.
       -2   -1    0    0    0  501  0.00000000000E+00  0.00000000000E+00 -0.14331420091E+04  0.14331420091E+04  0.25500000920E-02 0. -1.
    10030    2    1    2    0    0  0.00000000000E+00  0.00000000000E+00  0.27844375542E+02  0.28941283938E+04  0.28939944455E+04 0.  0.
        4    1    3    3  502    0  0.59295337097E+03 -0.66027012674E+03  0.11568875991E+04  0.14580606538E+04  0.12699999809E+01 0.  1.
       -4    1    3    3    0  502 -0.59295337097E+03  0.66027012674E+03 -0.11290432235E+04  0.14360677400E+04  0.12699999809E+01 0. -1.
</event>
<event>
 5   0  0.1307832E-05  0.2911734E+04  0.7818609E-02  0.8269395E-01
       -2   -1    0    0    0  501  0.00000000000E+00  0.00000000000E+00  0.22461976935E+04  0.22461976935E+04  0.25500000920E-02 0.  1.
        2   -1    0    0  501    0  0.00000000000E+00  0.00000000000E+00 -0.94361649747E+03  0.94361649747E+03  0.25500000920E-02 0. -1.
    10030    2    1    2    0    0  0.00000000000E+00  0.00000000000E+00  0.13025811960E+04  0.31898141910E+04  0.29117343286E+04 0.  0.
        4    1    3    3  502    0  0.81132757746E+03  0.83118660135E+03  0.16128553521E+04  0.19875682639E+04  0.12699999809E+01 0.  1.
       -4    1    3    3    0  502 -0.81132757746E+03 -0.83118660135E+03 -0.31027415605E+03  0.12022459270E+04  0.12699999809E+01 0. -1.
</event>
<event>
 5   0  0.5154476E-06  0.3047913E+04  0.7818609E-02  0.8230180E-01
        1   -1    0    0  501    0  0.00000000000E+00  0.00000000000E+00  0.22485022533E+04  0.22485022533E+04  0.50400001928E-02 0. -1.
       -1   -1    0    0    0  501  0.00000000000E+00  0.00000000000E+00 -0.10328845154E+04  0.10328845155E+04  0.50400001928E-02 0.  1.
    10030    2    1    2    0    0  0.00000000000E+00  0.00000000000E+00  0.12156177379E+04  0.32813867688E+04  0.30479128337E+04 0.  0.
        3    1    3    3  502    0 -0.63000214075E+03 -0.12372179858E+04  0.12842984490E+04  0.18913047237E+04  0.10100000352E+00 0. -1.
       -3    1    3    3    0  502  0.63000214075E+03  0.12372179858E+04 -0.68680711125E+02  0.13900820450E+04  0.10100000352E+00 0.  1.
</event>
<event>
 5   0  0.4590125E-06  0.2913092E+04  0.7818609E-02  0.8268993E-01
        3   -1    0    0  501    0  0.00000000000E+00  0.00000000000E+00  0.21556231490E+04  0.21556231513E+04  0.10100000352E+00 0.  1.
       -3   -1    0    0    0  501  0.00000000000E+00  0.00000000000E+00 -0.98418259452E+03  0.98418259970E+03  0.10100000352E+00 0. -1.
    10030    2    1    2    0    0  0.00000000000E+00  0.00000000000E+00  0.11714405545E+04  0.31398057510E+04  0.29130923744E+04 0.  0.
        5    1    3    3  502    0 -0.65358240907E+03  0.10187267023E+04 -0.28760499081E+03  0.12440710511E+04  0.46999998093E+01 0.  1.
       -5    1    3    3    0  502  0.65358240907E+03 -0.10187267023E+04  0.14590455453E+04  0.18957346999E+04  0.46999998093E+01 0. -1.
</event>
<event>
 5   0  0.5154476E-06  0.2891747E+04  0.7818609E-02  0.8275337E-01
       -1   -1    0    0    0  501  0.00000000000E+00  0.00000000000E+00  0.10846052546E+04  0.10846052546E+04  0.50400001928E-02 0.  1.
        1   -1    0    0  501    0  0.00000000000E+00  0.00000000000E+00 -0.19274754646E+04  0.19274754646E+04  0.50400001928E-02 0. -1.
    10030    2    1    2    0    0  0.00000000000E+00  0.00000000000E+00 -0.84287021002E+03  0.30120807192E+04  0.28917468886E+04 0.  0.
        3    1    3    3  502    0  0.60508076938E+03 -0.10187024445E+03 -0.17851325827E+04  0.18876436719E+04  0.10100000352E+00 0. -1.
       -3    1    3    3    0  502 -0.60508076938E+03  0.10187024445E+03  0.94226237263E+03  0.11244370473E+04  0.10100000352E+00 0.  1.
</event>
<event>
 5   0  0.1382803E-05  0.2871706E+04  0.7818609E-02  0.8281346E-01
        2   -1    0    0  501    0  0.00000000000E+00  0.00000000000E+00  0.13390620300E+04  0.13390620300E+04  0.25500000920E-02 0. -1.
       -2   -1    0    0    0  501  0.00000000000E+00  0.00000000000E+00 -0.15396398966E+04  0.15396398966E+04  0.25500000920E-02 0.  1.
    10030    2    1    2    0    0  0.00000000000E+00  0.00000000000E+00 -0.20057786664E+03  0.28787019266E+04  0.28717056433E+04 0.  0.
        2    1    3    3  502    0 -0.51903399803E+03  0.12171700968E+04  0.45854028951E+03  0.14004137005E+04  0.25500000920E-02 0. -1.
       -2    1    3    3    0  502  0.51903399803E+03 -0.12171700968E+04 -0.65911815615E+03  0.14782882261E+04  0.25500000920E-02 0.  1.
</event>
<event>
 5   0  0.5352212E-06  0.2906924E+04  0.7818609E-02  0.8270820E-01
       -1   -1    0    0    0  501  0.00000000000E+00  0.00000000000E+00  0.83393224774E+03  0.83393224776E+03  0.50400001928E-02 0.  1.
        1   -1    0    0  501    0  0.00000000000E+00  0.00000000000E+00 -0.25332420706E+04  0.25332420706E+04  0.50400001928E-02 0. -1.
    10030    2    1    2    0    0  0.00000000000E+00  0.00000000000E+00 -0.16993098229E+04  0.33671743184E+04  0.29069243224E+04 0.  0.
        2    1    3    3  502    0 -0.63861341690E+03  0.12996123733E+04 -0.70436502098E+03  0.16102637982E+04  0.25500000920E-02 0. -1.
       -2    1    3    3    0  502  0.63861341690E+03 -0.12996123733E+04 -0.99494480191E+03  0.17569105202E+04  0.25500000920E-02 0.  1.
</event>
<event>
 5   0  0.5352212E-06  0.2542536E+04  0.7818609E-02  0.8387987E-01
       -1   -1    0    0    0  501  0.00000000000E+00  0.00000000000E+00  0.15054212643E+04  0.15054212643E+04  0.50400001928E-02 0.  1.
        1   -1    0    0  501    0  0.00000000000E+00  0.00000000000E+00 -0.10735350933E+04  0.10735350934E+04  0.50400001928E-02 0. -1.
    10030    2    1    2    0    0  0.00000000000E+00  0.00000000000E+00  0.43188617097E+03  0.25789563577E+04  0.25425361807E+04 0.  0.
        2    1    3    3  502    0  0.74838637336E+03 -0.82975262027E+03 -0.39900102339E+03  0.11864962669E+04  0.25500000920E-02 0. -1.
       -2    1    3    3    0  502 -0.74838637336E+03  0.82975262027E+03  0.83088719436E+03  0.13924600908E+04  0.25500000920E-02 0.  1.
</event>
<event>
 5   0  0.5059249E-06  0.2919392E+04  0.7818609E-02  0.8267131E-01
        1   -1    0    0  501    0  0.00000000000E+00  0.00000000000E+00  0.19124873763E+04  0.19124873763E+04  0.50400001928E-02 0.  1.
       -1   -1    0    0    0  501  0.00000000000E+00  0.00000000000E+00 -0.11141051521E+04  0.11141051521E+04  0.50400001928E-02 0. -1.
    10030    2    1    2    0    0  0.00000000000E+00  0.00000000000E+00  0.79838222425E+03  0.30265925284E+04  0.29193917444E+04 0.  0.
        1    1    3    3  502    0 -0.89815661029E+03 -0.10957663755E+04  0.35122484957E+02  0.14172589161E+04  0.50400001928E-02 0. -1.
       -1    1    3    3    0  502  0.89815661029E+03  0.10957663755E+04  0.76325973930E+03  0.16093336124E+04  0.50400001928E-02 0.  1.
</event>
<event>
 5   0  0.1382803E-05  0.2884906E+04  0.7818609E-02  0.8277382E-01
       -2   -1    0    0    0  501  0.00000000000E+00  0.00000000000E+00  0.14778772835E+04  0.14778772835E+04  0.25500000920E-02 0. -1.
        2   -1    0    0  501    0  0.00000000000E+00  0.00000000000E+00 -0.14078781722E+04  0.14078781722E+04  0.25500000920E-02 0.  1.
    10030    2    1    2    0    0  0.00000000000E+00  0.00000000000E+00  0.69999111245E+02  0.28857554557E+04  0.28849063545E+04 0.  0.
        2    1    3    3  502    0  0.21956895514E+03  0.10766890638E+04  0.96972699645E+03  0.14655511980E+04  0.25500000920E-02 0. -1.
       -2    1    3    3    0  502 -0.21956895514E+03 -0.10766890638E+04 -0.89972788520E+03  0.14202042577E+04  0.25500000920E-02 0.  1.
</event>
<event>
 5   0  0.1307832E-05  0.2456347E+04  0.7818609E-02  0.8418704E-01
        2   -1    0    0  501    0  0.00000000000E+00  0.00000000000E+00  0.27476530312E+04  0.27476530312E+04  0.25500000920E-02 0. -1.
       -2   -1    0    0    0  501  0.00000000000E+00  0.00000000000E+00 -0.54898129321E+03  0.54898129322E+03  0.25500000920E-02 0.  1.
    10030    2    1    2    0    0  0.00000000000E+00  0.00000000000E+00  0.21986717380E+04  0.32966343244E+04  0.24563469742E+04 0.  0.
        4    1    3    3  502    0 -0.19887336646E+03  0.84032394576E+03 -0.72756380215E+02  0.86659682291E+03  0.12699999809E+01 0.  1.
       -4    1    3    3    0  502  0.19887336646E+03 -0.84032394576E+03  0.22714281182E+04  0.24300375015E+04  0.12699999809E+01 0. -1.
</event>
<event>
 5   0  0.5059249E-06  0.2903026E+04  0.7818609E-02  0.8271978E-01
        1   -1    0    0  501    0  0.00000000000E+00  0.00000000000E+00  0.17943795479E+04  0.17943795480E+04  0.50400001928E-02 0. -1.
       -1   -1    0    0    0  501  0.00000000000E+00  0.00000000000E+00 -0.11741610231E+04  0.11741610231E+04  0.50400001928E-02 0.  1.
    10030    2    1    2    0    0  0.00000000000E+00  0.00000000000E+00  0.62021852485E+03  0.29685405711E+04  0.29030263697E+04 0.  0.
        1    1    3    3  502    0 -0.15824466764E+03 -0.54142801484E+03 -0.10574978508E+04  0.11985355125E+04  0.50400001928E-02 0.  1.
       -1    1    3    3    0  502  0.15824466764E+03  0.54142801484E+03  0.16777163757E+04  0.17700050586E+04  0.50400001928E-02 0. -1.
</event>
<event>
 5   0  0.1336899E-05  0.2510548E+04  0.7818609E-02  0.8399237E-01
        2   -1    0    0  501    0  0.00000000000E+00  0.00000000000E+00  0.12830060525E+04  0.12830060525E+04  0.25500000920E-02 0. -1.
       -2   -1    0    0    0  501  0.00000000000E+00  0.00000000000E+00 -0.12281411001E+04  0.12281411001E+04  0.25500000920E-02 0.  1.
    10030    2    1    2    0    0  0.00000000000E+00  0.00000000000E+00  0.54864952416E+02  0.25111471526E+04  0.25105477209E+04 0.  0.
        1    1    3    3  502    0  0.61934263977E+03  0.74188407750E+02 -0.10621499924E+04  0.12317677670E+04  0.50400001928E-02 0.  1.
       -1    1    3    3    0  502 -0.61934263977E+03 -0.74188407750E+02  0.11170149449E+04  0.12793793856E+04  0.50400001928E-02 0. -1.
</event>
<event>
 5   0  0.5352212E-06  0.2537131E+04  0.7818609E-02  0.8389876E-01
       -1   -1    0    0    0  501  0.00000000000E+00  0.00000000000E+00  0.11136105251E+04  0.11136105251E+04  0.50400001928E-02 0.  1.
        1   -1    0    0  501    0  0.00000000000E+00  0.00000000000E+00 -0.14450820933E+04  0.14450820933E+04  0.50400001928E-02 0. -1.
    10030    2    1    2    0    0  0.00000000000E+00  0.00000000000E+00 -0.33147156820E+03  0.25586926183E+04  0.25371311583E+04 0.  0.
        2    1    3    3  502    0  0.91308394618E+03 -0.23894361816E+03 -0.10205488259E+04  0.13900849799E+04  0.25500000920E-02 0. -1.
       -2    1    3    3    0  502 -0.91308394618E+03  0.23894361816E+03  0.68907725768E+03  0.11686076384E+04  0.25500000920E-02 0.  1.
</event>
<event>
 5   0  0.5002240E-06  0.2805225E+04  0.7818609E-02  0.8301648E-01
       -1   -1    0    0    0  501  0.00000000000E+00  0.00000000000E+00  0.11587077737E+04  0.11587077737E+04  0.50400001928E-02 0.  1.
        1   -1    0    0  501    0  0.00000000000E+00  0.00000000000E+00 -0.16978578977E+04  0.16978578977E+04  0.50400001928E-02 0. -1.
    10030    2    1    2    0    0  0.00000000000E+00  0.00000000000E+00 -0.53915012402E+03  0.28565656714E+04  0.28052245149E+04 0.  0.
        4    1    3    3  502    0 -0.49475251546E+03 -0.75997043649E+03 -0.13591983461E+04  0.16339390664E+04  0.12699999809E+01 0. -1.
       -4    1    3    3    0  502  0.49475251546E+03  0.75997043649E+03  0.82004822206E+03  0.12226266050E+04  0.12699999809E+01 0.  1.
</event>
<event>
 5   0  0.5059249E-06  0.2999617E+04  0.7818609E-02  0.8243840E-01
        1   -1    0    0  501    0  0.00000000000E+00  0.00000000000E+00  0.15665475728E+04  0.15665475728E+04  0.50400001928E-02 0.  1.
       -1   -1    0    0    0  501  0.00000000000E+00  0.00000000000E+00 -0.14359128546E+04  0.14359128546E+04  0.50400001928E-02 0. -1.
    10030    2    1    2    0    0  0.00000000000E+00  0.00000000000E+00  0.13063471823E+03  0.30024604274E+04  0.29996171737E+04 0.  0.
        1    1    3    3  502    0  0.13216838892E+04  0.70817742345E+03  0.32694579930E+02  0.14998108220E+04  0.50400001928E-02 0.  1.
       -1    1    3    3    0  502 -0.13216838892E+04 -0.70817742345E+03  0.97940138305E+02  0.15026496055E+04  0.50400001928E-02 0. -1.
</event>
<event>
 5   0  0.5059249E-06  0.2903465E+04  0.7818609E-02  0.8271847E-01
        1   -1    0    0  501    0  0.00000000000E+00  0.00000000000E+00  0.10739971903E+04  0.10739971903E+04  0.50400001928E-02 0.  1.
       -1   -1    0    0    0  501  0.00000000000E+00  0.00000000000E+00 -0.19623211511E+04  0.19623211511E+04  0.50400001928E-02 0. -1.
    10030    2    1    2    0    0  0.00000000000E+00  0.00000000000E+00 -0.88832396077E+03  0.30363183414E+04  0.29034651042E+04 0.  0.
        1    1    3    3  502    0  0.72996256027E+03  0.11376732686E+04  0.10957744405E+03  0.13561537604E+04  0.50400001928E-02 0.  1.
       -1    1    3    3    0  502 -0.72996256027E+03 -0.11376732686E+04 -0.99790140482E+03  0.16801645810E+04  0.50400001928E-02 0. -1.
</event>
<event>
 5   0  0.5059249E-06  0.2904463E+04  0.7818609E-02  0.8271551E-01
        1   -1    0    0  501    0  0.00000000000E+00  0.00000000000E+00  0.12598987737E+04  0.12598987737E+04  0.50400001928E-02 0.  1.
       -1   -1    0    0    0  501  0.00000000000E+00  0.00000000000E+00 -0.16739257589E+04  0.16739257589E+04  0.50400001928E-02 0. -1.
    10030    2    1    2    0    0  0.00000000000E+00  0.00000000000E+00 -0.41402698518E+03  0.29338245327E+04  0.29044634692E+04 0.  0.
        1    1    3    3  502    0 -0.99674987087E+02 -0.13709305162E+02  0.12563739639E+04  0.12603962017E+04  0.50400001928E-02 0.  1.
       -1    1    3    3    0  502  0.99674987087E+02  0.13709305162E+02 -0.16704009491E+04  0.16734283310E+04  0.50400001928E-02 0. -1.
</event>
<event>
 5   0  0.5352212E-06  0.2933429E+04  0.7818609E-02  0.8263000E-01
       -1   -1    0    0    0  501  0.00000000000E+00  0.00000000000E+00  0.11946325963E+04  0.11946325963E+04  0.50400001928E-02 0. -1.
        1   -1    0    0  501    0  0.00000000000E+00  0.00000000000E+00 -0.18007637170E+04  0.18007637170E+04  0.50400001928E-02 0.  1.
    10030    2    1    2    0    0  0.00000000000E+00  0.00000000000E+00 -0.60613112066E+03  0.29953963133E+04  0.29334287341E+04 0.  0.
        2    1    3    3  502    0  0.27973991862E+02  0.80566161484E+03  0.94812584290E+03  0.12445142811E+04  0.25500000920E-02 0. -1.
       -2    1    3    3    0  502 -0.27973991862E+02 -0.80566161484E+03 -0.15542569636E+04  0.17508820322E+04  0.25500000920E-02 0.  1.
</event>
<event>
 5   0  0.5002240E-06  0.3522235E+04  0.7818609E-02  0.8108541E-01
        1   -1    0    0  501    0  0.00000000000E+00  0.00000000000E+00  0.19645982874E+04  0.19645982874E+04  0.50400001928E-02 0.  1.
       -1   -1    0    0    0  501  0.00000000000E+00  0.00000000000E+00 -0.15787120698E+04  0.15787120698E+04  0.50400001928E-02 0. -1.
    10030    2    1    2    0    0  0.00000000000E+00  0.00000000000E+00  0.38588621764E+03  0.35433103572E+04  0.35222351021E+04 0.  0.
        4    1    3    3  502    0  0.50897673940E+03  0.11825201143E+04 -0.10159637346E+04  0.16399984954E+04  0.12699999809E+01 0. -1.
       -4    1    3    3    0  502 -0.50897673940E+03 -0.11825201143E+04  0.14018499522E+04  0.19033118618E+04  0.12699999809E+01 0.  1.
</event>
<event>
 5   0  0.1382803E-05  0.1831048E+04  0.7818609E-02  0.8689960E-01
       -2   -1    0    0    0  501  0.00000000000E+00  0.00000000000E+00  0.59313015736E+03  0.59313015737E+03  0.25500000920E-02 0. -1.
        2   -1    0    0  501    0  0.00000000000E+00  0.00000000000E+00 -0.14131545308E+04  0.14131545308E+04  0.25500000920E-02 0.  1.
    10030    2    1    2    0    0  0.00000000000E+00  0.00000000000E+00 -0.82002437348E+03  0.20062846882E+04  0.18310484093E+04 0.  0.
        2    1    3    3  502    0  0.39159705843E+03  0.35514473011E+03  0.40899060994E+03  0.66839311376E+03  0.25500000920E-02 0. -1.
       -2    1    3    3    0  502 -0.39159705843E+03 -0.35514473011E+03 -0.12290149834E+04  0.13378915744E+04  0.25500000920E-02 0.  1.
</event>
<event>
 5   0  0.5352212E-06  0.2921073E+04  0.7818609E-02  0.8266635E-01
        1   -1    0    0  501    0  0.00000000000E+00  0.00000000000E+00  0.79553182310E+03  0.79553182311E+03  0.50400001928E-02 0. -1.
       -1   -1    0    0    0  501  0.00000000000E+00  0.00000000000E+00 -0.26814356425E+04  0.26814356426E+04  0.50400001928E-02 0.  1.
    10030    2    1    2    0    0  0.00000000000E+00  0.00000000000E+00 -0.18859038195E+04  0.34769674657E+04  0.29210733543E+04 0.  0.
        2    1    3    3  502    0  0.11432679882E+04 -0.62416117895E+02  0.13636633920E+03  0.11530625495E+04  0.25500000920E-02 0. -1.
       -2    1    3    3    0  502 -0.11432679882E+04  0.62416117895E+02 -0.20222701586E+04  0.23239049161E+04  0.25500000920E-02 0.  1.
</event>
<event>
 5   0  0.5261878E-06  0.2117037E+04  0.7818609E-02  0.8553775E-01
        1   -1    0    0  501    0  0.00000000000E+00  0.00000000000E+00  0.89335655604E+03  0.89335655605E+03  0.50400001928E-02 0.  1.
       -1   -1    0    0    0  501  0.00000000000E+00  0.00000000000E+00 -0.12542149048E+04  0.12542149048E+04  0.50400001928E-02 0. -1.
    10030    2    1    2    0    0  0.00000000000E+00  0.00000000000E+00 -0.36085834879E+03  0.21475714609E+04  0.21170367101E+04 0.  0.
        5    1    3    3  502    0 -0.19694526739E+03 -0.10364463280E+04 -0.92985006539E+02  0.10590924089E+04  0.46999998093E+01 0. -1.
       -5    1    3    3    0  502  0.19694526739E+03  0.10364463280E+04 -0.26787334225E+03  0.10884790520E+04  0.46999998093E+01 0.  1.
</event>
<event>
 5   0  0.1336899E-05  0.2904620E+04  0.7818609E-02  0.8271504E-01
       -2   -1    0    0    0  501  0.00000000000E+00  0.00000000000E+00  0.17127486258E+04  0.17127486258E+04  0.25500000920E-02 0.  1.
        2   -1    0    0  501    0  0.00000000000E+00  0.00000000000E+00 -0.12314737555E+04  0.12314737555E+04  0.25500000920E-02 0. -1.
    10030    2    1    2    0    0  0.00000000000E+00  0.00000000000E+00  0.48127487032E+03  0.29442223813E+04  0.29046204450E+04 0.  0.
        1    1    3    3  502    0  0.82288028473E+03  0.18507020265E+03  0.14390522294E+04  0.16680090713E+04  0.50400001928E-02 0.  1.
       -1    1    3    3    0  502 -0.82288028473E+03 -0.18507020265E+03 -0.95777735909E+03  0.12762133100E+04  0.50400001928E-02 0. -1.
</event>
<event>
 5   0  0.1336899E-05  0.2949695E+04  0.7818609E-02  0.8258243E-01
        2   -1    0    0  501    0  0.00000000000E+00  0.00000000000E+00  0.10136834265E+04  0.10136834265E+04  0.25500000920E-02 0.  1.
       -2   -1    0    0    0  501  0.00000000000E+00  0.00000000000E+00 -0.21458129932E+04  0.21458129932E+04  0.25500000920E-02 0. -1.
    10030    2    1    2    0    0  0.00000000000E+00  0.00000000000E+00 -0.11321295667E+04  0.31594964198E+04  0.29496949454E+04 0.  0.
        1    1    3    3  502    0 -0.74245512758E+03  0.92175651539E+03 -0.15085954707E+04  0.19174814170E+04  0.50400001928E-02 0.  1.
       -1    1    3    3    0  502  0.74245512758E+03 -0.92175651539E+03  0.37646590408E+03  0.12420150028E+04  0.50400001928E-02 0. -1.
</event>
<event>
 5   0  0.1382803E-05  0.2889642E+04  0.7818609E-02  0.8275966E-01
        2   -1    0    0  501    0  0.00000000000E+00  0.00000000000E+00  0.21876944547E+04  0.21876944547E+04  0.25500000920E-02 0.  1.
       -2   -1    0    0    0  501  0.00000000000E+00  0.00000000000E+00 -0.95420465998E+03  0.95420465998E+03  0.25500000920E-02 0. -1.
    10030    2    1    2    0    0  0.00000000000E+00  0.00000000000E+00  0.12334897947E+04  0.31418991147E+04  0.28896423608E+04 0.  0.
        2    1    3    3  502    0 -0.34481787935E+03  0.74818583301E+03 -0.67381138112E+03  0.10642852944E+04  0.25500000920E-02 0. -1.
       -2    1    3    3    0  502  0.34481787935E+03 -0.74818583301E+03  0.19073011759E+04  0.20776138202E+04  0.25500000920E-02 0.  1.
</event>
<event>
 5   0  0.1339837E-05  0.2972177E+04  0.7818609E-02  0.8251721E-01
       -2   -1    0    0    0  501  0.00000000000E+00  0.00000000000E+00  0.22387295056E+04  0.22387295056E+04  0.25500000920E-02 0. -1.
        2   -1    0    0  501    0  0.00000000000E+00  0.00000000000E+00 -0.98647885414E+03  0.98647885415E+03  0.25500000920E-02 0.  1.
    10030    2    1    2    0    0  0.00000000000E+00  0.00000000000E+00  0.12522506515E+04  0.32252083597E+04  0.29721771935E+04 0.  0.
        5    1    3    3  502    0 -0.10269276045E+04  0.38813038855E+03  0.17129997740E+04  0.20346045854E+04  0.46999998093E+01 0. -1.
       -5    1    3    3    0  502  0.10269276045E+04 -0.38813038855E+03 -0.46074912252E+03  0.11906037743E+04  0.46999998093E+01 0.  1.
</event>
<event>
 5   0  0.5002240E-06  0.2913716E+04  0.7818609E-02  0.8268808E-01
        1   -1    0    0  501    0  0.00000000000E+00  0.00000000000E+00  0.15467782952E+04  0.15467782952E+04  0.50400001928E-02 0. -1.
       -1   -1    0    0    0  501  0.00000000000E+00  0.00000000000E+00 -0.13721655898E+04  0.13721655899E+04  0.50400001928E-02 0.  1.
    10030    2    1    2    0    0  0.00000000000E+00  0.00000000000E+00  0.17461270537E+03  0.29189438851E+04  0.29137164940E+04 0.  0.
        4    1    3    3  502    0  0.19842687805E+03 -0.29415118671E+03  0.15028297337E+04  0.15441492700E+04  0.12699999809E+01 0. -1.
       -4    1    3    3    0  502 -0.19842687805E+03  0.29415118671E+03 -0.13282170283E+04  0.13747946151E+04  0.12699999809E+01 0.  1.
</event>
<event>
 5   0  0.1336899E-05  0.2920589E+04  0.7818609E-02  0.8266778E-01
        2   -1    0    0  501    0  0.00000000000E+00  0.00000000000E+00  0.15068167078E+04  0.15068167078E+04  0.25500000920E-02 0. -1.
       -2   -1    0    0    0  501  0.00000000000E+00  0.00000000000E+00 -0.14152089026E+04  0.14152089026E+04  0.25500000920E-02 0.  1.
    10030    2    1    2    0    0  0.00000000000E+00  0.00000000000E+00  0.91607805263E+02  0.29220256104E+04  0.29205892690E+04 0.  0.
        1    1    3    3  502    0 -0.13636480250E+03  0.13871569470E+04 -0.38991075165E+03  0.14473528075E+04  0.50400001928E-02 0. -1.
       -1    1    3    3    0  502  0.13636480250E+03 -0.13871569470E+04  0.48151855691E+03  0.14746728029E+04  0.50400001928E-02 0.  1.
</event>
<event>
 5   0  0.5059249E-06  0.2945833E+04  0.7818609E-02  0.8259370E-01
        1   -1    0    0  501    0  0.00000000000E+00  0.00000000000E+00  0.16968635103E+04  0.16968635103E+04  0.50400001928E-02 0. -1.
       -1   -1    0    0    0  501  0.00000000000E+00  0.00000000000E+00 -0.12785250352E+04  0.12785250352E+04  0.50400001928E-02 0.  1.
    10030    2    1    2    0    0  0.00000000000E+00  0.00000000000E+00  0.41833847513E+03  0.29753885455E+04  0.29458326356E+04 0.  0.
        1    1    3    3  502    0 -0.72880983107E+03 -0.11239695305E+04  0.82769492265E+03  0.15746587441E+04  0.50400001928E-02 0. -1.
       -1    1    3    3    0  502  0.72880983107E+03  0.11239695305E+04 -0.40935644752E+03  0.14007298014E+04  0.50400001928E-02 0.  1.
</event>
<event>
 5   0  0.5352212E-06  0.2824587E+04  0.7818609E-02  0.8295676E-01
       -1   -1    0    0    0  501  0.00000000000E+00  0.00000000000E+00  0.32267329348E+04  0.32267329348E+04  0.50400001928E-02 0.  1.
        1   -1    0    0  501    0  0.00000000000E+00  0.00000000000E+00 -0.61813991495E+03  0.61813991497E+03  0.50400001928E-02 0. -1.
    10030    2    1    2    0    0  0.00000000000E+00  0.00000000000E+00  0.26085930199E+04  0.38448728498E+04  0.28245866402E+04 0.  0.
        2    1    3    3  502    0  0.78166021327E+03  0.68946809661E+03  0.26015386636E+04  0.28025635343E+04  0.25500000920E-02 0.  1.
       -2    1    3    3    0  502 -0.78166021327E+03 -0.68946809661E+03  0.70543562182E+01  0.10423093155E+04  0.25500000920E-02 0. -1.
</event>
<event>
 5   0  0.5059249E-06  0.2876835E+04  0.7818609E-02  0.8279803E-01
       -1   -1    0    0    0  501  0.00000000000E+00  0.00000000000E+00  0.11695515291E+04  0.11695515291E+04  0.50400001928E-02 0. -1.
        1   -1    0    0  501    0  0.00000000000E+00  0.00000000000E+00 -0.17690923572E+04  0.17690923572E+04  0.50400001928E-02 0.  1.
    10030    2    1    2    0    0  0.00000000000E+00  0.00000000000E+00 -0.59954082806E+03  0.29386438863E+04  0.28768348381E+04 0.  0.
        1    1    3    3  502    0 -0.12855326681E+03 -0.85447743324E+03 -0.14744280976E+04  0.17089750850E+04  0.50400001928E-02 0.  1.
       -1    1    3    3    0  502  0.12855326681E+03  0.85447743324E+03  0.87488726953E+03  0.12296688012E+04  0.50400001928E-02 0. -1.
</event>
<event>
 5   0  0.5261878E-06  0.2229657E+04  0.7818609E-02  0.8506185E-01
       -1   -1    0    0    0  501  0.00000000000E+00  0.00000000000E+00  0.67651402148E+03  0.67651402150E+03  0.50400001928E-02 0. -1.
        1   -1    0    0  501    0  0.00000000000E+00  0.00000000000E+00 -0.18371270912E+04  0.18371270912E+04  0.50400001928E-02 0.  1.
    10030    2    1    2    0    0  0.00000000000E+00  0.00000000000E+00 -0.11606130697E+04  0.25136411127E+04  0.22296566879E+04 0.  0.
        5    1    3    3  502    0 -0.37109536945E+03 -0.10269515586E+04 -0.83359772456E+03  0.13737716452E+04  0.46999998093E+01 0.  1.
       -5    1    3    3    0  502  0.37109536945E+03  0.10269515586E+04 -0.32701534511E+03  0.11398694674E+04  0.46999998093E+01 0. -1.
</event>
<event>
 5   0  0.5352212E-06  0.2813135E+04  0.7818609E-02  0.8299202E-01
       -1   -1    0    0    0  501  0.00000000000E+00  0.00000000000E+00  0.87451663883E+03  0.87451663884E+03  0.50400001928E-02 0. -1.
        1   -1    0    0  501    0  0.00000000000E+00  0.00000000000E+00 -0.22623150985E+04  0.22623150985E+04  0.50400001928E-02 0.  1.
    10030    2    1    2    0    0  0.00000000000E+00  0.00000000000E+00 -0.13877984597E+04  0.31368317374E+04  0.28131350454E+04 0.  0.
        2    1    3    3  502    0 -0.75211087466E+03  0.71901083558E+03  0.36146531034E+03  0.11015010304E+04  0.25500000920E-02 0. -1.
       -2    1    3    3    0  502  0.75211087466E+03 -0.71901083558E+03 -0.17492637700E+04  0.20353307069E+04  0.25500000920E-02 0.  1.
</event>
<event>
 5   0  0.1336899E-05  0.2922620E+04  0.7818609E-02  0.8266179E-01
        2   -1    0    0  501    0  0.00000000000E+00  0.00000000000E+00  0.16208357393E+04  0.16208357393E+04  0.25500000920E-02 0. -1.
       -2   -1    0    0    0  501  0.00000000000E+00  0.00000000000E+00 -0.13174847647E+04  0.13174847647E+04  0.25500000920E-02 0.  1.
    10030    2    1    2    0    0  0.00000000000E+00  0.00000000000E+00  0.30335097458E+03  0.29383205040E+04  0.29226196418E+04 0.  0.
        1    1    3    3  502    0  0.34970026418E+02 -0.97642812904E+03 -0.94080451060E+03  0.13563730759E+04  0.50400001928E-02 0.  1.
       -1    1    3    3    0  502 -0.34970026418E+02  0.97642812904E+03  0.12441554852E+04  0.15819474281E+04  0.50400001928E-02 0. -1.
</event>
<event>
 5   0  0.1385669E-05  0.2914813E+04  0.7818609E-02  0.8268484E-01
       -2   -1    0    0    0  501  0.00000000000E+00  0.00000000000E+00  0.11730605870E+04  0.11730605870E+04  0.25500000920E-02 0. -1.
        2   -1    0    0  501    0  0.00000000000E+00  0.00000000000E+00 -0.18106772466E+04  0.18106772466E+04  0.25500000920E-02 0.  1.
    10030    2    1    2    0    0  0.00000000000E+00  0.00000000000E+00 -0.63761665962E+03  0.29837378337E+04  0.29148132797E+04 0.  0.
        3    1    3    3  502    0  0.46238887208E+03 -0.10336789964E+04 -0.12579659425E+04  0.16925643443E+04  0.10100000352E+00 0.  1.
       -3    1    3    3    0  502 -0.46238887208E+03  0.10336789964E+04  0.62034928292E+03  0.12911734894E+04  0.10100000352E+00 0. -1.
</event>
<event>
 5   0  0.5059249E-06  0.2760983E+04  0.7818609E-02  0.8315485E-01
        1   -1    0    0  501    0  0.00000000000E+00  0.00000000000E+00  0.18258291716E+04  0.18258291716E+04  0.50400001928E-02 0. -1.
       -1   -1    0    0    0  501  0.00000000000E+00  0.00000000000E+00 -0.10437761322E+04  0.10437761322E+04  0.50400001928E-02 0.  1.
    10030    2    1    2    0    0  0.00000000000E+00  0.00000000000E+00  0.78205303941E+03  0.28696053039E+04  0.27609830937E+04 0.  0.
        1    1    3    3  502    0  0.88417765957E+03  0.60409532053E+03  0.12965406242E+04  0.16815822549E+04  0.50400001928E-02 0. -1.
       -1    1    3    3    0  502 -0.88417765957E+03 -0.60409532053E+03 -0.51448758475E+03  0.11880230490E+04  0.50400001928E-02 0.  1.
</event>
<event>
 5   0  0.5352212E-06  0.2884108E+04  0.7818609E-02  0.8277622E-01
        1   -1    0    0  501    0  0.00000000000E+00  0.00000000000E+00  0.20700325501E+04  0.20700325501E+04  0.50400001928E-02 0.  1.
       -1   -1    0    0    0  501  0.00000000000E+00  0.00000000000E+00 -0.10045831641E+04  0.10045831641E+04  0.50400001928E-02 0. -1.
    10030    2    1    2    0    0  0.00000000000E+00  0.00000000000E+00  0.10654493859E+04  0.30746157142E+04  0.28841080764E+04 0.  0.
        2    1    3    3  502    0  0.27435666696E+03 -0.11600294583E+04  0.13978590426E+04  0.18371036518E+04  0.25500000920E-02 0. -1.
       -2    1    3    3    0  502 -0.27435666696E+03  0.11600294583E+04 -0.33240965662E+03  0.12375120624E+04  0.25500000920E-02 0.  1.
</event>
<event>
 5   0  0.4590125E-06  0.2788409E+04  0.7818609E-02  0.8306876E-01
       -3   -1    0    0    0  501  0.00000000000E+00  0.00000000000E+00  0.13928940881E+04  0.13928940918E+04  0.10100000352E+00 0.  1.
        3   -1    0    0  501    0  0.00000000000E+00  0.00000000000E+00 -0.13955156616E+04  0.13955156652E+04  0.10100000352E+00 0. -1.
    10030    2    1    2    0    0  0.00000000000E+00  0.00000000000E+00 -0.26215734639E+01  0.27884097570E+04  0.27884085247E+04 0.  0.
        1    1    3    3  502    0 -0.22576370872E+03  0.96044456232E+03  0.98376960255E+03  0.13932787375E+04  0.50400001928E-02 0.  1.
       -1    1    3    3    0  502  0.22576370872E+03 -0.96044456232E+03 -0.98639117601E+03  0.13951310195E+04  0.50400001928E-02 0. -1.
</event>
<event>
 5   0  0.5002240E-06  0.2907361E+04  0.7818609E-02  0.8270691E-01
       -1   -1    0    0    0  501  0.00000000000E+00  0.00000000000E+00  0.84774656023E+03  0.84774656024E+03  0.50400001928E-02 0.  1.
        1   -1    0    0  501    0  0.00000000000E+00  0.00000000000E+00 -0.24927113435E+04  0.24927113435E+04  0.50400001928E-02 0. -1.
    10030    2    1    2    0    0  0.00000000000E+00  0.00000000000E+00 -0.16449647833E+04  0.33404579038E+04  0.29073613241E+04 0.  0.
        4    1    3    3  502    0 -0.41039556897E+03  0.36922914495E+03 -0.23675873502E+04  0.24310956703E+04  0.12699999809E+01 0. -1.
       -4    1    3    3    0  502  0.41039556897E+03 -0.36922914495E+03  0.72262256691E+03  0.90936223345E+03  0.12699999809E+01 0.  1.
</event>
<event>
 5   0  0.5352212E-06  0.2929760E+04  0.7818609E-02  0.8264078E-01
        1   -1    0    0  501    0  0.00000000000E+00  0.00000000000E+00  0.21145885689E+04  0.21145885690E+04  0.50400001928E-02 0.  1.
       -1   -1    0    0    0  501  0.00000000000E+00  0.00000000000E+00 -0.10147944993E+04  0.10147944993E+04  0.50400001928E-02 0. -1.
    10030    2    1    2    0    0  0.00000000000E+00  0.00000000000E+00  0.10997940697E+04  0.31293830683E+04  0.29297596134E+04 0.  0.
        2    1    3    3  502    0 -0.66471392131E+03  0.69366186982E+03  0.17310750898E+04  0.19798061403E+04  0.25500000920E-02 0.  1.
       -2    1    3    3    0  502  0.66471392131E+03 -0.69366186982E+03 -0.63128102012E+03  0.11495769279E+04  0.25500000920E-02 0. -1.
</event>
<event>
 5   0  0.5154476E-06  0.2232948E+04  0.7818609E-02  0.8504838E-01
       -1   -1    0    0    0  501  0.00000000000E+00  0.00000000000E+00  0.64989869202E+03  0.64989869204E+03  0.50400001928E-02 0.  1.
        1   -1    0    0  501    0  0.00000000000E+00  0.00000000000E+00 -0.19180126209E+04  0.19180126210E+04  0.50400001928E-02 0. -1.
    10030    2    1    2    0    0  0.00000000000E+00  0.00000000000E+00 -0.12681139289E+04  0.25679113130E+04  0.22329477322E+04 0.  0.
        3    1    3    3  502    0  0.53855372487E+03 -0.50092162260E+03  0.33191775450E+03  0.80692750140E+03  0.10100000352E+00 0.  1.
       -3    1    3    3    0  502 -0.53855372487E+03  0.50092162260E+03 -0.16000316834E+04  0.17609838116E+04  0.10100000352E+00 0. -1.
</event>
<event>
 5   0  0.1336899E-05  0.2866532E+04  0.7818609E-02  0.8282905E-01
       -2   -1    0    0    0  501  0.00000000000E+00  0.00000000000E+00  0.11317662944E+04  0.11317662944E+04  0.25500000920E-02 0. -1.
        2   -1    0    0  501    0  0.00000000000E+00  0.00000000000E+00 -0.18150846889E+04  0.18150846889E+04  0.25500000920E-02 0.  1.
    10030    2    1    2    0    0  0.00000000000E+00  0.00000000000E+00 -0.68331839454E+03  0.29468509833E+04  0.28665321713E+04 0.  0.
        1    1    3    3  502    0 -0.13964406792E+03  0.50369223807E+03  0.10302925651E+04  0.11552961118E+04  0.50400001928E-02 0. -1.
       -1    1    3    3    0  502  0.13964406792E+03 -0.50369223807E+03 -0.17136109596E+04  0.17915548714E+04  0.50400001928E-02 0.  1.
</event>
<event>
 5   0  0.5261878E-06  0.2951057E+04  0.7818609E-02  0.8257846E-01
        1   -1    0    0  501    0  0.00000000000E+00  0.00000000000E+00  0.26977994339E+04  0.26977994339E+04  0.50400001928E-02 0. -1.
       -1   -1    0    0    0  501  0.00000000000E+00  0.00000000000E+00 -0.80702255276E+03  0.80702255277E+03  0.50400001928E-02 0.  1.
    10030    2    1    2    0    0  0.00000000000E+00  0.00000000000E+00  0.18907768811E+04  0.35048219867E+04  0.29510574281E+04 0.  0.
        5    1    3    3  502    0 -0.75697273840E+03  0.12565261477E+04  0.75649163566E+03  0.16505051867E+04  0.46999998093E+01 0. -1.
       -5    1    3    3    0  502  0.75697273840E+03 -0.12565261477E+04  0.11342852455E+04  0.18543168000E+04  0.46999998093E+01 0.  1.
</event>
<event>
 5   0  0.1382803E-05  0.2925885E+04  0.7818609E-02  0.8265217E-01
       -2   -1    0    0    0  501  0.00000000000E+00  0.00000000000E+00  0.83795103293E+03  0.83795103293E+03  0.25500000920E-02 0.  1.
        2   -1    0    0  501    0  0.00000000000E+00  0.00000000000E+00 -0.25540881822E+04  0.25540881822E+04  0.25500000920E-02 0. -1.
    10030    2    1    2    0    0  0.00000000000E+00  0.00000000000E+00 -0.17161371492E+04  0.33920392151E+04  0.29258850493E+04 0.  0.
        2    1    3    3  502    0 -0.29458865614E+03 -0.14301365072E+04 -0.96258714052E+03  0.17488987703E+04  0.25500000920E-02 0.  1.
       -2    1    3    3    0  502  0.29458865614E+03  0.14301365072E+04 -0.75355000870E+03  0.16431404448E+04  0.25500000920E-02 0. -1.
</event>
<event>
 5   0  0.5352212E-06  0.2878940E+04  0.7818609E-02  0.8279171E-01
        1   -1    0    0  501    0  0.00000000000E+00  0.00000000000E+00  0.12101263436E+04  0.12101263436E+04  0.50400001928E-02 0. -1.
       -1   -1    0    0    0  501  0.00000000000E+00  0.00000000000E+00 -0.17122790956E+04  0.17122790956E+04  0.50400001928E-02 0.  1.
    10030    2    1    2    0    0  0.00000000000E+00  0.00000000000E+00 -0.50215275200E+03  0.29224054392E+04  0.28789401114E+04 0.  0.
        2    1    3    3  502    0  0.13920546889E+04 -0.12719059680E+03  0.97739808780E+02  0.14012661329E+04  0.25500000920E-02 0. -1.
       -2    1    3    3    0  502 -0.13920546889E+04  0.12719059680E+03 -0.59989256078E+03  0.15211393064E+04  0.25500000920E-02 0.  1.
</event>
<event>
 5   0  0.1385669E-05  0.2967555E+04  0.7818609E-02  0.8253057E-01
        2   -1    0    0  501    0  0.00000000000E+00  0.00000000000E+00  0.22227100403E+04  0.22227100403E+04  0.25500000920E-02 0.  1.
       -2   -1    0    0    0  501  0.00000000000E+00  0.00000000000E+00 -0.99050037818E+03  0.99050037818E+03  0.25500000920E-02 0. -1.
    10030    2    1    2    0    0  0.00000000000E+00  0.00000000000E+00  0.12322096621E+04  0.32132104185E+04  0.29675546401E+04 0.  0.
        3    1    3    3  502    0 -0.55043170738E+03 -0.58554585598E+03 -0.73444682606E+03  0.10886924104E+04  0.10100000352E+00 0. -1.
       -3    1    3    3    0  502  0.55043170738E+03  0.58554585598E+03  0.19666564882E+04  0.21245180081E+04  0.10100000352E+00 0.  1.
</event>
<event>
 5   0  0.5059249E-06  0.2895352E+04  0.7818609E-02  0.8274262E-01
        1   -1    0    0  501    0  0.00000000000E+00  0.00000000000E+00  0.17762906862E+04  0.17762906862E+04  0.50400001928E-02 0. -1.
       -1   -1    0    0    0  501  0.00000000000E+00  0.00000000000E+00 -0.11798550517E+04  0.11798550518E+04  0.50400001928E-02 0.  1.
    10030    2    1    2    0    0  0.00000000000E+00  0.00000000000E+00  0.59643563448E+03  0.29561457380E+04  0.28953518194E+04 0.  0.
        1    1    3    3  502    0  0.64759631037E+03 -0.12337072447E+04  0.69934233797E+03  0.15590042503E+04  0.50400001928E-02 0.  1.
       -1    1    3    3    0  502 -0.64759631037E+03  0.12337072447E+04 -0.10290670349E+03  0.13971414877E+04  0.50400001928E-02 0. -1.
</event>
<event>
 5   0  0.1385669E-05  0.2856319E+04  0.7818609E-02  0.8285994E-01
        2   -1    0    0  501    0  0.00000000000E+00  0.00000000000E+00  0.16892163436E+04  0.16892163436E+04  0.25500000920E-02 0. -1.
       -2   -1    0    0    0  501  0.00000000000E+00  0.00000000000E+00 -0.12074474992E+04  0.12074474993E+04  0.25500000920E-02 0.  1.
    10030    2    1    2    0    0  0.00000000000E+00  0.00000000000E+00  0.48176884436E+03  0.28966638429E+04  0.28563193447E+04 0.  0.
        3    1    3    3  502    0 -0.64168435381E+03  0.12695835479E+04  0.11245105309E+03  0.14269710735E+04  0.10100000352E+00 0.  1.
       -3    1    3    3    0  502  0.64168435381E+03 -0.12695835479E+04  0.36931779127E+03  0.14696927693E+04  0.10100000352E+00 0. -1.
</event>
<event>
 5   0  0.5154476E-06  0.2919342E+04  0.7818609E-02  0.8267146E-01
        1   -1    0    0  501    0  0.00000000000E+00  0.00000000000E+00  0.15984941057E+04  0.15984941057E+04  0.50400001928E-02 0. -1.
       -1   -1    0    0    0  501  0.00000000000E+00  0.00000000000E+00 -0.13329042820E+04  0.13329042820E+04  0.50400001928E-02 0.  1.
    10030    2    1    2    0    0  0.00000000000E+00  0.00000000000E+00  0.26558982373E+03  0.29313983877E+04  0.29193421438E+04 0.  0.
        3    1    3    3  502    0  0.28084285460E+03 -0.57228122995E+03 -0.11857391840E+04  0.13462376974E+04  0.10100000352E+00 0.  1.
       -3    1    3    3    0  502 -0.28084285460E+03  0.57228122995E+03  0.14513290078E+04  0.15851606903E+04  0.10100000352E+00 0. -1.
</event>
<event>
 5   0  0.5261878E-06  0.2953722E+04  0.7818609E-02  0.8257071E-01
        1   -1    0    0  501    0  0.00000000000E+00  0.00000000000E+00  0.12621902809E+04  0.12621902809E+04  0.50400001928E-02 0.  1.
       -1   -1    0    0    0  501  0.00000000000E+00  0.00000000000E+00 -0.17280419712E+04  0.17280419713E+04  0.50400001928E-02 0. -1.
    10030    2    1    2    0    0  0.00000000000E+00  0.00000000000E+00 -0.46585169036E+03  0.29902322521E+04  0.29537215719E+04 0.  0.
        5    1    3    3  502    0 -0.56954311602E+03 -0.47315469496E+03  0.10606959092E+04  0.12935813187E+04  0.46999998093E+01 0.  1.
       -5    1    3    3    0  502  0.56954311602E+03  0.47315469496E+03 -0.15265475995E+04  0.16966509335E+04  0.46999998093E+01 0. -1.
</event>
<event>
 5   0  0.5154476E-06  0.2819574E+04  0.7818609E-02  0.8297217E-01
       -1   -1    0    0    0  501  0.00000000000E+00  0.00000000000E+00  0.75040408179E+03  0.75040408181E+03  0.50400001928E-02 0. -1.
        1   -1    0    0  501    0  0.00000000000E+00  0.00000000000E+00 -0.26485721510E+04  0.26485721510E+04  0.50400001928E-02 0.  1.
    10030    2    1    2    0    0  0.00000000000E+00  0.00000000000E+00 -0.18981680692E+04  0.33989762328E+04  0.28195739771E+04 0.  0.
        3    1    3    3  502    0 -0.85882273092E+02  0.10956898590E+04  0.11529672401E+03  0.11050816154E+04  0.10100000352E+00 0. -1.
       -3    1    3    3    0  502  0.85882273092E+02 -0.10956898590E+04 -0.20134647932E+04  0.22938946174E+04  0.10100000352E+00 0.  1.
</event>
<event>
 5   0  0.1339837E-05  0.2769919E+04  0.7818609E-02  0.8312669E-01
        2   -1    0    0  501    0  0.00000000000E+00  0.00000000000E+00  0.81964166965E+03  0.81964166965E+03  0.25500000920E-02 0.  1.
       -2   -1    0    0    0  501  0.00000000000E+00  0.00000000000E+00 -0.23401841420E+04  0.23401841420E+04  0.25500000920E-02 0. -1.
    10030    2    1    2    0    0  0.00000000000E+00  0.00000000000E+00 -0.15205424723E+04  0.31598258116E+04  0.27699187262E+04 0.  0.
        5    1    3    3  502    0 -0.12689841871E+03 -0.49396012023E+03  0.70861154520E+03  0.87307057048E+03  0.46999998093E+01 0.  1.
       -5    1    3    3    0  502  0.12689841871E+03  0.49396012023E+03 -0.22291540175E+04  0.22867552411E+04  0.46999998093E+01 0. -1.
</event>
<event>
 5   0  0.1336899E-05  0.3352436E+04  0.7818609E-02  0.8149680E-01
       -2   -1    0    0    0  501  0.00000000000E+00  0.00000000000E+00  0.27859503911E+04  0.27859503911E+04  0.25500000920E-02 0.  1.
        2   -1    0    0  501    0  0.00000000000E+00  0.00000000000E+00 -0.10085274674E+04  0.10085274674E+04  0.25500000920E-02 0. -1.
    10030    2    1    2    0    0  0.00000000000E+00  0.00000000000E+00  0.17774229237E+04  0.37944778584E+04  0.33524364227E+04 0.  0.
        1    1    3    3  502    0 -0.35529475413E+03  0.36007001737E+03  0.26974960339E+04  0.27445162840E+04  0.50400001928E-02 0.  1.
       -1    1    3    3    0  502  0.35529475413E+03 -0.36007001737E+03 -0.92007311022E+03  0.10499615745E+04  0.50400001928E-02 0. -1.
</event>
<event>
 5   0  0.1336899E-05  0.2911512E+04  0.7818609E-02  0.8269460E-01
       -2   -1    0    0    0  501  0.00000000000E+00  0.00000000000E+00  0.12357363105E+04  0.12357363105E+04  0.25500000920E-02 0.  1.
        2   -1    0    0  501    0  0.00000000000E+00  0.00000000000E+00 -0.17149500493E+04  0.17149500493E+04  0.25500000920E-02 0. -1.
    10030    2    1    2    0    0  0.00000000000E+00  0.00000000000E+00 -0.47921373880E+03  0.29506863598E+04  0.29115123538E+04 0.  0.
        1    1    3    3  502    0  0.14108223660E+04 -0.17780641581E+03 -0.55555648523E+03  0.15266557825E+04  0.50400001928E-02 0. -1.
       -1    1    3    3    0  502 -0.14108223660E+04  0.17780641581E+03  0.76342746431E+02  0.14240305773E+04  0.50400001928E-02 0.  1.
</event>
<event>
 5   0  0.5352212E-06  0.2356505E+04  0.7818609E-02  0.8455969E-01
       -1   -1    0    0    0  501  0.00000000000E+00  0.00000000000E+00  0.80827890908E+03  0.80827890909E+03  0.50400001928E-02 0.  1.
        1   -1    0    0  501    0  0.00000000000E+00  0.00000000000E+00 -0.17175743548E+04  0.17175743549E+04  0.50400001928E-02 0. -1.
    10030    2    1    2    0    0  0.00000000000E+00  0.00000000000E+00 -0.90929544577E+03  0.25258532639E+04  0.23565051460E+04 0.  0.
        2    1    3    3  502    0 -0.92851636333E+03 -0.47111049127E+03 -0.10458188109E+04  0.14757454784E+04  0.25500000920E-02 0. -1.
       -2    1    3    3    0  502  0.92851636333E+03  0.47111049127E+03  0.13652336510E+03  0.10501077855E+04  0.25500000920E-02 0.  1.
</event>
<event>
 5   0  0.1339837E-05  0.2836637E+04  0.7818609E-02  0.8291984E-01
        2   -1    0    0  501    0  0.00000000000E+00  0.00000000000E+00  0.20698716925E+04  0.20698716925E+04  0.25500000920E-02 0.  1.
       -2   -1    0    0    0  501  0.00000000000E+00  0.00000000000E+00 -0.97186077270E+03  0.97186077271E+03  0.25500000920E-02 0. -1.
    10030    2    1    2    0    0  0.00000000000E+00  0.00000000000E+00  0.10980109198E+04  0.30417324652E+04  0.28366368132E+04 0.  0.
        5    1    3    3  502    0  0.98372884693E+03  0.59016606964E+03  0.14433253199E+04  0.18436996781E+04  0.46999998093E+01 0.  1.
       -5    1    3    3    0  502 -0.98372884693E+03 -0.59016606964E+03 -0.34531440009E+03  0.11980327871E+04  0.46999998093E+01 0. -1.
</event>
<event>
 5   0  0.1382803E-05  0.2899425E+04  0.7818609E-02  0.8273048E-01
        2   -1    0    0  501    0  0.00000000000E+00  0.00000000000E+00  0.25387273215E+04  0.25387273215E+04  0.25500000920E-02 0. -1.
       -2   -1    0    0    0  501  0.00000000000E+00  0.00000000000E+00 -0.82784269030E+03  0.82784269031E+03  0.25500000920E-02 0.  1.
    10030    2    1    2    0    0  0.00000000000E+00  0.00000000000E+00  0.17108846312E+04  0.33665700118E+04  0.28994253609E+04 0.  0.
        2    1    3    3  502    0  0.93584012170E+03  0.17919458730E+03 -0.41318519068E+03  0.10385708620E+04  0.25500000920E-02 0.  1.
       -2    1    3    3    0  502 -0.93584012170E+03 -0.17919458730E+03  0.21240698219E+04  0.23279991499E+04  0.25500000920E-02 0. -1.
</event>
<event>
 5   0  0.5261878E-06  0.2870193E+04  0.7818609E-02  0.8281801E-01
       -1   -1    0    0    0  501  0.00000000000E+00  0.00000000000E+00  0.12629692916E+04  0.12629692916E+04  0.50400001928E-02 0. -1.
        1   -1    0    0  501    0  0.00000000000E+00  0.00000000000E+00 -0.16306829611E+04  0.16306829611E+04  0.50400001928E-02 0.  1.
    10030    2    1    2    0    0  0.00000000000E+00  0.00000000000E+00 -0.36771366951E+03  0.28936522527E+04  0.28701933762E+04 0.  0.
        5    1    3    3  502    0  0.13418096909E+03  0.72668406086E+03 -0.14241173810E+04  0.16044334395E+04  0.46999998093E+01 0.  1.
       -5    1    3    3    0  502 -0.13418096909E+03 -0.72668406086E+03  0.10564037115E+04  0.12892188133E+04  0.46999998093E+01 0. -1.
</event>
<event>
 5   0  0.5002240E-06  0.2515484E+04  0.7818609E-02  0.8397490E-01
        1   -1    0    0  501    0  0.00000000000E+00  0.00000000000E+00  0.17069503361E+04  0.17069503361E+04  0.50400001928E-02 0.  1.
       -1   -1    0    0    0  501  0.00000000000E+00  0.00000000000E+00 -0.92674894399E+03  0.92674894401E+03  0.50400001928E-02 0. -1.
    10030    2    1    2    0    0  0.00000000000E+00  0.00000000000E+00  0.78020139211E+03  0.26336992801E+04  0.25154835889E+04 0.  0.
        4    1    3    3  502    0  0.11542542723E+04 -0.33062890921E+03  0.78226212550E+03  0.14330226958E+04  0.12699999809E+01 0.  1.
       -4    1    3    3    0  502 -0.11542542723E+04  0.33062890921E+03 -0.20607333836E+01  0.12006765844E+04  0.12699999809E+01 0. -1.
</event>
<event>
 5   0  0.5154476E-06  0.3086840E+04  0.7818609E-02  0.8219359E-01
       -1   -1    0    0    0  501  0.00000000000E+00  0.00000000000E+00  0.14969570159E+04  0.14969570159E+04  0.50400001928E-02 0. -1.
        1   -1    0    0  501    0  0.00000000000E+00  0.00000000000E+00 -0.15913252148E+04  0.15913252149E+04  0.50400001928E-02 0.  1.
    10030    2    1    2    0    0  0.00000000000E+00  0.00000000000E+00 -0.94368198914E+02  0.30882822308E+04  0.30868400963E+04 0.  0.
        3    1    3    3  502    0  0.15709548245E+03  0.41537721932E+03 -0.15260249398E+04  0.15893298437E+04  0.10100000352E+00 0.  1.
       -3    1    3    3    0  502 -0.15709548245E+03 -0.41537721932E+03  0.14316567409E+04  0.14989523871E+04  0.10100000352E+00 0. -1.
</event>
<event>
 5   0  0.5154476E-06  0.2858146E+04  0.7818609E-02  0.8285440E-01
        1   -1    0    0  501    0  0.00000000000E+00  0.00000000000E+00  0.14384699400E+04  0.14384699400E+04  0.50400001928E-02 0. -1.
       -1   -1    0    0    0  501  0.00000000000E+00  0.00000000000E+00 -0.14197370378E+04  0.14197370378E+04  0.50400001928E-02 0.  1.
    10030    2    1    2    0    0  0.00000000000E+00  0.00000000000E+00  0.18732902173E+02  0.28582069778E+04  0.28581455887E+04 0.  0.
        3    1    3    3  502    0 -0.70470582454E+03  0.59564050763E+03  0.11006511455E+04  0.14362558504E+04  0.10100000352E+00 0. -1.
       -3    1    3    3    0  502  0.70470582454E+03 -0.59564050763E+03 -0.10819182433E+04  0.14219511274E+04  0.10100000352E+00 0.  1.
</event>
<event>
 5   0  0.1382803E-05  0.2884578E+04  0.7818609E-02  0.8277481E-01
        2   -1    0    0  501    0  0.00000000000E+00  0.00000000000E+00  0.96157032166E+03  0.96157032167E+03  0.25500000920E-02 0.  1.
       -2   -1    0    0    0  501  0.00000000000E+00  0.00000000000E+00 -0.21633341664E+04  0.21633341664E+04  0.25500000920E-02 0. -1.
    10030    2    1    2    0    0  0.00000000000E+00  0.00000000000E+00 -0.12017638447E+04  0.31249044881E+04  0.28845782571E+04 0.  0.
        2    1    3    3  502    0 -0.10496669198E+04 -0.11925767551E+03  0.46285034081E+03  0.11533661490E+04  0.25500000920E-02 0.  1.
       -2    1    3    3    0  502  0.10496669198E+04  0.11925767551E+03 -0.16646141856E+04  0.19715383391E+04  0.25500000920E-02 0. -1.
</event>
<event>
 5   0  0.1382803E-05  0.2850907E+04  0.7818609E-02  0.8287636E-01
       -2   -1    0    0    0  501  0.00000000000E+00  0.00000000000E+00  0.12878720879E+04  0.12878720880E+04  0.25500000920E-02 0.  1.
        2   -1    0    0  501    0  0.00000000000E+00  0.00000000000E+00 -0.15777328307E+04  0.15777328307E+04  0.25500000920E-02 0. -1.
    10030    2    1    2    0    0  0.00000000000E+00  0.00000000000E+00 -0.28986074272E+03  0.28656049186E+04  0.28509072765E+04 0.  0.
        2    1    3    3  502    0  0.57130297671E+03 -0.13026865189E+04 -0.23781248262E+03  0.14421976406E+04  0.25500000920E-02 0.  1.
       -2    1    3    3    0  502 -0.57130297671E+03  0.13026865189E+04 -0.52048260105E+02  0.14234072780E+04  0.25500000920E-02 0. -1.
</event>
<event>
 5   0  0.5002240E-06  0.2904679E+04  0.7818609E-02  0.8271487E-01
        1   -1    0    0  501    0  0.00000000000E+00  0.00000000000E+00  0.20060622530E+04  0.20060622530E+04  0.50400001928E-02 0.  1.
       -1   -1    0    0    0  501  0.00000000000E+00  0.00000000000E+00 -0.10514578348E+04  0.10514578348E+04  0.50400001928E-02 0. -1.
    10030    2    1    2    0    0  0.00000000000E+00  0.00000000000E+00  0.95460441820E+03  0.30575200879E+04  0.29046788966E+04 0.  0.
        4    1    3    3  502    0 -0.13850033599E+04 -0.31531137793E+03  0.79593935491E+03  0.16282434221E+04  0.12699999809E+01 0.  1.
       -4    1    3    3    0  502  0.13850033599E+04  0.31531137793E+03  0.15866506329E+03  0.14292766658E+04  0.12699999809E+01 0. -1.
</event>
<event>
 5   0  0.5059249E-06  0.2823860E+04  0.7818609E-02  0.8295899E-01
        1   -1    0    0  501    0  0.00000000000E+00  0.00000000000E+00  0.15714898154E+04  0.15714898154E+04  0.50400001928E-02 0.  1.
       -1   -1    0    0    0  501  0.00000000000E+00  0.00000000000E+00 -0.12685713921E+04  0.12685713921E+04  0.50400001928E-02 0. -1.
    10030    2    1    2    0    0  0.00000000000E+00  0.00000000000E+00  0.30291842324E+03  0.28400612075E+04  0.28238604943E+04 0.  0.
        1    1    3    3  502    0 -0.28649712350E+03  0.99384683314E+03  0.11180844642E+04  0.15231300006E+04  0.50400001928E-02 0.  1.
       -1    1    3    3    0  502  0.28649712350E+03 -0.99384683314E+03 -0.81516604095E+03  0.13169312070E+04  0.50400001928E-02 0. -1.
</event>
<event>
 5   0  0.5059249E-06  0.2926649E+04  0.7818609E-02  0.8264993E-01
       -1   -1    0    0    0  501  0.00000000000E+00  0.00000000000E+00  0.14619309981E+04  0.14619309981E+04  0.50400001928E-02 0. -1.
        1   -1    0    0  501    0  0.00000000000E+00  0.00000000000E+00 -0.14647190606E+04  0.14647190606E+04  0.50400001928E-02 0.  1.
    10030    2    1    2    0    0  0.00000000000E+00  0.00000000000E+00 -0.27880624372E+01  0.29266500587E+04  0.29266487307E+04 0.  0.
        1    1    3    3  502    0 -0.34800589964E+03  0.63372474012E+03 -0.12736379208E+04  0.14645370278E+04  0.50400001928E-02 0.  1.
       -1    1    3    3    0  502  0.34800589964E+03 -0.63372474012E+03  0.12708498584E+04  0.14621130309E+04  0.50400001928E-02 0. -1.
</event>
<event>
 5   0  0.4590125E-06  0.2854249E+04  0.7818609E-02  0.8286621E-01
       -3   -1    0    0    0  501  0.00000000000E+00  0.00000000000E+00  0.20313921323E+04  0.20313921348E+04  0.10100000352E+00 0. -1.
        3   -1    0    0  501    0  0.00000000000E+00  0.00000000000E+00 -0.10026052676E+04  0.10026052727E+04  0.10100000352E+00 0.  1.
    10030    2    1    2    0    0  0.00000000000E+00  0.00000000000E+00  0.10287868646E+04  0.30339974075E+04  0.28542490880E+04 0.  0.
        3    1    3    3  502    0 -0.23577847879E+03  0.10924363504E+04  0.14577960590E+04  0.18368935817E+04  0.10100000352E+00 0. -1.
       -3    1    3    3    0  502  0.23577847879E+03 -0.10924363504E+04 -0.42900919440E+03  0.11971038258E+04  0.10100000352E+00 0.  1.
</event>
<event>
 5   0  0.5261878E-06  0.2845944E+04  0.7818609E-02  0.8289145E-01
        1   -1    0    0  501    0  0.00000000000E+00  0.00000000000E+00  0.12045471101E+04  0.12045471101E+04  0.50400001928E-02 0.  1.
       -1   -1    0    0    0  501  0.00000000000E+00  0.00000000000E+00 -0.16810052282E+04  0.16810052282E+04  0.50400001928E-02 0. -1.
    10030    2    1    2    0    0  0.00000000000E+00  0.00000000000E+00 -0.47645811813E+03  0.28855523383E+04  0.28459444757E+04 0.  0.
        5    1    3    3  502    0  0.28135223081E+03  0.16529098529E+03 -0.16425494356E+04  0.16746554648E+04  0.46999998093E+01 0. -1.
       -5    1    3    3    0  502 -0.28135223081E+03 -0.16529098529E+03  0.11660913175E+04  0.12108968735E+04  0.46999998093E+01 0.  1.
</event>
<event>
 5   0  0.1307832E-05  0.2893757E+04  0.7818609E-02  0.8274737E-01
        2   -1    0    0  501    0  0.00000000000E+00  0.00000000000E+00  0.19817975120E+04  0.19817975120E+04  0.25500000920E-02 0. -1.
       -2   -1    0    0    0  501  0.00000000000E+00  0.00000000000E+00 -0.10563428542E+04  0.10563428542E+04  0.25500000920E-02 0.  1.
    10030    2    1    2    0    0  0.00000000000E+00  0.00000000000E+00  0.92545465774E+03  0.30381403662E+04  0.28937571704E+04 0.  0.
        4    1    3    3  502    0  0.12704669200E+04 -0.50206719696E+03 -0.37818565877E+02  0.13665977908E+04  0.12699999809E+01 0.  1.
       -4    1    3    3    0  502 -0.12704669200E+04  0.50206719696E+03  0.96327322361E+03  0.16715425754E+04  0.12699999809E+01 0. -1.
</event>
<event>
 5   0  0.1385669E-05  0.2431424E+04  0.7818609E-02  0.8427832E-01
       -2   -1    0    0    0  501  0.00000000000E+00  0.00000000000E+00  0.10024421942E+04  0.10024421942E+04  0.25500000920E-02 0.  1.
        2   -1    0    0  501    0  0.00000000000E+00  0.00000000000E+00 -0.14743553430E+04  0.14743553430E+04  0.25500000920E-02 0. -1.
    10030    2    1    2    0    0  0.00000000000E+00  0.00000000000E+00 -0.47191314879E+03  0.24767975371E+04  0.24314242781E+04 0.  0.
        3    1    3    3  502    0 -0.52932040407E+03  0.90275954105E+03  0.39429850684E+03  0.11183139996E+04  0.10100000352E+00 0.  1.
       -3    1    3    3    0  502  0.52932040407E+03 -0.90275954105E+03 -0.86621165562E+03  0.13584835375E+04  0.10100000352E+00 0. -1.
</event>
<event>
 5   0  0.1336899E-05  0.2677244E+04  0.7818609E-02  0.8342426E-01
       -2   -1    0    0    0  501  0.00000000000E+00  0.00000000000E+00  0.11034229931E+04  0.11034229931E+04  0.25500000920E-02 0.  1.
        2   -1    0    0  501    0  0.00000000000E+00  0.00000000000E+00 -0.16239549145E+04  0.16239549145E+04  0.25500000920E-02 0. -1.
    10030    2    1    2    0    0  0.00000000000E+00  0.00000000000E+00 -0.52053192145E+03  0.27273779076E+04  0.26772442492E+04 0.  0.
        1    1    3    3  502    0  0.76947205153E+03  0.23805291202E+03  0.82893862113E+03  0.11558095278E+04  0.50400001928E-02 0.  1.
       -1    1    3    3    0  502 -0.76947205153E+03 -0.23805291202E+03 -0.13494705426E+04  0.15715683798E+04  0.50400001928E-02 0. -1.
</event>
<event>
 5   0  0.1385669E-05  0.2939795E+04  0.7818609E-02  0.8261135E-01
       -2   -1    0    0    0  501  0.00000000000E+00  0.00000000000E+00  0.14680521033E+04  0.14680521033E+04  0.25500000920E-02 0.  1.
        2   -1    0    0  501    0  0.00000000000E+00  0.00000000000E+00 -0.14717456412E+04  0.14717456412E+04  0.25500000920E-02 0. -1.
    10030    2    1    2    0    0  0.00000000000E+00  0.00000000000E+00 -0.36935379015E+01  0.29397977444E+04  0.29397954242E+04 0.  0.
        3    1    3    3  502    0 -0.65235305319E+03  0.33643149213E+03  0.12716724414E+04  0.14682988331E+04  0.10100000352E+00 0.  1.
       -3    1    3    3    0  502  0.65235305319E+03 -0.33643149213E+03 -0.12753659793E+04  0.14714989114E+04  0.10100000352E+00 0. -1.
</event>
<event>
 5   0  0.1339837E-05  0.2894409E+04  0.7818609E-02  0.8274543E-01
        2   -1    0    0  501    0  0.00000000000E+00  0.00000000000E+00  0.16606882476E+04  0.16606882476E+04  0.25500000920E-02 0.  1.
       -2   -1    0    0    0  501  0.00000000000E+00  0.00000000000E+00 -0.12611647890E+04  0.12611647890E+04  0.25500000920E-02 0. -1.
    10030    2    1    2    0    0  0.00000000000E+00  0.00000000000E+00  0.39952345865E+03  0.29218530366E+04  0.28944094689E+04 0.  0.
        5    1    3    3  502    0  0.14110378591E+04  0.12654545999E+03  0.49809361379E+03  0.15017193251E+04  0.46999998093E+01 0.  1.
       -5    1    3    3    0  502 -0.14110378591E+04 -0.12654545999E+03 -0.98570155133E+02  0.14201337115E+04  0.46999998093E+01 0. -1.
</event>
<event>
 5   0  0.1339837E-05  0.2847211E+04  0.7818609E-02  0.8288759E-01
        2   -1    0    0  501    0  0.00000000000E+00  0.00000000000E+00  0.15259314080E+04  0.15259314080E+04  0.25500000920E-02 0. -1.
       -2   -1    0    0    0  501  0.00000000000E+00  0.00000000000E+00 -0.13281417815E+04  0.13281417815E+04  0.25500000920E-02 0.  1.
    10030    2    1    2    0    0  0.00000000000E+00  0.00000000000E+00  0.19778962654E+03  0.28540731895E+04  0.28472114489E+04 0.  0.
        5    1    3    3  502    0 -0.58533227792E+03 -0.55136124517E+03  0.12764676284E+04  0.15086433623E+04  0.46999998093E+01 0. -1.
       -5    1    3    3    0  502  0.58533227792E+03  0.55136124517E+03 -0.10786780019E+04  0.13454298272E+04  0.46999998093E+01 0.  1.
</event>
<event>
 5   0  0.5059249E-06  0.2455927E+04  0.7818609E-02  0.8418857E-01
        1   -1    0    0  501    0  0.00000000000E+00  0.00000000000E+00  0.14950397952E+04  0.14950397952E+04  0.50400001928E-02 0.  1.
       -1   -1    0    0    0  501  0.00000000000E+00  0.00000000000E+00 -0.10085981995E+04  0.10085981995E+04  0.50400001928E-02 0. -1.
    10030    2    1    2    0    0  0.00000000000E+00  0.00000000000E+00  0.48644159567E+03  0.25036379947E+04  0.24559270719E+04 0.  0.
        1    1    3    3  502    0 -0.86798123995E+03  0.18817750804E+03 -0.62124609975E+03  0.10838583505E+04  0.50400001928E-02 0. -1.
       -1    1    3    3    0  502  0.86798123995E+03 -0.18817750804E+03  0.11076876954E+04  0.14197796442E+04  0.50400001928E-02 0.  1.
</event>
<event>
 5   0  0.1307832E-05  0.2941419E+04  0.7818609E-02  0.8260660E-01
       -2   -1    0    0    0  501  0.00000000000E+00  0.00000000000E+00  0.17825455640E+04  0.17825455640E+04  0.25500000920E-02 0. -1.
        2   -1    0    0  501    0  0.00000000000E+00  0.00000000000E+00 -0.12134255173E+04  0.12134255173E+04  0.25500000920E-02 0.  1.
    10030    2    1    2    0    0  0.00000000000E+00  0.00000000000E+00  0.56912004671E+03  0.29959710813E+04  0.29414188910E+04 0.  0.
        4    1    3    3  502    0 -0.10698517261E+04  0.10085779456E+04  0.31943644763E+03  0.15046107288E+04  0.12699999809E+01 0. -1.
       -4    1    3    3    0  502  0.10698517261E+04 -0.10085779456E+04  0.24968359908E+03  0.14913603524E+04  0.12699999809E+01 0.  1.
</event>
<event>
 5   0  0.5154476E-06  0.2935064E+04  0.7818609E-02  0.8262521E-01
       -1   -1    0    0    0  501  0.00000000000E+00  0.00000000000E+00  0.15052824925E+04  0.15052824925E+04  0.50400001928E-02 0. -1.
        1   -1    0    0  501    0  0.00000000000E+00  0.00000000000E+00 -0.14307279251E+04  0.14307279251E+04  0.50400001928E-02 0.  1.
    10030    2    1    2    0    0  0.00000000000E+00  0.00000000000E+00  0.74554567379E+02  0.29360104176E+04  0.29350636771E+04 0.  0.
        3    1    3    3  502    0  0.12705354683E+04  0.72512520177E+03  0.15385994276E+03  0.14709656103E+04  0.10100000352E+00 0.  1.
       -3    1    3    3    0  502 -0.12705354683E+04 -0.72512520177E+03 -0.79305375384E+02  0.14650448073E+04  0.10100000352E+00 0. -1.
</event>
<event>
 5   0  0.5352212E-06  0.2921836E+04  0.7818609E-02  0.8266410E-01
        1   -1    0    0  501    0  0.00000000000E+00  0.00000000000E+00  0.13546312960E+04  0.13546312960E+04  0.50400001928E-02 0.  1.
       -1   -1    0    0    0  501  0.00000000000E+00  0.00000000000E+00 -0.15755443517E+04  0.15755443517E+04  0.50400001928E-02 0. -1.
    10030    2    1    2    0    0  0.00000000000E+00  0.00000000000E+00 -0.22091305568E+03  0.29301756477E+04  0.29218361946E+04 0.  0.
        2    1    3    3  502    0 -0.97078636577E+03 -0.84173360775E+03 -0.80766745096E+03  0.15176522480E+04  0.25500000920E-02 0. -1.
       -2    1    3    3    0  502  0.97078636577E+03  0.84173360775E+03  0.58675439528E+03  0.14125233997E+04  0.25500000920E-02 0.  1.
</event>
<event>
 5   0  0.5002240E-06  0.2563450E+04  0.7818609E-02  0.8380723E-01
        1   -1    0    0  501    0  0.00000000000E+00  0.00000000000E+00  0.14729440260E+04  0.14729440260E+04  0.50400001928E-02 0. -1.
       -1   -1    0    0    0  501  0.00000000000E+00  0.00000000000E+00 -0.11153303619E+04  0.11153303619E+04  0.50400001928E-02 0.  1.
    10030    2    1    2    0    0  0.00000000000E+00  0.00000000000E+00  0.35761366404E+03  0.25882743879E+04  0.25634501700E+04 0.  0.
        4    1    3    3  502    0 -0.24633564945E+03  0.43563353688E+03 -0.10126029601E+04  0.11295238813E+04  0.12699999809E+01 0.  1.
       -4    1    3    3    0  502  0.24633564945E+03 -0.43563353688E+03  0.13702166241E+04  0.14587505066E+04  0.12699999809E+01 0. -1.
</event>
<event>
 5   0  0.1307832E-05  0.2892072E+04  0.7818609E-02  0.8275240E-01
       -2   -1    0    0    0  501  0.00000000000E+00  0.00000000000E+00  0.31102496837E+04  0.31102496837E+04  0.25500000920E-02 0. -1.
        2   -1    0    0  501    0  0.00000000000E+00  0.00000000000E+00 -0.67229975036E+03  0.67229975036E+03  0.25500000920E-02 0.  1.
    10030    2    1    2    0    0  0.00000000000E+00  0.00000000000E+00  0.24379499333E+04  0.37825494341E+04  0.28920719811E+04 0.  0.
        4    1    3    3  502    0  0.64343276631E+03 -0.62980952333E+03 -0.26095214898E+03  0.93742380884E+03  0.12699999809E+01 0.  1.
       -4    1    3    3    0  502 -0.64343276631E+03  0.62980952333E+03  0.26989020823E+04  0.28451256252E+04  0.12699999809E+01 0. -1.
</event>
<event>
 5   0  0.5261878E-06  0.2910435E+04  0.7818609E-02  0.8269780E-01
       -1   -1    0    0    0  501  0.00000000000E+00  0.00000000000E+00  0.11463527987E+04  0.11463527987E+04  0.50400001928E-02 0.  1.
        1   -1    0    0  501    0  0.00000000000E+00  0.00000000000E+00 -0.18473003639E+04  0.18473003639E+04  0.50400001928E-02 0. -1.
    10030    2    1    2    0    0  0.00000000000E+00  0.00000000000E+00 -0.70094756517E+03  0.29936531626E+04  0.29104349793E+04 0.  0.
        5    1    3    3  502    0 -0.47249055045E+03 -0.83812575609E+03 -0.14734476233E+04  0.17597647831E+04  0.46999998093E+01 0. -1.
       -5    1    3    3    0  502  0.47249055045E+03  0.83812575609E+03  0.77250005812E+03  0.12338883795E+04  0.46999998093E+01 0.  1.
</event>
<event>
 5   0  0.5154476E-06  0.2805918E+04  0.7818609E-02  0.8301434E-01
        1   -1    0    0  501    0  0.00000000000E+00  0.00000000000E+00  0.13741325441E+04  0.13741325441E+04  0.50400001928E-02 0. -1.
       -1   -1    0    0    0  501  0.00000000000E+00  0.00000000000E+00 -0.14323898630E+04  0.14323898630E+04  0.50400001928E-02 0.  1.
    10030    2    1    2    0    0  0.00000000000E+00  0.00000000000E+00 -0.58257318860E+02  0.28065224071E+04  0.28059176941E+04 0.  0.
        3    1    3    3  502    0  0.10356391342E+04  0.42798100223E+02 -0.97480236895E+03  0.14228913389E+04  0.10100000352E+00 0.  1.
       -3    1    3    3    0  502 -0.10356391342E+04 -0.42798100223E+02  0.91654505009E+03  0.13836310682E+04  0.10100000352E+00 0. -1.
</event>
<event>
 5   0  0.5261878E-06  0.2944875E+04  0.7818609E-02  0.8259650E-01
       -1   -1    0    0    0  501  0.00000000000E+00  0.00000000000E+00  0.17921945622E+04  0.17921945622E+04  0.50400001928E-02 0. -1.
        1   -1    0    0  501    0  0.00000000000E+00  0.00000000000E+00 -0.12097305922E+04  0.12097305922E+04  0.50400001928E-02 0.  1.
    10030    2    1    2    0    0  0.00000000000E+00  0.00000000000E+00  0.58246397003E+03  0.30019251545E+04  0.29448752701E+04 0.  0.
        5    1    3    3  502    0  0.71833123206E+02 -0.11370760121E+04 -0.65954741340E+03  0.13164827136E+04  0.46999998093E+01 0.  1.
       -5    1    3    3    0  502 -0.71833123206E+02  0.11370760121E+04  0.12420113834E+04  0.16854424408E+04  0.46999998093E+01 0. -1.
</event>
<event>
 5   0  0.1339837E-05  0.2905751E+04  0.7818609E-02  0.8271168E-01
       -2   -1    0    0    0  501  0.00000000000E+00  0.00000000000E+00  0.95634978856E+03  0.95634978856E+03  0.25500000920E-02 0. -1.
        2   -1    0    0  501    0  0.00000000000E+00  0.00000000000E+00 -0.22071913902E+04  0.22071913902E+04  0.25500000920E-02 0.  1.
    10030    2    1    2    0    0  0.00000000000E+00  0.00000000000E+00 -0.12508416016E+04  0.31635411788E+04  0.29057508629E+04 0.  0.
        5    1    3    3  502    0 -0.14236454575E+04 -0.26315067155E+03 -0.75791489648E+03  0.16341578091E+04  0.46999998093E+01 0. -1.
       -5    1    3    3    0  502  0.14236454575E+04  0.26315067155E+03 -0.49292670516E+03  0.15293833697E+04  0.46999998093E+01 0.  1.
</event>
<event>
 5   0  0.1336899E-05  0.2689795E+04  0.7818609E-02  0.8338324E-01
        2   -1    0    0  501    0  0.00000000000E+00  0.00000000000E+00  0.19135074231E+04  0.19135074231E+04  0.25500000920E-02 0. -1.
       -2   -1    0    0    0  501  0.00000000000E+00  0.00000000000E+00 -0.94525315430E+03  0.94525315430E+03  0.25500000920E-02 0.  1.
    10030    2    1    2    0    0  0.00000000000E+00  0.00000000000E+00  0.96825426882E+03  0.28587605774E+04  0.26897947338E+04 0.  0.
        1    1    3    3  502    0 -0.91682570933E+03  0.98261729889E+03  0.53876452886E+03  0.14478858225E+04  0.50400001928E-02 0.  1.
       -1    1    3    3    0  502  0.91682570933E+03 -0.98261729889E+03  0.42948973996E+03  0.14108747549E+04  0.50400001928E-02 0. -1.
</event>
<event>
 5   0  0.5352212E-06  0.2906939E+04  0.7818609E-02  0.8270816E-01
       -1   -1    0    0    0  501  0.00000000000E+00  0.00000000000E+00  0.11354833348E+04  0.11354833348E+04  0.50400001928E-02 0.  1.
        1   -1    0    0  501    0  0.00000000000E+00  0.00000000000E+00 -0.18605066364E+04  0.18605066364E+04  0.50400001928E-02 0. -1.
    10030    2    1    2    0    0  0.00000000000E+00  0.00000000000E+00 -0.72502330159E+03  0.29959899712E+04  0.29069394764E+04 0.  0.
        2    1    3    3  502    0 -0.83988335564E+03  0.98842169528E+03  0.31347158356E+03  0.13344084579E+04  0.25500000920E-02 0.  1.
       -2    1    3    3    0  502  0.83988335564E+03 -0.98842169528E+03 -0.10384948851E+04  0.16615815133E+04  0.25500000920E-02 0. -1.
</event>
<event>
 5   0  0.1339837E-05  0.2924331E+04  0.7818609E-02  0.8265675E-01
       -2   -1    0    0    0  501  0.00000000000E+00  0.00000000000E+00  0.16096156996E+04  0.16096156996E+04  0.25500000920E-02 0.  1.
        2   -1    0    0  501    0  0.00000000000E+00  0.00000000000E+00 -0.13282225656E+04  0.13282225656E+04  0.25500000920E-02 0. -1.
    10030    2    1    2    0    0  0.00000000000E+00  0.00000000000E+00  0.28139313405E+03  0.29378382652E+04  0.29243309623E+04 0.  0.
        5    1    3    3  502    0 -0.25019965164E+03 -0.25194290381E+03  0.15656382063E+04  0.16054034308E+04  0.46999998093E+01 0.  1.
       -5    1    3    3    0  502  0.25019965164E+03  0.25194290381E+03 -0.12842450723E+04  0.13324348345E+04  0.46999998093E+01 0. -1.
</event>
<event>
 5   0  0.1336899E-05  0.2920195E+04  0.7818609E-02  0.8266894E-01
       -2   -1    0    0    0  501  0.00000000000E+00  0.00000000000E+00  0.10429738195E+04  0.10429738195E+04  0.25500000920E-02 0. -1.
        2   -1    0    0  501    0  0.00000000000E+00  0.00000000000E+00 -0.20440438197E+04  0.20440438197E+04  0.25500000920E-02 0.  1.
    10030    2    1    2    0    0  0.00000000000E+00  0.00000000000E+00 -0.10010700001E+04  0.30870176392E+04  0.29201946441E+04 0.  0.
        1    1    3    3  502    0  0.28445085880E+01 -0.16286204418E+03 -0.20344089614E+04  0.20409193906E+04  0.50400001928E-02 0.  1.
       -1    1    3    3    0  502 -0.28445085880E+01  0.16286204418E+03  0.10333389613E+04  0.10460982486E+04  0.50400001928E-02 0. -1.
</event>
<event>
 5   0  0.4590125E-06  0.3077840E+04  0.7818609E-02  0.8221846E-01
        3   -1    0    0  501    0  0.00000000000E+00  0.00000000000E+00  0.22059463848E+04  0.22059463871E+04  0.10100000352E+00 0.  1.
       -3   -1    0    0    0  501  0.00000000000E+00  0.00000000000E+00 -0.10735865359E+04  0.10735865407E+04  0.10100000352E+00 0. -1.
    10030    2    1    2    0    0  0.00000000000E+00  0.00000000000E+00  0.11323598489E+04  0.32795329278E+04  0.30778397289E+04 0.  0.
        4    1    3    3  502    0  0.14535099893E+04 -0.47758416997E+03  0.74286153130E+03  0.17007712356E+04  0.12699999809E+01 0. -1.
       -4    1    3    3    0  502 -0.14535099893E+04  0.47758416997E+03  0.38949831756E+03  0.15787616922E+04  0.12699999809E+01 0.  1.
</event>
<event>
 5   0  0.1336899E-05  0.1833257E+04  0.7818609E-02  0.8688811E-01
       -2   -1    0    0    0  501  0.00000000000E+00  0.00000000000E+00  0.16767682522E+04  0.16767682522E+04  0.25500000920E-02 0. -1.
        2   -1    0    0  501    0  0.00000000000E+00  0.00000000000E+00 -0.50108736695E+03  0.50108736696E+03  0.25500000920E-02 0.  1.
    10030    2    1    2    0    0  0.00000000000E+00  0.00000000000E+00  0.11756808853E+04  0.21778556192E+04  0.18332565434E+04 0.  0.
        1    1    3    3  502    0 -0.26122227187E+03 -0.54012176422E+03  0.14110956007E+04  0.15333490763E+04  0.50400001928E-02 0. -1.
       -1    1    3    3    0  502  0.26122227187E+03  0.54012176422E+03 -0.23541471545E+03  0.64450654285E+03  0.50400001928E-02 0.  1.
</event>
<event>
 5   0  0.1385669E-05  0.2706874E+04  0.7818609E-02  0.8332778E-01
        2   -1    0    0  501    0  0.00000000000E+00  0.00000000000E+00  0.17156646045E+04  0.17156646045E+04  0.25500000920E-02 0. -1.
       -2   -1    0    0    0  501  0.00000000000E+00  0.00000000000E+00 -0.10676862316E+04  0.10676862316E+04  0.25500000920E-02 0.  1.
    10030    2    1    2    0    0  0.00000000000E+00  0.00000000000E+00  0.64797837297E+03  0.27833508361E+04  0.27068738251E+04 0.  0.
        3    1    3    3  502    0  0.40136105368E+02 -0.36666571181E+03  0.16629848289E+04  0.17034004821E+04  0.10100000352E+00 0. -1.
       -3    1    3    3    0  502 -0.40136105368E+02  0.36666571181E+03 -0.10150064559E+04  0.10799503539E+04  0.10100000352E+00 0.  1.
</event>
<event>
 5   0  0.5002240E-06  0.2866785E+04  0.7818609E-02  0.8282829E-01
        1   -1    0    0  501    0  0.00000000000E+00  0.00000000000E+00  0.28342572833E+04  0.28342572834E+04  0.50400001928E-02 0.  1.
       -1   -1    0    0    0  501  0.00000000000E+00  0.00000000000E+00 -0.72492154305E+03  0.72492154307E+03  0.50400001928E-02 0. -1.
    10030    2    1    2    0    0  0.00000000000E+00  0.00000000000E+00  0.21093357403E+04  0.35591788264E+04  0.28667850727E+04 0.  0.
        4    1    3    3  502    0  0.77381920472E+03 -0.18762365336E+03  0.25344326355E+04  0.26565671823E+04  0.12699999809E+01 0.  1.
       -4    1    3    3    0  502 -0.77381920472E+03  0.18762365336E+03 -0.42509689525E+03  0.90261164415E+03  0.12699999809E+01 0. -1.
</event>
<event>
 5   0  0.5002240E-06  0.2818237E+04  0.7818609E-02  0.8297629E-01
        1   -1    0    0  501    0  0.00000000000E+00  0.00000000000E+00  0.17471581397E+04  0.17471581397E+04  0.50400001928E-02 0. -1.
       -1   -1    0    0    0  501  0.00000000000E+00  0.00000000000E+00 -0.11364830579E+04  0.11364830579E+04  0.50400001928E-02 0.  1.
    10030    2    1    2    0    0  0.00000000000E+00  0.00000000000E+00  0.61067508182E+03  0.28836411977E+04  0.28182374814E+04 0.  0.
        4    1    3    3  502    0 -0.76867633428E+03 -0.60067402548E+03  0.13457645120E+04  0.16621541224E+04  0.12699999809E+01 0. -1.
       -4    1    3    3    0  502  0.76867633428E+03  0.60067402548E+03 -0.73508943022E+03  0.12214870753E+04  0.12699999809E+01 0.  1.
</event>
<event>
 5   0  0.5059249E-06  0.2854141E+04  0.7818609E-02  0.8286654E-01
        1   -1    0    0  501    0  0.00000000000E+00  0.00000000000E+00  0.18831672171E+04  0.18831672171E+04  0.50400001928E-02 0.  1.
       -1   -1    0    0    0  501  0.00000000000E+00  0.00000000000E+00 -0.10814392141E+04  0.10814392141E+04  0.50400001928E-02 0. -1.
    10030    2    1    2    0    0  0.00000000000E+00  0.00000000000E+00  0.80172800302E+03  0.29646064313E+04  0.28541414649E+04 0.  0.
        1    1    3    3  502    0  0.10250143899E+04 -0.89028670686E+03  0.85749903775E+03  0.16057924896E+04  0.50400001928E-02 0. -1.
       -1    1    3    3    0  502 -0.10250143899E+04  0.89028670686E+03 -0.55771034731E+02  0.13588139417E+04  0.50400001928E-02 0.  1.
</event>
<event>
 5   0  0.1339837E-05  0.2852260E+04  0.7818609E-02  0.8287225E-01
       -2   -1    0    0    0  501  0.00000000000E+00  0.00000000000E+00  0.84490616262E+03  0.84490616262E+03  0.25500000920E-02 0. -1.
        2   -1    0    0  501    0  0.00000000000E+00  0.00000000000E+00 -0.24071871410E+04  0.24071871410E+04  0.25500000920E-02 0.  1.
    10030    2    1    2    0    0  0.00000000000E+00  0.00000000000E+00 -0.15622809784E+04  0.32520933037E+04  0.28522603318E+04 0.  0.
        5    1    3    3  502    0  0.95120307828E+02  0.23346428508E+03  0.81929029536E+03  0.85721183114E+03  0.46999998093E+01 0. -1.
       -5    1    3    3    0  502 -0.95120307828E+02 -0.23346428508E+03 -0.23815712738E+04  0.23948814725E+04  0.46999998093E+01 0.  1.
</event>
<event>
 5   0  0.5059249E-06  0.2898473E+04  0.7818609E-02  0.8273332E-01
       -1   -1    0    0    0  501  0.00000000000E+00  0.00000000000E+00  0.14948623724E+04  0.14948623724E+04  0.50400001928E-02 0.  1.
        1   -1    0    0  501    0  0.00000000000E+00  0.00000000000E+00 -0.14050028384E+04  0.14050028384E+04  0.50400001928E-02 0. -1.
    10030    2    1    2    0    0  0.00000000000E+00  0.00000000000E+00  0.89859533993E+02  0.28998652107E+04  0.28984726158E+04 0.  0.
        1    1    3    3  502    0 -0.12014541080E+04 -0.57523177064E+03 -0.52622306072E+03  0.14322340149E+04  0.50400001928E-02 0.  1.
       -1    1    3    3    0  502  0.12014541080E+04  0.57523177064E+03  0.61608259471E+03  0.14676311959E+04  0.50400001928E-02 0. -1.
</event>
<event>
 5   0  0.4590125E-06  0.2908626E+04  0.7818609E-02  0.8270316E-01
       -3   -1    0    0    0  501  0.00000000000E+00  0.00000000000E+00  0.10107789090E+04  0.10107789141E+04  0.10100000352E+00 0.  1.
        3   -1    0    0  501    0  0.00000000000E+00  0.00000000000E+00 -0.20924712638E+04  0.20924712663E+04  0.10100000352E+00 0. -1.
    10030    2    1    2    0    0  0.00000000000E+00  0.00000000000E+00 -0.10816923548E+04  0.31032501803E+04  0.29086256774E+04 0.  0.
        1    1    3    3  502    0 -0.89376881325E+03 -0.29493488794E+03 -0.17237328959E+04  0.19639410317E+04  0.50400001928E-02 0. -1.
       -1    1    3    3    0  502  0.89376881325E+03  0.29493488794E+03  0.64204054109E+03  0.11393091486E+04  0.50400001928E-02 0.  1.
</event>
<event>
 5   0  0.1339837E-05  0.2881388E+04  0.7818609E-02  0.8278437E-01
       -2   -1    0    0    0  501  0.00000000000E+00  0.00000000000E+00  0.30458888491E+04  0.30458888491E+04  0.25500000920E-02 0.  1.
        2   -1    0    0  501    0  0.00000000000E+00  0.00000000000E+00 -0.68144292994E+03  0.68144292994E+03  0.25500000920E-02 0. -1.
    10030    2    1    2    0    0  0.00000000000E+00  0.00000000000E+00  0.23644459191E+04  0.37273317790E+04  0.28813881527E+04 0.  0.
        5    1    3    3  502    0  0.47182443179E+03  0.10664517465E+04  0.22765408550E+04  0.25578502647E+04  0.46999998093E+01 0.  1.
       -5    1    3    3    0  502 -0.47182443179E+03 -0.10664517465E+04  0.87905064131E+02  0.11694815143E+04  0.46999998093E+01 0. -1.
</event>
<event>
 5   0  0.1336899E-05  0.2688744E+04  0.7818609E-02  0.8338666E-01
        2   -1    0    0  501    0  0.00000000000E+00  0.00000000000E+00  0.13939933618E+04  0.13939933618E+04  0.25500000920E-02 0.  1.
       -2   -1    0    0    0  501  0.00000000000E+00  0.00000000000E+00 -0.12965166950E+04  0.12965166950E+04  0.25500000920E-02 0. -1.
    10030    2    1    2    0    0  0.00000000000E+00  0.00000000000E+00  0.97476666863E+02  0.26905100568E+04  0.26887436964E+04 0.  0.
        1    1    3    3  502    0  0.37054438150E+03  0.16720247331E+03 -0.12335385792E+04  0.12987983801E+04  0.50400001928E-02 0. -1.
       -1    1    3    3    0  502 -0.37054438150E+03 -0.16720247331E+03  0.13310152461E+04  0.13917116767E+04  0.50400001928E-02 0.  1.
</event>
<event>
 5   0  0.1307832E-05  0.2871770E+04  0.7818609E-02  0.8281327E-01
       -2   -1    0    0    0  501  0.00000000000E+00  0.00000000000E+00  0.14682114588E+04  0.14682114588E+04  0.25500000920E-02 0.  1.
        2   -1    0    0  501    0  0.00000000000E+00  0.00000000000E+00 -0.14042703110E+04  0.14042703110E+04  0.25500000920E-02 0. -1.
    10030    2    1    2    0    0  0.00000000000E+00  0.00000000000E+00  0.63941147760E+02  0.28724817698E+04  0.28717700200E+04 0.  0.
        4    1    3    3  502    0 -0.12820440810E+04 -0.60909036120E+03 -0.18519163010E+03  0.14314068767E+04  0.12699999809E+01 0. -1.
       -4    1    3    3    0  502  0.12820440810E+04  0.60909036120E+03  0.24913277786E+03  0.14410748932E+04  0.12699999809E+01 0.  1.
</event>
<event>
 5   0  0.1339837E-05  0.2885064E+04  0.7818609E-02  0.8277335E-01
       -2   -1    0    0    0  501  0.00000000000E+00  0.00000000000E+00  0.86359513161E+03  0.86359513161E+03  0.25500000920E-02 0.  1.
        2   -1    0    0  501    0  0.00000000000E+00  0.00000000000E+00 -0.24095764376E+04  0.24095764376E+04  0.25500000920E-02 0. -1.
    10030    2    1    2    0    0  0.00000000000E+00  0.00000000000E+00 -0.15459813060E+04  0.32731715692E+04  0.28850639374E+04 0.  0.
        5    1    3    3  502    0 -0.55214496568E+03 -0.45702540264E+03 -0.21932486424E+04  0.23074006976E+04  0.46999998093E+01 0. -1.
       -5    1    3    3    0  502  0.55214496568E+03  0.45702540264E+03  0.64726733639E+03  0.96577087166E+03  0.46999998093E+01 0.  1.
</event>
<event>
 5   0  0.5002240E-06  0.2962259E+04  0.7818609E-02  0.8254591E-01
       -1   -1    0    0    0  501  0.00000000000E+00  0.00000000000E+00  0.19856364732E+04  0.19856364732E+04  0.50400001928E-02 0. -1.
        1   -1    0    0  501    0  0.00000000000E+00  0.00000000000E+00 -0.11048067433E+04  0.11048067433E+04  0.50400001928E-02 0.  1.
    10030    2    1    2    0    0  0.00000000000E+00  0.00000000000E+00  0.88082972990E+03  0.30904432165E+04  0.29622589794E+04 0.  0.
        4    1    3    3  502    0 -0.23396992537E+01 -0.76680796557E+03  0.17624279855E+04  0.19220181964E+04  0.12699999809E+01 0. -1.
       -4    1    3    3    0  502  0.23396992537E+01  0.76680796557E+03 -0.88159825563E+03  0.11684250201E+04  0.12699999809E+01 0.  1.
</event>
<event>
 5   0  0.1336899E-05  0.2929378E+04  0.7818609E-02  0.8264190E-01
       -2   -1    0    0    0  501  0.00000000000E+00  0.00000000000E+00  0.77595173362E+03  0.77595173362E+03  0.25500000920E-02 0. -1.
        2   -1    0    0  501    0  0.00000000000E+00  0.00000000000E+00 -0.27647519388E+04  0.27647519388E+04  0.25500000920E-02 0.  1.
    10030    2    1    2    0    0  0.00000000000E+00  0.00000000000E+00 -0.19888002052E+04  0.35407036724E+04  0.29293781319E+04 0.  0.
        1    1    3    3  502    0  0.19444462191E+02  0.12472823701E+04 -0.66601172928E+02  0.12492105964E+04  0.50400001928E-02 0. -1.
       -1    1    3    3    0  502 -0.19444462191E+02 -0.12472823701E+04 -0.19221990322E+04  0.22914930760E+04  0.50400001928E-02 0.  1.
</event>
<event>
 5   0  0.5002240E-06  0.2735414E+04  0.7818609E-02  0.8323605E-01
       -1   -1    0    0    0  501  0.00000000000E+00  0.00000000000E+00  0.17092550501E+04  0.17092550501E+04  0.50400001928E-02 0. -1.
        1   -1    0    0  501    0  0.00000000000E+00  0.00000000000E+00 -0.10944078681E+04  0.10944078681E+04  0.50400001928E-02 0.  1.
    10030    2    1    2    0    0  0.00000000000E+00  0.00000000000E+00  0.61484718194E+03  0.28036629182E+04  0.27354138081E+04 0.  0.
        4    1    3    3  502    0 -0.13554679988E+04 -0.13463577677E+03  0.43378907890E+03  0.14295435866E+04  0.12699999809E+01 0. -1.
       -4    1    3    3    0  502  0.13554679988E+04  0.13463577677E+03  0.18105810305E+03  0.13741193316E+04  0.12699999809E+01 0.  1.
</event>
<event>
 5   0  0.5352212E-06  0.2957584E+04  0.7818609E-02  0.8255948E-01
       -1   -1    0    0    0  501  0.00000000000E+00  0.00000000000E+00  0.72575353546E+03  0.72575353548E+03  0.50400001928E-02 0. -1.
        1   -1    0    0  501    0  0.00000000000E+00  0.00000000000E+00 -0.30131793846E+04  0.30131793846E+04  0.50400001928E-02 0.  1.
    10030    2    1    2    0    0  0.00000000000E+00  0.00000000000E+00 -0.22874258492E+04  0.37389329201E+04  0.29575838730E+04 0.  0.
        2    1    3    3  502    0 -0.60171968906E+03 -0.59171278990E+03  0.39144433318E+03  0.93027913871E+03  0.25500000920E-02 0. -1.
       -2    1    3    3    0  502  0.60171968906E+03  0.59171278990E+03 -0.26788701823E+04  0.28086537814E+04  0.25500000920E-02 0.  1.
</event>
<event>
 5   0  0.4590125E-06  0.2969449E+04  0.7818609E-02  0.8252509E-01
        4   -1    0    0  501    0  0.00000000000E+00  0.00000000000E+00  0.14883691231E+04  0.14883696650E+04  0.12699999809E+01 0. -1.
       -4   -1    0    0    0  501  0.00000000000E+00  0.00000000000E+00 -0.14810879504E+04  0.14810884949E+04  0.12699999809E+01 0.  1.
    10030    2    1    2    0    0  0.00000000000E+00  0.00000000000E+00  0.72811727271E+01  0.29694581598E+04  0.29694492330E+04 0.  0.
        5    1    3    3  502    0 -0.20652743020E+03  0.58590798342E+03  0.13521413412E+04  0.14880356316E+04  0.46999998093E+01 0. -1.
       -5    1    3    3    0  502  0.20652743020E+03 -0.58590798342E+03 -0.13448601684E+04  0.14814225282E+04  0.46999998093E+01 0.  1.
</event>
<event>
 5   0  0.5059249E-06  0.2742515E+04  0.7818609E-02  0.8321341E-01
       -1   -1    0    0    0  501  0.00000000000E+00  0.00000000000E+00  0.94660025396E+03  0.94660025398E+03  0.50400001928E-02 0.  1.
        1   -1    0    0  501    0  0.00000000000E+00  0.00000000000E+00 -0.19864210569E+04  0.19864210569E+04  0.50400001928E-02 0. -1.
    10030    2    1    2    0    0  0.00000000000E+00  0.00000000000E+00 -0.10398208030E+04  0.29330213109E+04  0.27425146687E+04 0.  0.
        1    1    3    3  502    0  0.12024658051E+04  0.65786770224E+03 -0.47669622741E+03  0.14511902768E+04  0.50400001928E-02 0. -1.
       -1    1    3    3    0  502 -0.12024658051E+04 -0.65786770224E+03 -0.56312457555E+03  0.14818310341E+04  0.50400001928E-02 0.  1.
</event>
<event>
 5   0  0.5002240E-06  0.2862217E+04  0.7818609E-02  0.8284208E-01
       -1   -1    0    0    0  501  0.00000000000E+00  0.00000000000E+00  0.13010216158E+04  0.13010216158E+04  0.50400001928E-02 0.  1.
        1   -1    0    0  501    0  0.00000000000E+00  0.00000000000E+00 -0.15742029508E+04  0.15742029509E+04  0.50400001928E-02 0. -1.
    10030    2    1    2    0    0  0.00000000000E+00  0.00000000000E+00 -0.27318133507E+03  0.28752245666E+04  0.28622173689E+04 0.  0.
        4    1    3    3  502    0 -0.31775474448E+02 -0.36914384508E+03 -0.15251871029E+04  0.15695458486E+04  0.12699999809E+01 0. -1.
       -4    1    3    3    0  502  0.31775474448E+02  0.36914384508E+03  0.12520057678E+04  0.13056787180E+04  0.12699999809E+01 0.  1.
</event>
<event>
 5   0  0.1307832E-05  0.2977483E+04  0.7818609E-02  0.8250190E-01
       -2   -1    0    0    0  501  0.00000000000E+00  0.00000000000E+00  0.10331359122E+04  0.10331359122E+04  0.25500000920E-02 0.  1.
        2   -1    0    0  501    0  0.00000000000E+00  0.00000000000E+00 -0.21452656225E+04  0.21452656225E+04  0.25500000920E-02 0. -1.
    10030    2    1    2    0    0  0.00000000000E+00  0.00000000000E+00 -0.11121297102E+04  0.31784015347E+04  0.29774827999E+04 0.  0.
        4    1    3    3  502    0 -0.12029561036E+03 -0.50206371261E+03  0.93451650046E+03  0.10676430620E+04  0.12699999809E+01 0.  1.
       -4    1    3    3    0  502  0.12029561036E+03  0.50206371261E+03 -0.20466462107E+04  0.21107584727E+04  0.12699999809E+01 0. -1.
</event>
<event>
 5   0  0.1307832E-05  0.2827315E+04  0.7818609E-02  0.8294838E-01
       -2   -1    0    0    0  501  0.00000000000E+00  0.00000000000E+00  0.97479986768E+03  0.97479986768E+03  0.25500000920E-02 0. -1.
        2   -1    0    0  501    0  0.00000000000E+00  0.00000000000E+00 -0.20500893472E+04  0.20500893472E+04  0.25500000920E-02 0.  1.
    10030    2    1    2    0    0  0.00000000000E+00  0.00000000000E+00 -0.10752894795E+04  0.30248892148E+04  0.28273145027E+04 0.  0.
        4    1    3    3  502    0 -0.11397822086E+04  0.83328055874E+03 -0.46225618453E+03  0.14856454374E+04  0.12699999809E+01 0. -1.
       -4    1    3    3    0  502  0.11397822086E+04 -0.83328055874E+03 -0.61303329496E+03  0.15392437774E+04  0.12699999809E+01 0.  1.
</event>
<event>
 5   0  0.5154476E-06  0.2824276E+04  0.7818609E-02  0.8295771E-01
       -1   -1    0    0    0  501  0.00000000000E+00  0.00000000000E+00  0.14381263518E+04  0.14381263518E+04  0.50400001928E-02 0. -1.
        1   -1    0    0  501    0  0.00000000000E+00  0.00000000000E+00 -0.13866189158E+04  0.13866189158E+04  0.50400001928E-02 0.  1.
    10030    2    1    2    0    0  0.00000000000E+00  0.00000000000E+00  0.51507436040E+02  0.28247452676E+04  0.28242756258E+04 0.  0.
        3    1    3    3  502    0  0.58698492472E+03  0.95839588079E+03  0.88091591232E+03  0.14279659733E+04  0.10100000352E+00 0. -1.
       -3    1    3    3    0  502 -0.58698492472E+03 -0.95839588079E+03 -0.82940847628E+03  0.13967792943E+04  0.10100000352E+00 0.  1.
</event>
<event>
 5   0  0.1382803E-05  0.2903902E+04  0.7818609E-02  0.8271718E-01
        2   -1    0    0  501    0  0.00000000000E+00  0.00000000000E+00  0.19398593458E+04  0.19398593458E+04  0.25500000920E-02 0.  1.
       -2   -1    0    0    0  501  0.00000000000E+00  0.00000000000E+00 -0.10867599406E+04  0.10867599406E+04  0.25500000920E-02 0. -1.
    10030    2    1    2    0    0  0.00000000000E+00  0.00000000000E+00  0.85309940524E+03  0.30266192864E+04  0.29039018079E+04 0.  0.
        2    1    3    3  502    0  0.93842053553E+03  0.24338436466E+03  0.15531027315E+04  0.18308460189E+04  0.25500000920E-02 0.  1.
       -2    1    3    3    0  502 -0.93842053553E+03 -0.24338436466E+03 -0.70000332626E+03  0.11957732675E+04  0.25500000920E-02 0. -1.
</event>
<event>
 5   0  0.5261878E-06  0.2896376E+04  0.7818609E-02  0.8273957E-01
       -1   -1    0    0    0  501  0.00000000000E+00  0.00000000000E+00  0.18885862420E+04  0.18885862420E+04  0.50400001928E-02 0. -1.
        1   -1    0    0  501    0  0.00000000000E+00  0.00000000000E+00 -0.11104860174E+04  0.11104860174E+04  0.50400001928E-02 0.  1.
    10030    2    1    2    0    0  0.00000000000E+00  0.00000000000E+00  0.77810022464E+03  0.29990722594E+04  0.28963760905E+04 0.  0.
        5    1    3    3  502    0 -0.40801803320E+03  0.11308144894E+03  0.18230588364E+04  0.18715853549E+04  0.46999998093E+01 0. -1.
       -5    1    3    3    0  502  0.40801803320E+03 -0.11308144894E+03 -0.10449586118E+04  0.11274869045E+04  0.46999998093E+01 0.  1.
</event>
<event>
 5   0  0.1336899E-05  0.2709618E+04  0.7818609E-02  0.8331891E-01
       -2   -1    0    0    0  501  0.00000000000E+00  0.00000000000E+00  0.11931688999E+04  0.11931688999E+04  0.25500000920E-02 0.  1.
        2   -1    0    0  501    0  0.00000000000E+00  0.00000000000E+00 -0.15383469777E+04  0.15383469777E+04  0.25500000920E-02 0. -1.
    10030    2    1    2    0    0  0.00000000000E+00  0.00000000000E+00 -0.34517807784E+03  0.27315158776E+04  0.27096182543E+04 0.  0.
        1    1    3    3  502    0 -0.32498678975E+03 -0.72420534178E+03 -0.12793770662E+04  0.15056212897E+04  0.50400001928E-02 0. -1.
       -1    1    3    3    0  502  0.32498678975E+03  0.72420534178E+03  0.93419898836E+03  0.12258945878E+04  0.50400001928E-02 0.  1.
</event>
<event>
 5   0  0.1307832E-05  0.2833556E+04  0.7818609E-02  0.8292926E-01
        2   -1    0    0  501    0  0.00000000000E+00  0.00000000000E+00  0.20753220284E+04  0.20753220284E+04  0.25500000920E-02 0.  1.
       -2   -1    0    0    0  501  0.00000000000E+00  0.00000000000E+00 -0.96720398299E+03  0.96720398299E+03  0.25500000920E-02 0. -1.
    10030    2    1    2    0    0  0.00000000000E+00  0.00000000000E+00  0.11081180454E+04  0.30425260114E+04  0.28335558804E+04 0.  0.
        4    1    3    3  502    0  0.13555153224E+04  0.92082418507E+02  0.98537608243E+03  0.16783529419E+04  0.12699999809E+01 0.  1.
       -4    1    3    3    0  502 -0.13555153224E+04 -0.92082418507E+02  0.12274196294E+03  0.13641730694E+04  0.12699999809E+01 0. -1.
</event>
<event>
 5   0  0.5154476E-06  0.2615678E+04  0.7818609E-02  0.8362895E-01
       -1   -1    0    0    0  501  0.00000000000E+00  0.00000000000E+00  0.19942646010E+04  0.19942646010E+04  0.50400001928E-02 0.  1.
        1   -1    0    0  501    0  0.00000000000E+00  0.00000000000E+00 -0.85768081711E+03  0.85768081712E+03  0.50400001928E-02 0. -1.
    10030    2    1    2    0    0  0.00000000000E+00  0.00000000000E+00  0.11365837839E+04  0.28519454181E+04  0.26156777267E+04 0.  0.
        3    1    3    3  502    0  0.57954532830E+03  0.66359927383E+03  0.16221405124E+04  0.18459622520E+04  0.10100000352E+00 0.  1.
       -3    1    3    3    0  502 -0.57954532830E+03 -0.66359927383E+03 -0.48555672846E+03  0.10059831661E+04  0.10100000352E+00 0. -1.
</event>
<event>
 5   0  0.1307832E-05  0.2217706E+04  0.7818609E-02  0.8511094E-01
       -2   -1    0    0    0  501  0.00000000000E+00  0.00000000000E+00  0.10221696444E+04  0.10221696444E+04  0.25500000920E-02 0.  1.
        2   -1    0    0  501    0  0.00000000000E+00  0.00000000000E+00 -0.12028878857E+04  0.12028878857E+04  0.25500000920E-02 0. -1.
    10030    2    1    2    0    0  0.00000000000E+00  0.00000000000E+00 -0.18071824125E+03  0.22250575301E+04  0.22177064570E+04 0.  0.
        4    1    3    3  502    0  0.70105629127E+03 -0.31353751685E+03  0.71214726806E+03  0.10473495321E+04  0.12699999809E+01 0.  1.
       -4    1    3    3    0  502 -0.70105629127E+03  0.31353751685E+03 -0.89286550931E+03  0.11777079980E+04  0.12699999809E+01 0. -1.
</event>
<event>
 5   0  0.1339837E-05  0.3165475E+04  0.7818609E-02  0.8197995E-01
        2   -1    0    0  501    0  0.00000000000E+00  0.00000000000E+00  0.24883676593E+04  0.24883676593E+04  0.25500000920E-02 0.  1.
       -2   -1    0    0    0  501  0.00000000000E+00  0.00000000000E+00 -0.10067073972E+04  0.10067073972E+04  0.25500000920E-02 0. -1.
    10030    2    1    2    0    0  0.00000000000E+00  0.00000000000E+00  0.14816602621E+04  0.34950750565E+04  0.31654750857E+04 0.  0.
        5    1    3    3  502    0  0.26629117926E+03  0.63480055944E+03  0.23144106052E+04  0.24146223891E+04  0.46999998093E+01 0.  1.
       -5    1    3    3    0  502 -0.26629117926E+03 -0.63480055944E+03 -0.83275034317E+03  0.10804526674E+04  0.46999998093E+01 0. -1.
</event>
<event>
 5   0  0.1336899E-05  0.2820439E+04  0.7818609E-02  0.8296951E-01
        2   -1    0    0  501    0  0.00000000000E+00  0.00000000000E+00  0.11039032699E+04  0.11039032699E+04  0.25500000920E-02 0. -1.
       -2   -1    0    0    0  501  0.00000000000E+00  0.00000000000E+00 -0.18015335244E+04  0.18015335244E+04  0.25500000920E-02 0.  1.
    10030    2    1    2    0    0  0.00000000000E+00  0.00000000000E+00 -0.69763025454E+03  0.29054367943E+04  0.28204387945E+04 0.  0.
        1    1    3    3  502    0 -0.84238983551E+03 -0.10833494335E+04 -0.68333537263E+03  0.15330407240E+04  0.50400001928E-02 0.  1.
       -1    1    3    3    0  502  0.84238983551E+03  0.10833494335E+04 -0.14294881904E+02  0.13723960703E+04  0.50400001928E-02 0. -1.
</event>
<event>
 5   0  0.5002240E-06  0.2858221E+04  0.7818609E-02  0.8285418E-01
       -1   -1    0    0    0  501  0.00000000000E+00  0.00000000000E+00  0.15077402287E+04  0.15077402287E+04  0.50400001928E-02 0. -1.
        1   -1    0    0  501    0  0.00000000000E+00  0.00000000000E+00 -0.13545813595E+04  0.13545813595E+04  0.50400001928E-02 0.  1.
    10030    2    1    2    0    0  0.00000000000E+00  0.00000000000E+00  0.15315886923E+03  0.28623215882E+04  0.28582209912E+04 0.  0.
        4    1    3    3  502    0  0.10729888478E+04  0.61444703879E+03 -0.64104124487E+03  0.13927619041E+04  0.12699999809E+01 0. -1.
       -4    1    3    3    0  502 -0.10729888478E+04 -0.61444703879E+03  0.79420011411E+03  0.14695596841E+04  0.12699999809E+01 0.  1.
</event>
<event>
 5   0  0.1336899E-05  0.2969980E+04  0.7818609E-02  0.8252356E-01
        2   -1    0    0  501    0  0.00000000000E+00  0.00000000000E+00  0.22476980900E+04  0.22476980900E+04  0.25500000920E-02 0. -1.
       -2   -1    0    0    0  501  0.00000000000E+00  0.00000000000E+00 -0.98109028633E+03  0.98109028633E+03  0.25500000920E-02 0.  1.
    10030    2    1    2    0    0  0.00000000000E+00  0.00000000000E+00  0.12666078037E+04  0.32287883763E+04  0.29699796381E+04 0.  0.
        1    1    3    3  502    0  0.66560709580E+03 -0.92743716770E+02 -0.80631153112E+03  0.10496535087E+04  0.50400001928E-02 0.  1.
       -1    1    3    3    0  502 -0.66560709580E+03  0.92743716770E+02  0.20729193348E+04  0.21791348677E+04  0.50400001928E-02 0. -1.
</event>
<event>
 5   0  0.5352212E-06  0.2203431E+04  0.7818609E-02  0.8517002E-01
        1   -1    0    0  501    0  0.00000000000E+00  0.00000000000E+00  0.16709444712E+04  0.16709444712E+04  0.50400001928E-02 0. -1.
       -1   -1    0    0    0  501  0.00000000000E+00  0.00000000000E+00 -0.72640163524E+03  0.72640163526E+03  0.50400001928E-02 0.  1.
    10030    2    1    2    0    0  0.00000000000E+00  0.00000000000E+00  0.94454283597E+03  0.23973461065E+04  0.22034307761E+04 0.  0.
        2    1    3    3  502    0 -0.68409615353E+03  0.55703773668E+03  0.11902715325E+04  0.14815616451E+04  0.25500000920E-02 0. -1.
       -2    1    3    3    0  502  0.68409615353E+03 -0.55703773668E+03 -0.24572869648E+03  0.91578446135E+03  0.25500000920E-02 0.  1.
</event>
<event>
 5   0  0.1385669E-05  0.2914651E+04  0.7818609E-02  0.8268532E-01
        2   -1    0    0  501    0  0.00000000000E+00  0.00000000000E+00  0.10772806787E+04  0.10772806787E+04  0.25500000920E-02 0. -1.
       -2   -1    0    0    0  501  0.00000000000E+00  0.00000000000E+00 -0.19714436878E+04  0.19714436878E+04  0.25500000920E-02 0.  1.
    10030    2    1    2    0    0  0.00000000000E+00  0.00000000000E+00 -0.89416300904E+03  0.30487243665E+04  0.29146513988E+04 0.  0.
        3    1    3    3  502    0 -0.13443428406E+04 -0.54243017489E+02 -0.10328396373E+04  0.16961596932E+04  0.10100000352E+00 0.  1.
       -3    1    3    3    0  502  0.13443428406E+04  0.54243017489E+02  0.13867662829E+03  0.13525646733E+04  0.10100000352E+00 0. -1.
</event>
<event>
 5   0  0.5002240E-06  0.2848424E+04  0.7818609E-02  0.8288390E-01
       -1   -1    0    0    0  501  0.00000000000E+00  0.00000000000E+00  0.11575391531E+04  0.11575391531E+04  0.50400001928E-02 0.  1.
        1   -1    0    0  501    0  0.00000000000E+00  0.00000000000E+00 -0.17523203462E+04  0.17523203462E+04  0.50400001928E-02 0. -1.
    10030    2    1    2    0    0  0.00000000000E+00  0.00000000000E+00 -0.59478119307E+03  0.29098594993E+04  0.28484237111E+04 0.  0.
        4    1    3    3  502    0  0.11468217224E+04 -0.40623251817E+03 -0.10537326976E+04  0.16095276116E+04  0.12699999809E+01 0. -1.
       -4    1    3    3    0  502 -0.11468217224E+04  0.40623251817E+03  0.45895150449E+03  0.13003318877E+04  0.12699999809E+01 0.  1.
</event>
<event>
 5   0  0.5002240E-06  0.2968630E+04  0.7818609E-02  0.8252746E-01
       -1   -1    0    0    0  501  0.00000000000E+00  0.00000000000E+00  0.10239620214E+04  0.10239620214E+04  0.50400001928E-02 0. -1.
        1   -1    0    0  501    0  0.00000000000E+00  0.00000000000E+00 -0.21516340703E+04  0.21516340703E+04  0.50400001928E-02 0.  1.
    10030    2    1    2    0    0  0.00000000000E+00  0.00000000000E+00 -0.11276720489E+04  0.31755960918E+04  0.29686303725E+04 0.  0.
        4    1    3    3  502    0 -0.61207011281E+03  0.53296805521E+03  0.76558890394E+03  0.11157117700E+04  0.12699999809E+01 0. -1.
       -4    1    3    3    0  502  0.61207011281E+03 -0.53296805521E+03 -0.18932609528E+04  0.20598843218E+04  0.12699999809E+01 0.  1.
</event>
<event>
 5   0  0.1336899E-05  0.2999999E+04  0.7818609E-02  0.8243731E-01
        2   -1    0    0  501    0  0.00000000000E+00  0.00000000000E+00  0.19539909695E+04  0.19539909695E+04  0.25500000920E-02 0. -1.
       -2   -1    0    0    0  501  0.00000000000E+00  0.00000000000E+00 -0.11514888946E+04  0.11514888946E+04  0.25500000920E-02 0.  1.
    10030    2    1    2    0    0  0.00000000000E+00  0.00000000000E+00  0.80250207495E+03  0.31054798641E+04  0.29999992677E+04 0.  0.
        1    1    3    3  502    0 -0.38618781485E+03 -0.59581595117E+03  0.17690190057E+04  0.19061914695E+04  0.50400001928E-02 0. -1.
       -1    1    3    3    0  502  0.38618781485E+03  0.59581595117E+03 -0.96651693071E+03  0.11992883946E+04  0.50400001928E-02 0.  1.
</event>
<event>
 5   0  0.1307832E-05  0.2932221E+04  0.7818609E-02  0.8263355E-01
        2   -1    0    0  501    0  0.00000000000E+00  0.00000000000E+00  0.23770305012E+04  0.23770305012E+04  0.25500000920E-02 0. -1.
       -2   -1    0    0    0  501  0.00000000000E+00  0.00000000000E+00 -0.90427079806E+03  0.90427079806E+03  0.25500000920E-02 0.  1.
    10030    2    1    2    0    0  0.00000000000E+00  0.00000000000E+00  0.14727597031E+04  0.32813012992E+04  0.29322205022E+04 0.  0.
        4    1    3    3  502    0  0.60317974161E+03 -0.10750283765E+04 -0.15181445751E+03  0.12419988138E+04  0.12699999809E+01 0.  1.
       -4    1    3    3    0  502 -0.60317974161E+03  0.10750283765E+04  0.16245741606E+04  0.20393024855E+04  0.12699999809E+01 0. -1.
</event>
<event>
 5   0  0.5261878E-06  0.2667206E+04  0.7818609E-02  0.8345724E-01
        1   -1    0    0  501    0  0.00000000000E+00  0.00000000000E+00  0.12518222690E+04  0.12518222690E+04  0.50400001928E-02 0.  1.
       -1   -1    0    0    0  501  0.00000000000E+00  0.00000000000E+00 -0.14207266787E+04  0.14207266787E+04  0.50400001928E-02 0. -1.
    10030    2    1    2    0    0  0.00000000000E+00  0.00000000000E+00 -0.16890440970E+03  0.26725489477E+04  0.26672062496E+04 0.  0.
        5    1    3    3  502    0 -0.20129252628E+03 -0.98766067025E+02 -0.14016963986E+04  0.14195239698E+04  0.46999998093E+01 0. -1.
       -5    1    3    3    0  502  0.20129252628E+03  0.98766067025E+02  0.12327919889E+04  0.12530249778E+04  0.46999998093E+01 0.  1.
</event>
<event>
 5   0  0.1336899E-05  0.2928765E+04  0.7818609E-02  0.8264370E-01
       -2   -1    0    0    0  501  0.00000000000E+00  0.00000000000E+00  0.13551558932E+04  0.13551558932E+04  0.25500000920E-02 0. -1.
        2   -1    0    0  501    0  0.00000000000E+00  0.00000000000E+00 -0.15824125584E+04  0.15824125584E+04  0.25500000920E-02 0.  1.
    10030    2    1    2    0    0  0.00000000000E+00  0.00000000000E+00 -0.22725666512E+03  0.29375684516E+04  0.29287647253E+04 0.  0.
        1    1    3    3  502    0  0.55169816248E+03  0.15967345711E+03  0.12374728925E+04  0.13642601054E+04  0.50400001928E-02 0. -1.
       -1    1    3    3    0  502 -0.55169816248E+03 -0.15967345711E+03 -0.14647295576E+04  0.15733083462E+04  0.50400001928E-02 0.  1.
</event>
<event>
 5   0  0.1385669E-05  0.2808562E+04  0.7818609E-02  0.8300615E-01
        2   -1    0    0  501    0  0.00000000000E+00  0.00000000000E+00  0.12292601055E+04  0.12292601055E+04  0.25500000920E-02 0. -1.
       -2   -1    0    0    0  501  0.00000000000E+00  0.00000000000E+00 -0.16042216048E+04  0.16042216048E+04  0.25500000920E-02 0.  1.
    10030    2    1    2    0    0  0.00000000000E+00  0.00000000000E+00 -0.37496149935E+03  0.28334817103E+04  0.28085623505E+04 0.  0.
        3    1    3    3  502    0  0.14006662117E+04 -0.44854374703E+02 -0.27843528905E+03  0.14287770897E+04  0.10100000352E+00 0. -1.
       -3    1    3    3    0  502 -0.14006662117E+04  0.44854374703E+02 -0.96526210305E+02  0.14047046206E+04  0.10100000352E+00 0.  1.
</event>
<event>
 5   0  0.5059249E-06  0.2861011E+04  0.7818609E-02  0.8284573E-01
        1   -1    0    0  501    0  0.00000000000E+00  0.00000000000E+00  0.14846886406E+04  0.14846886406E+04  0.50400001928E-02 0.  1.
       -1   -1    0    0    0  501  0.00000000000E+00  0.00000000000E+00 -0.13782999114E+04  0.13782999114E+04  0.50400001928E-02 0. -1.
    10030    2    1    2    0    0  0.00000000000E+00  0.00000000000E+00  0.10638872921E+03  0.28629885520E+04  0.28610111651E+04 0.  0.
        1    1    3    3  502    0  0.12102409386E+04  0.18670948665E+02 -0.70977242126E+03  0.14031424103E+04  0.50400001928E-02 0. -1.
       -1    1    3    3    0  502 -0.12102409386E+04 -0.18670948665E+02  0.81616115047E+03  0.14598461416E+04  0.50400001928E-02 0.  1.
</event>
<event>
 5   0  0.5002240E-06  0.2960723E+04  0.7818609E-02  0.8255037E-01
       -1   -1    0    0    0  501  0.00000000000E+00  0.00000000000E+00  0.14290836548E+04  0.14290836548E+04  0.50400001928E-02 0. -1.
        1   -1    0    0  501    0  0.00000000000E+00  0.00000000000E+00 -0.15334788751E+04  0.15334788751E+04  0.50400001928E-02 0.  1.
    10030    2    1    2    0    0  0.00000000000E+00  0.00000000000E+00 -0.10439522038E+03  0.29625625299E+04  0.29607226114E+04 0.  0.
        4    1    3    3  502    0 -0.13051855350E+04 -0.60494658792E+01  0.64675068911E+03  0.14566516205E+04  0.12699999809E+01 0. -1.
       -4    1    3    3    0  502  0.13051855350E+04  0.60494658792E+01 -0.75114590948E+03  0.15059109094E+04  0.12699999809E+01 0.  1.
</event>
<event>
 5   0  0.5154476E-06  0.2856943E+04  0.7818609E-02  0.8285805E-01
       -1   -1    0    0    0  501  0.00000000000E+00  0.00000000000E+00  0.88951516355E+03  0.88951516356E+03  0.50400001928E-02 0. -1.
        1   -1    0    0  501    0  0.00000000000E+00  0.00000000000E+00 -0.22939804558E+04  0.22939804558E+04  0.50400001928E-02 0.  1.
    10030    2    1    2    0    0  0.00000000000E+00  0.00000000000E+00 -0.14044652922E+04  0.31834956193E+04  0.28569427018E+04 0.  0.
        3    1    3    3  502    0 -0.22995676824E+03  0.11240809749E+04  0.24596674444E+03  0.11734299310E+04  0.10100000352E+00 0. -1.
       -3    1    3    3    0  502  0.22995676824E+03 -0.11240809749E+04 -0.16504320366E+04  0.20100656883E+04  0.10100000352E+00 0.  1.
</event>
<event>
 5   0  0.5261878E-06  0.2918722E+04  0.7818609E-02  0.8267329E-01
        1   -1    0    0  501    0  0.00000000000E+00  0.00000000000E+00  0.17980730181E+04  0.17980730181E+04  0.50400001928E-02 0.  1.
       -1   -1    0    0    0  501  0.00000000000E+00  0.00000000000E+00 -0.11844541215E+04  0.11844541215E+04  0.50400001928E-02 0. -1.
    10030    2    1    2    0    0  0.00000000000E+00  0.00000000000E+00  0.61361889662E+03  0.29825271396E+04  0.29187223212E+04 0.  0.
        5    1    3    3  502    0  0.14123408585E+03  0.14073381007E+04  0.67406178761E+03  0.15668212981E+04  0.46999998093E+01 0. -1.
       -5    1    3    3    0  502 -0.14123408585E+03 -0.14073381007E+04 -0.60442890986E+02  0.14157058415E+04  0.46999998093E+01 0.  1.
</event>
<event>
 5   0  0.5154476E-06  0.1914131E+04  0.7818609E-02  0.8647854E-01
       -1   -1    0    0    0  501  0.00000000000E+00  0.00000000000E+00  0.86667681545E+03  0.86667681547E+03  0.50400001928E-02 0.  1.
        1   -1    0    0  501    0  0.00000000000E+00  0.00000000000E+00 -0.10568816318E+04  0.10568816318E+04  0.50400001928E-02 0. -1.
    10030    2    1    2    0    0  0.00000000000E+00  0.00000000000E+00 -0.19020481632E+03  0.19235584473E+04  0.19141314552E+04 0.  0.
        3    1    3    3  502    0  0.88590979871E+03 -0.20021873858E+02  0.26825509261E+03  0.92584979981E+03  0.10100000352E+00 0.  1.
       -3    1    3    3    0  502 -0.88590979871E+03  0.20021873858E+02 -0.45845990894E+03  0.99770864745E+03  0.10100000352E+00 0. -1.
</event>
<event>
 5   0  0.1307832E-05  0.2878632E+04  0.7818609E-02  0.8279264E-01
        2   -1    0    0  501    0  0.00000000000E+00  0.00000000000E+00  0.14900946511E+04  0.14900946511E+04  0.25500000920E-02 0.  1.
       -2   -1    0    0    0  501  0.00000000000E+00  0.00000000000E+00 -0.13902673249E+04  0.13902673249E+04  0.25500000920E-02 0. -1.
    10030    2    1    2    0    0  0.00000000000E+00  0.00000000000E+00  0.99827326154E+02  0.28803619760E+04  0.28786315529E+04 0.  0.
        4    1    3    3  502    0 -0.13402336711E+04 -0.49004924594E+03  0.23778631012E+03  0.14466922613E+04  0.12699999809E+01 0.  1.
       -4    1    3    3    0  502  0.13402336711E+04  0.49004924594E+03 -0.13795898396E+03  0.14336697147E+04  0.12699999809E+01 0. -1.
</event>
<event>
 5   0  0.1336899E-05  0.2758043E+04  0.7818609E-02  0.8316414E-01
       -2   -1    0    0    0  501  0.00000000000E+00  0.00000000000E+00  0.10106907885E+04  0.10106907885E+04  0.25500000920E-02 0.  1.
        2   -1    0    0  501    0  0.00000000000E+00  0.00000000000E+00 -0.18815844090E+04  0.18815844090E+04  0.25500000920E-02 0. -1.
    10030    2    1    2    0    0  0.00000000000E+00  0.00000000000E+00 -0.87089362052E+03  0.28922751975E+04  0.27580428061E+04 0.  0.
        1    1    3    3  502    0 -0.11998996284E+03  0.90605263781E+03 -0.15183578607E+04  0.17722131832E+04  0.50400001928E-02 0. -1.
       -1    1    3    3    0  502  0.11998996284E+03 -0.90605263781E+03  0.64746424013E+03  0.11200620143E+04  0.50400001928E-02 0.  1.
</event>
<event>
 5   0  0.5352212E-06  0.1903730E+04  0.7818609E-02  0.8653002E-01
        1   -1    0    0  501    0  0.00000000000E+00  0.00000000000E+00  0.91097320318E+03  0.91097320320E+03  0.50400001928E-02 0.  1.
       -1   -1    0    0    0  501  0.00000000000E+00  0.00000000000E+00 -0.99459252783E+03  0.99459252784E+03  0.50400001928E-02 0. -1.
    10030    2    1    2    0    0  0.00000000000E+00  0.00000000000E+00 -0.83619324646E+02  0.19055657310E+04  0.19037301710E+04 0.  0.
        2    1    3    3  502    0  0.11586698220E+03  0.29342924174E+03  0.85712153352E+03  0.91333630208E+03  0.25500000920E-02 0.  1.
       -2    1    3    3    0  502 -0.11586698220E+03 -0.29342924174E+03 -0.94074085816E+03  0.99222942896E+03  0.25500000920E-02 0. -1.
</event>
<event>
 5   0  0.1339837E-05  0.2892515E+04  0.7818609E-02  0.8275108E-01
       -2   -1    0    0    0  501  0.00000000000E+00  0.00000000000E+00  0.10655648783E+04  0.10655648783E+04  0.25500000920E-02 0.  1.
        2   -1    0    0  501    0  0.00000000000E+00  0.00000000000E+00 -0.19629598010E+04  0.19629598010E+04  0.25500000920E-02 0. -1.
    10030    2    1    2    0    0  0.00000000000E+00  0.00000000000E+00 -0.89739492271E+03  0.30285246792E+04  0.28925151832E+04 0.  0.
        5    1    3    3  502    0 -0.43017857994E+03  0.13595213204E+04 -0.19591805241E+03  0.14393602067E+04  0.46999998093E+01 0.  1.
       -5    1    3    3    0  502  0.43017857994E+03 -0.13595213204E+04 -0.70147687030E+03  0.15891644726E+04  0.46999998093E+01 0. -1.
</event>
<event>
 5   0  0.5352212E-06  0.2852838E+04  0.7818609E-02  0.8287049E-01
       -1   -1    0    0    0  501  0.00000000000E+00  0.00000000000E+00  0.21198467814E+04  0.21198467814E+04  0.50400001928E-02 0. -1.
        1   -1    0    0  501    0  0.00000000000E+00  0.00000000000E+00 -0.95982020840E+03  0.95982020841E+03  0.50400001928E-02 0.  1.
    10030    2    1    2    0    0  0.00000000000E+00  0.00000000000E+00  0.11600265730E+04  0.30796669898E+04  0.28528384318E+04 0.  0.
        2    1    3    3  502    0  0.36230118529E+03 -0.54613694798E+03  0.19476904333E+04  0.20550001797E+04  0.25500000920E-02 0. -1.
       -2    1    3    3    0  502 -0.36230118529E+03  0.54613694798E+03 -0.78766386030E+03  0.10246668101E+04  0.25500000920E-02 0.  1.
</event>
<event>
 5   0  0.1382803E-05  0.2864798E+04  0.7818609E-02  0.8283429E-01
        2   -1    0    0  501    0  0.00000000000E+00  0.00000000000E+00  0.25336685454E+04  0.25336685454E+04  0.25500000920E-02 0. -1.
       -2   -1    0    0    0  501  0.00000000000E+00  0.00000000000E+00 -0.80980070840E+03  0.80980070840E+03  0.25500000920E-02 0.  1.
    10030    2    1    2    0    0  0.00000000000E+00  0.00000000000E+00  0.17238678370E+04  0.33434692538E+04  0.28647977820E+04 0.  0.
        2    1    3    3  502    0  0.12102584897E+04 -0.12300963223E+03 -0.20672448239E+02  0.12166693600E+04  0.25500000920E-02 0. -1.
       -2    1    3    3    0  502 -0.12102584897E+04  0.12300963223E+03  0.17445402853E+04  0.21267998938E+04  0.25500000920E-02 0.  1.
</event>
<event>
 5   0  0.1385669E-05  0.2903314E+04  0.7818609E-02  0.8271892E-01
        2   -1    0    0  501    0  0.00000000000E+00  0.00000000000E+00  0.12907937066E+04  0.12907937066E+04  0.25500000920E-02 0. -1.
       -2   -1    0    0    0  501  0.00000000000E+00  0.00000000000E+00 -0.16325672043E+04  0.16325672043E+04  0.25500000920E-02 0.  1.
    10030    2    1    2    0    0  0.00000000000E+00  0.00000000000E+00 -0.34177349772E+03  0.29233609109E+04  0.29033136055E+04 0.  0.
        3    1    3    3  502    0  0.22142533645E+03  0.18569555343E+02 -0.16153421926E+04  0.16305534083E+04  0.10100000352E+00 0.  1.
       -3    1    3    3    0  502 -0.22142533645E+03 -0.18569555343E+02  0.12735686949E+04  0.12928075026E+04  0.10100000352E+00 0. -1.
</event>
<event>
 5   0  0.4590125E-06  0.2906705E+04  0.7818609E-02  0.8270885E-01
        3   -1    0    0  501    0  0.00000000000E+00  0.00000000000E+00  0.21795007513E+04  0.21795007537E+04  0.10100000352E+00 0. -1.
       -3   -1    0    0    0  501  0.00000000000E+00  0.00000000000E+00 -0.96913662431E+03  0.96913662958E+03  0.10100000352E+00 0.  1.
    10030    2    1    2    0    0  0.00000000000E+00  0.00000000000E+00  0.12103641270E+04  0.31486373832E+04  0.29067053602E+04 0.  0.
        4    1    3    3  502    0  0.23169870919E+03  0.13050092509E+04 -0.40681530720E+02  0.13260429996E+04  0.12699999809E+01 0. -1.
       -4    1    3    3    0  502 -0.23169870919E+03 -0.13050092509E+04  0.12510456577E+04  0.18225943837E+04  0.12699999809E+01 0.  1.
</event>
<event>
 5   0  0.1336899E-05  0.2911537E+04  0.7818609E-02  0.8269453E-01
        2   -1    0    0  501    0  0.00000000000E+00  0.00000000000E+00  0.18004636371E+04  0.18004636371E+04  0.25500000920E-02 0. -1.
       -2   -1    0    0    0  501  0.00000000000E+00  0.00000000000E+00 -0.11770648453E+04  0.11770648453E+04  0.25500000920E-02 0.  1.
    10030    2    1    2    0    0  0.00000000000E+00  0.00000000000E+00  0.62339879184E+03  0.29775284824E+04  0.29115373619E+04 0.  0.
        1    1    3    3  502    0 -0.13094161961E+04  0.40948026751E+03 -0.18617964519E+03  0.13845243676E+04  0.50400001928E-02 0. -1.
       -1    1    3    3    0  502  0.13094161961E+04 -0.40948026751E+03  0.80957843703E+03  0.15930041148E+04  0.50400001928E-02 0.  1.
</event>
<event>
 5   0  0.1307832E-05  0.2954989E+04  0.7818609E-02  0.8256702E-01
       -2   -1    0    0    0  501  0.00000000000E+00  0.00000000000E+00  0.15227618052E+04  0.15227618052E+04  0.25500000920E-02 0. -1.
        2   -1    0    0  501    0  0.00000000000E+00  0.00000000000E+00 -0.14335729907E+04  0.14335729907E+04  0.25500000920E-02 0.  1.
    10030    2    1    2    0    0  0.00000000000E+00  0.00000000000E+00  0.89188814509E+02  0.29563347959E+04  0.29549891337E+04 0.  0.
        4    1    3    3  502    0 -0.13777065670E+04 -0.13724031479E+03  0.56065708333E+03  0.14937363444E+04  0.12699999809E+01 0. -1.
       -4    1    3    3    0  502  0.13777065670E+04  0.13724031479E+03 -0.47146826883E+03  0.14625984514E+04  0.12699999809E+01 0.  1.
</event>
<event>
 5   0  0.5261878E-06  0.2556686E+04  0.7818609E-02  0.8383065E-01
       -1   -1    0    0    0  501  0.00000000000E+00  0.00000000000E+00  0.11879796565E+04  0.11879796565E+04  0.50400001928E-02 0.  1.
        1   -1    0    0  501    0  0.00000000000E+00  0.00000000000E+00 -0.13755799846E+04  0.13755799846E+04  0.50400001928E-02 0. -1.
    10030    2    1    2    0    0  0.00000000000E+00  0.00000000000E+00 -0.18760032809E+03  0.25635596410E+04  0.25566861657E+04 0.  0.
        5    1    3    3  502    0 -0.11305014340E+03 -0.86446474668E+01 -0.13705197972E+04  0.13752096820E+04  0.46999998093E+01 0. -1.
       -5    1    3    3    0  502  0.11305014340E+03  0.86446474668E+01  0.11829194691E+04  0.11883499591E+04  0.46999998093E+01 0.  1.
</event>
<event>
 5   0  0.5002240E-06  0.2916626E+04  0.7818609E-02  0.8267948E-01
        1   -1    0    0  501    0  0.00000000000E+00  0.00000000000E+00  0.13022020078E+04  0.13022020078E+04  0.50400001928E-02 0. -1.
       -1   -1    0    0    0  501  0.00000000000E+00  0.00000000000E+00 -0.16331390332E+04  0.16331390332E+04  0.50400001928E-02 0.  1.
    10030    2    1    2    0    0  0.00000000000E+00  0.00000000000E+00 -0.33093702540E+03  0.29353410409E+04  0.29166260837E+04 0.  0.
        4    1    3    3  502    0 -0.51779439476E+03  0.86116912592E+03 -0.12291095125E+04  0.15875878260E+04  0.12699999809E+01 0.  1.
       -4    1    3    3    0  502  0.51779439476E+03 -0.86116912592E+03  0.89817248715E+03  0.13477532149E+04  0.12699999809E+01 0. -1.
</event>
<event>
 5   0  0.5261878E-06  0.2289898E+04  0.7818609E-02  0.8481915E-01
       -1   -1    0    0    0  501  0.00000000000E+00  0.00000000000E+00  0.18736437138E+04  0.18736437138E+04  0.50400001928E-02 0. -1.
        1   -1    0    0  501    0  0.00000000000E+00  0.00000000000E+00 -0.69965686211E+03  0.69965686213E+03  0.50400001928E-02 0.  1.
    10030    2    1    2    0    0  0.00000000000E+00  0.00000000000E+00  0.11739868516E+04  0.25733005759E+04  0.22898975362E+04 0.  0.
        5    1    3    3  502    0  0.26119678619E+03  0.64807416424E+03 -0.43226687416E+03  0.82164507177E+03  0.46999998093E+01 0.  1.
       -5    1    3    3    0  502 -0.26119678619E+03 -0.64807416424E+03  0.16062537258E+04  0.17516555041E+04  0.46999998093E+01 0. -1.
</event>
<event>
 5   0  0.1385669E-05  0.2754328E+04  0.7818609E-02  0.8317590E-01
        2   -1    0    0  501    0  0.00000000000E+00  0.00000000000E+00  0.14538887814E+04  0.14538887814E+04  0.25500000920E-02 0. -1.
       -2   -1    0    0    0  501  0.00000000000E+00  0.00000000000E+00 -0.13044882041E+04  0.13044882041E+04  0.25500000920E-02 0.  1.
    10030    2    1    2    0    0  0.00000000000E+00  0.00000000000E+00  0.14940057726E+03  0.27583769855E+04  0.27543280600E+04 0.  0.
        3    1    3    3  502    0 -0.29025972747E+03 -0.67524391247E+03 -0.10916471907E+04  0.13160162043E+04  0.10100000352E+00 0.  1.
       -3    1    3    3    0  502  0.29025972747E+03  0.67524391247E+03  0.12410477680E+04  0.14423607813E+04  0.10100000352E+00 0. -1.
</event>
<event>
 5   0  0.1382803E-05  0.2848705E+04  0.7818609E-02  0.8288305E-01
        2   -1    0    0  501    0  0.00000000000E+00  0.00000000000E+00  0.12795721697E+04  0.12795721697E+04  0.25500000920E-02 0.  1.
       -2   -1    0    0    0  501  0.00000000000E+00  0.00000000000E+00 -0.15855145373E+04  0.15855145373E+04  0.25500000920E-02 0. -1.
    10030    2    1    2    0    0  0.00000000000E+00  0.00000000000E+00 -0.30594236766E+03  0.28650867070E+04  0.28487051631E+04 0.  0.
        2    1    3    3  502    0 -0.12929995857E+04 -0.97300696165E+02 -0.74582244898E+03  0.14958497516E+04  0.25500000920E-02 0. -1.
       -2    1    3    3    0  502  0.12929995857E+04  0.97300696165E+02  0.43988008132E+03  0.13692369554E+04  0.25500000920E-02 0.  1.
</event>
<event>
 5   0  0.1339837E-05  0.2113338E+04  0.7818609E-02  0.8555391E-01
       -2   -1    0    0    0  501  0.00000000000E+00  0.00000000000E+00  0.60073969762E+03  0.60073969763E+03  0.25500000920E-02 0. -1.
        2   -1    0    0  501    0  0.00000000000E+00  0.00000000000E+00 -0.18586240753E+04  0.18586240753E+04  0.25500000920E-02 0.  1.
    10030    2    1    2    0    0  0.00000000000E+00  0.00000000000E+00 -0.12578843776E+04  0.24593637729E+04  0.21133378953E+04 0.  0.
        5    1    3    3  502    0  0.96166725566E+03  0.40995761712E+03 -0.44994632474E+03  0.11381313385E+04  0.46999998093E+01 0.  1.
       -5    1    3    3    0  502 -0.96166725566E+03 -0.40995761712E+03 -0.80793805290E+03  0.13212324344E+04  0.46999998093E+01 0. -1.
</event>
<event>
 5   0  0.5002240E-06  0.2881632E+04  0.7818609E-02  0.8278364E-01
       -1   -1    0    0    0  501  0.00000000000E+00  0.00000000000E+00  0.11699856138E+04  0.11699856138E+04  0.50400001928E-02 0.  1.
        1   -1    0    0  501    0  0.00000000000E+00  0.00000000000E+00 -0.17743383676E+04  0.17743383676E+04  0.50400001928E-02 0. -1.
    10030    2    1    2    0    0  0.00000000000E+00  0.00000000000E+00 -0.60435275372E+03  0.29443239814E+04  0.28816317351E+04 0.  0.
        4    1    3    3  502    0 -0.31114510838E+03 -0.13636637036E+04  0.51118913899E+02  0.13996445017E+04  0.12699999809E+01 0. -1.
       -4    1    3    3    0  502  0.31114510838E+03  0.13636637036E+04 -0.65547166762E+03  0.15446794797E+04  0.12699999809E+01 0.  1.
</event>
<event>
 5   0  0.5059249E-06  0.2956326E+04  0.7818609E-02  0.8256313E-01
       -1   -1    0    0    0  501  0.00000000000E+00  0.00000000000E+00  0.11634043542E+04  0.11634043543E+04  0.50400001928E-02 0. -1.
        1   -1    0    0  501    0  0.00000000000E+00  0.00000000000E+00 -0.18780789035E+04  0.18780789035E+04  0.50400001928E-02 0.  1.
    10030    2    1    2    0    0  0.00000000000E+00  0.00000000000E+00 -0.71467454924E+03  0.30414832577E+04  0.29563255396E+04 0.  0.
        1    1    3    3  502    0  0.85852170971E+03  0.69979434897E+03  0.64973302734E+03  0.12841046156E+04  0.50400001928E-02 0. -1.
       -1    1    3    3    0  502 -0.85852170971E+03 -0.69979434897E+03 -0.13644075766E+04  0.17573786422E+04  0.50400001928E-02 0.  1.
</event>
<event>
 5   0  0.1382803E-05  0.2854018E+04  0.7818609E-02  0.8286691E-01
       -2   -1    0    0    0  501  0.00000000000E+00  0.00000000000E+00  0.22031425461E+04  0.22031425461E+04  0.25500000920E-02 0. -1.
        2   -1    0    0  501    0  0.00000000000E+00  0.00000000000E+00 -0.92429545282E+03  0.92429545282E+03  0.25500000920E-02 0.  1.
    10030    2    1    2    0    0  0.00000000000E+00  0.00000000000E+00  0.12788470933E+04  0.31274379990E+04  0.28540179658E+04 0.  0.
        2    1    3    3  502    0  0.11457929011E+04  0.85057889192E+03  0.63354146352E+03  0.15613137448E+04  0.25500000920E-02 0.  1.
       -2    1    3    3    0  502 -0.11457929011E+04 -0.85057889192E+03  0.64530562980E+03  0.15661242542E+04  0.25500000920E-02 0. -1.
</event>
<event>
 5   0  0.4590125E-06  0.1874451E+04  0.7818609E-02  0.8667680E-01
        3   -1    0    0  501    0  0.00000000000E+00  0.00000000000E+00  0.63017606691E+03  0.63017607500E+03  0.10100000352E+00 0. -1.
       -3   -1    0    0    0  501  0.00000000000E+00  0.00000000000E+00 -0.13938821902E+04  0.13938821938E+04  0.10100000352E+00 0.  1.
    10030    2    1    2    0    0  0.00000000000E+00  0.00000000000E+00 -0.76370612324E+03  0.20240582688E+04  0.18744505416E+04 0.  0.
        2    1    3    3  502    0 -0.46607691917E+03  0.14733981678E+02 -0.12597269944E+04  0.13432635204E+04  0.25500000920E-02 0.  1.
       -2    1    3    3    0  502  0.46607691917E+03 -0.14733981678E+02  0.49602087118E+03  0.68079474840E+03  0.25500000920E-02 0. -1.
</event>
<event>
 5   0  0.5002240E-06  0.2900288E+04  0.7818609E-02  0.8272792E-01
        1   -1    0    0  501    0  0.00000000000E+00  0.00000000000E+00  0.15124613835E+04  0.15124613835E+04  0.50400001928E-02 0.  1.
       -1   -1    0    0    0  501  0.00000000000E+00  0.00000000000E+00 -0.13903941258E+04  0.13903941258E+04  0.50400001928E-02 0. -1.
    10030    2    1    2    0    0  0.00000000000E+00  0.00000000000E+00  0.12206725767E+03  0.29028555093E+04  0.29002878637E+04 0.  0.
        4    1    3    3  502    0 -0.12435369555E+04 -0.72303683345E+02 -0.68212207918E+03  0.14201774981E+04  0.12699999809E+01 0. -1.
       -4    1    3    3    0  502  0.12435369555E+04  0.72303683345E+02  0.80418933684E+03  0.14826780112E+04  0.12699999809E+01 0.  1.
</event>
<event>
 5   0  0.1307832E-05  0.3297545E+04  0.7818609E-02  0.8163520E-01
       -2   -1    0    0    0  501  0.00000000000E+00  0.00000000000E+00  0.16796808015E+04  0.16796808015E+04  0.25500000920E-02 0.  1.
        2   -1    0    0  501    0  0.00000000000E+00  0.00000000000E+00 -0.16184330127E+04  0.16184330127E+04  0.25500000920E-02 0. -1.
    10030    2    1    2    0    0  0.00000000000E+00  0.00000000000E+00  0.61247788737E+02  0.32981138142E+04  0.32975450626E+04 0.  0.
        4    1    3    3  502    0  0.64768392920E+03  0.61454462244E+01  0.15471034026E+04  0.16772187662E+04  0.12699999809E+01 0.  1.
       -4    1    3    3    0  502 -0.64768392920E+03 -0.61454462244E+01 -0.14858556138E+04  0.16208950480E+04  0.12699999809E+01 0. -1.
</event>
<event>
 5   0  0.5261878E-06  0.2849882E+04  0.7818609E-02  0.8287947E-01
       -1   -1    0    0    0  501  0.00000000000E+00  0.00000000000E+00  0.14106495446E+04  0.14106495446E+04  0.50400001928E-02 0.  1.
        1   -1    0    0  501    0  0.00000000000E+00  0.00000000000E+00 -0.14393776672E+04  0.14393776672E+04  0.50400001928E-02 0. -1.
    10030    2    1    2    0    0  0.00000000000E+00  0.00000000000E+00 -0.28728122545E+02  0.28500272118E+04  0.28498824192E+04 0.  0.
        5    1    3    3  502    0  0.18378179262E+03 -0.76524611553E+03  0.11735759127E+04  0.14130392342E+04  0.46999998093E+01 0.  1.
       -5    1    3    3    0  502 -0.18378179262E+03  0.76524611553E+03 -0.12023040352E+04  0.14369879776E+04  0.46999998093E+01 0. -1.
</event>
<event>
 5   0  0.1385669E-05  0.2600504E+04  0.7818609E-02  0.8368030E-01
        2   -1    0    0  501    0  0.00000000000E+00  0.00000000000E+00  0.28135217287E+04  0.28135217287E+04  0.25500000920E-02 0. -1.
       -2   -1    0    0    0  501  0.00000000000E+00  0.00000000000E+00 -0.60090348191E+03  0.60090348192E+03  0.25500000920E-02 0.  1.
    10030    2    1    2    0    0  0.00000000000E+00  0.00000000000E+00  0.22126182468E+04  0.34144252107E+04  0.26005037998E+04 0.  0.
        3    1    3    3  502    0  0.11752571726E+04 -0.24099050602E+03  0.44804707072E+03  0.12806451630E+04  0.10100000352E+00 0.  1.
       -3    1    3    3    0  502 -0.11752571726E+04  0.24099050602E+03  0.17645711761E+04  0.21337800476E+04  0.10100000352E+00 0. -1.
</event>
<event>
 5   0  0.1336899E-05  0.2726264E+04  0.7818609E-02  0.8326533E-01
        2   -1    0    0  501    0  0.00000000000E+00  0.00000000000E+00  0.14354313390E+04  0.14354313390E+04  0.25500000920E-02 0.  1.
       -2   -1    0    0    0  501  0.00000000000E+00  0.00000000000E+00 -0.12944741874E+04  0.12944741874E+04  0.25500000920E-02 0. -1.
    10030    2    1    2    0    0  0.00000000000E+00  0.00000000000E+00  0.14095715165E+03  0.27299055264E+04  0.27262639756E+04 0.  0.
        1    1    3    3  502    0 -0.42967189287E+03  0.47213632314E+03  0.12764951488E+04  0.14272247574E+04  0.50400001928E-02 0.  1.
       -1    1    3    3    0  502  0.42967189287E+03 -0.47213632314E+03 -0.11355379971E+04  0.13026807691E+04  0.50400001928E-02 0. -1.
</event>
<event>
 5   0  0.5059249E-06  0.2886996E+04  0.7818609E-02  0.8276757E-01
       -1   -1    0    0    0  501  0.00000000000E+00  0.00000000000E+00  0.17360118103E+04  0.17360118103E+04  0.50400001928E-02 0.  1.
        1   -1    0    0  501    0  0.00000000000E+00  0.00000000000E+00 -0.12002721633E+04  0.12002721633E+04  0.50400001928E-02 0. -1.
    10030    2    1    2    0    0  0.00000000000E+00  0.00000000000E+00  0.53573964703E+03  0.29362839736E+04  0.28869961213E+04 0.  0.
        1    1    3    3  502    0 -0.10148430742E+04  0.92474011991E+03 -0.18542496040E+03  0.13854360940E+04  0.50400001928E-02 0. -1.
       -1    1    3    3    0  502  0.10148430742E+04 -0.92474011991E+03  0.72116460744E+03  0.15508478796E+04  0.50400001928E-02 0.  1.
</event>
<event>
 5   0  0.5352212E-06  0.2725604E+04  0.7818609E-02  0.8326745E-01
        1   -1    0    0  501    0  0.00000000000E+00  0.00000000000E+00  0.18564493863E+04  0.18564493863E+04  0.50400001928E-02 0.  1.
       -1   -1    0    0    0  501  0.00000000000E+00  0.00000000000E+00 -0.10004199030E+04  0.10004199030E+04  0.50400001928E-02 0. -1.
    10030    2    1    2    0    0  0.00000000000E+00  0.00000000000E+00  0.85602948335E+03  0.28568692893E+04  0.27256037239E+04 0.  0.
        2    1    3    3  502    0  0.82024899535E+03 -0.10881055287E+04  0.45017183992E+03  0.14350737756E+04  0.25500000920E-02 0.  1.
       -2    1    3    3    0  502 -0.82024899535E+03  0.10881055287E+04  0.40585764343E+03  0.14217955137E+04  0.25500000920E-02 0. -1.
</event>
<event>
 5   0  0.5002240E-06  0.2764152E+04  0.7818609E-02  0.8314485E-01
        1   -1    0    0  501    0  0.00000000000E+00  0.00000000000E+00  0.16243212175E+04  0.16243212175E+04  0.50400001928E-02 0.  1.
       -1   -1    0    0    0  501  0.00000000000E+00  0.00000000000E+00 -0.11759582379E+04  0.11759582379E+04  0.50400001928E-02 0. -1.
    10030    2    1    2    0    0  0.00000000000E+00  0.00000000000E+00  0.44836297962E+03  0.28002794554E+04  0.27641518893E+04 0.  0.
        4    1    3    3  502    0 -0.88506181535E+03  0.45553611245E+03 -0.74714335023E+03  0.12446173570E+04  0.12699999809E+01 0. -1.
       -4    1    3    3    0  502  0.88506181535E+03 -0.45553611245E+03  0.11955063298E+04  0.15556620984E+04  0.12699999809E+01 0.  1.
</event>
<event>
 5   0  0.5002240E-06  0.2852391E+04  0.7818609E-02  0.8287185E-01
       -1   -1    0    0    0  501  0.00000000000E+00  0.00000000000E+00  0.11139452868E+04  0.11139452868E+04  0.50400001928E-02 0. -1.
        1   -1    0    0  501    0  0.00000000000E+00  0.00000000000E+00 -0.18259724592E+04  0.18259724593E+04  0.50400001928E-02 0.  1.
    10030    2    1    2    0    0  0.00000000000E+00  0.00000000000E+00 -0.71202717247E+03  0.29399177460E+04  0.28523908672E+04 0.  0.
        4    1    3    3  502    0 -0.76662559145E+03  0.91496877862E+03 -0.11604430326E+04  0.16647859647E+04  0.12699999809E+01 0. -1.
       -4    1    3    3    0  502  0.76662559145E+03 -0.91496877862E+03  0.44841586015E+03  0.12751317814E+04  0.12699999809E+01 0.  1.
</event>
<event>
 5   0  0.5059249E-06  0.2919689E+04  0.7818609E-02  0.8267043E-01
       -1   -1    0    0    0  501  0.00000000000E+00  0.00000000000E+00  0.19824036968E+04  0.19824036968E+04  0.50400001928E-02 0. -1.
        1   -1    0    0  501    0  0.00000000000E+00  0.00000000000E+00 -0.10750315419E+04  0.10750315419E+04  0.50400001928E-02 0.  1.
    10030    2    1    2    0    0  0.00000000000E+00  0.00000000000E+00  0.90737215484E+03  0.30574352387E+04  0.29196893690E+04 0.  0.
        1    1    3    3  502    0  0.53643815072E+03  0.34124541310E+03 -0.92244011026E+03  0.11203169545E+04  0.50400001928E-02 0.  1.
       -1    1    3    3    0  502 -0.53643815072E+03 -0.34124541310E+03  0.18298122651E+04  0.19371182842E+04  0.50400001928E-02 0. -1.
</event>
<event>
 5   0  0.1339837E-05  0.2943839E+04  0.7818609E-02  0.8259952E-01
       -2   -1    0    0    0  501  0.00000000000E+00  0.00000000000E+00  0.10740371033E+04  0.10740371033E+04  0.25500000920E-02 0.  1.
        2   -1    0    0  501    0  0.00000000000E+00  0.00000000000E+00 -0.20171987531E+04  0.20171987531E+04  0.25500000920E-02 0. -1.
    10030    2    1    2    0    0  0.00000000000E+00  0.00000000000E+00 -0.94316164982E+03  0.30912358564E+04  0.29438385184E+04 0.  0.
        5    1    3    3  502    0  0.87629305361E+03 -0.41798323842E+03  0.69012324446E+03  0.11911723998E+04  0.46999998093E+01 0.  1.
       -5    1    3    3    0  502 -0.87629305361E+03  0.41798323842E+03 -0.16332848943E+04  0.19000634566E+04  0.46999998093E+01 0. -1.
</event>
<event>
 5   0  0.1382803E-05  0.2875049E+04  0.7818609E-02  0.8280340E-01
       -2   -1    0    0    0  501  0.00000000000E+00  0.00000000000E+00  0.16320223497E+04  0.16320223497E+04  0.25500000920E-02 0. -1.
        2   -1    0    0  501    0  0.00000000000E+00  0.00000000000E+00 -0.12662061632E+04  0.12662061632E+04  0.25500000920E-02 0.  1.
    10030    2    1    2    0    0  0.00000000000E+00  0.00000000000E+00  0.36581618655E+03  0.28982285129E+04  0.28750490484E+04 0.  0.
        2    1    3    3  502    0 -0.88591491074E+03 -0.53298334985E+03  0.11897399310E+04  0.15761971906E+04  0.25500000920E-02 0. -1.
       -2    1    3    3    0  502  0.88591491074E+03  0.53298334985E+03 -0.82392374449E+03  0.13220313223E+04  0.25500000920E-02 0.  1.
</event>
<event>
 5   0  0.5352212E-06  0.2877816E+04  0.7818609E-02  0.8279509E-01
       -1   -1    0    0    0  501  0.00000000000E+00  0.00000000000E+00  0.83449577599E+03  0.83449577601E+03  0.50400001928E-02 0. -1.
        1   -1    0    0  501    0  0.00000000000E+00  0.00000000000E+00 -0.24810857820E+04  0.24810857820E+04  0.50400001928E-02 0.  1.
    10030    2    1    2    0    0  0.00000000000E+00  0.00000000000E+00 -0.16465900060E+04  0.33155815580E+04  0.28778155639E+04 0.  0.
        2    1    3    3  502    0 -0.13386601768E+03  0.15669304600E+03 -0.24639939153E+04  0.24725975888E+04  0.25500000920E-02 0.  1.
       -2    1    3    3    0  502  0.13386601768E+03 -0.15669304600E+03  0.81740390933E+03  0.84298396921E+03  0.25500000920E-02 0. -1.
</event>
<event>
 5   0  0.5059249E-06  0.2854968E+04  0.7818609E-02  0.8286403E-01
       -1   -1    0    0    0  501  0.00000000000E+00  0.00000000000E+00  0.11047362813E+04  0.11047362813E+04  0.50400001928E-02 0. -1.
        1   -1    0    0  501    0  0.00000000000E+00  0.00000000000E+00 -0.18445217977E+04  0.18445217978E+04  0.50400001928E-02 0.  1.
    10030    2    1    2    0    0  0.00000000000E+00  0.00000000000E+00 -0.73978551641E+03  0.29492580791E+04  0.28549677068E+04 0.  0.
        1    1    3    3  502    0 -0.11674762482E+04 -0.29428948771E+03 -0.11620990672E+04  0.16733443563E+04  0.50400001928E-02 0.  1.
       -1    1    3    3    0  502  0.11674762482E+04  0.29428948771E+03  0.42231355078E+03  0.12759137228E+04  0.50400001928E-02 0. -1.
</event>
<event>
 5   0  0.5154476E-06  0.2933032E+04  0.7818609E-02  0.8263117E-01
        1   -1    0    0  501    0  0.00000000000E+00  0.00000000000E+00  0.18687707016E+04  0.18687707016E+04  0.50400001928E-02 0.  1.
       -1   -1    0    0    0  501  0.00000000000E+00  0.00000000000E+00 -0.11508467861E+04  0.11508467861E+04  0.50400001928E-02 0. -1.
    10030    2    1    2    0    0  0.00000000000E+00  0.00000000000E+00  0.71792391553E+03  0.30196174877E+04  0.29330317120E+04 0.  0.
        3    1    3    3  502    0 -0.85961228511E+03  0.88809853617E+03 -0.45365322420E+03  0.13166068315E+04  0.10100000352E+00 0. -1.
       -3    1    3    3    0  502  0.85961228511E+03 -0.88809853617E+03  0.11715771397E+04  0.17030106562E+04  0.10100000352E+00 0.  1.
</event>
<event>
 5   0  0.5059249E-06  0.2759588E+04  0.7818609E-02  0.8315926E-01
       -1   -1    0    0    0  501  0.00000000000E+00  0.00000000000E+00  0.15168727936E+04  0.15168727937E+04  0.50400001928E-02 0. -1.
        1   -1    0    0  501    0  0.00000000000E+00  0.00000000000E+00 -0.12551027632E+04  0.12551027632E+04  0.50400001928E-02 0.  1.
    10030    2    1    2    0    0  0.00000000000E+00  0.00000000000E+00  0.26177003048E+03  0.27719755568E+04  0.27595878204E+04 0.  0.
        1    1    3    3  502    0  0.11227489334E+04 -0.53887097115E+03  0.72759217530E+03  0.14423375002E+04  0.50400001928E-02 0. -1.
       -1    1    3    3    0  502 -0.11227489334E+04  0.53887097115E+03 -0.46582214482E+03  0.13296380566E+04  0.50400001928E-02 0.  1.
</event>
<event>
 5   0  0.5002240E-06  0.1917837E+04  0.7818609E-02  0.8646028E-01
       -1   -1    0    0    0  501  0.00000000000E+00  0.00000000000E+00  0.98490370273E+03  0.98490370275E+03  0.50400001928E-02 0. -1.
        1   -1    0    0  501    0  0.00000000000E+00  0.00000000000E+00 -0.93361886197E+03  0.93361886198E+03  0.50400001928E-02 0.  1.
    10030    2    1    2    0    0  0.00000000000E+00  0.00000000000E+00  0.51284840761E+02  0.19185225647E+04  0.19178369838E+04 0.  0.
        4    1    3    3  502    0 -0.81288845211E+03 -0.36713293553E+03 -0.32654711188E+03  0.94984675453E+03  0.12699999809E+01 0.  1.
       -4    1    3    3    0  502  0.81288845211E+03  0.36713293553E+03  0.37783195264E+03  0.96867581020E+03  0.12699999809E+01 0. -1.
</event>
<event>
 5   0  0.5002240E-06  0.2924601E+04  0.7818609E-02  0.8265596E-01
        1   -1    0    0  501    0  0.00000000000E+00  0.00000000000E+00  0.12766240749E+04  0.12766240749E+04  0.50400001928E-02 0. -1.
       -1   -1    0    0    0  501  0.00000000000E+00  0.00000000000E+00 -0.16749818253E+04  0.16749818253E+04  0.50400001928E-02 0.  1.
    10030    2    1    2    0    0  0.00000000000E+00  0.00000000000E+00 -0.39835775042E+03  0.29516059002E+04  0.29246005698E+04 0.  0.
        4    1    3    3  502    0 -0.65689272277E+02 -0.81385669289E+03 -0.14234933998E+04  0.16410401790E+04  0.12699999809E+01 0.  1.
       -4    1    3    3    0  502  0.65689272277E+02  0.81385669289E+03  0.10251356493E+04  0.13105657212E+04  0.12699999809E+01 0. -1.
</event>
<event>
 5   0  0.5154476E-06  0.2904628E+04  0.7818609E-02  0.8271502E-01
        1   -1    0    0  501    0  0.00000000000E+00  0.00000000000E+00  0.20311945440E+04  0.20311945440E+04  0.50400001928E-02 0.  1.
       -1   -1    0    0    0  501  0.00000000000E+00  0.00000000000E+00 -0.10384114350E+04  0.10384114350E+04  0.50400001928E-02 0. -1.
    10030    2    1    2    0    0  0.00000000000E+00  0.00000000000E+00  0.99278310901E+03  0.30696059790E+04  0.29046277842E+04 0.  0.
        3    1    3    3  502    0  0.89510232101E+03 -0.11069678629E+04  0.80017213895E+03  0.16330528089E+04  0.10100000352E+00 0.  1.
       -3    1    3    3    0  502 -0.89510232101E+03  0.11069678629E+04  0.19261097006E+03  0.14365531701E+04  0.10100000352E+00 0. -1.
</event>
<event>
 5   0  0.1382803E-05  0.3453367E+04  0.7818609E-02  0.8124931E-01
       -2   -1    0    0    0  501  0.00000000000E+00  0.00000000000E+00  0.21065745400E+04  0.21065745400E+04  0.25500000920E-02 0. -1.
        2   -1    0    0  501    0  0.00000000000E+00  0.00000000000E+00 -0.14153007731E+04  0.14153007731E+04  0.25500000920E-02 0.  1.
    10030    2    1    2    0    0  0.00000000000E+00  0.00000000000E+00  0.69127376691E+03  0.35218753131E+04  0.34533673856E+04 0.  0.
        2    1    3    3  502    0  0.31774927553E+03 -0.53850741860E+02  0.20756296928E+04  0.21005006847E+04  0.25500000920E-02 0. -1.
       -2    1    3    3    0  502 -0.31774927553E+03  0.53850741860E+02 -0.13843559259E+04  0.14213746284E+04  0.25500000920E-02 0.  1.
</event>
<event>
 5   0  0.5261878E-06  0.2904220E+04  0.7818609E-02  0.8271623E-01
       -1   -1    0    0    0  501  0.00000000000E+00  0.00000000000E+00  0.17788355724E+04  0.17788355724E+04  0.50400001928E-02 0.  1.
        1   -1    0    0  501    0  0.00000000000E+00  0.00000000000E+00 -0.11853955690E+04  0.11853955690E+04  0.50400001928E-02 0. -1.
    10030    2    1    2    0    0  0.00000000000E+00  0.00000000000E+00  0.59344000345E+03  0.29642311414E+04  0.29042202433E+04 0.  0.
        5    1    3    3  502    0 -0.13186774810E+04 -0.52249260489E+03  0.61410017822E+03  0.15456551815E+04  0.46999998093E+01 0.  1.
       -5    1    3    3    0  502  0.13186774810E+04  0.52249260489E+03 -0.20660174766E+02  0.14185759599E+04  0.46999998093E+01 0. -1.
</event>
<event>
 5   0  0.1336899E-05  0.2338281E+04  0.7818609E-02  0.8462979E-01
       -2   -1    0    0    0  501  0.00000000000E+00  0.00000000000E+00  0.10448516791E+04  0.10448516791E+04  0.25500000920E-02 0. -1.
        2   -1    0    0  501    0  0.00000000000E+00  0.00000000000E+00 -0.13082134806E+04  0.13082134806E+04  0.25500000920E-02 0.  1.
    10030    2    1    2    0    0  0.00000000000E+00  0.00000000000E+00 -0.26336180149E+03  0.23530651597E+04  0.23382806092E+04 0.  0.
        1    1    3    3  502    0  0.41337923391E+03  0.55544974545E+03 -0.10797001619E+04  0.12826376146E+04  0.50400001928E-02 0.  1.
       -1    1    3    3    0  502 -0.41337923391E+03 -0.55544974545E+03  0.81633836039E+03  0.10704275452E+04  0.50400001928E-02 0. -1.
</event>
<event>
 5   0  0.5154476E-06  0.3298866E+04  0.7818609E-02  0.8163184E-01
        1   -1    0    0  501    0  0.00000000000E+00  0.00000000000E+00  0.33274037439E+04  0.33274037439E+04  0.50400001928E-02 0.  1.
       -1   -1    0    0    0  501  0.00000000000E+00  0.00000000000E+00 -0.81764327212E+03  0.81764327214E+03  0.50400001928E-02 0. -1.
    10030    2    1    2    0    0  0.00000000000E+00  0.00000000000E+00  0.25097604717E+04  0.41450470160E+04  0.32988660384E+04 0.  0.
        3    1    3    3  502    0 -0.90074886918E+03  0.13346513486E+04  0.17043980511E+04  0.23446994422E+04  0.10100000352E+00 0.  1.
       -3    1    3    3    0  502  0.90074886918E+03 -0.13346513486E+04  0.80536242068E+03  0.18003475738E+04  0.10100000352E+00 0. -1.
</event>
<event>
 5   0  0.1336899E-05  0.2895819E+04  0.7818609E-02  0.8274122E-01
        2   -1    0    0  501    0  0.00000000000E+00  0.00000000000E+00  0.21737812199E+04  0.21737812199E+04  0.25500000920E-02 0.  1.
       -2   -1    0    0    0  501  0.00000000000E+00  0.00000000000E+00 -0.96442189696E+03  0.96442189697E+03  0.25500000920E-02 0. -1.
    10030    2    1    2    0    0  0.00000000000E+00  0.00000000000E+00  0.12093593230E+04  0.31382031169E+04  0.28958191986E+04 0.  0.
        1    1    3    3  502    0  0.48679127783E+03  0.12515121942E+03  0.20762062618E+04  0.21361790696E+04  0.50400001928E-02 0.  1.
       -1    1    3    3    0  502 -0.48679127783E+03 -0.12515121942E+03 -0.86684693885E+03  0.10020240473E+04  0.50400001928E-02 0. -1.
</event>
<event>
 5   0  0.5059249E-06  0.2912423E+04  0.7818609E-02  0.8269191E-01
        1   -1    0    0  501    0  0.00000000000E+00  0.00000000000E+00  0.19745658551E+04  0.19745658551E+04  0.50400001928E-02 0.  1.
       -1   -1    0    0    0  501  0.00000000000E+00  0.00000000000E+00 -0.10739330054E+04  0.10739330055E+04  0.50400001928E-02 0. -1.
    10030    2    1    2    0    0  0.00000000000E+00  0.00000000000E+00  0.90063284968E+03  0.30484988606E+04  0.29124226639E+04 0.  0.
        1    1    3    3  502    0  0.10765550992E+04  0.78492610165E+03 -0.16491398807E+03  0.13424889162E+04  0.50400001928E-02 0. -1.
       -1    1    3    3    0  502 -0.10765550992E+04 -0.78492610165E+03  0.10655468378E+04  0.17060099443E+04  0.50400001928E-02 0.  1.
</event>
<event>
 5   0  0.1339837E-05  0.2860182E+04  0.7818609E-02  0.8284824E-01
        2   -1    0    0  501    0  0.00000000000E+00  0.00000000000E+00  0.10146244011E+04  0.10146244011E+04  0.25500000920E-02 0.  1.
       -2   -1    0    0    0  501  0.00000000000E+00  0.00000000000E+00 -0.20156814673E+04  0.20156814673E+04  0.25500000920E-02 0. -1.
    10030    2    1    2    0    0  0.00000000000E+00  0.00000000000E+00 -0.10010570662E+04  0.30303058685E+04  0.28601815339E+04 0.  0.
        5    1    3    3  502    0  0.10363217435E+04 -0.96689360361E+03 -0.29869402684E+03  0.14484772033E+04  0.46999998093E+01 0.  1.
       -5    1    3    3    0  502 -0.10363217435E+04  0.96689360361E+03 -0.70236303939E+03  0.15818286652E+04  0.46999998093E+01 0. -1.
</event>
<event>
 5   0  0.5352212E-06  0.2987640E+04  0.7818609E-02  0.8247269E-01
        1   -1    0    0  501    0  0.00000000000E+00  0.00000000000E+00  0.13361566323E+04  0.13361566323E+04  0.50400001928E-02 0.  1.
       -1   -1    0    0    0  501  0.00000000000E+00  0.00000000000E+00 -0.16700872067E+04  0.16700872068E+04  0.50400001928E-02 0. -1.
    10030    2    1    2    0    0  0.00000000000E+00  0.00000000000E+00 -0.33393057441E+03  0.30062438391E+04  0.29876399367E+04 0.  0.
        2    1    3    3  502    0 -0.83217593717E+03  0.93122714966E+03 -0.99170152178E+03  0.15947327999E+04  0.25500000920E-02 0.  1.
       -2    1    3    3    0  502  0.83217593717E+03 -0.93122714966E+03  0.65777094737E+03  0.14115110392E+04  0.25500000920E-02 0. -1.
</event>
<event>
 5   0  0.1385669E-05  0.3037689E+04  0.7818609E-02  0.8233050E-01
        2   -1    0    0  501    0  0.00000000000E+00  0.00000000000E+00  0.15557070224E+04  0.15557070224E+04  0.25500000920E-02 0. -1.
       -2   -1    0    0    0  501  0.00000000000E+00  0.00000000000E+00 -0.14828549960E+04  0.14828549960E+04  0.25500000920E-02 0.  1.
    10030    2    1    2    0    0  0.00000000000E+00  0.00000000000E+00  0.72852026432E+02  0.30385620184E+04  0.30376885492E+04 0.  0.
        3    1    3    3  502    0 -0.73632790476E+03  0.13229402706E+04  0.15703504818E+03  0.15221727101E+04  0.10100000352E+00 0. -1.
       -3    1    3    3    0  502  0.73632790476E+03 -0.13229402706E+04 -0.84183021747E+02  0.15163893083E+04  0.10100000352E+00 0.  1.
</event>
<event>
 5   0  0.1382803E-05  0.2909538E+04  0.7818609E-02  0.8270045E-01
        2   -1    0    0  501    0  0.00000000000E+00  0.00000000000E+00  0.13744116552E+04  0.13744116552E+04  0.25500000920E-02 0.  1.
       -2   -1    0    0    0  501  0.00000000000E+00  0.00000000000E+00 -0.15398241737E+04  0.15398241737E+04  0.25500000920E-02 0. -1.
    10030    2    1    2    0    0  0.00000000000E+00  0.00000000000E+00 -0.16541251852E+03  0.29142358288E+04  0.29095376205E+04 0.  0.
        2    1    3    3  502    0 -0.62875367220E+03  0.37158528247E+03  0.11774769711E+04  0.13855897011E+04  0.25500000920E-02 0.  1.
       -2    1    3    3    0  502  0.62875367220E+03 -0.37158528247E+03 -0.13428894896E+04  0.15286461277E+04  0.25500000920E-02 0. -1.
</event>
<event>
 5   0  0.5352212E-06  0.2947837E+04  0.7818609E-02  0.8258785E-01
       -1   -1    0    0    0  501  0.00000000000E+00  0.00000000000E+00  0.14782521356E+04  0.14782521356E+04  0.50400001928E-02 0.  1.
        1   -1    0    0  501    0  0.00000000000E+00  0.00000000000E+00 -0.14695976857E+04  0.14695976857E+04  0.50400001928E-02 0. -1.
    10030    2    1    2    0    0  0.00000000000E+00  0.00000000000E+00  0.86544498893E+01  0.29478498213E+04  0.29478371172E+04 0.  0.
        2    1    3    3  502    0 -0.17673762674E+03 -0.14614872830E+04  0.76816504147E+02  0.14741377284E+04  0.25500000920E-02 0.  1.
       -2    1    3    3    0  502  0.17673762674E+03  0.14614872830E+04 -0.68162054257E+02  0.14737120929E+04  0.25500000920E-02 0. -1.
</event>
<event>
 5   0  0.1339837E-05  0.2891890E+04  0.7818609E-02  0.8275294E-01
       -2   -1    0    0    0  501  0.00000000000E+00  0.00000000000E+00  0.13251160833E+04  0.13251160833E+04  0.25500000920E-02 0.  1.
        2   -1    0    0  501    0  0.00000000000E+00  0.00000000000E+00 -0.15777917973E+04  0.15777917973E+04  0.25500000920E-02 0. -1.
    10030    2    1    2    0    0  0.00000000000E+00  0.00000000000E+00 -0.25267571407E+03  0.29029078806E+04  0.28918902377E+04 0.  0.
        5    1    3    3  502    0 -0.43791683677E+03 -0.67754240491E+03  0.10781922646E+04  0.13466088949E+04  0.46999998093E+01 0.  1.
       -5    1    3    3    0  502  0.43791683677E+03  0.67754240491E+03 -0.13308679787E+04  0.15562989857E+04  0.46999998093E+01 0. -1.
</event>
<event>
 5   0  0.1339837E-05  0.2219454E+04  0.7818609E-02  0.8510374E-01
        2   -1    0    0  501    0  0.00000000000E+00  0.00000000000E+00  0.15734747142E+04  0.15734747142E+04  0.25500000920E-02 0.  1.
       -2   -1    0    0    0  501  0.00000000000E+00  0.00000000000E+00 -0.78265860228E+03  0.78265860228E+03  0.25500000920E-02 0. -1.
    10030    2    1    2    0    0  0.00000000000E+00  0.00000000000E+00  0.79081611197E+03  0.23561333165E+04  0.22194535549E+04 0.  0.
        5    1    3    3  502    0 -0.86566770799E+03  0.47432223127E+03 -0.14287742700E+03  0.99739571329E+03  0.46999998093E+01 0.  1.
       -5    1    3    3    0  502  0.86566770799E+03 -0.47432223127E+03  0.93369353897E+03  0.13587376032E+04  0.46999998093E+01 0. -1.
</event>
<event>
 5   0  0.1385669E-05  0.2961429E+04  0.7818609E-02  0.8254832E-01
       -2   -1    0    0    0  501  0.00000000000E+00  0.00000000000E+00  0.92982096301E+03  0.92982096302E+03  0.25500000920E-02 0.  1.
        2   -1    0    0  501    0  0.00000000000E+00  0.00000000000E+00 -0.23579979810E+04  0.23579979810E+04  0.25500000920E-02 0. -1.
    10030    2    1    2    0    0  0.00000000000E+00  0.00000000000E+00 -0.14281770180E+04  0.32878189440E+04  0.29614293532E+04 0.  0.
        3    1    3    3  502    0 -0.81216934385E+02  0.11535058108E+04 -0.17408674388E+04  0.20899261460E+04  0.10100000352E+00 0. -1.
       -3    1    3    3    0  502  0.81216934385E+02 -0.11535058108E+04  0.31269042083E+03  0.11978927980E+04  0.10100000352E+00 0.  1.
</event>
<event>
 5   0  0.1336899E-05  0.2720950E+04  0.7818609E-02  0.8328239E-01
       -2   -1    0    0    0  501  0.00000000000E+00  0.00000000000E+00  0.15827209515E+04  0.15827209515E+04  0.25500000920E-02 0. -1.
        2   -1    0    0  501    0  0.00000000000E+00  0.00000000000E+00 -0.11694364603E+04  0.11694364603E+04  0.25500000920E-02 0.  1.
    10030    2    1    2    0    0  0.00000000000E+00  0.00000000000E+00  0.41328449119E+03  0.27521574118E+04  0.27209495307E+04 0.  0.
        1    1    3    3  502    0  0.50606105085E+03 -0.67216458783E+03  0.12880107762E+04  0.15384650727E+04  0.50400001928E-02 0. -1.
       -1    1    3    3    0  502 -0.50606105085E+03  0.67216458783E+03 -0.87472628500E+03  0.12136923391E+04  0.50400001928E-02 0.  1.
</event>
<event>
 5   0  0.5261878E-06  0.3004480E+04  0.7818609E-02  0.8242453E-01
       -1   -1    0    0    0  501  0.00000000000E+00  0.00000000000E+00  0.74877121992E+03  0.74877121994E+03  0.50400001928E-02 0.  1.
        1   -1    0    0  501    0  0.00000000000E+00  0.00000000000E+00 -0.30139040017E+04  0.30139040017E+04  0.50400001928E-02 0. -1.
    10030    2    1    2    0    0  0.00000000000E+00  0.00000000000E+00 -0.22651327818E+04  0.37626752217E+04  0.30044797061E+04 0.  0.
        5    1    3    3  502    0  0.90034919267E+03 -0.38479085908E+03 -0.25593773824E+04  0.27402786993E+04  0.46999998093E+01 0. -1.
       -5    1    3    3    0  502 -0.90034919267E+03  0.38479085908E+03  0.29424460064E+03  0.10223965224E+04  0.46999998093E+01 0.  1.
</event>
<event>
 5   0  0.5059249E-06  0.2894767E+04  0.7818609E-02  0.8274436E-01
        1   -1    0    0  501    0  0.00000000000E+00  0.00000000000E+00  0.22465672516E+04  0.22465672516E+04  0.50400001928E-02 0. -1.
       -1   -1    0    0    0  501  0.00000000000E+00  0.00000000000E+00 -0.93249762411E+03  0.93249762413E+03  0.50400001928E-02 0.  1.
    10030    2    1    2    0    0  0.00000000000E+00  0.00000000000E+00  0.13140696275E+04  0.31790648758E+04  0.28947667433E+04 0.  0.
        1    1    3    3  502    0 -0.58283207488E+03  0.77826009063E+03 -0.52042806208E+03  0.11028269873E+04  0.50400001928E-02 0.  1.
       -1    1    3    3    0  502  0.58283207488E+03 -0.77826009063E+03  0.18344976896E+04  0.20762378884E+04  0.50400001928E-02 0. -1.
</event>
<event>
 5   0  0.4590125E-06  0.2009414E+04  0.7818609E-02  0.8602232E-01
        3   -1    0    0  501    0  0.00000000000E+00  0.00000000000E+00  0.11616214532E+04  0.11616214576E+04  0.10100000352E+00 0.  1.
       -3   -1    0    0    0  501  0.00000000000E+00  0.00000000000E+00 -0.86898893864E+03  0.86898894451E+03  0.10100000352E+00 0. -1.
    10030    2    1    2    0    0  0.00000000000E+00  0.00000000000E+00  0.29263251460E+03  0.20306104021E+04  0.20094140481E+04 0.  0.
        3    1    3    3  502    0 -0.70468127881E+02 -0.36650323140E+03  0.10889721596E+04  0.11511519232E+04  0.10100000352E+00 0.  1.
       -3    1    3    3    0  502  0.70468127881E+02  0.36650323140E+03 -0.79633964504E+03  0.87945847892E+03  0.10100000352E+00 0. -1.
</event>
<event>
 5   0  0.1382803E-05  0.2898273E+04  0.7818609E-02  0.8273391E-01
        2   -1    0    0  501    0  0.00000000000E+00  0.00000000000E+00  0.16711434751E+04  0.16711434751E+04  0.25500000920E-02 0. -1.
       -2   -1    0    0    0  501  0.00000000000E+00  0.00000000000E+00 -0.12566229363E+04  0.12566229363E+04  0.25500000920E-02 0.  1.
    10030    2    1    2    0    0  0.00000000000E+00  0.00000000000E+00  0.41452053879E+03  0.29277664114E+04  0.28982734313E+04 0.  0.
        2    1    3    3  502    0 -0.35781898792E+03 -0.83246922377E+03  0.13496786269E+04  0.16256296726E+04  0.25500000920E-02 0. -1.
       -2    1    3    3    0  502  0.35781898792E+03  0.83246922377E+03 -0.93515808811E+03  0.13021367388E+04  0.25500000920E-02 0.  1.
</event>
<event>
 5   0  0.5352212E-06  0.2870719E+04  0.7818609E-02  0.8281643E-01
       -1   -1    0    0    0  501  0.00000000000E+00  0.00000000000E+00  0.18453937584E+04  0.18453937584E+04  0.50400001928E-02 0. -1.
        1   -1    0    0  501    0  0.00000000000E+00  0.00000000000E+00 -0.11164318976E+04  0.11164318976E+04  0.50400001928E-02 0.  1.
    10030    2    1    2    0    0  0.00000000000E+00  0.00000000000E+00  0.72896186087E+03  0.29618256560E+04  0.28707186944E+04 0.  0.
        2    1    3    3  502    0  0.49808598112E+03  0.11536688888E+04  0.10801930789E+04  0.16570632569E+04  0.25500000920E-02 0. -1.
       -2    1    3    3    0  502 -0.49808598112E+03 -0.11536688888E+04 -0.35123121801E+03  0.13047623991E+04  0.25500000920E-02 0.  1.
</event>
<event>
 5   0  0.1336899E-05  0.2339203E+04  0.7818609E-02  0.8462622E-01
        2   -1    0    0  501    0  0.00000000000E+00  0.00000000000E+00  0.92883687107E+03  0.92883687107E+03  0.25500000920E-02 0.  1.
       -2   -1    0    0    0  501  0.00000000000E+00  0.00000000000E+00 -0.14727751792E+04  0.14727751792E+04  0.25500000920E-02 0. -1.
    10030    2    1    2    0    0  0.00000000000E+00  0.00000000000E+00 -0.54393830810E+03  0.24016120502E+04  0.23392031884E+04 0.  0.
        1    1    3    3  502    0  0.34071653529E+03  0.22049345227E+03 -0.13981681773E+04  0.14558775265E+04  0.50400001928E-02 0. -1.
       -1    1    3    3    0  502 -0.34071653529E+03 -0.22049345227E+03  0.85422986925E+03  0.94573452377E+03  0.50400001928E-02 0.  1.
</event>
<event>
 5   0  0.1339837E-05  0.2294215E+04  0.7818609E-02  0.8480205E-01
       -2   -1    0    0    0  501  0.00000000000E+00  0.00000000000E+00  0.17088371513E+04  0.17088371513E+04  0.25500000920E-02 0. -1.
        2   -1    0    0  501    0  0.00000000000E+00  0.00000000000E+00 -0.77002993372E+03  0.77002993373E+03  0.25500000920E-02 0.  1.
    10030    2    1    2    0    0  0.00000000000E+00  0.00000000000E+00  0.93880721760E+03  0.24788670850E+04  0.22942151236E+04 0.  0.
        5    1    3    3  502    0 -0.40391999535E+02  0.10426421199E+04  0.98430877968E+03  0.14344406463E+04  0.46999998093E+01 0. -1.
       -5    1    3    3    0  502  0.40391999535E+02 -0.10426421199E+04 -0.45501562080E+02  0.10444264388E+04  0.46999998093E+01 0.  1.
</event>
<event>
 5   0  0.4590125E-06  0.2845529E+04  0.7818609E-02  0.8289271E-01
        3   -1    0    0  501    0  0.00000000000E+00  0.00000000000E+00  0.17848302964E+04  0.17848302993E+04  0.10100000352E+00 0.  1.
       -3   -1    0    0    0  501  0.00000000000E+00  0.00000000000E+00 -0.11341460555E+04  0.11341460600E+04  0.10100000352E+00 0. -1.
    10030    2    1    2    0    0  0.00000000000E+00  0.00000000000E+00  0.65068424086E+03  0.29189763593E+04  0.28455285985E+04 0.  0.
        5    1    3    3  502    0 -0.87325934723E+02 -0.12838546942E+04  0.94790708364E+03  0.15982673819E+04  0.46999998093E+01 0. -1.
       -5    1    3    3    0  502  0.87325934723E+02  0.12838546942E+04 -0.29722284277E+03  0.13207089774E+04  0.46999998093E+01 0.  1.
</event>
<event>
 5   0  0.5154476E-06  0.2955089E+04  0.7818609E-02  0.8256673E-01
       -1   -1    0    0    0  501  0.00000000000E+00  0.00000000000E+00  0.12008447266E+04  0.12008447266E+04  0.50400001928E-02 0.  1.
        1   -1    0    0  501    0  0.00000000000E+00  0.00000000000E+00 -0.18180011881E+04  0.18180011881E+04  0.50400001928E-02 0. -1.
    10030    2    1    2    0    0  0.00000000000E+00  0.00000000000E+00 -0.61715646152E+03  0.30188459147E+04  0.29550885873E+04 0.  0.
        3    1    3    3  502    0 -0.16852169583E+03 -0.94156672887E+03  0.84185798930E+03  0.12742340253E+04  0.10100000352E+00 0.  1.
       -3    1    3    3    0  502  0.16852169583E+03  0.94156672887E+03 -0.14590144508E+04  0.17446118894E+04  0.10100000352E+00 0. -1.
</event>
<event>
 5   0  0.5261878E-06  0.2917214E+04  0.7818609E-02  0.8267774E-01
       -1   -1    0    0    0  501  0.00000000000E+00  0.00000000000E+00  0.10458312903E+04  0.10458312903E+04  0.50400001928E-02 0. -1.
        1   -1    0    0  501    0  0.00000000000E+00  0.00000000000E+00 -0.20343000359E+04  0.20343000359E+04  0.50400001928E-02 0.  1.
    10030    2    1    2    0    0  0.00000000000E+00  0.00000000000E+00 -0.98846874556E+03  0.30801313262E+04  0.29172141720E+04 0.  0.
        5    1    3    3  502    0  0.20001122669E+03  0.41065246910E+03  0.96836030844E+03  0.10706931018E+04  0.46999998093E+01 0. -1.
       -5    1    3    3    0  502 -0.20001122669E+03 -0.41065246910E+03 -0.19568290540E+04  0.20094382244E+04  0.46999998093E+01 0.  1.
</event>
<event>
 5   0  0.1336899E-05  0.2880547E+04  0.7818609E-02  0.8278689E-01
       -2   -1    0    0    0  501  0.00000000000E+00  0.00000000000E+00  0.15126144737E+04  0.15126144737E+04  0.25500000920E-02 0.  1.
        2   -1    0    0  501    0  0.00000000000E+00  0.00000000000E+00 -0.13713922036E+04  0.13713922036E+04  0.25500000920E-02 0. -1.
    10030    2    1    2    0    0  0.00000000000E+00  0.00000000000E+00  0.14122227019E+03  0.28840066773E+04  0.28805469594E+04 0.  0.
        1    1    3    3  502    0  0.90566409525E+03  0.94095509495E+03  0.67859970487E+03  0.14717749501E+04  0.50400001928E-02 0.  1.
       -1    1    3    3    0  502 -0.90566409525E+03 -0.94095509495E+03 -0.53737743468E+03  0.14122317273E+04  0.50400001928E-02 0. -1.
</event>
<event>
 5   0  0.1307832E-05  0.2824412E+04  0.7818609E-02  0.8295729E-01
        2   -1    0    0  501    0  0.00000000000E+00  0.00000000000E+00  0.16654896543E+04  0.16654896543E+04  0.25500000920E-02 0.  1.
       -2   -1    0    0    0  501  0.00000000000E+00  0.00000000000E+00 -0.11974408493E+04  0.11974408493E+04  0.25500000920E-02 0. -1.
    10030    2    1    2    0    0  0.00000000000E+00  0.00000000000E+00  0.46804880498E+03  0.28629305036E+04  0.28244116883E+04 0.  0.
        4    1    3    3  502    0 -0.81569485097E+03 -0.85795914508E+03  0.10145069278E+04  0.15590631494E+04  0.12699999809E+01 0.  1.
       -4    1    3    3    0  502  0.81569485097E+03  0.85795914508E+03 -0.54645812278E+03  0.13038673542E+04  0.12699999809E+01 0. -1.
</event>
<event>
 5   0  0.4590125E-06  0.1809098E+04  0.7818609E-02  0.8701476E-01
       -4   -1    0    0    0  501  0.00000000000E+00  0.00000000000E+00  0.34423308340E+03  0.34423542613E+03  0.12699999809E+01 0.  1.
        4   -1    0    0  501    0  0.00000000000E+00  0.00000000000E+00 -0.23768928000E+04  0.23768931393E+04  0.12699999809E+01 0. -1.
    10030    2    1    2    0    0  0.00000000000E+00  0.00000000000E+00 -0.20326597166E+04  0.27211285654E+04  0.18090978818E+04 0.  0.
        1    1    3    3  502    0  0.56884305873E+03  0.15083484554E+02  0.41280564143E+02  0.57053836152E+03  0.50400001928E-02 0.  1.
       -1    1    3    3    0  502 -0.56884305873E+03 -0.15083484554E+02 -0.20739402807E+04  0.21505902039E+04  0.50400001928E-02 0. -1.
</event>
<event>
 5   0  0.5002240E-06  0.2929140E+04  0.7818609E-02  0.8264260E-01
       -1   -1    0    0    0  501  0.00000000000E+00  0.00000000000E+00  0.24021701000E+04  0.24021701000E+04  0.50400001928E-02 0.  1.
        1   -1    0    0  501    0  0.00000000000E+00  0.00000000000E+00 -0.89292833951E+03  0.89292833953E+03  0.50400001928E-02 0. -1.
    10030    2    1    2    0    0  0.00000000000E+00  0.00000000000E+00  0.15092417605E+04  0.32950984395E+04  0.29291403235E+04 0.  0.
        4    1    3    3  502    0 -0.12333100679E+03  0.61979021642E+03 -0.73166477528E+03  0.96679129387E+03  0.12699999809E+01 0. -1.
       -4    1    3    3    0  502  0.12333100679E+03 -0.61979021642E+03  0.22409065358E+04  0.23283071457E+04  0.12699999809E+01 0.  1.
</event>
<event>
 5   0  0.1385669E-05  0.2936505E+04  0.7818609E-02  0.8262098E-01
       -2   -1    0    0    0  501  0.00000000000E+00  0.00000000000E+00  0.12464145711E+04  0.12464145711E+04  0.25500000920E-02 0.  1.
        2   -1    0    0  501    0  0.00000000000E+00  0.00000000000E+00 -0.17295738041E+04  0.17295738041E+04  0.25500000920E-02 0. -1.
    10030    2    1    2    0    0  0.00000000000E+00  0.00000000000E+00 -0.48315923301E+03  0.29759883752E+04  0.29365054001E+04 0.  0.
        3    1    3    3  502    0 -0.39601074623E+03 -0.10528630762E+04 -0.11978882530E+04  0.16432533113E+04  0.10100000352E+00 0.  1.
       -3    1    3    3    0  502  0.39601074623E+03  0.10528630762E+04  0.71472901999E+03  0.13327350639E+04  0.10100000352E+00 0. -1.
</event>
<event>
 5   0  0.5059249E-06  0.2914811E+04  0.7818609E-02  0.8268484E-01
       -1   -1    0    0    0  501  0.00000000000E+00  0.00000000000E+00  0.14311112694E+04  0.14311112694E+04  0.50400001928E-02 0.  1.
        1   -1    0    0  501    0  0.00000000000E+00  0.00000000000E+00 -0.14841826949E+04  0.14841826949E+04  0.50400001928E-02 0. -1.
    10030    2    1    2    0    0  0.00000000000E+00  0.00000000000E+00 -0.53071425475E+02  0.29152939642E+04  0.29148108552E+04 0.  0.
        1    1    3    3  502    0  0.11608928542E+02 -0.88043774791E+03 -0.11880744789E+04  0.14787921973E+04  0.50400001928E-02 0. -1.
       -1    1    3    3    0  502 -0.11608928542E+02  0.88043774791E+03  0.11350030535E+04  0.14365017670E+04  0.50400001928E-02 0.  1.
</event>
<event>
 5   0  0.1385669E-05  0.1989743E+04  0.7818609E-02  0.8611431E-01
       -2   -1    0    0    0  501  0.00000000000E+00  0.00000000000E+00  0.53241940453E+03  0.53241940454E+03  0.25500000920E-02 0.  1.
        2   -1    0    0  501    0  0.00000000000E+00  0.00000000000E+00 -0.18590026748E+04  0.18590026748E+04  0.25500000920E-02 0. -1.
    10030    2    1    2    0    0  0.00000000000E+00  0.00000000000E+00 -0.13265832703E+04  0.23914220794E+04  0.19897427946E+04 0.  0.
        3    1    3    3  502    0 -0.88379997364E+03  0.45678711374E+03 -0.66749412454E+03  0.11980422685E+04  0.10100000352E+00 0.  1.
       -3    1    3    3    0  502  0.88379997364E+03 -0.45678711374E+03 -0.65908914576E+03  0.11933798108E+04  0.10100000352E+00 0. -1.
</event>
<event>
 5   0  0.5352212E-06  0.1952496E+04  0.7818609E-02  0.8629158E-01
        1   -1    0    0  501    0  0.00000000000E+00  0.00000000000E+00  0.80773649523E+03  0.80773649525E+03  0.50400001928E-02 0.  1.
       -1   -1    0    0    0  501  0.00000000000E+00  0.00000000000E+00 -0.11799151806E+04  0.11799151806E+04  0.50400001928E-02 0. -1.
    10030    2    1    2    0    0  0.00000000000E+00  0.00000000000E+00 -0.37217868541E+03  0.19876516759E+04  0.19524964048E+04 0.  0.
        2    1    3    3  502    0 -0.61270790513E+03 -0.26508960632E+03  0.53903996278E+03  0.85804869202E+03  0.25500000920E-02 0.  1.
       -2    1    3    3    0  502  0.61270790513E+03  0.26508960632E+03 -0.91121864818E+03  0.11296029839E+04  0.25500000920E-02 0. -1.
</event>
<event>
 5   0  0.1336899E-05  0.2169418E+04  0.7818609E-02  0.8531266E-01
       -2   -1    0    0    0  501  0.00000000000E+00  0.00000000000E+00  0.12525820934E+04  0.12525820934E+04  0.25500000920E-02 0.  1.
        2   -1    0    0  501    0  0.00000000000E+00  0.00000000000E+00 -0.93933484035E+03  0.93933484036E+03  0.25500000920E-02 0. -1.
    10030    2    1    2    0    0  0.00000000000E+00  0.00000000000E+00  0.31324725301E+03  0.21919169337E+04  0.21694183559E+04 0.  0.
        1    1    3    3  502    0  0.70553999503E+02 -0.33527972968E+03 -0.88322593483E+03  0.94735337439E+03  0.50400001928E-02 0. -1.
       -1    1    3    3    0  502 -0.70553999503E+02  0.33527972968E+03  0.11964731878E+04  0.12445635593E+04  0.50400001928E-02 0.  1.
</event>
<event>
 5   0  0.1382803E-05  0.2862514E+04  0.7818609E-02  0.8284119E-01
        2   -1    0    0  501    0  0.00000000000E+00  0.00000000000E+00  0.20529858151E+04  0.20529858151E+04  0.25500000920E-02 0.  1.
       -2   -1    0    0    0  501  0.00000000000E+00  0.00000000000E+00 -0.99781342954E+03  0.99781342954E+03  0.25500000920E-02 0. -1.
    10030    2    1    2    0    0  0.00000000000E+00  0.00000000000E+00  0.10551723855E+04  0.30507992446E+04  0.28625141515E+04 0.  0.
        2    1    3    3  502    0  0.28444751499E+03 -0.94214759044E+02 -0.96400928808E+03  0.10095051843E+04  0.25500000920E-02 0. -1.
       -2    1    3    3    0  502 -0.28444751499E+03  0.94214759044E+02  0.20191816736E+04  0.20412940603E+04  0.25500000920E-02 0.  1.
</event>
<event>
 5   0  0.5261878E-06  0.2824609E+04  0.7818609E-02  0.8295669E-01
        1   -1    0    0  501    0  0.00000000000E+00  0.00000000000E+00  0.14095481307E+04  0.14095481307E+04  0.50400001928E-02 0. -1.
       -1   -1    0    0    0  501  0.00000000000E+00  0.00000000000E+00 -0.14150662923E+04  0.14150662923E+04  0.50400001928E-02 0.  1.
    10030    2    1    2    0    0  0.00000000000E+00  0.00000000000E+00 -0.55181615584E+01  0.28246144231E+04  0.28246090329E+04 0.  0.
        5    1    3    3  502    0 -0.55317135879E+03 -0.96287023337E+03  0.86986181335E+03  0.14106024609E+04  0.46999998093E+01 0.  1.
       -5    1    3    3    0  502  0.55317135879E+03  0.96287023337E+03 -0.87537997491E+03  0.14140119621E+04  0.46999998093E+01 0. -1.
</event>
<event>
 5   0  0.5002240E-06  0.3122285E+04  0.7818609E-02  0.8209648E-01
       -1   -1    0    0    0  501  0.00000000000E+00  0.00000000000E+00  0.10635221730E+04  0.10635221730E+04  0.50400001928E-02 0.  1.
        1   -1    0    0  501    0  0.00000000000E+00  0.00000000000E+00 -0.22915991310E+04  0.22915991310E+04  0.50400001928E-02 0. -1.
    10030    2    1    2    0    0  0.00000000000E+00  0.00000000000E+00 -0.12280769580E+04  0.33551213040E+04  0.31222853729E+04 0.  0.
        4    1    3    3  502    0  0.28160222226E+03  0.43837019911E+03 -0.21954119276E+04  0.22563916743E+04  0.12699999809E+01 0. -1.
       -4    1    3    3    0  502 -0.28160222226E+03 -0.43837019911E+03  0.96733496958E+03  0.10987296298E+04  0.12699999809E+01 0.  1.
</event>
<event>
 5   0  0.4590125E-06  0.2485101E+04  0.7818609E-02  0.8408313E-01
        3   -1    0    0  501    0  0.00000000000E+00  0.00000000000E+00  0.91211241971E+03  0.91211242530E+03  0.10100000352E+00 0.  1.
       -3   -1    0    0    0  501  0.00000000000E+00  0.00000000000E+00 -0.16926988875E+04  0.16926988905E+04  0.10100000352E+00 0. -1.
    10030    2    1    2    0    0  0.00000000000E+00  0.00000000000E+00 -0.78058646781E+03  0.26048113158E+04  0.24851009552E+04 0.  0.
        4    1    3    3  502    0 -0.41765266298E+02 -0.63115489263E+03 -0.15113118658E+04  0.16383424565E+04  0.12699999809E+01 0. -1.
       -4    1    3    3    0  502  0.41765266298E+02  0.63115489263E+03  0.73072539801E+03  0.96646885938E+03  0.12699999809E+01 0.  1.
</event>
<event>
 5   0  0.1307832E-05  0.2972510E+04  0.7818609E-02  0.8251625E-01
       -2   -1    0    0    0  501  0.00000000000E+00  0.00000000000E+00  0.16946622049E+04  0.16946622049E+04  0.25500000920E-02 0.  1.
        2   -1    0    0  501    0  0.00000000000E+00  0.00000000000E+00 -0.13034775052E+04  0.13034775052E+04  0.25500000920E-02 0. -1.
    10030    2    1    2    0    0  0.00000000000E+00  0.00000000000E+00  0.39118469969E+03  0.29981397100E+04  0.29725100928E+04 0.  0.
        4    1    3    3  502    0  0.63805795050E+03 -0.51685122744E+03 -0.10539189206E+04  0.13360388630E+04  0.12699999809E+01 0. -1.
       -4    1    3    3    0  502 -0.63805795050E+03  0.51685122744E+03  0.14451036202E+04  0.16621008470E+04  0.12699999809E+01 0.  1.
</event>
<event>
 5   0  0.1339837E-05  0.2662951E+04  0.7818609E-02  0.8347127E-01
        2   -1    0    0  501    0  0.00000000000E+00  0.00000000000E+00  0.25059492564E+04  0.25059492564E+04  0.25500000920E-02 0.  1.
       -2   -1    0    0    0  501  0.00000000000E+00  0.00000000000E+00 -0.70744740896E+03  0.70744740896E+03  0.25500000920E-02 0. -1.
    10030    2    1    2    0    0  0.00000000000E+00  0.00000000000E+00  0.17985018474E+04  0.32133966654E+04  0.26629512263E+04 0.  0.
        5    1    3    3  502    0 -0.20320894045E+02  0.48385838634E+03  0.23958927681E+04  0.24443518820E+04  0.46999998093E+01 0.  1.
       -5    1    3    3    0  502  0.20320894045E+02 -0.48385838634E+03 -0.59739092065E+03  0.76904478338E+03  0.46999998093E+01 0. -1.
</event>
<event>
 5   0  0.5059249E-06  0.2879713E+04  0.7818609E-02  0.8278939E-01
        1   -1    0    0  501    0  0.00000000000E+00  0.00000000000E+00  0.13275834734E+04  0.13275834734E+04  0.50400001928E-02 0.  1.
       -1   -1    0    0    0  501  0.00000000000E+00  0.00000000000E+00 -0.15616242599E+04  0.15616242599E+04  0.50400001928E-02 0. -1.
    10030    2    1    2    0    0  0.00000000000E+00  0.00000000000E+00 -0.23404078655E+03  0.28892077333E+04  0.28797128739E+04 0.  0.
        1    1    3    3  502    0  0.26469148261E+03  0.77761337721E+03  0.10694362553E+04  0.13484947347E+04  0.50400001928E-02 0.  1.
       -1    1    3    3    0  502 -0.26469148261E+03 -0.77761337721E+03 -0.13034770418E+04  0.15407129986E+04  0.50400001928E-02 0. -1.
</event>
<event>
 5   0  0.1307832E-05  0.2881387E+04  0.7818609E-02  0.8278437E-01
       -2   -1    0    0    0  501  0.00000000000E+00  0.00000000000E+00  0.13039210484E+04  0.13039210484E+04  0.25500000920E-02 0. -1.
        2   -1    0    0  501    0  0.00000000000E+00  0.00000000000E+00 -0.15918121634E+04  0.15918121634E+04  0.25500000920E-02 0.  1.
    10030    2    1    2    0    0  0.00000000000E+00  0.00000000000E+00 -0.28789111500E+03  0.28957332117E+04  0.28813867390E+04 0.  0.
        4    1    3    3  502    0  0.56268808900E+03  0.60625255961E+03  0.10415189837E+04  0.13300088187E+04  0.12699999809E+01 0. -1.
       -4    1    3    3    0  502 -0.56268808900E+03 -0.60625255961E+03 -0.13294100987E+04  0.15657243930E+04  0.12699999809E+01 0.  1.
</event>
<event>
 5   0  0.4590125E-06  0.2927841E+04  0.7818609E-02  0.8264642E-01
        3   -1    0    0  501    0  0.00000000000E+00  0.00000000000E+00  0.14639923685E+04  0.14639923719E+04  0.10100000352E+00 0. -1.
       -3   -1    0    0    0  501  0.00000000000E+00  0.00000000000E+00 -0.14638486278E+04  0.14638486313E+04  0.10100000352E+00 0.  1.
    10030    2    1    2    0    0  0.00000000000E+00  0.00000000000E+00  0.14374064961E+00  0.29278410032E+04  0.29278409997E+04 0.  0.
        4    1    3    3  502    0  0.11180536198E+04 -0.94170264194E+03 -0.78756135037E+02  0.14639166316E+04  0.12699999809E+01 0.  1.
       -4    1    3    3    0  502 -0.11180536198E+04  0.94170264194E+03  0.78899875687E+02  0.14639243716E+04  0.12699999809E+01 0. -1.
</event>
<event>
 5   0  0.5154476E-06  0.2879025E+04  0.7818609E-02  0.8279146E-01
        1   -1    0    0  501    0  0.00000000000E+00  0.00000000000E+00  0.22896649791E+04  0.22896649791E+04  0.50400001928E-02 0. -1.
       -1   -1    0    0    0  501  0.00000000000E+00  0.00000000000E+00 -0.90502160652E+03  0.90502160653E+03  0.50400001928E-02 0.  1.
    10030    2    1    2    0    0  0.00000000000E+00  0.00000000000E+00  0.13846433726E+04  0.31946865857E+04  0.28790250279E+04 0.  0.
        3    1    3    3  502    0  0.91159401701E+03  0.35191567699E+03 -0.48062167198E+03  0.10889653334E+04  0.10100000352E+00 0.  1.
       -3    1    3    3    0  502 -0.91159401701E+03 -0.35191567699E+03  0.18652650446E+04  0.21057212523E+04  0.10100000352E+00 0. -1.
</event>
<event>
 5   0  0.5352212E-06  0.2973458E+04  0.7818609E-02  0.8251351E-01
       -1   -1    0    0    0  501  0.00000000000E+00  0.00000000000E+00  0.17039604919E+04  0.17039604919E+04  0.50400001928E-02 0.  1.
        1   -1    0    0  501    0  0.00000000000E+00  0.00000000000E+00 -0.12971917110E+04  0.12971917110E+04  0.50400001928E-02 0. -1.
    10030    2    1    2    0    0  0.00000000000E+00  0.00000000000E+00  0.40676878090E+03  0.30011522029E+04  0.29734582062E+04 0.  0.
        2    1    3    3  502    0 -0.68749159535E+03 -0.36438021512E+03  0.14820481802E+04  0.16738830435E+04  0.25500000920E-02 0.  1.
       -2    1    3    3    0  502  0.68749159535E+03  0.36438021512E+03 -0.10752793993E+04  0.13272691594E+04  0.25500000920E-02 0. -1.
</event>
<event>
 5   0  0.5352212E-06  0.2680173E+04  0.7818609E-02  0.8341467E-01
        1   -1    0    0  501    0  0.00000000000E+00  0.00000000000E+00  0.25170905404E+04  0.25170905404E+04  0.50400001928E-02 0. -1.
       -1   -1    0    0    0  501  0.00000000000E+00  0.00000000000E+00 -0.71345554818E+03  0.71345554820E+03  0.50400001928E-02 0.  1.
    10030    2    1    2    0    0  0.00000000000E+00  0.00000000000E+00  0.18036349923E+04  0.32305460886E+04  0.26801732865E+04 0.  0.
        2    1    3    3  502    0  0.66003981705E+03  0.49355097989E+02  0.23063182263E+04  0.23994149801E+04  0.25500000920E-02 0. -1.
       -2    1    3    3    0  502 -0.66003981705E+03 -0.49355097989E+02 -0.50268323404E+03  0.83113110854E+03  0.25500000920E-02 0.  1.
</event>
<event>
 5   0  0.5059249E-06  0.2853582E+04  0.7818609E-02  0.8286824E-01
        1   -1    0    0  501    0  0.00000000000E+00  0.00000000000E+00  0.19425726217E+04  0.19425726217E+04  0.50400001928E-02 0. -1.
       -1   -1    0    0    0  501  0.00000000000E+00  0.00000000000E+00 -0.10479568823E+04  0.10479568824E+04  0.50400001928E-02 0.  1.
    10030    2    1    2    0    0  0.00000000000E+00  0.00000000000E+00  0.89461573934E+03  0.29905295040E+04  0.28535818533E+04 0.  0.
        1    1    3    3  502    0 -0.12606320623E+04 -0.55917741943E+03  0.63880785569E+02  0.13805626888E+04  0.50400001928E-02 0.  1.
       -1    1    3    3    0  502  0.12606320623E+04  0.55917741943E+03  0.83073495377E+03  0.16099668153E+04  0.50400001928E-02 0. -1.
</event>
<event>
 5   0  0.5261878E-06  0.2908130E+04  0.7818609E-02  0.8270463E-01
       -1   -1    0    0    0  501  0.00000000000E+00  0.00000000000E+00  0.16398546358E+04  0.16398546358E+04  0.50400001928E-02 0.  1.
        1   -1    0    0  501    0  0.00000000000E+00  0.00000000000E+00 -0.12893248318E+04  0.12893248319E+04  0.50400001928E-02 0. -1.
    10030    2    1    2    0    0  0.00000000000E+00  0.00000000000E+00  0.35052980400E+03  0.29291794677E+04  0.29081301915E+04 0.  0.
        5    1    3    3  502    0  0.11692368620E+04 -0.58157670849E+03 -0.46884546488E+03  0.13875101683E+04  0.46999998093E+01 0. -1.
       -5    1    3    3    0  502 -0.11692368620E+04  0.58157670849E+03  0.81937526887E+03  0.15416692994E+04  0.46999998093E+01 0.  1.
</event>
<event>
 5   0  0.5352212E-06  0.2934504E+04  0.7818609E-02  0.8262685E-01
       -1   -1    0    0    0  501  0.00000000000E+00  0.00000000000E+00  0.12645095054E+04  0.12645095054E+04  0.50400001928E-02 0.  1.
        1   -1    0    0  501    0  0.00000000000E+00  0.00000000000E+00 -0.17025006234E+04  0.17025006234E+04  0.50400001928E-02 0. -1.
    10030    2    1    2    0    0  0.00000000000E+00  0.00000000000E+00 -0.43799111799E+03  0.29670101288E+04  0.29345038567E+04 0.  0.
        2    1    3    3  502    0  0.75497387606E+03 -0.73804049899E+03  0.81118197475E+03  0.13314298809E+04  0.25500000920E-02 0.  1.
       -2    1    3    3    0  502 -0.75497387606E+03  0.73804049899E+03 -0.12491730927E+04  0.16355802479E+04  0.25500000920E-02 0. -1.
</event>
<event>
 5   0  0.1307832E-05  0.1889290E+04  0.7818609E-02  0.8660206E-01
        2   -1    0    0  501    0  0.00000000000E+00  0.00000000000E+00  0.16106990691E+04  0.16106990691E+04  0.25500000920E-02 0.  1.
       -2   -1    0    0    0  501  0.00000000000E+00  0.00000000000E+00 -0.55401654088E+03  0.55401654088E+03  0.25500000920E-02 0. -1.
    10030    2    1    2    0    0  0.00000000000E+00  0.00000000000E+00  0.10566825282E+04  0.21647156100E+04  0.18892897360E+04 0.  0.
        4    1    3    3  502    0  0.29316140342E+03  0.50146056137E+03 -0.32520614931E+03  0.66570786049E+03  0.12699999809E+01 0. -1.
       -4    1    3    3    0  502 -0.29316140342E+03 -0.50146056137E+03  0.13818886775E+04  0.14990077495E+04  0.12699999809E+01 0.  1.
</event>
<event>
 5   0  0.1307832E-05  0.2890773E+04  0.7818609E-02  0.8275628E-01
       -2   -1    0    0    0  501  0.00000000000E+00  0.00000000000E+00  0.83160567687E+03  0.83160567687E+03  0.25500000920E-02 0. -1.
        2   -1    0    0  501    0  0.00000000000E+00  0.00000000000E+00 -0.25121782460E+04  0.25121782460E+04  0.25500000920E-02 0.  1.
    10030    2    1    2    0    0  0.00000000000E+00  0.00000000000E+00 -0.16805725691E+04  0.33437839228E+04  0.28907726930E+04 0.  0.
        4    1    3    3  502    0  0.81400938097E+03  0.98596220500E+03 -0.60551464472E+02  0.12800003261E+04  0.12699999809E+01 0. -1.
       -4    1    3    3    0  502 -0.81400938097E+03 -0.98596220500E+03 -0.16200211046E+04  0.20637835968E+04  0.12699999809E+01 0.  1.
</event>
<event>
 5   0  0.1336899E-05  0.2253504E+04  0.7818609E-02  0.8496483E-01
       -2   -1    0    0    0  501  0.00000000000E+00  0.00000000000E+00  0.67163722633E+03  0.67163722633E+03  0.25500000920E-02 0.  1.
        2   -1    0    0  501    0  0.00000000000E+00  0.00000000000E+00 -0.18902615379E+04  0.18902615380E+04  0.25500000920E-02 0. -1.
    10030    2    1    2    0    0  0.00000000000E+00  0.00000000000E+00 -0.12186243116E+04  0.25618987643E+04  0.22535039529E+04 0.  0.
        1    1    3    3  502    0 -0.10356472598E+04 -0.31196587479E+03 -0.25038018152E+03  0.11102153796E+04  0.50400001928E-02 0.  1.
       -1    1    3    3    0  502  0.10356472598E+04  0.31196587479E+03 -0.96824413010E+03  0.14516833847E+04  0.50400001928E-02 0. -1.
</event>
<event>
 5   0  0.5002240E-06  0.2773119E+04  0.7818609E-02  0.8311663E-01
        1   -1    0    0  501    0  0.00000000000E+00  0.00000000000E+00  0.15171876724E+04  0.15171876724E+04  0.50400001928E-02 0. -1.
       -1   -1    0    0    0  501  0.00000000000E+00  0.00000000000E+00 -0.12671778236E+04  0.12671778236E+04  0.50400001928E-02 0.  1.
    10030    2    1    2    0    0  0.00000000000E+00  0.00000000000E+00  0.25000984883E+03  0.27843654960E+04  0.27731185137E+04 0.  0.
        4    1    3    3  502    0 -0.27169036992E+03 -0.49130831229E+03  0.13979580888E+04  0.15064819766E+04  0.12699999809E+01 0. -1.
       -4    1    3    3    0  502  0.27169036992E+03  0.49130831229E+03 -0.11479482399E+04  0.12778835195E+04  0.12699999809E+01 0.  1.
</event>
<event>
 5   0  0.5002240E-06  0.2929101E+04  0.7818609E-02  0.8264271E-01
        1   -1    0    0  501    0  0.00000000000E+00  0.00000000000E+00  0.15788039753E+04  0.15788039754E+04  0.50400001928E-02 0.  1.
       -1   -1    0    0    0  501  0.00000000000E+00  0.00000000000E+00 -0.13585654960E+04  0.13585654960E+04  0.50400001928E-02 0. -1.
    10030    2    1    2    0    0  0.00000000000E+00  0.00000000000E+00  0.22023847937E+03  0.29373694713E+04  0.29291012996E+04 0.  0.
        4    1    3    3  502    0  0.11200818155E+04 -0.39368942933E+03 -0.74981654649E+03  0.14042083558E+04  0.12699999809E+01 0. -1.
       -4    1    3    3    0  502 -0.11200818155E+04  0.39368942933E+03  0.97005502586E+03  0.15331611156E+04  0.12699999809E+01 0.  1.
</event>
<event>
 5   0  0.1339837E-05  0.2895195E+04  0.7818609E-02  0.8274308E-01
        2   -1    0    0  501    0  0.00000000000E+00  0.00000000000E+00  0.21404444141E+04  0.21404444141E+04  0.25500000920E-02 0.  1.
       -2   -1    0    0    0  501  0.00000000000E+00  0.00000000000E+00 -0.97902061201E+03  0.97902061201E+03  0.25500000920E-02 0. -1.
    10030    2    1    2    0    0  0.00000000000E+00  0.00000000000E+00  0.11614238021E+04  0.31194650261E+04  0.28951954685E+04 0.  0.
        5    1    3    3  502    0  0.63319987163E+03 -0.11364619754E+03 -0.81652894390E+03  0.10395187068E+04  0.46999998093E+01 0. -1.
       -5    1    3    3    0  502 -0.63319987163E+03  0.11364619754E+03  0.19779527460E+04  0.20799463192E+04  0.46999998093E+01 0.  1.
</event>
<event>
 5   0  0.5261878E-06  0.2871673E+04  0.7818609E-02  0.8281356E-01
        1   -1    0    0  501    0  0.00000000000E+00  0.00000000000E+00  0.11687344096E+04  0.11687344096E+04  0.50400001928E-02 0.  1.
       -1   -1    0    0    0  501  0.00000000000E+00  0.00000000000E+00 -0.17639814252E+04  0.17639814252E+04  0.50400001928E-02 0. -1.
    10030    2    1    2    0    0  0.00000000000E+00  0.00000000000E+00 -0.59524701556E+03  0.29327158348E+04  0.28716725367E+04 0.  0.
        5    1    3    3  502    0 -0.57708901095E+03 -0.10393673715E+04 -0.11199018906E+04  0.16332539895E+04  0.46999998093E+01 0. -1.
       -5    1    3    3    0  502  0.57708901095E+03  0.10393673715E+04  0.52465487508E+03  0.12994618453E+04  0.46999998093E+01 0.  1.
</event>
<event>
 5   0  0.5261878E-06  0.2906287E+04  0.7818609E-02  0.8271009E-01
        1   -1    0    0  501    0  0.00000000000E+00  0.00000000000E+00  0.68357066292E+03  0.68357066294E+03  0.50400001928E-02 0.  1.
       -1   -1    0    0    0  501  0.00000000000E+00  0.00000000000E+00 -0.30891113935E+04  0.30891113935E+04  0.50400001928E-02 0. -1.
    10030    2    1    2    0    0  0.00000000000E+00  0.00000000000E+00 -0.24055407306E+04  0.37726820564E+04  0.29062869254E+04 0.  0.
        5    1    3    3  502    0 -0.55232849645E+03  0.49573955506E+03 -0.28245150186E+04  0.29203992287E+04  0.46999998093E+01 0. -1.
       -5    1    3    3    0  502  0.55232849645E+03 -0.49573955506E+03  0.41897428805E+03  0.85228282776E+03  0.46999998093E+01 0.  1.
</event>
<event>
 5   0  0.1382803E-05  0.2919712E+04  0.7818609E-02  0.8267037E-01
       -2   -1    0    0    0  501  0.00000000000E+00  0.00000000000E+00  0.22513821870E+04  0.22513821870E+04  0.25500000920E-02 0. -1.
        2   -1    0    0  501    0  0.00000000000E+00  0.00000000000E+00 -0.94660955028E+03  0.94660955029E+03  0.25500000920E-02 0.  1.
    10030    2    1    2    0    0  0.00000000000E+00  0.00000000000E+00  0.13047726367E+04  0.31979917373E+04  0.29197122321E+04 0.  0.
        2    1    3    3  502    0  0.33831377645E+03  0.12516779233E+04 -0.82391626983E+02  0.12992083032E+04  0.25500000920E-02 0.  1.
       -2    1    3    3    0  502 -0.33831377645E+03 -0.12516779233E+04  0.13871642637E+04  0.18987834341E+04  0.25500000920E-02 0. -1.
</event>
<event>
 5   0  0.5154476E-06  0.2977478E+04  0.7818609E-02  0.8250191E-01
       -1   -1    0    0    0  501  0.00000000000E+00  0.00000000000E+00  0.13844971434E+04  0.13844971434E+04  0.50400001928E-02 0. -1.
        1   -1    0    0  501    0  0.00000000000E+00  0.00000000000E+00 -0.16008297287E+04  0.16008297287E+04  0.50400001928E-02 0.  1.
    10030    2    1    2    0    0  0.00000000000E+00  0.00000000000E+00 -0.21633258525E+03  0.29853268721E+04  0.29774782528E+04 0.  0.
        3    1    3    3  502    0 -0.54901784243E+03 -0.13476548229E+04 -0.42323986931E+03  0.15154953350E+04  0.10100000352E+00 0.  1.
       -3    1    3    3    0  502  0.54901784243E+03  0.13476548229E+04  0.20690728406E+03  0.14698315371E+04  0.10100000352E+00 0. -1.
</event>
<event>
 5   0  0.1385669E-05  0.2906505E+04  0.7818609E-02  0.8270945E-01
       -2   -1    0    0    0  501  0.00000000000E+00  0.00000000000E+00  0.31655167299E+04  0.31655167299E+04  0.25500000920E-02 0. -1.
        2   -1    0    0  501    0  0.00000000000E+00  0.00000000000E+00 -0.66717143350E+03  0.66717143351E+03  0.25500000920E-02 0.  1.
    10030    2    1    2    0    0  0.00000000000E+00  0.00000000000E+00  0.24983452964E+04  0.38326881634E+04  0.29065046599E+04 0.  0.
        3    1    3    3  502    0  0.69848624197E+03  0.11095495032E+04  0.20757931815E+04  0.24551782976E+04  0.10100000352E+00 0. -1.
       -3    1    3    3    0  502 -0.69848624197E+03 -0.11095495032E+04  0.42255211486E+03  0.13775098658E+04  0.10100000352E+00 0.  1.
</event>
<event>
 5   0  0.4590125E-06  0.2916133E+04  0.7818609E-02  0.8268094E-01
       -3   -1    0    0    0  501  0.00000000000E+00  0.00000000000E+00  0.17531390561E+04  0.17531390590E+04  0.10100000352E+00 0.  1.
        3   -1    0    0  501    0  0.00000000000E+00  0.00000000000E+00 -0.12126575620E+04  0.12126575662E+04  0.10100000352E+00 0. -1.
    10030    2    1    2    0    0  0.00000000000E+00  0.00000000000E+00  0.54048149416E+03  0.29657966252E+04  0.29161326061E+04 0.  0.
        1    1    3    3  502    0  0.99416736752E+03 -0.72837061522E+03  0.10626538287E+04  0.16273062611E+04  0.50400001928E-02 0.  1.
       -1    1    3    3    0  502 -0.99416736752E+03  0.72837061522E+03 -0.52217233455E+03  0.13384903641E+04  0.50400001928E-02 0. -1.
</event>
<event>
 5   0  0.1307832E-05  0.2814377E+04  0.7818609E-02  0.8298819E-01
        2   -1    0    0  501    0  0.00000000000E+00  0.00000000000E+00  0.10937166570E+04  0.10937166570E+04  0.25500000920E-02 0.  1.
       -2   -1    0    0    0  501  0.00000000000E+00  0.00000000000E+00 -0.18105051109E+04  0.18105051109E+04  0.25500000920E-02 0. -1.
    10030    2    1    2    0    0  0.00000000000E+00  0.00000000000E+00 -0.71678845385E+03  0.29042217680E+04  0.28143770874E+04 0.  0.
        4    1    3    3  502    0  0.25425707019E+03 -0.50195459344E+03 -0.16893646665E+04  0.17806065430E+04  0.12699999809E+01 0. -1.
       -4    1    3    3    0  502 -0.25425707019E+03  0.50195459344E+03  0.97257621261E+03  0.11236152250E+04  0.12699999809E+01 0.  1.
</event>
<event>
 5   0  0.1307832E-05  0.2879840E+04  0.7818609E-02  0.8278901E-01
       -2   -1    0    0    0  501  0.00000000000E+00  0.00000000000E+00  0.84691048287E+03  0.84691048287E+03  0.25500000920E-02 0. -1.
        2   -1    0    0  501    0  0.00000000000E+00  0.00000000000E+00 -0.24481560313E+04  0.24481560313E+04  0.25500000920E-02 0.  1.
    10030    2    1    2    0    0  0.00000000000E+00  0.00000000000E+00 -0.16012455484E+04  0.32950665142E+04  0.28798395834E+04 0.  0.
        4    1    3    3  502    0 -0.12511812706E+03  0.11699787611E+04 -0.17502697189E+04  0.21090164885E+04  0.12699999809E+01 0.  1.
       -4    1    3    3    0  502  0.12511812706E+03 -0.11699787611E+04  0.14902417047E+03  0.11860500256E+04  0.12699999809E+01 0. -1.
</event>
<event>
 5   0  0.5352212E-06  0.2146732E+04  0.7818609E-02  0.8540933E-01
        1   -1    0    0  501    0  0.00000000000E+00  0.00000000000E+00  0.19819799572E+04  0.19819799572E+04  0.50400001928E-02 0.  1.
       -1   -1    0    0    0  501  0.00000000000E+00  0.00000000000E+00 -0.58129454872E+03  0.58129454874E+03  0.50400001928E-02 0. -1.
    10030    2    1    2    0    0  0.00000000000E+00  0.00000000000E+00  0.14006854085E+04  0.25632745059E+04  0.21467316039E+04 0.  0.
        2    1    3    3  502    0  0.38904415854E+03 -0.79054351076E+02 -0.49041053065E+03  0.63095755506E+03  0.25500000920E-02 0. -1.
       -2    1    3    3    0  502 -0.38904415854E+03  0.79054351076E+02  0.18910959391E+04  0.19323169509E+04  0.25500000920E-02 0.  1.
</event>
<event>
 5   0  0.1336899E-05  0.2987440E+04  0.7818609E-02  0.8247327E-01
       -2   -1    0    0    0  501  0.00000000000E+00  0.00000000000E+00  0.12532890616E+04  0.12532890616E+04  0.25500000920E-02 0. -1.
        2   -1    0    0  501    0  0.00000000000E+00  0.00000000000E+00 -0.17802748048E+04  0.17802748048E+04  0.25500000920E-02 0.  1.
    10030    2    1    2    0    0  0.00000000000E+00  0.00000000000E+00 -0.52698574318E+03  0.30335638664E+04  0.29874396660E+04 0.  0.
        1    1    3    3  502    0  0.32441348811E+03 -0.50861557849E+03  0.11240837707E+04  0.12757343930E+04  0.50400001928E-02 0. -1.
       -1    1    3    3    0  502 -0.32441348811E+03  0.50861557849E+03 -0.16510695139E+04  0.17578294734E+04  0.50400001928E-02 0.  1.
</event>
<event>
 5   0  0.5059249E-06  0.2873748E+04  0.7818609E-02  0.8280731E-01
        1   -1    0    0  501    0  0.00000000000E+00  0.00000000000E+00  0.18611972485E+04  0.18611972485E+04  0.50400001928E-02 0.  1.
       -1   -1    0    0    0  501  0.00000000000E+00  0.00000000000E+00 -0.11092893289E+04  0.11092893289E+04  0.50400001928E-02 0. -1.
    10030    2    1    2    0    0  0.00000000000E+00  0.00000000000E+00  0.75190791961E+03  0.29704865775E+04  0.28737475511E+04 0.  0.
        1    1    3    3  502    0  0.18598686287E+03 -0.86844683789E+03  0.15434969215E+04  0.17807789784E+04  0.50400001928E-02 0.  1.
       -1    1    3    3    0  502 -0.18598686287E+03  0.86844683789E+03 -0.79158900184E+03  0.11897075991E+04  0.50400001928E-02 0. -1.
</event>
<event>
 5   0  0.5261878E-06  0.2412700E+04  0.7818609E-02  0.8434764E-01
       -1   -1    0    0    0  501  0.00000000000E+00  0.00000000000E+00  0.95885589488E+03  0.95885589489E+03  0.50400001928E-02 0. -1.
        1   -1    0    0  501    0  0.00000000000E+00  0.00000000000E+00 -0.15177257112E+04  0.15177257112E+04  0.50400001928E-02 0.  1.
    10030    2    1    2    0    0  0.00000000000E+00  0.00000000000E+00 -0.55886981632E+03  0.24765816061E+04  0.24126999358E+04 0.  0.
        5    1    3    3  502    0  0.81831282947E+03 -0.71594619752E+03  0.25693585961E+03  0.11172524203E+04  0.46999998093E+01 0. -1.
       -5    1    3    3    0  502 -0.81831282947E+03  0.71594619752E+03 -0.81580567592E+03  0.13593291858E+04  0.46999998093E+01 0.  1.
</event>
<event>
 5   0  0.1336899E-05  0.2876659E+04  0.7818609E-02  0.8279856E-01
        2   -1    0    0  501    0  0.00000000000E+00  0.00000000000E+00  0.12838397569E+04  0.12838397569E+04  0.25500000920E-02 0.  1.
       -2   -1    0    0    0  501  0.00000000000E+00  0.00000000000E+00 -0.16114093328E+04  0.16114093328E+04  0.25500000920E-02 0. -1.
    10030    2    1    2    0    0  0.00000000000E+00  0.00000000000E+00 -0.32756957585E+03  0.28952490897E+04  0.28766587327E+04 0.  0.
        1    1    3    3  502    0 -0.67310015543E+03 -0.26091146530E+03 -0.14158713456E+04  0.15892860910E+04  0.50400001928E-02 0. -1.
       -1    1    3    3    0  502  0.67310015543E+03  0.26091146530E+03  0.10883017697E+04  0.13059629987E+04  0.50400001928E-02 0.  1.
</event>
<event>
 5   0  0.5261878E-06  0.1903593E+04  0.7818609E-02  0.8653070E-01
        1   -1    0    0  501    0  0.00000000000E+00  0.00000000000E+00  0.77366454897E+03  0.77366454899E+03  0.50400001928E-02 0. -1.
       -1   -1    0    0    0  501  0.00000000000E+00  0.00000000000E+00 -0.11709419209E+04  0.11709419209E+04  0.50400001928E-02 0.  1.
    10030    2    1    2    0    0  0.00000000000E+00  0.00000000000E+00 -0.39727737188E+03  0.19446064699E+04  0.19035926593E+04 0.  0.
        5    1    3    3  502    0 -0.37860512243E+03 -0.58087052507E+03  0.46743854295E+03  0.83622561971E+03  0.46999998093E+01 0. -1.
       -5    1    3    3    0  502  0.37860512243E+03  0.58087052507E+03 -0.86471591483E+03  0.11083808502E+04  0.46999998093E+01 0.  1.
</event>
<event>
 5   0  0.5154476E-06  0.2689947E+04  0.7818609E-02  0.8338274E-01
       -1   -1    0    0    0  501  0.00000000000E+00  0.00000000000E+00  0.81900511557E+03  0.81900511558E+03  0.50400001928E-02 0.  1.
        1   -1    0    0  501    0  0.00000000000E+00  0.00000000000E+00 -0.22087212744E+04  0.22087212744E+04  0.50400001928E-02 0. -1.
    10030    2    1    2    0    0  0.00000000000E+00  0.00000000000E+00 -0.13897161588E+04  0.30277263900E+04  0.26899472282E+04 0.  0.
        3    1    3    3  502    0  0.62562080865E+03  0.24613763632E+03  0.61630831668E+03  0.91204225979E+03  0.10100000352E+00 0.  1.
       -3    1    3    3    0  502 -0.62562080865E+03 -0.24613763632E+03 -0.20060244755E+04  0.21156841302E+04  0.10100000352E+00 0. -1.
</event>
<event>
 5   0  0.5002240E-06  0.2996103E+04  0.7818609E-02  0.8244844E-01
        1   -1    0    0  501    0  0.00000000000E+00  0.00000000000E+00  0.14142252564E+04  0.14142252564E+04  0.50400001928E-02 0. -1.
       -1   -1    0    0    0  501  0.00000000000E+00  0.00000000000E+00 -0.15868469434E+04  0.15868469434E+04  0.50400001928E-02 0.  1.
    10030    2    1    2    0    0  0.00000000000E+00  0.00000000000E+00 -0.17262168696E+03  0.30010721998E+04  0.29961034865E+04 0.  0.
        4    1    3    3  502    0  0.55822189269E+03  0.11504203721E+04 -0.86804005216E+03  0.15455011676E+04  0.12699999809E+01 0.  1.
       -4    1    3    3    0  502 -0.55822189269E+03 -0.11504203721E+04  0.69541836520E+03  0.14555710322E+04  0.12699999809E+01 0. -1.
</event>
<event>
 5   0  0.1339837E-05  0.2875805E+04  0.7818609E-02  0.8280113E-01
        2   -1    0    0  501    0  0.00000000000E+00  0.00000000000E+00  0.33196192368E+04  0.33196192368E+04  0.25500000920E-02 0.  1.
       -2   -1    0    0    0  501  0.00000000000E+00  0.00000000000E+00 -0.62283169009E+03  0.62283169010E+03  0.25500000920E-02 0. -1.
    10030    2    1    2    0    0  0.00000000000E+00  0.00000000000E+00  0.26967875467E+04  0.39424509269E+04  0.28758053201E+04 0.  0.
        5    1    3    3  502    0 -0.67204542257E+02  0.48634145535E+03  0.32011417832E+04  0.32385761173E+04  0.46999998093E+01 0.  1.
       -5    1    3    3    0  502  0.67204542257E+02 -0.48634145535E+03 -0.50435423648E+03  0.70387480957E+03  0.46999998093E+01 0. -1.
</event>
<event>
 5   0  0.1336899E-05  0.2847232E+04  0.7818609E-02  0.8288753E-01
        2   -1    0    0  501    0  0.00000000000E+00  0.00000000000E+00  0.13230201780E+04  0.13230201780E+04  0.25500000920E-02 0. -1.
       -2   -1    0    0    0  501  0.00000000000E+00  0.00000000000E+00 -0.15318609271E+04  0.15318609271E+04  0.25500000920E-02 0.  1.
    10030    2    1    2    0    0  0.00000000000E+00  0.00000000000E+00 -0.20884074912E+03  0.28548811051E+04  0.28472322816E+04 0.  0.
        1    1    3    3  502    0 -0.10892071185E+04 -0.52450629580E+03 -0.85824046516E+03  0.14825841283E+04  0.50400001928E-02 0.  1.
       -1    1    3    3    0  502  0.10892071185E+04  0.52450629580E+03  0.64939971605E+03  0.13722969768E+04  0.50400001928E-02 0. -1.
</event>
<event>
 5   0  0.5352212E-06  0.2949098E+04  0.7818609E-02  0.8258417E-01
       -1   -1    0    0    0  501  0.00000000000E+00  0.00000000000E+00  0.11966258363E+04  0.11966258363E+04  0.50400001928E-02 0.  1.
        1   -1    0    0  501    0  0.00000000000E+00  0.00000000000E+00 -0.18170215411E+04  0.18170215411E+04  0.50400001928E-02 0. -1.
    10030    2    1    2    0    0  0.00000000000E+00  0.00000000000E+00 -0.62039570480E+03  0.30136473773E+04  0.29490981137E+04 0.  0.
        2    1    3    3  502    0  0.13212357941E+03 -0.14009495842E+04  0.14010410304E+03  0.14141235934E+04  0.25500000920E-02 0.  1.
       -2    1    3    3    0  502 -0.13212357941E+03  0.14009495842E+04 -0.76049980784E+03  0.15995237840E+04  0.25500000920E-02 0. -1.
</event>
<event>
 5   0  0.5261878E-06  0.2458944E+04  0.7818609E-02  0.8417760E-01
       -1   -1    0    0    0  501  0.00000000000E+00  0.00000000000E+00  0.97655073501E+03  0.97655073502E+03  0.50400001928E-02 0.  1.
        1   -1    0    0  501    0  0.00000000000E+00  0.00000000000E+00 -0.15478987413E+04  0.15478987413E+04  0.50400001928E-02 0. -1.
    10030    2    1    2    0    0  0.00000000000E+00  0.00000000000E+00 -0.57134800633E+03  0.25244494764E+04  0.24589442072E+04 0.  0.
        5    1    3    3  502    0  0.90111746217E+03 -0.31164932312E+03  0.51117398174E+03  0.10818774935E+04  0.46999998093E+01 0.  1.
       -5    1    3    3    0  502 -0.90111746217E+03  0.31164932312E+03 -0.10825219881E+04  0.14425719829E+04  0.46999998093E+01 0. -1.
</event>
<event>
 5   0  0.1385669E-05  0.2930734E+04  0.7818609E-02  0.8263791E-01
        2   -1    0    0  501    0  0.00000000000E+00  0.00000000000E+00  0.17495607061E+04  0.17495607061E+04  0.25500000920E-02 0. -1.
       -2   -1    0    0    0  501  0.00000000000E+00  0.00000000000E+00 -0.12273370564E+04  0.12273370564E+04  0.25500000920E-02 0.  1.
    10030    2    1    2    0    0  0.00000000000E+00  0.00000000000E+00  0.52222364963E+03  0.29768977625E+04  0.29307341654E+04 0.  0.
        3    1    3    3  502    0  0.56601294409E+03  0.35173188923E+03  0.15867414193E+04  0.17209980583E+04  0.10100000352E+00 0. -1.
       -3    1    3    3    0  502 -0.56601294409E+03 -0.35173188923E+03 -0.10645177697E+04  0.12558997042E+04  0.10100000352E+00 0.  1.
</event>
<event>
 5   0  0.1336899E-05  0.2791014E+04  0.7818609E-02  0.8306063E-01
       -2   -1    0    0    0  501  0.00000000000E+00  0.00000000000E+00  0.94866895531E+03  0.94866895531E+03  0.25500000920E-02 0. -1.
        2   -1    0    0  501    0  0.00000000000E+00  0.00000000000E+00 -0.20528133911E+04  0.20528133911E+04  0.25500000920E-02 0.  1.
    10030    2    1    2    0    0  0.00000000000E+00  0.00000000000E+00 -0.11041444357E+04  0.30014823464E+04  0.27910143928E+04 0.  0.
        1    1    3    3  502    0  0.13099554746E+04 -0.34873059702E+03 -0.19565242889E+03  0.13696263168E+04  0.50400001928E-02 0. -1.
       -1    1    3    3    0  502 -0.13099554746E+04  0.34873059702E+03 -0.90849200686E+03  0.16318560296E+04  0.50400001928E-02 0.  1.
</event>
<event>
 5   0  0.5261878E-06  0.2850876E+04  0.7818609E-02  0.8287645E-01
        1   -1    0    0  501    0  0.00000000000E+00  0.00000000000E+00  0.15497061776E+04  0.15497061776E+04  0.50400001928E-02 0. -1.
       -1   -1    0    0    0  501  0.00000000000E+00  0.00000000000E+00 -0.13111350366E+04  0.13111350366E+04  0.50400001928E-02 0.  1.
    10030    2    1    2    0    0  0.00000000000E+00  0.00000000000E+00  0.23857114107E+03  0.28608412142E+04  0.28508764027E+04 0.  0.
        5    1    3    3  502    0 -0.65214127429E+03 -0.68142386572E+03  0.11917706097E+04  0.15198572309E+04  0.46999998093E+01 0.  1.
       -5    1    3    3    0  502  0.65214127429E+03  0.68142386572E+03 -0.95319946859E+03  0.13409839832E+04  0.46999998093E+01 0. -1.
</event>
<event>
 5   0  0.5352212E-06  0.2895509E+04  0.7818609E-02  0.8274215E-01
        1   -1    0    0  501    0  0.00000000000E+00  0.00000000000E+00  0.13471498391E+04  0.13471498391E+04  0.50400001928E-02 0.  1.
       -1   -1    0    0    0  501  0.00000000000E+00  0.00000000000E+00 -0.15558717803E+04  0.15558717803E+04  0.50400001928E-02 0. -1.
    10030    2    1    2    0    0  0.00000000000E+00  0.00000000000E+00 -0.20872194123E+03  0.29030216194E+04  0.28955085346E+04 0.  0.
        2    1    3    3  502    0  0.32883366429E+02  0.99763718939E+03  0.94699294359E+03  0.13759203875E+04  0.25500000920E-02 0.  1.
       -2    1    3    3    0  502 -0.32883366429E+02 -0.99763718939E+03 -0.11557148848E+04  0.15271012319E+04  0.25500000920E-02 0. -1.
</event>
<event>
 5   0  0.5261878E-06  0.2906646E+04  0.7818609E-02  0.8270903E-01
       -1   -1    0    0    0  501  0.00000000000E+00  0.00000000000E+00  0.12444929158E+04  0.12444929158E+04  0.50400001928E-02 0.  1.
        1   -1    0    0  501    0  0.00000000000E+00  0.00000000000E+00 -0.16971949249E+04  0.16971949249E+04  0.50400001928E-02 0. -1.
    10030    2    1    2    0    0  0.00000000000E+00  0.00000000000E+00 -0.45270200913E+03  0.29416878407E+04  0.29066455310E+04 0.  0.
        5    1    3    3  502    0 -0.12405713738E+04 -0.75702473606E+03 -0.23100933433E+03  0.14715607997E+04  0.46999998093E+01 0. -1.
       -5    1    3    3    0  502  0.12405713738E+04  0.75702473606E+03 -0.22169267480E+03  0.14701270410E+04  0.46999998093E+01 0.  1.
</event>
<event>
 5   0  0.5352212E-06  0.2959679E+04  0.7818609E-02  0.8255339E-01
       -1   -1    0    0    0  501  0.00000000000E+00  0.00000000000E+00  0.10063315116E+04  0.10063315116E+04  0.50400001928E-02 0.  1.
        1   -1    0    0  501    0  0.00000000000E+00  0.00000000000E+00 -0.21761466701E+04  0.21761466701E+04  0.50400001928E-02 0. -1.
    10030    2    1    2    0    0  0.00000000000E+00  0.00000000000E+00 -0.11698151585E+04  0.31824781817E+04  0.29596790151E+04 0.  0.
        2    1    3    3  502    0 -0.10142304994E+04  0.21491449642E+03 -0.17203693449E+04  0.20086120655E+04  0.25500000920E-02 0. -1.
       -2    1    3    3    0  502  0.10142304994E+04 -0.21491449642E+03  0.55055418642E+03  0.11738661162E+04  0.25500000920E-02 0.  1.
</event>
<event>
 5   0  0.5261878E-06  0.2690097E+04  0.7818609E-02  0.8338225E-01
       -1   -1    0    0    0  501  0.00000000000E+00  0.00000000000E+00  0.10201601375E+04  0.10201601375E+04  0.50400001928E-02 0. -1.
        1   -1    0    0  501    0  0.00000000000E+00  0.00000000000E+00 -0.17734033592E+04  0.17734033592E+04  0.50400001928E-02 0.  1.
    10030    2    1    2    0    0  0.00000000000E+00  0.00000000000E+00 -0.75324322166E+03  0.27935634967E+04  0.26900969609E+04 0.  0.
        5    1    3    3  502    0  0.91302072202E+03  0.36846056160E+03 -0.13282536579E+04  0.16533753035E+04  0.46999998093E+01 0.  1.
       -5    1    3    3    0  502 -0.91302072202E+03 -0.36846056160E+03  0.57501043626E+03  0.11401881933E+04  0.46999998093E+01 0. -1.
</event>
<event>
 5   0  0.5352212E-06  0.3083175E+04  0.7818609E-02  0.8220371E-01
        1   -1    0    0  501    0  0.00000000000E+00  0.00000000000E+00  0.20264757375E+04  0.20264757375E+04  0.50400001928E-02 0. -1.
       -1   -1    0    0    0  501  0.00000000000E+00  0.00000000000E+00 -0.11727215336E+04  0.11727215336E+04  0.50400001928E-02 0.  1.
    10030    2    1    2    0    0  0.00000000000E+00  0.00000000000E+00  0.85375420395E+03  0.31991972711E+04  0.30831748148E+04 0.  0.
        2    1    3    3  502    0 -0.91156670157E+03 -0.93353414351E+03 -0.42502469641E+03  0.13722557492E+04  0.25500000920E-02 0.  1.
       -2    1    3    3    0  502  0.91156670157E+03  0.93353414351E+03  0.12787789004E+04  0.18269415219E+04  0.25500000920E-02 0. -1.
</event>
<event>
 5   0  0.1385669E-05  0.2150365E+04  0.7818609E-02  0.8539376E-01
        2   -1    0    0  501    0  0.00000000000E+00  0.00000000000E+00  0.15783955807E+04  0.15783955807E+04  0.25500000920E-02 0. -1.
       -2   -1    0    0    0  501  0.00000000000E+00  0.00000000000E+00 -0.73240061133E+03  0.73240061134E+03  0.25500000920E-02 0.  1.
    10030    2    1    2    0    0  0.00000000000E+00  0.00000000000E+00  0.84599496934E+03  0.23107961920E+04  0.21503654464E+04 0.  0.
        3    1    3    3  502    0 -0.38479348061E+03  0.89176158923E+03  0.91861484753E+03  0.13368462900E+04  0.10100000352E+00 0. -1.
       -3    1    3    3    0  502  0.38479348061E+03 -0.89176158923E+03 -0.72619878196E+02  0.97394990202E+03  0.10100000352E+00 0.  1.
</event>
<event>
 5   0  0.1382803E-05  0.2873388E+04  0.7818609E-02  0.8280840E-01
       -2   -1    0    0    0  501  0.00000000000E+00  0.00000000000E+00  0.79015031212E+03  0.79015031213E+03  0.25500000920E-02 0.  1.
        2   -1    0    0  501    0  0.00000000000E+00  0.00000000000E+00 -0.26122749425E+04  0.26122749425E+04  0.25500000920E-02 0. -1.
    10030    2    1    2    0    0  0.00000000000E+00  0.00000000000E+00 -0.18221246303E+04  0.34024252546E+04  0.28733881472E+04 0.  0.
        2    1    3    3  502    0  0.45522312161E+03 -0.74982370215E+03 -0.22583690817E+04  0.24227452578E+04  0.25500000920E-02 0. -1.
       -2    1    3    3    0  502 -0.45522312161E+03  0.74982370215E+03  0.43624445140E+03  0.97967999680E+03  0.25500000920E-02 0.  1.
</event>
<event>
 5   0  0.1336899E-05  0.2836624E+04  0.7818609E-02  0.8291987E-01
       -2   -1    0    0    0  501  0.00000000000E+00  0.00000000000E+00  0.75122809486E+03  0.75122809486E+03  0.25500000920E-02 0.  1.
        2   -1    0    0  501    0  0.00000000000E+00  0.00000000000E+00 -0.26777613282E+04  0.26777613282E+04  0.25500000920E-02 0. -1.
    10030    2    1    2    0    0  0.00000000000E+00  0.00000000000E+00 -0.19265332333E+04  0.34289894230E+04  0.28366244313E+04 0.  0.
        1    1    3    3  502    0 -0.89789264972E+03  0.10005065431E+04 -0.15097649014E+04  0.20215376847E+04  0.50400001928E-02 0. -1.
       -1    1    3    3    0  502  0.89789264972E+03 -0.10005065431E+04 -0.41676833188E+03  0.14074517383E+04  0.50400001928E-02 0.  1.
</event>
<event>
 5   0  0.5352212E-06  0.1893028E+04  0.7818609E-02  0.8658335E-01
        1   -1    0    0  501    0  0.00000000000E+00  0.00000000000E+00  0.17464483216E+04  0.17464483216E+04  0.50400001928E-02 0.  1.
       -1   -1    0    0    0  501  0.00000000000E+00  0.00000000000E+00 -0.51297730847E+03  0.51297730849E+03  0.50400001928E-02 0. -1.
    10030    2    1    2    0    0  0.00000000000E+00  0.00000000000E+00  0.12334710132E+04  0.22594256301E+04  0.18930275851E+04 0.  0.
        2    1    3    3  502    0  0.23807529771E+03 -0.37065714906E+03 -0.38315980581E+03  0.58384758826E+03  0.25500000920E-02 0. -1.
       -2    1    3    3    0  502 -0.23807529771E+03  0.37065714906E+03  0.16166308190E+04  0.16755780419E+04  0.25500000920E-02 0.  1.
</event>
<event>
 5   0  0.1307832E-05  0.2640856E+04  0.7818609E-02  0.8354454E-01
       -2   -1    0    0    0  501  0.00000000000E+00  0.00000000000E+00  0.12899616154E+04  0.12899616154E+04  0.25500000920E-02 0. -1.
        2   -1    0    0  501    0  0.00000000000E+00  0.00000000000E+00 -0.13516138639E+04  0.13516138639E+04  0.25500000920E-02 0.  1.
    10030    2    1    2    0    0  0.00000000000E+00  0.00000000000E+00 -0.61652248460E+02  0.26415754793E+04  0.26408559244E+04 0.  0.
        4    1    3    3  502    0 -0.58660094588E+03  0.42701418065E+03 -0.11343432019E+04  0.13465429413E+04  0.12699999809E+01 0.  1.
       -4    1    3    3    0  502  0.58660094588E+03 -0.42701418065E+03  0.10726909534E+04  0.12950325380E+04  0.12699999809E+01 0. -1.
</event>
<event>
 5   0  0.5002240E-06  0.1953418E+04  0.7818609E-02  0.8628714E-01
        1   -1    0    0  501    0  0.00000000000E+00  0.00000000000E+00  0.10976250262E+04  0.10976250262E+04  0.50400001928E-02 0. -1.
       -1   -1    0    0    0  501  0.00000000000E+00  0.00000000000E+00 -0.86911329356E+03  0.86911329357E+03  0.50400001928E-02 0.  1.
    10030    2    1    2    0    0  0.00000000000E+00  0.00000000000E+00  0.22851173265E+03  0.19667383198E+04  0.19534180317E+04 0.  0.
        4    1    3    3  502    0  0.18898205691E+02  0.91220760321E+03  0.46517096463E+03  0.10241413441E+04  0.12699999809E+01 0. -1.
       -4    1    3    3    0  502 -0.18898205691E+02 -0.91220760321E+03 -0.23665923199E+03  0.94259697566E+03  0.12699999809E+01 0.  1.
</event>
<event>
 5   0  0.5002240E-06  0.3019570E+04  0.7818609E-02  0.8238165E-01
       -1   -1    0    0    0  501  0.00000000000E+00  0.00000000000E+00  0.87689287805E+03  0.87689287806E+03  0.50400001928E-02 0.  1.
        1   -1    0    0  501    0  0.00000000000E+00  0.00000000000E+00 -0.25994634399E+04  0.25994634399E+04  0.50400001928E-02 0. -1.
    10030    2    1    2    0    0  0.00000000000E+00  0.00000000000E+00 -0.17225705618E+04  0.34763563179E+04  0.30195701530E+04 0.  0.
        4    1    3    3  502    0 -0.38151940491E+03 -0.92627822783E+03  0.43914669920E+03  0.10938006436E+04  0.12699999809E+01 0.  1.
       -4    1    3    3    0  502  0.38151940491E+03  0.92627822783E+03 -0.21617172610E+04  0.23825556743E+04  0.12699999809E+01 0. -1.
</event>
<event>
 5   0  0.1385669E-05  0.2469425E+04  0.7818609E-02  0.8413960E-01
        2   -1    0    0  501    0  0.00000000000E+00  0.00000000000E+00  0.86639629154E+03  0.86639629154E+03  0.25500000920E-02 0.  1.
       -2   -1    0    0    0  501  0.00000000000E+00  0.00000000000E+00 -0.17596043192E+04  0.17596043192E+04  0.25500000920E-02 0. -1.
    10030    2    1    2    0    0  0.00000000000E+00  0.00000000000E+00 -0.89320802762E+03  0.26260006107E+04  0.24694247563E+04 0.  0.
        3    1    3    3  502    0 -0.91582868832E+02 -0.22892406074E+03 -0.17331584801E+04  0.17506090296E+04  0.10100000352E+00 0. -1.
       -3    1    3    3    0  502  0.91582868832E+02  0.22892406074E+03  0.83995045244E+03  0.87539158107E+03  0.10100000352E+00 0.  1.
</event>
<event>
 5   0  0.5261878E-06  0.2909232E+04  0.7818609E-02  0.8270136E-01
       -1   -1    0    0    0  501  0.00000000000E+00  0.00000000000E+00  0.11213746417E+04  0.11213746417E+04  0.50400001928E-02 0. -1.
        1   -1    0    0  501    0  0.00000000000E+00  0.00000000000E+00 -0.18868876291E+04  0.18868876291E+04  0.50400001928E-02 0.  1.
    10030    2    1    2    0    0  0.00000000000E+00  0.00000000000E+00 -0.76551298742E+03  0.30082622707E+04  0.29092321591E+04 0.  0.
        5    1    3    3  502    0 -0.70272359999E+03  0.20207569641E+00 -0.16997131775E+04  0.18392573161E+04  0.46999998093E+01 0.  1.
       -5    1    3    3    0  502  0.70272359999E+03 -0.20207569641E+00  0.93420019013E+03  0.11690049547E+04  0.46999998093E+01 0. -1.
</event>
<event>
 5   0  0.1385669E-05  0.2842885E+04  0.7818609E-02  0.8290077E-01
        2   -1    0    0  501    0  0.00000000000E+00  0.00000000000E+00  0.20422903608E+04  0.20422903608E+04  0.25500000920E-02 0.  1.
       -2   -1    0    0    0  501  0.00000000000E+00  0.00000000000E+00 -0.98932955916E+03  0.98932955916E+03  0.25500000920E-02 0. -1.
    10030    2    1    2    0    0  0.00000000000E+00  0.00000000000E+00  0.10529608016E+04  0.30316199200E+04  0.28428846071E+04 0.  0.
        3    1    3    3  502    0 -0.68201284341E+03 -0.27180459139E+03 -0.77148544182E+03  0.10649925125E+04  0.10100000352E+00 0. -1.
       -3    1    3    3    0  502  0.68201284341E+03  0.27180459139E+03  0.18244462434E+04  0.19666274075E+04  0.10100000352E+00 0.  1.
</event>
<event>
 5   0  0.5002240E-06  0.2874554E+04  0.7818609E-02  0.8280489E-01
       -1   -1    0    0    0  501  0.00000000000E+00  0.00000000000E+00  0.16064097424E+04  0.16064097424E+04  0.50400001928E-02 0.  1.
        1   -1    0    0  501    0  0.00000000000E+00  0.00000000000E+00 -0.12859515376E+04  0.12859515376E+04  0.50400001928E-02 0. -1.
    10030    2    1    2    0    0  0.00000000000E+00  0.00000000000E+00  0.32045820485E+03  0.28923612800E+04  0.28745539329E+04 0.  0.
        4    1    3    3  502    0 -0.10533502369E+04 -0.28120337656E+03  0.11025891896E+04  0.15505891121E+04  0.12699999809E+01 0.  1.
       -4    1    3    3    0  502  0.10533502369E+04  0.28120337656E+03 -0.78213098471E+03  0.13417721680E+04  0.12699999809E+01 0. -1.
</event>
<event>
 5   0  0.5261878E-06  0.2895631E+04  0.7818609E-02  0.8274179E-01
        1   -1    0    0  501    0  0.00000000000E+00  0.00000000000E+00  0.16626464404E+04  0.16626464404E+04  0.50400001928E-02 0.  1.
       -1   -1    0    0    0  501  0.00000000000E+00  0.00000000000E+00 -0.12607428892E+04  0.12607428892E+04  0.50400001928E-02 0. -1.
    10030    2    1    2    0    0  0.00000000000E+00  0.00000000000E+00  0.40190355123E+03  0.29233893296E+04  0.28956309688E+04 0.  0.
        5    1    3    3  502    0 -0.58889116651E+02 -0.10079551228E+04  0.12485434478E+04  0.16057161295E+04  0.46999998093E+01 0.  1.
       -5    1    3    3    0  502  0.58889116651E+02  0.10079551228E+04 -0.84663989654E+03  0.13176732000E+04  0.46999998093E+01 0. -1.
</event>
<event>
 5   0  0.1339837E-05  0.2830879E+04  0.7818609E-02  0.8293745E-01
       -2   -1    0    0    0  501  0.00000000000E+00  0.00000000000E+00  0.95041108690E+03  0.95041108690E+03  0.25500000920E-02 0.  1.
        2   -1    0    0  501    0  0.00000000000E+00  0.00000000000E+00 -0.21080022906E+04  0.21080022906E+04  0.25500000920E-02 0. -1.
    10030    2    1    2    0    0  0.00000000000E+00  0.00000000000E+00 -0.11575912037E+04  0.30584133775E+04  0.28308788375E+04 0.  0.
        5    1    3    3  502    0  0.76072400887E+03  0.80220689812E+03  0.37610622800E+03  0.11677820472E+04  0.46999998093E+01 0.  1.
       -5    1    3    3    0  502 -0.76072400887E+03 -0.80220689812E+03 -0.15336974317E+04  0.18906313303E+04  0.46999998093E+01 0. -1.
</event>
<event>
 5   0  0.5059249E-06  0.2934382E+04  0.7818609E-02  0.8262721E-01
       -1   -1    0    0    0  501  0.00000000000E+00  0.00000000000E+00  0.18661394580E+04  0.18661394580E+04  0.50400001928E-02 0. -1.
        1   -1    0    0  501    0  0.00000000000E+00  0.00000000000E+00 -0.11535311387E+04  0.11535311387E+04  0.50400001928E-02 0.  1.
    10030    2    1    2    0    0  0.00000000000E+00  0.00000000000E+00  0.71260831936E+03  0.30196705967E+04  0.29343823704E+04 0.  0.
        1    1    3    3  502    0 -0.45896030848E+03  0.11589034587E+03  0.17853992045E+04  0.18470856657E+04  0.50400001928E-02 0. -1.
       -1    1    3    3    0  502  0.45896030848E+03 -0.11589034587E+03 -0.10727908852E+04  0.11725849310E+04  0.50400001928E-02 0.  1.
</event>
<event>
 5   0  0.1339837E-05  0.2905285E+04  0.7818609E-02  0.8271307E-01
       -2   -1    0    0    0  501  0.00000000000E+00  0.00000000000E+00  0.13885853241E+04  0.13885853241E+04  0.25500000920E-02 0. -1.
        2   -1    0    0  501    0  0.00000000000E+00  0.00000000000E+00 -0.15196544092E+04  0.15196544092E+04  0.25500000920E-02 0.  1.
    10030    2    1    2    0    0  0.00000000000E+00  0.00000000000E+00 -0.13106908507E+03  0.29082397333E+04  0.29052847092E+04 0.  0.
        5    1    3    3  502    0  0.80049817591E+03  0.40810069402E+03 -0.12080999802E+04  0.15056132167E+04  0.46999998093E+01 0.  1.
       -5    1    3    3    0  502 -0.80049817591E+03 -0.40810069402E+03  0.10770308951E+04  0.14026265166E+04  0.46999998093E+01 0. -1.
</event>
<event>
 5   0  0.5352212E-06  0.2836874E+04  0.7818609E-02  0.8291911E-01
       -1   -1    0    0    0  501  0.00000000000E+00  0.00000000000E+00  0.12337142844E+04  0.12337142844E+04  0.50400001928E-02 0. -1.
        1   -1    0    0  501    0  0.00000000000E+00  0.00000000000E+00 -0.16308177907E+04  0.16308177907E+04  0.50400001928E-02 0.  1.
    10030    2    1    2    0    0  0.00000000000E+00  0.00000000000E+00 -0.39710350632E+03  0.28645320751E+04  0.28368737749E+04 0.  0.
        2    1    3    3  502    0  0.21191862119E+03  0.57064586172E+02 -0.16135699021E+04  0.16284267555E+04  0.25500000920E-02 0.  1.
       -2    1    3    3    0  502 -0.21191862119E+03 -0.57064586172E+02  0.12164663958E+04  0.12361053196E+04  0.25500000920E-02 0. -1.
</event>
<event>
 5   0  0.5154476E-06  0.2876503E+04  0.7818609E-02  0.8279903E-01
       -1   -1    0    0    0  501  0.00000000000E+00  0.00000000000E+00  0.10082269742E+04  0.10082269742E+04  0.50400001928E-02 0. -1.
        1   -1    0    0  501    0  0.00000000000E+00  0.00000000000E+00 -0.20516886174E+04  0.20516886174E+04  0.50400001928E-02 0.  1.
    10030    2    1    2    0    0  0.00000000000E+00  0.00000000000E+00 -0.10434616432E+04  0.30599155916E+04  0.28765032986E+04 0.  0.
        3    1    3    3  502    0  0.50157796322E+03  0.14002729224E+03  0.90441681460E+03  0.10436272709E+04  0.10100000352E+00 0. -1.
       -3    1    3    3    0  502 -0.50157796322E+03 -0.14002729224E+03 -0.19478784578E+04  0.20162883208E+04  0.10100000352E+00 0.  1.
</event>
<event>
 5   0  0.5261878E-06  0.2890369E+04  0.7818609E-02  0.8275749E-01
        1   -1    0    0  501    0  0.00000000000E+00  0.00000000000E+00  0.23075758858E+04  0.23075758858E+04  0.50400001928E-02 0. -1.
       -1   -1    0    0    0  501  0.00000000000E+00  0.00000000000E+00 -0.90508780577E+03  0.90508780578E+03  0.50400001928E-02 0.  1.
    10030    2    1    2    0    0  0.00000000000E+00  0.00000000000E+00  0.14024880801E+04  0.32126636916E+04  0.28903693848E+04 0.  0.
        5    1    3    3  502    0  0.12280505538E+04 -0.57457098751E+03  0.14516119385E+03  0.13635739234E+04  0.46999998093E+01 0.  1.
       -5    1    3    3    0  502 -0.12280505538E+04  0.57457098751E+03  0.12573268862E+04  0.18490897683E+04  0.46999998093E+01 0. -1.
</event>
<event>
 5   0  0.1382803E-05  0.2750242E+04  0.7818609E-02  0.8318885E-01
       -2   -1    0    0    0  501  0.00000000000E+00  0.00000000000E+00  0.99012844943E+03  0.99012844943E+03  0.25500000920E-02 0.  1.
        2   -1    0    0  501    0  0.00000000000E+00  0.00000000000E+00 -0.19098106653E+04  0.19098106653E+04  0.25500000920E-02 0. -1.
    10030    2    1    2    0    0  0.00000000000E+00  0.00000000000E+00 -0.91968221592E+03  0.28999391148E+04  0.27502420786E+04 0.  0.
        2    1    3    3  502    0 -0.81243035901E+03 -0.54273639448E+03 -0.14801637552E+04  0.17735531072E+04  0.25500000920E-02 0. -1.
       -2    1    3    3    0  502  0.81243035901E+03  0.54273639448E+03  0.56048153924E+03  0.11263860075E+04  0.25500000920E-02 0.  1.
</event>
<event>
 5   0  0.1336899E-05  0.2480188E+04  0.7818609E-02  0.8410078E-01
        2   -1    0    0  501    0  0.00000000000E+00  0.00000000000E+00  0.21005354445E+04  0.21005354445E+04  0.25500000920E-02 0. -1.
       -2   -1    0    0    0  501  0.00000000000E+00  0.00000000000E+00 -0.73211468919E+03  0.73211468919E+03  0.25500000920E-02 0.  1.
    10030    2    1    2    0    0  0.00000000000E+00  0.00000000000E+00  0.13684207553E+04  0.28326501337E+04  0.24801877784E+04 0.  0.
        1    1    3    3  502    0  0.11663507655E+02 -0.53082417429E+03  0.19641509234E+04  0.20346496483E+04  0.50400001928E-02 0. -1.
       -1    1    3    3    0  502 -0.11663507655E+02  0.53082417429E+03 -0.59573016811E+03  0.79800048537E+03  0.50400001928E-02 0.  1.
</event>
<event>
 5   0  0.5059249E-06  0.2887314E+04  0.7818609E-02  0.8276662E-01
        1   -1    0    0  501    0  0.00000000000E+00  0.00000000000E+00  0.15233861988E+04  0.15233861988E+04  0.50400001928E-02 0. -1.
       -1   -1    0    0    0  501  0.00000000000E+00  0.00000000000E+00 -0.13681005472E+04  0.13681005472E+04  0.50400001928E-02 0.  1.
    10030    2    1    2    0    0  0.00000000000E+00  0.00000000000E+00  0.15528565153E+03  0.28914867460E+04  0.28873139713E+04 0.  0.
        1    1    3    3  502    0 -0.12059802746E+04  0.77695948990E+03 -0.84117765950E+02  0.14370561124E+04  0.50400001928E-02 0.  1.
       -1    1    3    3    0  502  0.12059802746E+04 -0.77695948990E+03  0.23940341748E+03  0.14544306336E+04  0.50400001928E-02 0. -1.
</event>
<event>
 5   0  0.5154476E-06  0.2915508E+04  0.7818609E-02  0.8268278E-01
        1   -1    0    0  501    0  0.00000000000E+00  0.00000000000E+00  0.14059035448E+04  0.14059035449E+04  0.50400001928E-02 0.  1.
       -1   -1    0    0    0  501  0.00000000000E+00  0.00000000000E+00 -0.15115165304E+04  0.15115165304E+04  0.50400001928E-02 0. -1.
    10030    2    1    2    0    0  0.00000000000E+00  0.00000000000E+00 -0.10561298552E+03  0.29174200752E+04  0.29155078104E+04 0.  0.
        3    1    3    3  502    0 -0.16421822938E+03 -0.11759625771E+04 -0.89905073363E+03  0.14893447691E+04  0.10100000352E+00 0. -1.
       -3    1    3    3    0  502  0.16421822938E+03  0.11759625771E+04  0.79343774811E+03  0.14280753061E+04  0.10100000352E+00 0.  1.
</event>
<event>
 5   0  0.5154476E-06  0.2854452E+04  0.7818609E-02  0.8286560E-01
        1   -1    0    0  501    0  0.00000000000E+00  0.00000000000E+00  0.19184361691E+04  0.19184361691E+04  0.50400001928E-02 0.  1.
       -1   -1    0    0    0  501  0.00000000000E+00  0.00000000000E+00 -0.10617891228E+04  0.10617891228E+04  0.50400001928E-02 0. -1.
    10030    2    1    2    0    0  0.00000000000E+00  0.00000000000E+00  0.85664704627E+03  0.29802252919E+04  0.28544524219E+04 0.  0.
        3    1    3    3  502    0 -0.11364263076E+04 -0.71428602591E+03  0.93478008747E+03  0.16356904052E+04  0.10100000352E+00 0.  1.
       -3    1    3    3    0  502  0.11364263076E+04  0.71428602591E+03 -0.78133041205E+02  0.13445348868E+04  0.10100000352E+00 0. -1.
</event>
<event>
 5   0  0.5352212E-06  0.2941065E+04  0.7818609E-02  0.8260763E-01
       -1   -1    0    0    0  501  0.00000000000E+00  0.00000000000E+00  0.16591258697E+04  0.16591258697E+04  0.50400001928E-02 0. -1.
        1   -1    0    0  501    0  0.00000000000E+00  0.00000000000E+00 -0.13033761623E+04  0.13033761623E+04  0.50400001928E-02 0.  1.
    10030    2    1    2    0    0  0.00000000000E+00  0.00000000000E+00  0.35574970746E+03  0.29625020320E+04  0.29410645071E+04 0.  0.
        2    1    3    3  502    0 -0.82556370488E+03  0.64575698178E+03 -0.86110245369E+03  0.13564862499E+04  0.25500000920E-02 0.  1.
       -2    1    3    3    0  502  0.82556370488E+03 -0.64575698178E+03  0.12168521612E+04  0.16060157821E+04  0.25500000920E-02 0. -1.
</event>
<event>
 5   0  0.1336899E-05  0.2918897E+04  0.7818609E-02  0.8267277E-01
       -2   -1    0    0    0  501  0.00000000000E+00  0.00000000000E+00  0.13656753257E+04  0.13656753257E+04  0.25500000920E-02 0. -1.
        2   -1    0    0  501    0  0.00000000000E+00  0.00000000000E+00 -0.15596607773E+04  0.15596607773E+04  0.25500000920E-02 0.  1.
    10030    2    1    2    0    0  0.00000000000E+00  0.00000000000E+00 -0.19398545157E+03  0.29253361030E+04  0.29188972165E+04 0.  0.
        1    1    3    3  502    0 -0.76707911727E+03  0.59307465459E+03 -0.11901978907E+04  0.15351608832E+04  0.50400001928E-02 0.  1.
       -1    1    3    3    0  502  0.76707911727E+03 -0.59307465459E+03  0.99621243915E+03  0.13901752199E+04  0.50400001928E-02 0. -1.
</event>
<event>
 5   0  0.1385669E-05  0.3113775E+04  0.7818609E-02  0.8211968E-01
        2   -1    0    0  501    0  0.00000000000E+00  0.00000000000E+00  0.12905389911E+04  0.12905389911E+04  0.25500000920E-02 0. -1.
       -2   -1    0    0    0  501  0.00000000000E+00  0.00000000000E+00 -0.18782063272E+04  0.18782063272E+04  0.25500000920E-02 0.  1.
    10030    2    1    2    0    0  0.00000000000E+00  0.00000000000E+00 -0.58766733604E+03  0.31687453183E+04  0.31137748785E+04 0.  0.
        3    1    3    3  502    0  0.91681617191E+03 -0.33999800296E+03 -0.15267280291E+04  0.18130220683E+04  0.10100000352E+00 0.  1.
       -3    1    3    3    0  502 -0.91681617191E+03  0.33999800296E+03  0.93906069306E+03  0.13557232500E+04  0.10100000352E+00 0. -1.
</event>
<event>
 5   0  0.5154476E-06  0.2877675E+04  0.7818609E-02  0.8279551E-01
       -1   -1    0    0    0  501  0.00000000000E+00  0.00000000000E+00  0.10139731041E+04  0.10139731041E+04  0.50400001928E-02 0. -1.
        1   -1    0    0  501    0  0.00000000000E+00  0.00000000000E+00 -0.20417247451E+04  0.20417247451E+04  0.50400001928E-02 0.  1.
    10030    2    1    2    0    0  0.00000000000E+00  0.00000000000E+00 -0.10277516410E+04  0.30556978493E+04  0.28776754352E+04 0.  0.
        3    1    3    3  502    0  0.14381601218E+04 -0.17813646926E+02 -0.47097726092E+03  0.15134204480E+04  0.10100000352E+00 0.  1.
       -3    1    3    3    0  502 -0.14381601218E+04  0.17813646926E+02 -0.55677438009E+03  0.15422774013E+04  0.10100000352E+00 0. -1.
</event>
<event>
 5   0  0.1307832E-05  0.2872193E+04  0.7818609E-02  0.8281199E-01
       -2   -1    0    0    0  501  0.00000000000E+00  0.00000000000E+00  0.15046183385E+04  0.15046183385E+04  0.25500000920E-02 0.  1.
        2   -1    0    0  501    0  0.00000000000E+00  0.00000000000E+00 -0.13706952250E+04  0.13706952250E+04  0.25500000920E-02 0. -1.
    10030    2    1    2    0    0  0.00000000000E+00  0.00000000000E+00  0.13392311351E+03  0.28753135636E+04  0.28721930103E+04 0.  0.
        4    1    3    3  502    0 -0.83217866129E+03  0.57282593856E+03 -0.95479453278E+03  0.13900665786E+04  0.12699999809E+01 0. -1.
       -4    1    3    3    0  502  0.83217866129E+03 -0.57282593856E+03  0.10887176463E+04  0.14852469850E+04  0.12699999809E+01 0.  1.
</event>
<event>
 5   0  0.5154476E-06  0.2871579E+04  0.7818609E-02  0.8281384E-01
       -1   -1    0    0    0  501  0.00000000000E+00  0.00000000000E+00  0.14594252761E+04  0.14594252761E+04  0.50400001928E-02 0. -1.
        1   -1    0    0  501    0  0.00000000000E+00  0.00000000000E+00 -0.14125364368E+04  0.14125364368E+04  0.50400001928E-02 0.  1.
    10030    2    1    2    0    0  0.00000000000E+00  0.00000000000E+00  0.46888839350E+02  0.28719617129E+04  0.28715789241E+04 0.  0.
        3    1    3    3  502    0  0.13645210349E+04  0.39824894648E+03  0.22588555917E+03  0.14392859946E+04  0.10100000352E+00 0. -1.
       -3    1    3    3    0  502 -0.13645210349E+04 -0.39824894648E+03 -0.17899671982E+03  0.14326757184E+04  0.10100000352E+00 0.  1.
</event>
<event>
 5   0  0.5154476E-06  0.2918876E+04  0.7818609E-02  0.8267283E-01
       -1   -1    0    0    0  501  0.00000000000E+00  0.00000000000E+00  0.14544634849E+04  0.14544634849E+04  0.50400001928E-02 0. -1.
        1   -1    0    0  501    0  0.00000000000E+00  0.00000000000E+00 -0.14644297359E+04  0.14644297359E+04  0.50400001928E-02 0.  1.
    10030    2    1    2    0    0  0.00000000000E+00  0.00000000000E+00 -0.99662509514E+01  0.29188932208E+04  0.29188762064E+04 0.  0.
        3    1    3    3  502    0  0.83964468812E+03  0.58706397022E+03 -0.10443698937E+04  0.14629954861E+04  0.10100000352E+00 0.  1.
       -3    1    3    3    0  502 -0.83964468812E+03 -0.58706397022E+03  0.10344036428E+04  0.14558977346E+04  0.10100000352E+00 0. -1.
</event>
<event>
 5   0  0.1385669E-05  0.2892667E+04  0.7818609E-02  0.8275063E-01
       -2   -1    0    0    0  501  0.00000000000E+00  0.00000000000E+00  0.13084701750E+04  0.13084701750E+04  0.25500000920E-02 0.  1.
        2   -1    0    0  501    0  0.00000000000E+00  0.00000000000E+00 -0.15987219642E+04  0.15987219642E+04  0.25500000920E-02 0. -1.
    10030    2    1    2    0    0  0.00000000000E+00  0.00000000000E+00 -0.29025178922E+03  0.29071921392E+04  0.28926665955E+04 0.  0.
        3    1    3    3  502    0  0.10534799774E+04 -0.11946504316E+03 -0.11338280487E+04  0.15523073193E+04  0.10100000352E+00 0. -1.
       -3    1    3    3    0  502 -0.10534799774E+04  0.11946504316E+03  0.84357625949E+03  0.13548848199E+04  0.10100000352E+00 0.  1.
</event>
<event>
 5   0  0.5002240E-06  0.2541089E+04  0.7818609E-02  0.8388492E-01
        1   -1    0    0  501    0  0.00000000000E+00  0.00000000000E+00  0.20974350236E+04  0.20974350236E+04  0.50400001928E-02 0.  1.
       -1   -1    0    0    0  501  0.00000000000E+00  0.00000000000E+00 -0.76964666940E+03  0.76964666942E+03  0.50400001928E-02 0. -1.
    10030    2    1    2    0    0  0.00000000000E+00  0.00000000000E+00  0.13277883542E+04  0.28670816930E+04  0.25410894358E+04 0.  0.
        4    1    3    3  502    0  0.53554806333E+03  0.16916163720E+03  0.19497741492E+04  0.20290510672E+04  0.12699999809E+01 0.  1.
       -4    1    3    3    0  502 -0.53554806333E+03 -0.16916163720E+03 -0.62198579502E+03  0.83803062577E+03  0.12699999809E+01 0. -1.
</event>
<event>
 5   0  0.5154476E-06  0.2130437E+04  0.7818609E-02  0.8547953E-01
       -1   -1    0    0    0  501  0.00000000000E+00  0.00000000000E+00  0.11845683114E+04  0.11845683114E+04  0.50400001928E-02 0.  1.
        1   -1    0    0  501    0  0.00000000000E+00  0.00000000000E+00 -0.95789337515E+03  0.95789337517E+03  0.50400001928E-02 0. -1.
    10030    2    1    2    0    0  0.00000000000E+00  0.00000000000E+00  0.22667493620E+03  0.21424616865E+04  0.21304367044E+04 0.  0.
        3    1    3    3  502    0  0.17687935800E+03  0.25513590862E+03 -0.91138873080E+03  0.96281362058E+03  0.10100000352E+00 0. -1.
       -3    1    3    3    0  502 -0.17687935800E+03 -0.25513590862E+03  0.11380636670E+04  0.11796480659E+04  0.10100000352E+00 0.  1.
</event>
<event>
 5   0  0.1382803E-05  0.2889350E+04  0.7818609E-02  0.8276053E-01
       -2   -1    0    0    0  501  0.00000000000E+00  0.00000000000E+00  0.83843344182E+03  0.83843344183E+03  0.25500000920E-02 0.  1.
        2   -1    0    0  501    0  0.00000000000E+00  0.00000000000E+00 -0.24892685973E+04  0.24892685973E+04  0.25500000920E-02 0. -1.
    10030    2    1    2    0    0  0.00000000000E+00  0.00000000000E+00 -0.16508351555E+04  0.33277020391E+04  0.28893501260E+04 0.  0.
        2    1    3    3  502    0 -0.12031965635E+04 -0.31232389858E+03 -0.16732049537E+04  0.20844286999E+04  0.25500000920E-02 0. -1.
       -2    1    3    3    0  502  0.12031965635E+04  0.31232389858E+03  0.22369798183E+02  0.12432733392E+04  0.25500000920E-02 0.  1.
</event>
<event>
 5   0  0.5002240E-06  0.2873441E+04  0.7818609E-02  0.8280824E-01
       -1   -1    0    0    0  501  0.00000000000E+00  0.00000000000E+00  0.11593010186E+04  0.11593010186E+04  0.50400001928E-02 0.  1.
        1   -1    0    0  501    0  0.00000000000E+00  0.00000000000E+00 -0.17805267296E+04  0.17805267296E+04  0.50400001928E-02 0. -1.
    10030    2    1    2    0    0  0.00000000000E+00  0.00000000000E+00 -0.62122571102E+03  0.29398277482E+04  0.28734414567E+04 0.  0.
        4    1    3    3  502    0 -0.34454063163E+03 -0.13146288673E+04  0.16620989969E+03  0.13691547207E+04  0.12699999809E+01 0.  1.
       -4    1    3    3    0  502  0.34454063163E+03  0.13146288673E+04 -0.78743561071E+03  0.15706730275E+04  0.12699999809E+01 0. -1.
</event>
<event>
 5   0  0.1336899E-05  0.2856430E+04  0.7818609E-02  0.8285960E-01
       -2   -1    0    0    0  501  0.00000000000E+00  0.00000000000E+00  0.13501388582E+04  0.13501388582E+04  0.25500000920E-02 0.  1.
        2   -1    0    0  501    0  0.00000000000E+00  0.00000000000E+00 -0.15108056223E+04  0.15108056223E+04  0.25500000920E-02 0. -1.
    10030    2    1    2    0    0  0.00000000000E+00  0.00000000000E+00 -0.16066676415E+03  0.28609444805E+04  0.28564295040E+04 0.  0.
        1    1    3    3  502    0  0.17872805688E+03 -0.14152054610E+04 -0.91777019978E+01  0.14264762337E+04  0.50400001928E-02 0.  1.
       -1    1    3    3    0  502 -0.17872805688E+03  0.14152054610E+04 -0.15148906215E+03  0.14344682468E+04  0.50400001928E-02 0. -1.
</event>
<event>
 5   0  0.5352212E-06  0.2894838E+04  0.7818609E-02  0.8274415E-01
        1   -1    0    0  501    0  0.00000000000E+00  0.00000000000E+00  0.15354631876E+04  0.15354631876E+04  0.50400001928E-02 0.  1.
       -1   -1    0    0    0  501  0.00000000000E+00  0.00000000000E+00 -0.13644232376E+04  0.13644232376E+04  0.50400001928E-02 0. -1.
    10030    2    1    2    0    0  0.00000000000E+00  0.00000000000E+00  0.17103995001E+03  0.28998864252E+04  0.28948379254E+04 0.  0.
        2    1    3    3  502    0  0.14056440440E+04  0.32155888885E+03 -0.40342909784E+02  0.14425196179E+04  0.25500000920E-02 0. -1.
       -2    1    3    3    0  502 -0.14056440440E+04 -0.32155888885E+03  0.21138285979E+03  0.14573668073E+04  0.25500000920E-02 0.  1.
</event>
<event>
 5   0  0.5002240E-06  0.2859945E+04  0.7818609E-02  0.8284896E-01
       -1   -1    0    0    0  501  0.00000000000E+00  0.00000000000E+00  0.67658893772E+03  0.67658893774E+03  0.50400001928E-02 0.  1.
        1   -1    0    0  501    0  0.00000000000E+00  0.00000000000E+00 -0.30222506077E+04  0.30222506077E+04  0.50400001928E-02 0. -1.
    10030    2    1    2    0    0  0.00000000000E+00  0.00000000000E+00 -0.23456616700E+04  0.36988395455E+04  0.28599449843E+04 0.  0.
        4    1    3    3  502    0  0.32187548268E+03 -0.69748145788E+03  0.38708020811E+03  0.86018423076E+03  0.12699999809E+01 0.  1.
       -4    1    3    3    0  502 -0.32187548268E+03  0.69748145788E+03 -0.27327418781E+04  0.28386553147E+04  0.12699999809E+01 0. -1.
</event>
<event>
 5   0  0.1385669E-05  0.2980924E+04  0.7818609E-02  0.8249199E-01
       -2   -1    0    0    0  501  0.00000000000E+00  0.00000000000E+00  0.13973891628E+04  0.13973891628E+04  0.25500000920E-02 0. -1.
        2   -1    0    0  501    0  0.00000000000E+00  0.00000000000E+00 -0.15897340635E+04  0.15897340635E+04  0.25500000920E-02 0.  1.
    10030    2    1    2    0    0  0.00000000000E+00  0.00000000000E+00 -0.19234490075E+03  0.29871232263E+04  0.29809241199E+04 0.  0.
        3    1    3    3  502    0  0.51635077819E+03 -0.45812631091E+03 -0.14198961890E+04  0.15787979733E+04  0.10100000352E+00 0.  1.
       -3    1    3    3    0  502 -0.51635077819E+03  0.45812631091E+03  0.12275512882E+04  0.14083252530E+04  0.10100000352E+00 0. -1.
</event>
<event>
 5   0  0.5154476E-06  0.2888260E+04  0.7818609E-02  0.8276379E-01
        1   -1    0    0  501    0  0.00000000000E+00  0.00000000000E+00  0.26038500869E+04  0.26038500870E+04  0.50400001928E-02 0.  1.
       -1   -1    0    0    0  501  0.00000000000E+00  0.00000000000E+00 -0.80093371959E+03  0.80093371960E+03  0.50400001928E-02 0. -1.
    10030    2    1    2    0    0  0.00000000000E+00  0.00000000000E+00  0.18029163674E+04  0.34047838066E+04  0.28882599159E+04 0.  0.
        3    1    3    3  502    0 -0.13477908653E+04 -0.18148202996E+03  0.32873887955E+03  0.13991230128E+04  0.10100000352E+00 0.  1.
       -3    1    3    3    0  502  0.13477908653E+04  0.18148202996E+03  0.14741774878E+04  0.20056607938E+04  0.10100000352E+00 0. -1.
</event>
<event>
 5   0  0.1382803E-05  0.2893411E+04  0.7818609E-02  0.8274841E-01
        2   -1    0    0  501    0  0.00000000000E+00  0.00000000000E+00  0.15624481321E+04  0.15624481321E+04  0.25500000920E-02 0.  1.
       -2   -1    0    0    0  501  0.00000000000E+00  0.00000000000E+00 -0.13395368094E+04  0.13395368094E+04  0.25500000920E-02 0. -1.
    10030    2    1    2    0    0  0.00000000000E+00  0.00000000000E+00  0.22291132268E+03  0.29019849415E+04  0.28934109876E+04 0.  0.
        2    1    3    3  502    0 -0.83609888166E+03 -0.31504563552E+03  0.12526505631E+04  0.15386515283E+04  0.25500000920E-02 0.  1.
       -2    1    3    3    0  502  0.83609888166E+03  0.31504563552E+03 -0.10297392404E+04  0.13633334132E+04  0.25500000920E-02 0. -1.
</event>
<event>
 5   0  0.1385669E-05  0.2961385E+04  0.7818609E-02  0.8254844E-01
       -2   -1    0    0    0  501  0.00000000000E+00  0.00000000000E+00  0.10743973262E+04  0.10743973262E+04  0.25500000920E-02 0. -1.
        2   -1    0    0  501    0  0.00000000000E+00  0.00000000000E+00 -0.20406329414E+04  0.20406329414E+04  0.25500000920E-02 0.  1.
    10030    2    1    2    0    0  0.00000000000E+00  0.00000000000E+00 -0.96623561524E+03  0.31150302676E+04  0.29613852002E+04 0.  0.
        3    1    3    3  502    0  0.12142634404E+04  0.79676238162E+03 -0.78649907260E+03  0.16516194468E+04  0.10100000352E+00 0.  1.
       -3    1    3    3    0  502 -0.12142634404E+04 -0.79676238162E+03 -0.17973654264E+03  0.14634108208E+04  0.10100000352E+00 0. -1.
</event>
<event>
 5   0  0.1382803E-05  0.2878753E+04  0.7818609E-02  0.8279227E-01
        2   -1    0    0  501    0  0.00000000000E+00  0.00000000000E+00  0.14432536929E+04  0.14432536929E+04  0.25500000920E-02 0.  1.
       -2   -1    0    0    0  501  0.00000000000E+00  0.00000000000E+00 -0.14355095288E+04  0.14355095288E+04  0.25500000920E-02 0. -1.
    10030    2    1    2    0    0  0.00000000000E+00  0.00000000000E+00  0.77441641431E+01  0.28787632217E+04  0.28787528054E+04 0.  0.
        2    1    3    3  502    0  0.14172395362E+04 -0.18103689251E+03 -0.17066269849E+03  0.14389120947E+04  0.25500000920E-02 0. -1.
       -2    1    3    3    0  502 -0.14172395362E+04  0.18103689251E+03  0.17840686264E+03  0.14398511271E+04  0.25500000920E-02 0.  1.
</event>
<event>
 5   0  0.1382803E-05  0.2895198E+04  0.7818609E-02  0.8274308E-01
        2   -1    0    0  501    0  0.00000000000E+00  0.00000000000E+00  0.14789086362E+04  0.14789086362E+04  0.25500000920E-02 0.  1.
       -2   -1    0    0    0  501  0.00000000000E+00  0.00000000000E+00 -0.14169523536E+04  0.14169523536E+04  0.25500000920E-02 0. -1.
    10030    2    1    2    0    0  0.00000000000E+00  0.00000000000E+00  0.61956282639E+02  0.28958609898E+04  0.28951981437E+04 0.  0.
        2    1    3    3  502    0 -0.28508093510E+03 -0.10271194036E+04  0.10106398025E+04  0.14688901318E+04  0.25500000920E-02 0.  1.
       -2    1    3    3    0  502  0.28508093510E+03  0.10271194036E+04 -0.94868351984E+03  0.14269708580E+04  0.25500000920E-02 0. -1.
</event>
<event>
 5   0  0.5261878E-06  0.2137248E+04  0.7818609E-02  0.8545011E-01
       -1   -1    0    0    0  501  0.00000000000E+00  0.00000000000E+00  0.13579149143E+04  0.13579149143E+04  0.50400001928E-02 0.  1.
        1   -1    0    0  501    0  0.00000000000E+00  0.00000000000E+00 -0.84096361868E+03  0.84096361870E+03  0.50400001928E-02 0. -1.
    10030    2    1    2    0    0  0.00000000000E+00  0.00000000000E+00  0.51695129563E+03  0.21988785330E+04  0.21372478005E+04 0.  0.
        5    1    3    3  502    0  0.13329176850E+03 -0.96934312439E+03 -0.18349574766E+03  0.99553280597E+03  0.46999998093E+01 0. -1.
       -5    1    3    3    0  502 -0.13329176850E+03  0.96934312439E+03  0.70044704328E+03  0.12033457270E+04  0.46999998093E+01 0.  1.
</event>
<event>
 5   0  0.5002240E-06  0.2932398E+04  0.7818609E-02  0.8263303E-01
       -1   -1    0    0    0  501  0.00000000000E+00  0.00000000000E+00  0.21185592093E+04  0.21185592093E+04  0.50400001928E-02 0. -1.
        1   -1    0    0  501    0  0.00000000000E+00  0.00000000000E+00 -0.10147179024E+04  0.10147179024E+04  0.50400001928E-02 0.  1.
    10030    2    1    2    0    0  0.00000000000E+00  0.00000000000E+00  0.11038413069E+04  0.31332771117E+04  0.29323983065E+04 0.  0.
        4    1    3    3  502    0  0.80012563254E+03  0.98331048915E+03 -0.23518107689E+03  0.12893456859E+04  0.12699999809E+01 0.  1.
       -4    1    3    3    0  502 -0.80012563254E+03 -0.98331048915E+03  0.13390223838E+04  0.18439314258E+04  0.12699999809E+01 0. -1.
</event>
<event>
 5   0  0.1382803E-05  0.2988860E+04  0.7818609E-02  0.8246919E-01
        2   -1    0    0  501    0  0.00000000000E+00  0.00000000000E+00  0.21353874036E+04  0.21353874036E+04  0.25500000920E-02 0. -1.
       -2   -1    0    0    0  501  0.00000000000E+00  0.00000000000E+00 -0.10458619441E+04  0.10458619441E+04  0.25500000920E-02 0.  1.
    10030    2    1    2    0    0  0.00000000000E+00  0.00000000000E+00  0.10895254595E+04  0.31812493478E+04  0.29888595962E+04 0.  0.
        2    1    3    3  502    0 -0.11114611662E+04  0.73029168239E+03  0.12702912555E+04  0.18391062338E+04  0.25500000920E-02 0. -1.
       -2    1    3    3    0  502  0.11114611662E+04 -0.73029168239E+03 -0.18076579594E+03  0.13421431140E+04  0.25500000920E-02 0.  1.
</event>
<event>
 5   0  0.1382803E-05  0.2908167E+04  0.7818609E-02  0.8270452E-01
       -2   -1    0    0    0  501  0.00000000000E+00  0.00000000000E+00  0.14741311923E+04  0.14741311923E+04  0.25500000920E-02 0.  1.
        2   -1    0    0  501    0  0.00000000000E+00  0.00000000000E+00 -0.14343084098E+04  0.14343084098E+04  0.25500000920E-02 0. -1.
    10030    2    1    2    0    0  0.00000000000E+00  0.00000000000E+00  0.39822782449E+02  0.29084396021E+04  0.29081669596E+04 0.  0.
        2    1    3    3  502    0  0.54182258020E+03  0.11443023970E+03  0.13645420984E+04  0.14726306823E+04  0.25500000920E-02 0.  1.
       -2    1    3    3    0  502 -0.54182258020E+03 -0.11443023970E+03 -0.13247193159E+04  0.14358089198E+04  0.25500000920E-02 0. -1.
</event>
<event>
 5   0  0.4590125E-06  0.2887203E+04  0.7818609E-02  0.8276695E-01
       -3   -1    0    0    0  501  0.00000000000E+00  0.00000000000E+00  0.14864599515E+04  0.14864599550E+04  0.10100000352E+00 0.  1.
        3   -1    0    0  501    0  0.00000000000E+00  0.00000000000E+00 -0.14019790542E+04  0.14019790579E+04  0.10100000352E+00 0. -1.
    10030    2    1    2    0    0  0.00000000000E+00  0.00000000000E+00  0.84480897311E+02  0.28884390129E+04  0.28872033023E+04 0.  0.
        2    1    3    3  502    0  0.16896983396E+03 -0.11779130137E+04 -0.77539500881E+03  0.14203053518E+04  0.25500000920E-02 0. -1.
       -2    1    3    3    0  502 -0.16896983396E+03  0.11779130137E+04  0.85987590612E+03  0.14681336610E+04  0.25500000920E-02 0.  1.
</event>
<event>
 5   0  0.1385669E-05  0.2763022E+04  0.7818609E-02  0.8314841E-01
        2   -1    0    0  501    0  0.00000000000E+00  0.00000000000E+00  0.19277044095E+04  0.19277044095E+04  0.25500000920E-02 0.  1.
       -2   -1    0    0    0  501  0.00000000000E+00  0.00000000000E+00 -0.99007526642E+03  0.99007526642E+03  0.25500000920E-02 0. -1.
    10030    2    1    2    0    0  0.00000000000E+00  0.00000000000E+00  0.93762914312E+03  0.29177796760E+04  0.27630218652E+04 0.  0.
        3    1    3    3  502    0 -0.26963651886E+03  0.24678980530E+00 -0.96201847544E+03  0.99909132240E+03  0.10100000352E+00 0. -1.
       -3    1    3    3    0  502  0.26963651886E+03 -0.24678980530E+00  0.18996476186E+04  0.19186883536E+04  0.10100000352E+00 0.  1.
</event>
<event>
 5   0  0.4590125E-06  0.2910714E+04  0.7818609E-02  0.8269697E-01
        4   -1    0    0  501    0  0.00000000000E+00  0.00000000000E+00  0.14503927330E+04  0.14503932890E+04  0.12699999809E+01 0. -1.
       -4   -1    0    0    0  501  0.00000000000E+00  0.00000000000E+00 -0.14603370549E+04  0.14603376072E+04  0.12699999809E+01 0.  1.
    10030    2    1    2    0    0  0.00000000000E+00  0.00000000000E+00 -0.99443219956E+01  0.29107308962E+04  0.29107139090E+04 0.  0.
        1    1    3    3  502    0  0.34189244531E+03  0.10846848333E+04  0.90312577340E+03  0.14522629908E+04  0.50400001928E-02 0. -1.
       -1    1    3    3    0  502 -0.34189244531E+03 -0.10846848333E+04 -0.91307009539E+03  0.14584679054E+04  0.50400001928E-02 0.  1.
</event>
<event>
 5   0  0.5059249E-06  0.2911596E+04  0.7818609E-02  0.8269436E-01
       -1   -1    0    0    0  501  0.00000000000E+00  0.00000000000E+00  0.11245666753E+04  0.11245666753E+04  0.50400001928E-02 0.  1.
        1   -1    0    0  501    0  0.00000000000E+00  0.00000000000E+00 -0.18845910050E+04  0.18845910050E+04  0.50400001928E-02 0. -1.
    10030    2    1    2    0    0  0.00000000000E+00  0.00000000000E+00 -0.76002432976E+03  0.30091576803E+04  0.29115962913E+04 0.  0.
        1    1    3    3  502    0  0.45321013069E+03 -0.19129454814E+03  0.10360653096E+04  0.11469195056E+04  0.50400001928E-02 0.  1.
       -1    1    3    3    0  502 -0.45321013069E+03  0.19129454814E+03 -0.17960896393E+04  0.18622381747E+04  0.50400001928E-02 0. -1.
</event>
<event>
 5   0  0.1382803E-05  0.2884016E+04  0.7818609E-02  0.8277649E-01
       -2   -1    0    0    0  501  0.00000000000E+00  0.00000000000E+00  0.83660501884E+03  0.83660501884E+03  0.25500000920E-02 0.  1.
        2   -1    0    0  501    0  0.00000000000E+00  0.00000000000E+00 -0.24855055791E+04  0.24855055791E+04  0.25500000920E-02 0. -1.
    10030    2    1    2    0    0  0.00000000000E+00  0.00000000000E+00 -0.16489005603E+04  0.33221105980E+04  0.28840155630E+04 0.  0.
        2    1    3    3  502    0  0.32389810748E+03 -0.42637200528E+03  0.71784767227E+03  0.89554918988E+03  0.25500000920E-02 0.  1.
       -2    1    3    3    0  502 -0.32389810748E+03  0.42637200528E+03 -0.23667482325E+04  0.24265614081E+04  0.25500000920E-02 0. -1.
</event>
<event>
 5   0  0.1339837E-05  0.2962503E+04  0.7818609E-02  0.8254520E-01
        2   -1    0    0  501    0  0.00000000000E+00  0.00000000000E+00  0.13838672492E+04  0.13838672492E+04  0.25500000920E-02 0.  1.
       -2   -1    0    0    0  501  0.00000000000E+00  0.00000000000E+00 -0.15854893095E+04  0.15854893095E+04  0.25500000920E-02 0. -1.
    10030    2    1    2    0    0  0.00000000000E+00  0.00000000000E+00 -0.20162206029E+03  0.29693565586E+04  0.29625034881E+04 0.  0.
        5    1    3    3  502    0  0.65631212515E+03  0.12639930392E+04  0.30714479164E+03  0.14569777012E+04  0.46999998093E+01 0.  1.
       -5    1    3    3    0  502 -0.65631212515E+03 -0.12639930392E+04 -0.50876685193E+03  0.15123788574E+04  0.46999998093E+01 0. -1.
</event>
<event>
 5   0  0.4590125E-06  0.2915977E+04  0.7818609E-02  0.8268140E-01
       -4   -1    0    0    0  501  0.00000000000E+00  0.00000000000E+00  0.21054184801E+04  0.21054188631E+04  0.12699999809E+01 0.  1.
        4   -1    0    0  501    0  0.00000000000E+00  0.00000000000E+00 -0.10096463773E+04  0.10096471760E+04  0.12699999809E+01 0. -1.
    10030    2    1    2    0    0  0.00000000000E+00  0.00000000000E+00  0.10957721028E+04  0.31150660392E+04  0.29159766678E+04 0.  0.
        4    1    3    3  502    0  0.83284271581E+03 -0.10389726208E+03 -0.72569656031E+03  0.11095308652E+04  0.12699999809E+01 0. -1.
       -4    1    3    3    0  502 -0.83284271581E+03  0.10389726208E+03  0.18214686631E+04  0.20055351739E+04  0.12699999809E+01 0.  1.
</event>
<event>
 5   0  0.5261878E-06  0.2889244E+04  0.7818609E-02  0.8276085E-01
        1   -1    0    0  501    0  0.00000000000E+00  0.00000000000E+00  0.10581982662E+04  0.10581982662E+04  0.50400001928E-02 0.  1.
       -1   -1    0    0    0  501  0.00000000000E+00  0.00000000000E+00 -0.19721566029E+04  0.19721566029E+04  0.50400001928E-02 0. -1.
    10030    2    1    2    0    0  0.00000000000E+00  0.00000000000E+00 -0.91395833673E+03  0.30303548691E+04  0.28892439827E+04 0.  0.
        5    1    3    3  502    0  0.50646938905E+03  0.34150445904E+03  0.91606989361E+03  0.11010643385E+04  0.46999998093E+01 0.  1.
       -5    1    3    3    0  502 -0.50646938905E+03 -0.34150445904E+03 -0.18300282303E+04  0.19292905306E+04  0.46999998093E+01 0. -1.
</event>
<event>
 5   0  0.1307832E-05  0.2907300E+04  0.7818609E-02  0.8270709E-01
        2   -1    0    0  501    0  0.00000000000E+00  0.00000000000E+00  0.12350812136E+04  0.12350812136E+04  0.25500000920E-02 0.  1.
       -2   -1    0    0    0  501  0.00000000000E+00  0.00000000000E+00 -0.17108982378E+04  0.17108982378E+04  0.25500000920E-02 0. -1.
    10030    2    1    2    0    0  0.00000000000E+00  0.00000000000E+00 -0.47581702416E+03  0.29459794514E+04  0.29072999652E+04 0.  0.
        4    1    3    3  502    0 -0.15536342292E+03 -0.46606440874E+02 -0.17016989330E+04  0.17094124209E+04  0.12699999809E+01 0. -1.
       -4    1    3    3    0  502  0.15536342292E+03  0.46606440874E+02  0.12258819088E+04  0.12365670304E+04  0.12699999809E+01 0.  1.
</event>
<event>
 5   0  0.5154476E-06  0.2861325E+04  0.7818609E-02  0.8284478E-01
       -1   -1    0    0    0  501  0.00000000000E+00  0.00000000000E+00  0.13675137785E+04  0.13675137785E+04  0.50400001928E-02 0. -1.
        1   -1    0    0  501    0  0.00000000000E+00  0.00000000000E+00 -0.14967276638E+04  0.14967276638E+04  0.50400001928E-02 0.  1.
    10030    2    1    2    0    0  0.00000000000E+00  0.00000000000E+00 -0.12921388530E+03  0.28642414423E+04  0.28613253593E+04 0.  0.
        3    1    3    3  502    0  0.88976536157E+03 -0.21754386685E+03 -0.11647210357E+04  0.14817499228E+04  0.10100000352E+00 0.  1.
       -3    1    3    3    0  502 -0.88976536157E+03  0.21754386685E+03  0.10355071504E+04  0.13824915195E+04  0.10100000352E+00 0. -1.
</event>
<event>
 5   0  0.5352212E-06  0.2810265E+04  0.7818609E-02  0.8300089E-01
       -1   -1    0    0    0  501  0.00000000000E+00  0.00000000000E+00  0.13180774637E+04  0.13180774637E+04  0.50400001928E-02 0. -1.
        1   -1    0    0  501    0  0.00000000000E+00  0.00000000000E+00 -0.14979368381E+04  0.14979368381E+04  0.50400001928E-02 0.  1.
    10030    2    1    2    0    0  0.00000000000E+00  0.00000000000E+00 -0.17985937436E+03  0.28160143018E+04  0.28102646056E+04 0.  0.
        2    1    3    3  502    0 -0.12524528415E+04 -0.61276446925E+03 -0.26429251819E+03  0.14191437384E+04  0.25500000920E-02 0. -1.
       -2    1    3    3    0  502  0.12524528415E+04  0.61276446925E+03  0.84433143828E+02  0.13968705634E+04  0.25500000920E-02 0.  1.
</event>
<event>
 5   0  0.1382803E-05  0.2895586E+04  0.7818609E-02  0.8274192E-01
        2   -1    0    0  501    0  0.00000000000E+00  0.00000000000E+00  0.14689252536E+04  0.14689252536E+04  0.25500000920E-02 0.  1.
       -2   -1    0    0    0  501  0.00000000000E+00  0.00000000000E+00 -0.14269644121E+04  0.14269644121E+04  0.25500000920E-02 0. -1.
    10030    2    1    2    0    0  0.00000000000E+00  0.00000000000E+00  0.41960841504E+02  0.28958896656E+04  0.28955856477E+04 0.  0.
        2    1    3    3  502    0 -0.27635591734E+03 -0.26558293999E+03  0.14172635216E+04  0.14681766858E+04  0.25500000920E-02 0.  1.
       -2    1    3    3    0  502  0.27635591734E+03  0.26558293999E+03 -0.13753026801E+04  0.14277129799E+04  0.25500000920E-02 0. -1.
</event>
<event>
 5   0  0.1385669E-05  0.2898033E+04  0.7818609E-02  0.8273463E-01
        2   -1    0    0  501    0  0.00000000000E+00  0.00000000000E+00  0.23598801034E+04  0.23598801034E+04  0.25500000920E-02 0. -1.
       -2   -1    0    0    0  501  0.00000000000E+00  0.00000000000E+00 -0.88972681368E+03  0.88972681368E+03  0.25500000920E-02 0.  1.
    10030    2    1    2    0    0  0.00000000000E+00  0.00000000000E+00  0.14701532897E+04  0.32496069171E+04  0.28980328535E+04 0.  0.
        3    1    3    3  502    0  0.11380864184E+04  0.88436155273E+03  0.56758156196E+03  0.15490270790E+04  0.10100000352E+00 0. -1.
       -3    1    3    3    0  502 -0.11380864184E+04 -0.88436155273E+03  0.90257172774E+03  0.17005798381E+04  0.10100000352E+00 0.  1.
</event>
<event>
 5   0  0.5002240E-06  0.2915361E+04  0.7818609E-02  0.8268322E-01
        1   -1    0    0  501    0  0.00000000000E+00  0.00000000000E+00  0.19228106589E+04  0.19228106589E+04  0.50400001928E-02 0.  1.
       -1   -1    0    0    0  501  0.00000000000E+00  0.00000000000E+00 -0.11050656104E+04  0.11050656104E+04  0.50400001928E-02 0. -1.
    10030    2    1    2    0    0  0.00000000000E+00  0.00000000000E+00  0.81774504855E+03  0.30278762693E+04  0.29153606532E+04 0.  0.
        4    1    3    3  502    0  0.81622479975E+03  0.43908623747E+03 -0.75963150139E+03  0.11983577423E+04  0.12699999809E+01 0. -1.
       -4    1    3    3    0  502 -0.81622479975E+03 -0.43908623747E+03  0.15773765499E+04  0.18295185271E+04  0.12699999809E+01 0.  1.
</event>
<event>
 5   0  0.1385669E-05  0.2689282E+04  0.7818609E-02  0.8338491E-01
       -2   -1    0    0    0  501  0.00000000000E+00  0.00000000000E+00  0.68401265540E+03  0.68401265541E+03  0.25500000920E-02 0. -1.
        2   -1    0    0  501    0  0.00000000000E+00  0.00000000000E+00 -0.26433137582E+04  0.26433137582E+04  0.25500000920E-02 0.  1.
    10030    2    1    2    0    0  0.00000000000E+00  0.00000000000E+00 -0.19593011028E+04  0.33273264137E+04  0.26892824789E+04 0.  0.
        3    1    3    3  502    0 -0.71918072133E+03 -0.47694436627E+03  0.29619998754E+03  0.91237672114E+03  0.10100000352E+00 0.  1.
       -3    1    3    3    0  502  0.71918072133E+03  0.47694436627E+03 -0.22555010904E+04  0.24149496925E+04  0.10100000352E+00 0. -1.
</event>
<event>
 5   0  0.5154476E-06  0.2946969E+04  0.7818609E-02  0.8259038E-01
        1   -1    0    0  501    0  0.00000000000E+00  0.00000000000E+00  0.26253427379E+04  0.26253427379E+04  0.50400001928E-02 0. -1.
       -1   -1    0    0    0  501  0.00000000000E+00  0.00000000000E+00 -0.82699916112E+03  0.82699916113E+03  0.50400001928E-02 0.  1.
    10030    2    1    2    0    0  0.00000000000E+00  0.00000000000E+00  0.17983435768E+04  0.34523418990E+04  0.29469687762E+04 0.  0.
        3    1    3    3  502    0 -0.11118618983E+04  0.99770014588E+02  0.20258528225E+04  0.23130651970E+04  0.10100000352E+00 0. -1.
       -3    1    3    3    0  502  0.11118618983E+04 -0.99770014588E+02 -0.22750924572E+03  0.11392767021E+04  0.10100000352E+00 0.  1.
</event>
<event>
 5   0  0.1382803E-05  0.2935439E+04  0.7818609E-02  0.8262411E-01
        2   -1    0    0  501    0  0.00000000000E+00  0.00000000000E+00  0.15498982926E+04  0.15498982926E+04  0.25500000920E-02 0. -1.
       -2   -1    0    0    0  501  0.00000000000E+00  0.00000000000E+00 -0.13898975735E+04  0.13898975735E+04  0.25500000920E-02 0.  1.
    10030    2    1    2    0    0  0.00000000000E+00  0.00000000000E+00  0.16000071916E+03  0.29397958661E+04  0.29354385540E+04 0.  0.
        2    1    3    3  502    0 -0.69037164012E+03 -0.24771786745E+03 -0.11931942358E+04  0.14006033085E+04  0.25500000920E-02 0.  1.
       -2    1    3    3    0  502  0.69037164012E+03  0.24771786745E+03  0.13531949549E+04  0.15391925576E+04  0.25500000920E-02 0. -1.
</event>
<event>
 5   0  0.1385669E-05  0.2998675E+04  0.7818609E-02  0.8244109E-01
       -2   -1    0    0    0  501  0.00000000000E+00  0.00000000000E+00  0.10771103814E+04  0.10771103814E+04  0.25500000920E-02 0. -1.
        2   -1    0    0  501    0  0.00000000000E+00  0.00000000000E+00 -0.20870775756E+04  0.20870775756E+04  0.25500000920E-02 0.  1.
    10030    2    1    2    0    0  0.00000000000E+00  0.00000000000E+00 -0.10099671942E+04  0.31641879570E+04  0.29986749897E+04 0.  0.
        3    1    3    3  502    0 -0.91615896619E+03  0.29443480694E+03  0.70824964379E+03  0.11948458792E+04  0.10100000352E+00 0. -1.
       -3    1    3    3    0  502  0.91615896619E+03 -0.29443480694E+03 -0.17182168380E+04  0.19693420778E+04  0.10100000352E+00 0.  1.
</event>
<event>
 5   0  0.1336899E-05  0.2820344E+04  0.7818609E-02  0.8296980E-01
       -2   -1    0    0    0  501  0.00000000000E+00  0.00000000000E+00  0.16357138094E+04  0.16357138094E+04  0.25500000920E-02 0. -1.
        2   -1    0    0  501    0  0.00000000000E+00  0.00000000000E+00 -0.12157290256E+04  0.12157290256E+04  0.25500000920E-02 0.  1.
    10030    2    1    2    0    0  0.00000000000E+00  0.00000000000E+00  0.41998478381E+03  0.28514428350E+04  0.28203437774E+04 0.  0.
        1    1    3    3  502    0 -0.74710386535E+03 -0.11750667632E+04 -0.15261704837E+02  0.13925440759E+04  0.50400001928E-02 0. -1.
       -1    1    3    3    0  502  0.74710386535E+03  0.11750667632E+04  0.43524648865E+03  0.14588987592E+04  0.50400001928E-02 0.  1.
</event>
<event>
 5   0  0.5059249E-06  0.2919272E+04  0.7818609E-02  0.8267167E-01
       -1   -1    0    0    0  501  0.00000000000E+00  0.00000000000E+00  0.12500215871E+04  0.12500215871E+04  0.50400001928E-02 0.  1.
        1   -1    0    0  501    0  0.00000000000E+00  0.00000000000E+00 -0.17043998727E+04  0.17043998727E+04  0.50400001928E-02 0. -1.
    10030    2    1    2    0    0  0.00000000000E+00  0.00000000000E+00 -0.45437828560E+03  0.29544214598E+04  0.29192715762E+04 0.  0.
        1    1    3    3  502    0 -0.70578042318E+03  0.85817814575E+03 -0.11851276501E+04  0.16245378674E+04  0.50400001928E-02 0. -1.
       -1    1    3    3    0  502  0.70578042318E+03 -0.85817814575E+03  0.73074936449E+03  0.13298835924E+04  0.50400001928E-02 0.  1.
</event>
<event>
 5   0  0.1385669E-05  0.2807693E+04  0.7818609E-02  0.8300884E-01
        2   -1    0    0  501    0  0.00000000000E+00  0.00000000000E+00  0.18179430744E+04  0.18179430744E+04  0.25500000920E-02 0. -1.
       -2   -1    0    0    0  501  0.00000000000E+00  0.00000000000E+00 -0.10840739149E+04  0.10840739149E+04  0.25500000920E-02 0.  1.
    10030    2    1    2    0    0  0.00000000000E+00  0.00000000000E+00  0.73386915942E+03  0.29020169893E+04  0.28076927651E+04 0.  0.
        3    1    3    3  502    0 -0.64467228295E+03 -0.88542581731E+03  0.12746189193E+04  0.16805459322E+04  0.10100000352E+00 0. -1.
       -3    1    3    3    0  502  0.64467228295E+03  0.88542581731E+03 -0.54074975991E+03  0.12214710571E+04  0.10100000352E+00 0.  1.
</event>
<event>
 5   0  0.5002240E-06  0.2110487E+04  0.7818609E-02  0.8556638E-01
        1   -1    0    0  501    0  0.00000000000E+00  0.00000000000E+00  0.13146025663E+04  0.13146025663E+04  0.50400001928E-02 0. -1.
       -1   -1    0    0    0  501  0.00000000000E+00  0.00000000000E+00 -0.84705372093E+03  0.84705372094E+03  0.50400001928E-02 0.  1.
    10030    2    1    2    0    0  0.00000000000E+00  0.00000000000E+00  0.46754884534E+03  0.21616562872E+04  0.21104871431E+04 0.  0.
        4    1    3    3  502    0 -0.81780838706E+03  0.54221682656E+03  0.63142399494E+03  0.11668365435E+04  0.12699999809E+01 0.  1.
       -4    1    3    3    0  502  0.81780838706E+03 -0.54221682656E+03 -0.16387514960E+03  0.99481974373E+03  0.12699999809E+01 0. -1.
</event>
<event>
 5   0  0.1339837E-05  0.2882966E+04  0.7818609E-02  0.8277964E-01
       -2   -1    0    0    0  501  0.00000000000E+00  0.00000000000E+00  0.78798047755E+03  0.78798047755E+03  0.25500000920E-02 0. -1.
        2   -1    0    0  501    0  0.00000000000E+00  0.00000000000E+00 -0.26369609678E+04  0.26369609678E+04  0.25500000920E-02 0.  1.
    10030    2    1    2    0    0  0.00000000000E+00  0.00000000000E+00 -0.18489804903E+04  0.34249414454E+04  0.28829663631E+04 0.  0.
        5    1    3    3  502    0  0.44188380370E+03 -0.10659089537E+04 -0.19508690526E+04  0.22665690689E+04  0.46999998093E+01 0.  1.
       -5    1    3    3    0  502 -0.44188380370E+03  0.10659089537E+04  0.10188856234E+03  0.11583723765E+04  0.46999998093E+01 0. -1.
</event>
<event>
 5   0  0.5002240E-06  0.2225481E+04  0.7818609E-02  0.8507897E-01
       -1   -1    0    0    0  501  0.00000000000E+00  0.00000000000E+00  0.96592495781E+03  0.96592495782E+03  0.50400001928E-02 0. -1.
        1   -1    0    0  501    0  0.00000000000E+00  0.00000000000E+00 -0.12818711382E+04  0.12818711382E+04  0.50400001928E-02 0.  1.
    10030    2    1    2    0    0  0.00000000000E+00  0.00000000000E+00 -0.31594618036E+03  0.22477960960E+04  0.22254809144E+04 0.  0.
        4    1    3    3  502    0  0.83770064685E+02 -0.78851494104E+02  0.95990143169E+03  0.96677161383E+03  0.12699999809E+01 0. -1.
       -4    1    3    3    0  502 -0.83770064685E+02  0.78851494104E+02 -0.12758476120E+04  0.12810244822E+04  0.12699999809E+01 0.  1.
</event>
<event>
 5   0  0.5154476E-06  0.2915223E+04  0.7818609E-02  0.8268363E-01
        1   -1    0    0  501    0  0.00000000000E+00  0.00000000000E+00  0.17991122040E+04  0.17991122040E+04  0.50400001928E-02 0.  1.
       -1   -1    0    0    0  501  0.00000000000E+00  0.00000000000E+00 -0.11809329480E+04  0.11809329480E+04  0.50400001928E-02 0. -1.
    10030    2    1    2    0    0  0.00000000000E+00  0.00000000000E+00  0.61817925601E+03  0.29800451520E+04  0.29152227214E+04 0.  0.
        3    1    3    3  502    0 -0.53105776004E+03 -0.12269421199E+03 -0.10728411549E+04  0.12033554620E+04  0.10100000352E+00 0. -1.
       -3    1    3    3    0  502  0.53105776004E+03  0.12269421199E+03  0.16910204109E+04  0.17766896900E+04  0.10100000352E+00 0.  1.
</event>
<event>
 5   0  0.1336899E-05  0.2888758E+04  0.7818609E-02  0.8276230E-01
        2   -1    0    0  501    0  0.00000000000E+00  0.00000000000E+00  0.19591353741E+04  0.19591353741E+04  0.25500000920E-02 0. -1.
       -2   -1    0    0    0  501  0.00000000000E+00  0.00000000000E+00 -0.10648734044E+04  0.10648734044E+04  0.25500000920E-02 0.  1.
    10030    2    1    2    0    0  0.00000000000E+00  0.00000000000E+00  0.89426196974E+03  0.30240087785E+04  0.28887583183E+04 0.  0.
        1    1    3    3  502    0  0.90497295907E+03  0.65272223037E+03 -0.51298508608E+03  0.12280782000E+04  0.50400001928E-02 0.  1.
       -1    1    3    3    0  502 -0.90497295907E+03 -0.65272223037E+03  0.14072470558E+04  0.17959305785E+04  0.50400001928E-02 0. -1.
</event>
<event>
 5   0  0.1307832E-05  0.1873517E+04  0.7818609E-02  0.8668152E-01
       -2   -1    0    0    0  501  0.00000000000E+00  0.00000000000E+00  0.94173185055E+03  0.94173185055E+03  0.25500000920E-02 0. -1.
        2   -1    0    0  501    0  0.00000000000E+00  0.00000000000E+00 -0.93181179879E+03  0.93181179879E+03  0.25500000920E-02 0.  1.
    10030    2    1    2    0    0  0.00000000000E+00  0.00000000000E+00  0.99200517594E+01  0.18735436493E+04  0.18735173868E+04 0.  0.
        4    1    3    3  502    0 -0.71561727967E+03 -0.53777133882E+03  0.28102391251E+03  0.93823352963E+03  0.12699999809E+01 0. -1.
       -4    1    3    3    0  502  0.71561727967E+03  0.53777133882E+03 -0.27110386075E+03  0.93531011971E+03  0.12699999809E+01 0.  1.
</event>
<event>
 5   0  0.1385669E-05  0.2896163E+04  0.7818609E-02  0.8274020E-01
       -2   -1    0    0    0  501  0.00000000000E+00  0.00000000000E+00  0.17908844221E+04  0.17908844221E+04  0.25500000920E-02 0. -1.
        2   -1    0    0  501    0  0.00000000000E+00  0.00000000000E+00 -0.11708959488E+04  0.11708959488E+04  0.25500000920E-02 0.  1.
    10030    2    1    2    0    0  0.00000000000E+00  0.00000000000E+00  0.61998847327E+03  0.29617803709E+04  0.28961625055E+04 0.  0.
        3    1    3    3  502    0  0.59047069726E+03  0.91816691154E+03  0.12829989721E+04  0.16845689343E+04  0.10100000352E+00 0. -1.
       -3    1    3    3    0  502 -0.59047069726E+03 -0.91816691154E+03 -0.66301049888E+03  0.12772114365E+04  0.10100000352E+00 0.  1.
</event>
<event>
 5   0  0.5352212E-06  0.2883832E+04  0.7818609E-02  0.8277704E-01
        1   -1    0    0  501    0  0.00000000000E+00  0.00000000000E+00  0.12043368198E+04  0.12043368199E+04  0.50400001928E-02 0. -1.
       -1   -1    0    0    0  501  0.00000000000E+00  0.00000000000E+00 -0.17263623919E+04  0.17263623919E+04  0.50400001928E-02 0.  1.
    10030    2    1    2    0    0  0.00000000000E+00  0.00000000000E+00 -0.52202557204E+03  0.29306992117E+04  0.28838320291E+04 0.  0.
        2    1    3    3  502    0 -0.17059535000E+03 -0.82412311931E+03 -0.14508695591E+04  0.16772907222E+04  0.25500000920E-02 0.  1.
       -2    1    3    3    0  502  0.17059535000E+03  0.82412311931E+03  0.92884398710E+03  0.12534084895E+04  0.25500000920E-02 0. -1.
</event>
<event>
 5   0  0.5352212E-06  0.2876980E+04  0.7818609E-02  0.8279760E-01
       -1   -1    0    0    0  501  0.00000000000E+00  0.00000000000E+00  0.15365483213E+04  0.15365483213E+04  0.50400001928E-02 0. -1.
        1   -1    0    0  501    0  0.00000000000E+00  0.00000000000E+00 -0.13466898397E+04  0.13466898397E+04  0.50400001928E-02 0.  1.
    10030    2    1    2    0    0  0.00000000000E+00  0.00000000000E+00  0.18985848163E+03  0.28832381610E+04  0.28769803701E+04 0.  0.
        2    1    3    3  502    0 -0.75580808108E+03  0.35939059106E+03  0.12674512492E+04  0.15188285359E+04  0.25500000920E-02 0. -1.
       -2    1    3    3    0  502  0.75580808108E+03 -0.35939059106E+03 -0.10775927676E+04  0.13644096251E+04  0.25500000920E-02 0.  1.
</event>
<event>
 5   0  0.1339837E-05  0.2008840E+04  0.7818609E-02  0.8602499E-01
        2   -1    0    0  501    0  0.00000000000E+00  0.00000000000E+00  0.95449059443E+03  0.95449059443E+03  0.25500000920E-02 0. -1.
       -2   -1    0    0    0  501  0.00000000000E+00  0.00000000000E+00 -0.10569612234E+04  0.10569612234E+04  0.25500000920E-02 0.  1.
    10030    2    1    2    0    0  0.00000000000E+00  0.00000000000E+00 -0.10247062901E+03  0.20114518179E+04  0.20088400100E+04 0.  0.
        5    1    3    3  502    0 -0.68839543421E+03  0.67970312038E+03 -0.32168433823E+03  0.10195035601E+04  0.46999998093E+01 0.  1.
       -5    1    3    3    0  502  0.68839543421E+03 -0.67970312038E+03  0.21921370922E+03  0.99194825772E+03  0.46999998093E+01 0. -1.
</event>
<event>
 5   0  0.5059249E-06  0.2857400E+04  0.7818609E-02  0.8285666E-01
       -1   -1    0    0    0  501  0.00000000000E+00  0.00000000000E+00  0.13657923292E+04  0.13657923292E+04  0.50400001928E-02 0. -1.
        1   -1    0    0  501    0  0.00000000000E+00  0.00000000000E+00 -0.14945055544E+04  0.14945055544E+04  0.50400001928E-02 0.  1.
    10030    2    1    2    0    0  0.00000000000E+00  0.00000000000E+00 -0.12871322517E+03  0.28602978836E+04  0.28574003725E+04 0.  0.
        1    1    3    3  502    0  0.10997811650E+04  0.24751381721E+03  0.81425920097E+03  0.13906112854E+04  0.50400001928E-02 0. -1.
       -1    1    3    3    0  502 -0.10997811650E+04 -0.24751381721E+03 -0.94297242614E+03  0.14696865983E+04  0.50400001928E-02 0.  1.
</event>
<event>
 5   0  0.1336899E-05  0.2995872E+04  0.7818609E-02  0.8244911E-01
        2   -1    0    0  501    0  0.00000000000E+00  0.00000000000E+00  0.24236348753E+04  0.24236348753E+04  0.25500000920E-02 0. -1.
       -2   -1    0    0    0  501  0.00000000000E+00  0.00000000000E+00 -0.92580485644E+03  0.92580485645E+03  0.25500000920E-02 0.  1.
    10030    2    1    2    0    0  0.00000000000E+00  0.00000000000E+00  0.14978300189E+04  0.33494397318E+04  0.29958724524E+04 0.  0.
        1    1    3    3  502    0  0.44687646601E+03 -0.11871216013E+04 -0.14189828552E+03  0.12763586469E+04  0.50400001928E-02 0.  1.
       -1    1    3    3    0  502 -0.44687646601E+03  0.11871216013E+04  0.16397283044E+04  0.20730810848E+04  0.50400001928E-02 0. -1.
</event>
<event>
 5   0  0.5352212E-06  0.2848480E+04  0.7818609E-02  0.8288373E-01
        1   -1    0    0  501    0  0.00000000000E+00  0.00000000000E+00  0.30478631206E+04  0.30478631206E+04  0.50400001928E-02 0.  1.
       -1   -1    0    0    0  501  0.00000000000E+00  0.00000000000E+00 -0.66553481938E+03  0.66553481940E+03  0.50400001928E-02 0. -1.
    10030    2    1    2    0    0  0.00000000000E+00  0.00000000000E+00  0.23823283013E+04  0.37133979400E+04  0.28484796166E+04 0.  0.
        2    1    3    3  502    0  0.12389169773E+04  0.67667219383E+03  0.14373368532E+04  0.20146309250E+04  0.25500000920E-02 0.  1.
       -2    1    3    3    0  502 -0.12389169773E+04 -0.67667219383E+03  0.94499144804E+03  0.16987670150E+04  0.25500000920E-02 0. -1.
</event>
<event>
 5   0  0.5002240E-06  0.2880551E+04  0.7818609E-02  0.8278688E-01
        1   -1    0    0  501    0  0.00000000000E+00  0.00000000000E+00  0.12442882489E+04  0.12442882489E+04  0.50400001928E-02 0. -1.
       -1   -1    0    0    0  501  0.00000000000E+00  0.00000000000E+00 -0.16671330716E+04  0.16671330716E+04  0.50400001928E-02 0.  1.
    10030    2    1    2    0    0  0.00000000000E+00  0.00000000000E+00 -0.42284482268E+03  0.29114213205E+04  0.28805513989E+04 0.  0.
        4    1    3    3  502    0 -0.83082970804E+03  0.11467539043E+04  0.54205691606E+02  0.14171317479E+04  0.12699999809E+01 0.  1.
       -4    1    3    3    0  502  0.83082970804E+03 -0.11467539043E+04 -0.47705051428E+03  0.14942895727E+04  0.12699999809E+01 0. -1.
</event>
<event>
 5   0  0.5261878E-06  0.2677386E+04  0.7818609E-02  0.8342380E-01
        1   -1    0    0  501    0  0.00000000000E+00  0.00000000000E+00  0.82276540705E+03  0.82276540707E+03  0.50400001928E-02 0.  1.
       -1   -1    0    0    0  501  0.00000000000E+00  0.00000000000E+00 -0.21781409058E+04  0.21781409058E+04  0.50400001928E-02 0. -1.
    10030    2    1    2    0    0  0.00000000000E+00  0.00000000000E+00 -0.13553754988E+04  0.30009063129E+04  0.26773860305E+04 0.  0.
        5    1    3    3  502    0  0.45631475311E+03  0.10790605806E+04  0.48247881787E+02  0.11725804188E+04  0.46999998093E+01 0.  1.
       -5    1    3    3    0  502 -0.45631475311E+03 -0.10790605806E+04 -0.14036233806E+04  0.18283258941E+04  0.46999998093E+01 0. -1.
</event>
<event>
 5   0  0.1307832E-05  0.2899830E+04  0.7818609E-02  0.8272928E-01
        2   -1    0    0  501    0  0.00000000000E+00  0.00000000000E+00  0.24290040361E+04  0.24290040361E+04  0.25500000920E-02 0.  1.
       -2   -1    0    0    0  501  0.00000000000E+00  0.00000000000E+00 -0.86547963090E+03  0.86547963091E+03  0.25500000920E-02 0. -1.
    10030    2    1    2    0    0  0.00000000000E+00  0.00000000000E+00  0.15635244051E+04  0.32944836670E+04  0.28998300065E+04 0.  0.
        4    1    3    3  502    0 -0.14250610694E+03 -0.47982128421E+03  0.23277353428E+04  0.23809430683E+04  0.12699999809E+01 0.  1.
       -4    1    3    3    0  502  0.14250610694E+03  0.47982128421E+03 -0.76421093766E+03  0.91354059868E+03  0.12699999809E+01 0. -1.
</event>
<event>
 5   0  0.5261878E-06  0.2895050E+04  0.7818609E-02  0.8274352E-01
        1   -1    0    0  501    0  0.00000000000E+00  0.00000000000E+00  0.81712318145E+03  0.81712318146E+03  0.50400001928E-02 0.  1.
       -1   -1    0    0    0  501  0.00000000000E+00  0.00000000000E+00 -0.25642742366E+04  0.25642742366E+04  0.50400001928E-02 0. -1.
    10030    2    1    2    0    0  0.00000000000E+00  0.00000000000E+00 -0.17471510551E+04  0.33813974180E+04  0.28950495141E+04 0.  0.
        5    1    3    3  502    0 -0.14521439730E+03  0.73928862208E+03  0.57005191823E+03  0.94478366169E+03  0.46999998093E+01 0.  1.
       -5    1    3    3    0  502  0.14521439730E+03 -0.73928862208E+03 -0.23172029733E+04  0.24366137563E+04  0.46999998093E+01 0. -1.
</event>
<event>
 5   0  0.1382803E-05  0.2939242E+04  0.7818609E-02  0.8261297E-01
        2   -1    0    0  501    0  0.00000000000E+00  0.00000000000E+00  0.15827600385E+04  0.15827600385E+04  0.25500000920E-02 0.  1.
       -2   -1    0    0    0  501  0.00000000000E+00  0.00000000000E+00 -0.13645696392E+04  0.13645696392E+04  0.25500000920E-02 0. -1.
    10030    2    1    2    0    0  0.00000000000E+00  0.00000000000E+00  0.21819039927E+03  0.29473296778E+04  0.29392422797E+04 0.  0.
        2    1    3    3  502    0  0.64785255213E+03  0.13180761077E+04  0.56522516465E+02  0.14697728906E+04  0.25500000920E-02 0.  1.
       -2    1    3    3    0  502 -0.64785255213E+03 -0.13180761077E+04  0.16166788280E+03  0.14775567872E+04  0.25500000920E-02 0. -1.
</event>
<event>
 5   0  0.5352212E-06  0.2735318E+04  0.7818609E-02  0.8323636E-01
       -1   -1    0    0    0  501  0.00000000000E+00  0.00000000000E+00  0.11504014753E+04  0.11504014753E+04  0.50400001928E-02 0.  1.
        1   -1    0    0  501    0  0.00000000000E+00  0.00000000000E+00 -0.16259468408E+04  0.16259468408E+04  0.50400001928E-02 0. -1.
    10030    2    1    2    0    0  0.00000000000E+00  0.00000000000E+00 -0.47554536550E+03  0.27763483161E+04  0.27353183687E+04 0.  0.
        2    1    3    3  502    0  0.12409783840E+04  0.33258649469E+03 -0.71368814630E+03  0.14696910887E+04  0.25500000920E-02 0. -1.
       -2    1    3    3    0  502 -0.12409783840E+04 -0.33258649469E+03  0.23814278080E+03  0.13066572275E+04  0.25500000920E-02 0.  1.
</event>
<event>
 5   0  0.5059249E-06  0.2979451E+04  0.7818609E-02  0.8249623E-01
       -1   -1    0    0    0  501  0.00000000000E+00  0.00000000000E+00  0.17146752934E+04  0.17146752934E+04  0.50400001928E-02 0. -1.
        1   -1    0    0  501    0  0.00000000000E+00  0.00000000000E+00 -0.12942872045E+04  0.12942872045E+04  0.50400001928E-02 0.  1.
    10030    2    1    2    0    0  0.00000000000E+00  0.00000000000E+00  0.42038808890E+03  0.30089624979E+04  0.29794511522E+04 0.  0.
        1    1    3    3  502    0 -0.43166385135E+03  0.16777898544E+01 -0.12297426696E+04  0.13033048489E+04  0.50400001928E-02 0.  1.
       -1    1    3    3    0  502  0.43166385135E+03 -0.16777898544E+01  0.16501307585E+04  0.17056576491E+04  0.50400001928E-02 0. -1.
</event>
<event>
 5   0  0.1382803E-05  0.2847203E+04  0.7818609E-02  0.8288762E-01
        2   -1    0    0  501    0  0.00000000000E+00  0.00000000000E+00  0.14647001179E+04  0.14647001179E+04  0.25500000920E-02 0. -1.
       -2   -1    0    0    0  501  0.00000000000E+00  0.00000000000E+00 -0.13836558696E+04  0.13836558696E+04  0.25500000920E-02 0.  1.
    10030    2    1    2    0    0  0.00000000000E+00  0.00000000000E+00  0.81044248343E+02  0.28483559875E+04  0.28472027784E+04 0.  0.
        2    1    3    3  502    0  0.12584045152E+04  0.49864562461E+03  0.48162194303E+03  0.14367286031E+04  0.25500000920E-02 0. -1.
       -2    1    3    3    0  502 -0.12584045152E+04 -0.49864562461E+03 -0.40057769469E+03  0.14116273844E+04  0.25500000920E-02 0.  1.
</event>
<event>
 5   0  0.1307832E-05  0.2948423E+04  0.7818609E-02  0.8258614E-01
        2   -1    0    0  501    0  0.00000000000E+00  0.00000000000E+00  0.23623289694E+04  0.23623289694E+04  0.25500000920E-02 0.  1.
       -2   -1    0    0    0  501  0.00000000000E+00  0.00000000000E+00 -0.91998185965E+03  0.91998185966E+03  0.25500000920E-02 0. -1.
    10030    2    1    2    0    0  0.00000000000E+00  0.00000000000E+00  0.14423471098E+04  0.32823108291E+04  0.29484231707E+04 0.  0.
        4    1    3    3  502    0 -0.26368780637E+03 -0.14408344795E+04  0.90666442187E+03  0.17226657375E+04  0.12699999809E+01 0.  1.
       -4    1    3    3    0  502  0.26368780637E+03  0.14408344795E+04  0.53568268788E+03  0.15596450915E+04  0.12699999809E+01 0. -1.
</event>
<event>
 5   0  0.5352212E-06  0.2920947E+04  0.7818609E-02  0.8266672E-01
        1   -1    0    0  501    0  0.00000000000E+00  0.00000000000E+00  0.69148945006E+03  0.69148945008E+03  0.50400001928E-02 0. -1.
       -1   -1    0    0    0  501  0.00000000000E+00  0.00000000000E+00 -0.30846200691E+04  0.30846200691E+04  0.50400001928E-02 0.  1.
    10030    2    1    2    0    0  0.00000000000E+00  0.00000000000E+00 -0.23931306190E+04  0.37761095191E+04  0.29209465830E+04 0.  0.
        2    1    3    3  502    0  0.15541314614E+03 -0.91803954838E+03 -0.26511646053E+04  0.28099152341E+04  0.25500000920E-02 0.  1.
       -2    1    3    3    0  502 -0.15541314614E+03  0.91803954838E+03  0.25803398630E+03  0.96619428505E+03  0.25500000920E-02 0. -1.
</event>
<event>
 5   0  0.5059249E-06  0.2341050E+04  0.7818609E-02  0.8461909E-01
       -1   -1    0    0    0  501  0.00000000000E+00  0.00000000000E+00  0.71519120364E+03  0.71519120366E+03  0.50400001928E-02 0.  1.
        1   -1    0    0  501    0  0.00000000000E+00  0.00000000000E+00 -0.19157516312E+04  0.19157516313E+04  0.50400001928E-02 0. -1.
    10030    2    1    2    0    0  0.00000000000E+00  0.00000000000E+00 -0.12005604276E+04  0.26309428349E+04  0.23410499483E+04 0.  0.
        1    1    3    3  502    0  0.10856645483E+03 -0.83487603404E+03 -0.15141995998E+04  0.17325140967E+04  0.50400001928E-02 0. -1.
       -1    1    3    3    0  502 -0.10856645483E+03  0.83487603404E+03  0.31363917215E+03  0.89842873822E+03  0.50400001928E-02 0.  1.
</event>
<event>
 5   0  0.5002240E-06  0.2907314E+04  0.7818609E-02  0.8270705E-01
        1   -1    0    0  501    0  0.00000000000E+00  0.00000000000E+00  0.18399684985E+04  0.18399684985E+04  0.50400001928E-02 0. -1.
       -1   -1    0    0    0  501  0.00000000000E+00  0.00000000000E+00 -0.11484536318E+04  0.11484536318E+04  0.50400001928E-02 0.  1.
    10030    2    1    2    0    0  0.00000000000E+00  0.00000000000E+00  0.69151486668E+03  0.29884221303E+04  0.29073138836E+04 0.  0.
        4    1    3    3  502    0  0.82274515408E+03 -0.24934739918E+03 -0.85913598286E+03  0.12154011535E+04  0.12699999809E+01 0.  1.
       -4    1    3    3    0  502 -0.82274515408E+03  0.24934739918E+03  0.15506508495E+04  0.17730209768E+04  0.12699999809E+01 0. -1.
</event>
<event>
 5   0  0.1307832E-05  0.2530187E+04  0.7818609E-02  0.8392310E-01
       -2   -1    0    0    0  501  0.00000000000E+00  0.00000000000E+00  0.89169484965E+03  0.89169484966E+03  0.25500000920E-02 0.  1.
        2   -1    0    0  501    0  0.00000000000E+00  0.00000000000E+00 -0.17948533628E+04  0.17948533628E+04  0.25500000920E-02 0. -1.
    10030    2    1    2    0    0  0.00000000000E+00  0.00000000000E+00 -0.90315851312E+03  0.26865482124E+04  0.25301869492E+04 0.  0.
        4    1    3    3  502    0  0.27304440433E+03  0.18698277855E+03  0.84492129236E+03  0.90741909248E+03  0.12699999809E+01 0.  1.
       -4    1    3    3    0  502 -0.27304440433E+03 -0.18698277855E+03 -0.17480798055E+04  0.17791291199E+04  0.12699999809E+01 0. -1.
</event>
<event>
 5   0  0.5154476E-06  0.2833644E+04  0.7818609E-02  0.8292899E-01
        1   -1    0    0  501    0  0.00000000000E+00  0.00000000000E+00  0.18572465623E+04  0.18572465623E+04  0.50400001928E-02 0.  1.
       -1   -1    0    0    0  501  0.00000000000E+00  0.00000000000E+00 -0.10808388119E+04  0.10808388120E+04  0.50400001928E-02 0. -1.
    10030    2    1    2    0    0  0.00000000000E+00  0.00000000000E+00  0.77640775036E+03  0.29380853743E+04  0.28336437094E+04 0.  0.
        3    1    3    3  502    0 -0.80419529833E+03  0.11207799932E+04  0.72339335295E+03  0.15576186389E+04  0.10100000352E+00 0.  1.
       -3    1    3    3    0  502  0.80419529833E+03 -0.11207799932E+04  0.53014397410E+02  0.13804667354E+04  0.10100000352E+00 0. -1.
</event>
<event>
 5   0  0.5059249E-06  0.2810554E+04  0.7818609E-02  0.8299999E-01
        1   -1    0    0  501    0  0.00000000000E+00  0.00000000000E+00  0.70719659023E+03  0.70719659025E+03  0.50400001928E-02 0.  1.
       -1   -1    0    0    0  501  0.00000000000E+00  0.00000000000E+00 -0.27924396964E+04  0.27924396964E+04  0.50400001928E-02 0. -1.
    10030    2    1    2    0    0  0.00000000000E+00  0.00000000000E+00 -0.20852431062E+04  0.34996362867E+04  0.28105542740E+04 0.  0.
        1    1    3    3  502    0 -0.45814246855E+02 -0.47921797006E+03 -0.26865635228E+04  0.27293538375E+04  0.50400001928E-02 0. -1.
       -1    1    3    3    0  502  0.45814246855E+02  0.47921797006E+03  0.60132041663E+03  0.77028244919E+03  0.50400001928E-02 0.  1.
</event>
<event>
 5   0  0.5059249E-06  0.2767066E+04  0.7818609E-02  0.8313567E-01
       -1   -1    0    0    0  501  0.00000000000E+00  0.00000000000E+00  0.24440150891E+04  0.24440150891E+04  0.50400001928E-02 0. -1.
        1   -1    0    0  501    0  0.00000000000E+00  0.00000000000E+00 -0.78320434901E+03  0.78320434903E+03  0.50400001928E-02 0.  1.
    10030    2    1    2    0    0  0.00000000000E+00  0.00000000000E+00  0.16608107401E+04  0.32272194381E+04  0.27670657722E+04 0.  0.
        1    1    3    3  502    0  0.71009550485E+03 -0.45496833746E+03  0.21095788620E+04  0.22719055414E+04  0.50400001928E-02 0. -1.
       -1    1    3    3    0  502 -0.71009550485E+03  0.45496833746E+03 -0.44876812188E+03  0.95531389676E+03  0.50400001928E-02 0.  1.
</event>
<event>
 5   0  0.1307832E-05  0.2986728E+04  0.7818609E-02  0.8247531E-01
       -2   -1    0    0    0  501  0.00000000000E+00  0.00000000000E+00  0.95382935339E+03  0.95382935339E+03  0.25500000920E-02 0. -1.
        2   -1    0    0  501    0  0.00000000000E+00  0.00000000000E+00 -0.23380866009E+04  0.23380866009E+04  0.25500000920E-02 0.  1.
    10030    2    1    2    0    0  0.00000000000E+00  0.00000000000E+00 -0.13842572475E+04  0.32919159543E+04  0.29867277283E+04 0.  0.
        4    1    3    3  502    0  0.98890042041E+02  0.23614839388E+03  0.92946041356E+03  0.96407654137E+03  0.12699999809E+01 0. -1.
       -4    1    3    3    0  502 -0.98890042041E+02 -0.23614839388E+03 -0.23137176611E+04  0.23278394130E+04  0.12699999809E+01 0.  1.
</event>
<event>
 5   0  0.1385669E-05  0.2888041E+04  0.7818609E-02  0.8276444E-01
       -2   -1    0    0    0  501  0.00000000000E+00  0.00000000000E+00  0.68912139705E+03  0.68912139705E+03  0.25500000920E-02 0. -1.
        2   -1    0    0  501    0  0.00000000000E+00  0.00000000000E+00 -0.30258755134E+04  0.30258755134E+04  0.25500000920E-02 0.  1.
    10030    2    1    2    0    0  0.00000000000E+00  0.00000000000E+00 -0.23367541164E+04  0.37149969105E+04  0.28880412470E+04 0.  0.
        3    1    3    3  502    0 -0.18871787773E+03  0.13825679667E+04 -0.16463808637E+04  0.21581655586E+04  0.10100000352E+00 0.  1.
       -3    1    3    3    0  502  0.18871787773E+03 -0.13825679667E+04 -0.69037325271E+03  0.15568313519E+04  0.10100000352E+00 0. -1.
</event>
<event>
 5   0  0.1339837E-05  0.2553184E+04  0.7818609E-02  0.8384280E-01
        2   -1    0    0  501    0  0.00000000000E+00  0.00000000000E+00  0.19995585781E+04  0.19995585781E+04  0.25500000920E-02 0. -1.
       -2   -1    0    0    0  501  0.00000000000E+00  0.00000000000E+00 -0.81502376833E+03  0.81502376833E+03  0.25500000920E-02 0.  1.
    10030    2    1    2    0    0  0.00000000000E+00  0.00000000000E+00  0.11845348098E+04  0.28145823464E+04  0.25531844957E+04 0.  0.
        5    1    3    3  502    0 -0.74063398202E+03  0.78884413850E+03  0.13390050252E+04  0.17215604310E+04  0.46999998093E+01 0. -1.
       -5    1    3    3    0  502  0.74063398202E+03 -0.78884413850E+03 -0.15447021539E+03  0.10930219154E+04  0.46999998093E+01 0.  1.
</event>
<event>
 5   0  0.1385669E-05  0.2393751E+04  0.7818609E-02  0.8441847E-01
        2   -1    0    0  501    0  0.00000000000E+00  0.00000000000E+00  0.12671704939E+04  0.12671704939E+04  0.25500000920E-02 0. -1.
       -2   -1    0    0    0  501  0.00000000000E+00  0.00000000000E+00 -0.11304804109E+04  0.11304804109E+04  0.25500000920E-02 0.  1.
    10030    2    1    2    0    0  0.00000000000E+00  0.00000000000E+00  0.13669008294E+03  0.23976509048E+04  0.23937513828E+04 0.  0.
        3    1    3    3  502    0 -0.86727001161E+03  0.71695294418E+03  0.47684838336E+03  0.12221142288E+04  0.10100000352E+00 0. -1.
       -3    1    3    3    0  502  0.86727001161E+03 -0.71695294418E+03 -0.34015830042E+03  0.11755366761E+04  0.10100000352E+00 0.  1.
</event>
<event>
 5   0  0.5154476E-06  0.2880857E+04  0.7818609E-02  0.8278596E-01
       -1   -1    0    0    0  501  0.00000000000E+00  0.00000000000E+00  0.12268252539E+04  0.12268252539E+04  0.50400001928E-02 0. -1.
        1   -1    0    0  501    0  0.00000000000E+00  0.00000000000E+00 -0.16912228951E+04  0.16912228951E+04  0.50400001928E-02 0.  1.
    10030    2    1    2    0    0  0.00000000000E+00  0.00000000000E+00 -0.46439764124E+03  0.29180481490E+04  0.28808574818E+04 0.  0.
        3    1    3    3  502    0  0.13847120350E+04 -0.41466268600E+02  0.16746823951E+03  0.13954183934E+04  0.10100000352E+00 0. -1.
       -3    1    3    3    0  502 -0.13847120350E+04  0.41466268600E+02 -0.63186588075E+03  0.15226297556E+04  0.10100000352E+00 0.  1.
</event>
<event>
 5   0  0.1339837E-05  0.2920164E+04  0.7818609E-02  0.8266903E-01
        2   -1    0    0  501    0  0.00000000000E+00  0.00000000000E+00  0.15068930678E+04  0.15068930678E+04  0.25500000920E-02 0.  1.
       -2   -1    0    0    0  501  0.00000000000E+00  0.00000000000E+00 -0.14147253588E+04  0.14147253588E+04  0.25500000920E-02 0. -1.
    10030    2    1    2    0    0  0.00000000000E+00  0.00000000000E+00  0.92167708925E+02  0.29216184266E+04  0.29201642666E+04 0.  0.
        5    1    3    3  502    0 -0.49061617614E+03  0.94658549211E+03 -0.95195458161E+03  0.14293242955E+04  0.46999998093E+01 0. -1.
       -5    1    3    3    0  502  0.49061617614E+03 -0.94658549211E+03  0.10441222905E+04  0.14922941311E+04  0.46999998093E+01 0.  1.
</event>
<event>
 5   0  0.1382803E-05  0.2873879E+04  0.7818609E-02  0.8280692E-01
       -2   -1    0    0    0  501  0.00000000000E+00  0.00000000000E+00  0.15189080217E+04  0.15189080217E+04  0.25500000920E-02 0.  1.
        2   -1    0    0  501    0  0.00000000000E+00  0.00000000000E+00 -0.13593940471E+04  0.13593940471E+04  0.25500000920E-02 0. -1.
    10030    2    1    2    0    0  0.00000000000E+00  0.00000000000E+00  0.15951397455E+03  0.28783020688E+04  0.28738785797E+04 0.  0.
        2    1    3    3  502    0 -0.68390037554E+03  0.19753063309E+03  0.13298995698E+04  0.15084332735E+04  0.25500000920E-02 0.  1.
       -2    1    3    3    0  502  0.68390037554E+03 -0.19753063309E+03 -0.11703855953E+04  0.13698687953E+04  0.25500000920E-02 0. -1.
</event>
<event>
 5   0  0.1339837E-05  0.2882339E+04  0.7818609E-02  0.8278151E-01
        2   -1    0    0  501    0  0.00000000000E+00  0.00000000000E+00  0.19695376273E+04  0.19695376273E+04  0.25500000920E-02 0. -1.
       -2   -1    0    0    0  501  0.00000000000E+00  0.00000000000E+00 -0.10545470928E+04  0.10545470928E+04  0.25500000920E-02 0.  1.
    10030    2    1    2    0    0  0.00000000000E+00  0.00000000000E+00  0.91499053445E+03  0.30240847201E+04  0.28823394519E+04 0.  0.
        5    1    3    3  502    0 -0.12568015380E+04  0.24883973988E+03 -0.23486370183E+03  0.13025568589E+04  0.46999998093E+01 0.  1.
       -5    1    3    3    0  502  0.12568015380E+04 -0.24883973988E+03  0.11498542363E+04  0.17215278612E+04  0.46999998093E+01 0. -1.
</event>
<event>
 5   0  0.5059249E-06  0.2957941E+04  0.7818609E-02  0.8255844E-01
       -1   -1    0    0    0  501  0.00000000000E+00  0.00000000000E+00  0.11679999215E+04  0.11679999215E+04  0.50400001928E-02 0. -1.
        1   -1    0    0  501    0  0.00000000000E+00  0.00000000000E+00 -0.18727350032E+04  0.18727350032E+04  0.50400001928E-02 0.  1.
    10030    2    1    2    0    0  0.00000000000E+00  0.00000000000E+00 -0.70473508174E+03  0.30407349247E+04  0.29579414036E+04 0.  0.
        1    1    3    3  502    0  0.35968815810E+03  0.40383846226E+03  0.10627136930E+04  0.11924015549E+04  0.50400001928E-02 0. -1.
       -1    1    3    3    0  502 -0.35968815810E+03 -0.40383846226E+03 -0.17674487748E+04  0.18483333698E+04  0.50400001928E-02 0.  1.
</event>
<event>
 5   0  0.1382803E-05  0.2964585E+04  0.7818609E-02  0.8253917E-01
       -2   -1    0    0    0  501  0.00000000000E+00  0.00000000000E+00  0.85424659346E+03  0.85424659347E+03  0.25500000920E-02 0.  1.
        2   -1    0    0  501    0  0.00000000000E+00  0.00000000000E+00 -0.25720812397E+04  0.25720812397E+04  0.25500000920E-02 0. -1.
    10030    2    1    2    0    0  0.00000000000E+00  0.00000000000E+00 -0.17178346462E+04  0.34263278332E+04  0.29645853923E+04 0.  0.
        2    1    3    3  502    0  0.86273425941E+03  0.87673218459E+03 -0.18149295324E+04  0.21924732458E+04  0.25500000920E-02 0. -1.
       -2    1    3    3    0  502 -0.86273425941E+03 -0.87673218459E+03  0.97094886181E+02  0.12338545874E+04  0.25500000920E-02 0.  1.
</event>
<event>
 5   0  0.5261878E-06  0.2963383E+04  0.7818609E-02  0.8254265E-01
        1   -1    0    0  501    0  0.00000000000E+00  0.00000000000E+00  0.22518786213E+04  0.22518786213E+04  0.50400001928E-02 0. -1.
       -1   -1    0    0    0  501  0.00000000000E+00  0.00000000000E+00 -0.97492374272E+03  0.97492374274E+03  0.50400001928E-02 0.  1.
    10030    2    1    2    0    0  0.00000000000E+00  0.00000000000E+00  0.12769548786E+04  0.32268023641E+04  0.29633831569E+04 0.  0.
        5    1    3    3  502    0  0.13831918687E+04 -0.47389727673E+03  0.89978747935E+03  0.17168104067E+04  0.46999998093E+01 0. -1.
       -5    1    3    3    0  502 -0.13831918687E+04  0.47389727673E+03  0.37716739925E+03  0.15099919574E+04  0.46999998093E+01 0.  1.
</event>
<event>
 5   0  0.5154476E-06  0.2578020E+04  0.7818609E-02  0.8375706E-01
        1   -1    0    0  501    0  0.00000000000E+00  0.00000000000E+00  0.13940603756E+04  0.13940603756E+04  0.50400001928E-02 0.  1.
       -1   -1    0    0    0  501  0.00000000000E+00  0.00000000000E+00 -0.11918755383E+04  0.11918755383E+04  0.50400001928E-02 0. -1.
    10030    2    1    2    0    0  0.00000000000E+00  0.00000000000E+00  0.20218483732E+03  0.25859359138E+04  0.25780197521E+04 0.  0.
        3    1    3    3  502    0 -0.19844780188E+03  0.21040551625E+03 -0.11589074216E+04  0.11944531943E+04  0.10100000352E+00 0. -1.
       -3    1    3    3    0  502  0.19844780188E+03 -0.21040551625E+03  0.13610922589E+04  0.13914827195E+04  0.10100000352E+00 0.  1.
</event>
<event>
 5   0  0.1307832E-05  0.2440431E+04  0.7818609E-02  0.8424520E-01
       -2   -1    0    0    0  501  0.00000000000E+00  0.00000000000E+00  0.19056424967E+04  0.19056424967E+04  0.25500000920E-02 0. -1.
        2   -1    0    0  501    0  0.00000000000E+00  0.00000000000E+00 -0.78132463183E+03  0.78132463183E+03  0.25500000920E-02 0.  1.
    10030    2    1    2    0    0  0.00000000000E+00  0.00000000000E+00  0.11243178648E+04  0.26869671285E+04  0.24404306359E+04 0.  0.
        4    1    3    3  502    0 -0.93468731733E+03 -0.77590438995E+03  0.43539405229E+03  0.12904408538E+04  0.12699999809E+01 0.  1.
       -4    1    3    3    0  502  0.93468731733E+03  0.77590438995E+03  0.68892381256E+03  0.13965262747E+04  0.12699999809E+01 0. -1.
</event>
<event>
 5   0  0.5154476E-06  0.2897580E+04  0.7818609E-02  0.8273598E-01
        1   -1    0    0  501    0  0.00000000000E+00  0.00000000000E+00  0.19363612545E+04  0.19363612545E+04  0.50400001928E-02 0.  1.
       -1   -1    0    0    0  501  0.00000000000E+00  0.00000000000E+00 -0.10839878219E+04  0.10839878219E+04  0.50400001928E-02 0. -1.
    10030    2    1    2    0    0  0.00000000000E+00  0.00000000000E+00  0.85237343260E+03  0.30203490764E+04  0.28975796926E+04 0.  0.
        3    1    3    3  502    0  0.12594940635E+04 -0.52810628121E+03 -0.77797079806E+02  0.13679451510E+04  0.10100000352E+00 0. -1.
       -3    1    3    3    0  502 -0.12594940635E+04  0.52810628121E+03  0.93017051241E+03  0.16524039254E+04  0.10100000352E+00 0.  1.
</event>
<event>
 5   0  0.5002240E-06  0.2911841E+04  0.7818609E-02  0.8269363E-01
        1   -1    0    0  501    0  0.00000000000E+00  0.00000000000E+00  0.15100461833E+04  0.15100461833E+04  0.50400001928E-02 0. -1.
       -1   -1    0    0    0  501  0.00000000000E+00  0.00000000000E+00 -0.14037350359E+04  0.14037350359E+04  0.50400001928E-02 0.  1.
    10030    2    1    2    0    0  0.00000000000E+00  0.00000000000E+00  0.10631114745E+03  0.29137812192E+04  0.29118411587E+04 0.  0.
        4    1    3    3  502    0 -0.14407776886E+04 -0.18842393362E+03  0.14464511590E+03  0.14602286633E+04  0.12699999809E+01 0. -1.
       -4    1    3    3    0  502  0.14407776886E+04  0.18842393362E+03 -0.38333968457E+02  0.14535525559E+04  0.12699999809E+01 0.  1.
</event>
<event>
 5   0  0.5154476E-06  0.2899017E+04  0.7818609E-02  0.8273170E-01
       -1   -1    0    0    0  501  0.00000000000E+00  0.00000000000E+00  0.25405508873E+04  0.25405508873E+04  0.50400001928E-02 0. -1.
        1   -1    0    0  501    0  0.00000000000E+00  0.00000000000E+00 -0.82701529036E+03  0.82701529038E+03  0.50400001928E-02 0.  1.
    10030    2    1    2    0    0  0.00000000000E+00  0.00000000000E+00  0.17135355970E+04  0.33675661777E+04  0.28990166814E+04 0.  0.
        3    1    3    3  502    0 -0.83870336560E+03 -0.42972384182E+03 -0.42259514434E+03  0.10327984227E+04  0.10100000352E+00 0.  1.
       -3    1    3    3    0  502  0.83870336560E+03  0.42972384182E+03  0.21361307413E+04  0.23347677550E+04  0.10100000352E+00 0. -1.
</event>
<event>
 5   0  0.1385669E-05  0.2906737E+04  0.7818609E-02  0.8270876E-01
       -2   -1    0    0    0  501  0.00000000000E+00  0.00000000000E+00  0.18881637573E+04  0.18881637573E+04  0.25500000920E-02 0. -1.
        2   -1    0    0  501    0  0.00000000000E+00  0.00000000000E+00 -0.11186955548E+04  0.11186955548E+04  0.25500000920E-02 0.  1.
    10030    2    1    2    0    0  0.00000000000E+00  0.00000000000E+00  0.76946820252E+03  0.30068593121E+04  0.29067372788E+04 0.  0.
        3    1    3    3  502    0  0.36975590587E+03  0.10070040067E+04 -0.62960426204E+03  0.12438561157E+04  0.10100000352E+00 0.  1.
       -3    1    3    3    0  502 -0.36975590587E+03 -0.10070040067E+04  0.13990724646E+04  0.17630031965E+04  0.10100000352E+00 0. -1.
</event>
<event>
 5   0  0.5002240E-06  0.2766198E+04  0.7818609E-02  0.8313840E-01
        1   -1    0    0  501    0  0.00000000000E+00  0.00000000000E+00  0.20691200432E+04  0.20691200432E+04  0.50400001928E-02 0.  1.
       -1   -1    0    0    0  501  0.00000000000E+00  0.00000000000E+00 -0.92452966628E+03  0.92452966629E+03  0.50400001928E-02 0. -1.
    10030    2    1    2    0    0  0.00000000000E+00  0.00000000000E+00  0.11445903769E+04  0.29936497095E+04  0.27661980139E+04 0.  0.
        4    1    3    3  502    0 -0.98377611467E+03  0.23895536874E+03  0.15921432658E+04  0.18867530055E+04  0.12699999809E+01 0.  1.
       -4    1    3    3    0  502  0.98377611467E+03 -0.23895536874E+03 -0.44755288889E+03  0.11068967040E+04  0.12699999809E+01 0. -1.
</event>
<event>
 5   0  0.5261878E-06  0.2944777E+04  0.7818609E-02  0.8259678E-01
       -1   -1    0    0    0  501  0.00000000000E+00  0.00000000000E+00  0.17507719360E+04  0.17507719360E+04  0.50400001928E-02 0. -1.
        1   -1    0    0  501    0  0.00000000000E+00  0.00000000000E+00 -0.12382699831E+04  0.12382699831E+04  0.50400001928E-02 0.  1.
    10030    2    1    2    0    0  0.00000000000E+00  0.00000000000E+00  0.51250195287E+03  0.29890419191E+04  0.29447772992E+04 0.  0.
        5    1    3    3  502    0 -0.88431785831E+03  0.10595276803E+04 -0.26457918423E+03  0.14052192764E+04  0.46999998093E+01 0.  1.
       -5    1    3    3    0  502  0.88431785831E+03 -0.10595276803E+04  0.77708113709E+03  0.15838226427E+04  0.46999998093E+01 0. -1.
</event>
<event>
 5   0  0.1339837E-05  0.2844464E+04  0.7818609E-02  0.8289595E-01
       -2   -1    0    0    0  501  0.00000000000E+00  0.00000000000E+00  0.90100404881E+03  0.90100404881E+03  0.25500000920E-02 0.  1.
        2   -1    0    0  501    0  0.00000000000E+00  0.00000000000E+00 -0.22449893733E+04  0.22449893733E+04  0.25500000920E-02 0. -1.
    10030    2    1    2    0    0  0.00000000000E+00  0.00000000000E+00 -0.13439853245E+04  0.31459934221E+04  0.28444644592E+04 0.  0.
        5    1    3    3  502    0  0.16421093095E+03  0.90208999173E+03  0.53044993861E+03  0.10593067593E+04  0.46999998093E+01 0.  1.
       -5    1    3    3    0  502 -0.16421093095E+03 -0.90208999173E+03 -0.18744352631E+04  0.20866866628E+04  0.46999998093E+01 0. -1.
</event>
<event>
 5   0  0.5261878E-06  0.1989534E+04  0.7818609E-02  0.8611530E-01
       -1   -1    0    0    0  501  0.00000000000E+00  0.00000000000E+00  0.13950178570E+04  0.13950178570E+04  0.50400001928E-02 0.  1.
        1   -1    0    0  501    0  0.00000000000E+00  0.00000000000E+00 -0.70935368111E+03  0.70935368112E+03  0.50400001928E-02 0. -1.
    10030    2    1    2    0    0  0.00000000000E+00  0.00000000000E+00  0.68566417586E+03  0.21043715381E+04  0.19895336660E+04 0.  0.
        5    1    3    3  502    0  0.47251776591E+03 -0.83819145926E+03  0.75873280273E+02  0.96520298700E+03  0.46999998093E+01 0. -1.
       -5    1    3    3    0  502 -0.47251776591E+03  0.83819145926E+03  0.60979089559E+03  0.11391685511E+04  0.46999998093E+01 0.  1.
</event>
<event>
 5   0  0.1307832E-05  0.2979290E+04  0.7818609E-02  0.8249670E-01
        2   -1    0    0  501    0  0.00000000000E+00  0.00000000000E+00  0.18658013222E+04  0.18658013222E+04  0.25500000920E-02 0.  1.
       -2   -1    0    0    0  501  0.00000000000E+00  0.00000000000E+00 -0.11893237630E+04  0.11893237630E+04  0.25500000920E-02 0. -1.
    10030    2    1    2    0    0  0.00000000000E+00  0.00000000000E+00  0.67647755924E+03  0.30551250853E+04  0.29792897473E+04 0.  0.
        4    1    3    3  502    0  0.11682629522E+04  0.92350804899E+03  0.30077397311E+03  0.15192669409E+04  0.12699999809E+01 0.  1.
       -4    1    3    3    0  502 -0.11682629522E+04 -0.92350804899E+03  0.37570358612E+03  0.15358581443E+04  0.12699999809E+01 0. -1.
</event>
<event>
 5   0  0.5002240E-06  0.1808560E+04  0.7818609E-02  0.8701761E-01
        1   -1    0    0  501    0  0.00000000000E+00  0.00000000000E+00  0.12032358269E+04  0.12032358269E+04  0.50400001928E-02 0.  1.
       -1   -1    0    0    0  501  0.00000000000E+00  0.00000000000E+00 -0.67960245103E+03  0.67960245104E+03  0.50400001928E-02 0. -1.
    10030    2    1    2    0    0  0.00000000000E+00  0.00000000000E+00  0.52363337584E+03  0.18828382779E+04  0.18085596668E+04 0.  0.
        4    1    3    3  502    0  0.22978029180E+03 -0.51310951958E+01 -0.64868575459E+03  0.68820064788E+03  0.12699999809E+01 0. -1.
       -4    1    3    3    0  502 -0.22978029180E+03  0.51310951958E+01  0.11723191304E+04  0.11946376300E+04  0.12699999809E+01 0.  1.
</event>
<event>
 5   0  0.5352212E-06  0.2781729E+04  0.7818609E-02  0.8308963E-01
        1   -1    0    0  501    0  0.00000000000E+00  0.00000000000E+00  0.11010253704E+04  0.11010253704E+04  0.50400001928E-02 0.  1.
       -1   -1    0    0    0  501  0.00000000000E+00  0.00000000000E+00 -0.17570019220E+04  0.17570019220E+04  0.50400001928E-02 0. -1.
    10030    2    1    2    0    0  0.00000000000E+00  0.00000000000E+00 -0.65597655164E+03  0.28580272924E+04  0.27817287373E+04 0.  0.
        2    1    3    3  502    0  0.62819244956E+03 -0.32906434690E+03  0.90132230443E+03  0.11468613668E+04  0.25500000920E-02 0.  1.
       -2    1    3    3    0  502 -0.62819244956E+03  0.32906434690E+03 -0.15572988561E+04  0.17111659257E+04  0.25500000920E-02 0. -1.
</event>
<event>
 5   0  0.5059249E-06  0.2982598E+04  0.7818609E-02  0.8248718E-01
        1   -1    0    0  501    0  0.00000000000E+00  0.00000000000E+00  0.13480082056E+04  0.13480082056E+04  0.50400001928E-02 0. -1.
       -1   -1    0    0    0  501  0.00000000000E+00  0.00000000000E+00 -0.16498215926E+04  0.16498215927E+04  0.50400001928E-02 0.  1.
    10030    2    1    2    0    0  0.00000000000E+00  0.00000000000E+00 -0.30181338706E+03  0.29978297982E+04  0.29825982261E+04 0.  0.
        1    1    3    3  502    0  0.42353380526E+03 -0.47241952071E+03  0.12055824070E+04  0.13623472494E+04  0.50400001928E-02 0. -1.
       -1    1    3    3    0  502 -0.42353380526E+03  0.47241952071E+03 -0.15073957941E+04  0.16354825489E+04  0.50400001928E-02 0.  1.
</event>
<event>
 5   0  0.1385669E-05  0.2949044E+04  0.7818609E-02  0.8258433E-01
        2   -1    0    0  501    0  0.00000000000E+00  0.00000000000E+00  0.18573591675E+04  0.18573591675E+04  0.25500000920E-02 0.  1.
       -2   -1    0    0    0  501  0.00000000000E+00  0.00000000000E+00 -0.11705948430E+04  0.11705948430E+04  0.25500000920E-02 0. -1.
    10030    2    1    2    0    0  0.00000000000E+00  0.00000000000E+00  0.68676432444E+03  0.30279540105E+04  0.29490439556E+04 0.  0.
        3    1    3    3  502    0 -0.11791610504E+04 -0.88160215510E+02 -0.56111052235E+03  0.13088307892E+04  0.10100000352E+00 0. -1.
       -3    1    3    3    0  502  0.11791610504E+04  0.88160215510E+02  0.12478748468E+04  0.17191232212E+04  0.10100000352E+00 0.  1.
</event>
<event>
 5   0  0.5352212E-06  0.2924485E+04  0.7818609E-02  0.8265630E-01
       -1   -1    0    0    0  501  0.00000000000E+00  0.00000000000E+00  0.16855623406E+04  0.16855623406E+04  0.50400001928E-02 0. -1.
        1   -1    0    0  501    0  0.00000000000E+00  0.00000000000E+00 -0.12685100441E+04  0.12685100441E+04  0.50400001928E-02 0.  1.
    10030    2    1    2    0    0  0.00000000000E+00  0.00000000000E+00  0.41705229656E+03  0.29540723847E+04  0.29244847471E+04 0.  0.
        2    1    3    3  502    0  0.47648911827E+03 -0.29536791812E+03 -0.11556440385E+04  0.12844443276E+04  0.25500000920E-02 0.  1.
       -2    1    3    3    0  502 -0.47648911827E+03  0.29536791812E+03  0.15726963351E+04  0.16696280572E+04  0.25500000920E-02 0. -1.
</event>
<event>
 5   0  0.4590125E-06  0.2820181E+04  0.7818609E-02  0.8297030E-01
       -3   -1    0    0    0  501  0.00000000000E+00  0.00000000000E+00  0.14011832788E+04  0.14011832825E+04  0.10100000352E+00 0. -1.
        3   -1    0    0  501    0  0.00000000000E+00  0.00000000000E+00 -0.14190541229E+04  0.14190541265E+04  0.10100000352E+00 0.  1.
    10030    2    1    2    0    0  0.00000000000E+00  0.00000000000E+00 -0.17870844103E+02  0.28202374090E+04  0.28201807879E+04 0.  0.
        5    1    3    3  502    0  0.12162403819E+04 -0.64459245846E+03 -0.31487084525E+03  0.14120573088E+04  0.46999998093E+01 0.  1.
       -5    1    3    3    0  502 -0.12162403819E+04  0.64459245846E+03  0.29700000114E+03  0.14081801003E+04  0.46999998093E+01 0. -1.
</event>
<event>
 5   0  0.5352212E-06  0.2826966E+04  0.7818609E-02  0.8294945E-01
        1   -1    0    0  501    0  0.00000000000E+00  0.00000000000E+00  0.81432411406E+03  0.81432411407E+03  0.50400001928E-02 0. -1.
       -1   -1    0    0    0  501  0.00000000000E+00  0.00000000000E+00 -0.24534868658E+04  0.24534868658E+04  0.50400001928E-02 0.  1.
    10030    2    1    2    0    0  0.00000000000E+00  0.00000000000E+00 -0.16391627517E+04  0.32678109799E+04  0.28269655239E+04 0.  0.
        2    1    3    3  502    0 -0.73065161496E+03  0.31377511410E+03 -0.21704168255E+04  0.23114964419E+04  0.25500000920E-02 0.  1.
       -2    1    3    3    0  502  0.73065161496E+03 -0.31377511410E+03  0.53125407373E+03  0.95631453797E+03  0.25500000920E-02 0. -1.
</event>
<event>
 5   0  0.1339837E-05  0.2799223E+04  0.7818609E-02  0.8303510E-01
        2   -1    0    0  501    0  0.00000000000E+00  0.00000000000E+00  0.22719779923E+04  0.22719779923E+04  0.25500000920E-02 0.  1.
       -2   -1    0    0    0  501  0.00000000000E+00  0.00000000000E+00 -0.86220569136E+03  0.86220569137E+03  0.25500000920E-02 0. -1.
    10030    2    1    2    0    0  0.00000000000E+00  0.00000000000E+00  0.14097723009E+04  0.31341836836E+04  0.27992230033E+04 0.  0.
        5    1    3    3  502    0  0.99303378456E+03  0.81051381963E+03  0.75638568884E+02  0.12840529709E+04  0.46999998093E+01 0. -1.
       -5    1    3    3    0  502 -0.99303378456E+03 -0.81051381963E+03  0.13341337320E+04  0.18501307127E+04  0.46999998093E+01 0.  1.
</event>
<event>
 5   0  0.1307832E-05  0.2917805E+04  0.7818609E-02  0.8267600E-01
        2   -1    0    0  501    0  0.00000000000E+00  0.00000000000E+00  0.18915878634E+04  0.18915878634E+04  0.25500000920E-02 0. -1.
       -2   -1    0    0    0  501  0.00000000000E+00  0.00000000000E+00 -0.11251901001E+04  0.11251901001E+04  0.25500000920E-02 0.  1.
    10030    2    1    2    0    0  0.00000000000E+00  0.00000000000E+00  0.76639776326E+03  0.30167779636E+04  0.29178046113E+04 0.  0.
        4    1    3    3  502    0  0.29453793690E+03  0.17248595590E+03  0.18497232765E+04  0.18809523688E+04  0.12699999809E+01 0. -1.
       -4    1    3    3    0  502 -0.29453793690E+03 -0.17248595590E+03 -0.10833255132E+04  0.11358255948E+04  0.12699999809E+01 0.  1.
</event>
<event>
 5   0  0.5352212E-06  0.2424242E+04  0.7818609E-02  0.8430483E-01
       -1   -1    0    0    0  501  0.00000000000E+00  0.00000000000E+00  0.88692957441E+03  0.88692957443E+03  0.50400001928E-02 0. -1.
        1   -1    0    0  501    0  0.00000000000E+00  0.00000000000E+00 -0.16565427420E+04  0.16565427420E+04  0.50400001928E-02 0.  1.
    10030    2    1    2    0    0  0.00000000000E+00  0.00000000000E+00 -0.76961316755E+03  0.25434723164E+04  0.24242415302E+04 0.  0.
        2    1    3    3  502    0  0.34270942837E+03  0.30650562523E+02 -0.16042293424E+04  0.16407135620E+04  0.25500000920E-02 0.  1.
       -2    1    3    3    0  502 -0.34270942837E+03 -0.30650562523E+02  0.83461617490E+03  0.90275875442E+03  0.25500000920E-02 0. -1.
</event>
<event>
 5   0  0.5059249E-06  0.2850211E+04  0.7818609E-02  0.8287847E-01
       -1   -1    0    0    0  501  0.00000000000E+00  0.00000000000E+00  0.90079038485E+03  0.90079038487E+03  0.50400001928E-02 0.  1.
        1   -1    0    0  501    0  0.00000000000E+00  0.00000000000E+00 -0.22546047310E+04  0.22546047310E+04  0.50400001928E-02 0. -1.
    10030    2    1    2    0    0  0.00000000000E+00  0.00000000000E+00 -0.13538143461E+04  0.31553951159E+04  0.28502114050E+04 0.  0.
        1    1    3    3  502    0  0.11834854671E+02 -0.24849921618E+03 -0.22303787817E+04  0.22442106483E+04  0.50400001928E-02 0. -1.
       -1    1    3    3    0  502 -0.11834854671E+02  0.24849921618E+03  0.87656443554E+03  0.91118446755E+03  0.50400001928E-02 0.  1.
</event>
<event>
 5   0  0.5154476E-06  0.2895547E+04  0.7818609E-02  0.8274204E-01
        1   -1    0    0  501    0  0.00000000000E+00  0.00000000000E+00  0.14606501017E+04  0.14606501017E+04  0.50400001928E-02 0. -1.
       -1   -1    0    0    0  501  0.00000000000E+00  0.00000000000E+00 -0.14350104480E+04  0.14350104480E+04  0.50400001928E-02 0.  1.
    10030    2    1    2    0    0  0.00000000000E+00  0.00000000000E+00  0.25639653735E+02  0.28956605497E+04  0.28955470342E+04 0.  0.
        3    1    3    3  502    0 -0.13334535608E+04  0.56372166512E+03 -0.12796564800E+00  0.14477156285E+04  0.10100000352E+00 0.  1.
       -3    1    3    3    0  502  0.13334535608E+04 -0.56372166512E+03  0.25767619383E+02  0.14479449212E+04  0.10100000352E+00 0. -1.
</event>
<event>
 5   0  0.1382803E-05  0.2942397E+04  0.7818609E-02  0.8260374E-01
        2   -1    0    0  501    0  0.00000000000E+00  0.00000000000E+00  0.17809027891E+04  0.17809027891E+04  0.25500000920E-02 0.  1.
       -2   -1    0    0    0  501  0.00000000000E+00  0.00000000000E+00 -0.12153529940E+04  0.12153529940E+04  0.25500000920E-02 0. -1.
    10030    2    1    2    0    0  0.00000000000E+00  0.00000000000E+00  0.56554979514E+03  0.29962557831E+04  0.29423973469E+04 0.  0.
        2    1    3    3  502    0  0.66656930756E+03 -0.41890714784E+02  0.16176300580E+04  0.17500847060E+04  0.25500000920E-02 0.  1.
       -2    1    3    3    0  502 -0.66656930756E+03  0.41890714784E+02 -0.10520802629E+04  0.12461710770E+04  0.25500000920E-02 0. -1.
</event>
<event>
 5   0  0.5059249E-06  0.2937898E+04  0.7818609E-02  0.8261690E-01
       -1   -1    0    0    0  501  0.00000000000E+00  0.00000000000E+00  0.77010820876E+03  0.77010820878E+03  0.50400001928E-02 0.  1.
        1   -1    0    0  501    0  0.00000000000E+00  0.00000000000E+00 -0.28019575923E+04  0.28019575923E+04  0.50400001928E-02 0. -1.
    10030    2    1    2    0    0  0.00000000000E+00  0.00000000000E+00 -0.20318493835E+04  0.35720658011E+04  0.29378975765E+04 0.  0.
        1    1    3    3  502    0  0.86065870398E+03  0.31213591218E+03 -0.24126528943E+04  0.25805147201E+04  0.50400001928E-02 0. -1.
       -1    1    3    3    0  502 -0.86065870398E+03 -0.31213591218E+03  0.38080351073E+03  0.99155108099E+03  0.50400001928E-02 0.  1.
</event>
<event>
 5   0  0.1339837E-05  0.2905132E+04  0.7818609E-02  0.8271352E-01
       -2   -1    0    0    0  501  0.00000000000E+00  0.00000000000E+00  0.10732567458E+04  0.10732567458E+04  0.25500000920E-02 0. -1.
        2   -1    0    0  501    0  0.00000000000E+00  0.00000000000E+00 -0.19659308357E+04  0.19659308357E+04  0.25500000920E-02 0.  1.
    10030    2    1    2    0    0  0.00000000000E+00  0.00000000000E+00 -0.89267408992E+03  0.30391875816E+04  0.29051323765E+04 0.  0.
        5    1    3    3  502    0  0.13568617477E+04  0.27480534818E+03 -0.90632497756E+03  0.16547020387E+04  0.46999998093E+01 0. -1.
       -5    1    3    3    0  502 -0.13568617477E+04 -0.27480534818E+03  0.13650887636E+02  0.13844855429E+04  0.46999998093E+01 0.  1.
</event>
<event>
 5   0  0.5059249E-06  0.2912024E+04  0.7818609E-02  0.8269309E-01
        1   -1    0    0  501    0  0.00000000000E+00  0.00000000000E+00  0.16370222158E+04  0.16370222158E+04  0.50400001928E-02 0.  1.
       -1   -1    0    0    0  501  0.00000000000E+00  0.00000000000E+00 -0.12950163602E+04  0.12950163602E+04  0.50400001928E-02 0. -1.
    10030    2    1    2    0    0  0.00000000000E+00  0.00000000000E+00  0.34200585566E+03  0.29320385760E+04  0.29120237303E+04 0.  0.
        1    1    3    3  502    0  0.12311334944E+04  0.75295584686E+03  0.36556241298E+03  0.14887135608E+04  0.50400001928E-02 0. -1.
       -1    1    3    3    0  502 -0.12311334944E+04 -0.75295584686E+03 -0.23556557318E+02  0.14433250153E+04  0.50400001928E-02 0.  1.
</event>
<event>
 5   0  0.1382803E-05  0.2973443E+04  0.7818609E-02  0.8251355E-01
       -2   -1    0    0    0  501  0.00000000000E+00  0.00000000000E+00  0.21092661048E+04  0.21092661048E+04  0.25500000920E-02 0. -1.
        2   -1    0    0  501    0  0.00000000000E+00  0.00000000000E+00 -0.10479191688E+04  0.10479191688E+04  0.25500000920E-02 0.  1.
    10030    2    1    2    0    0  0.00000000000E+00  0.00000000000E+00  0.10613469360E+04  0.31571852736E+04  0.29734427072E+04 0.  0.
        2    1    3    3  502    0  0.13700859607E+04 -0.47239562293E+03  0.17844047811E+03  0.14601829230E+04  0.25500000920E-02 0. -1.
       -2    1    3    3    0  502 -0.13700859607E+04  0.47239562293E+03  0.88290645791E+03  0.16970023506E+04  0.25500000920E-02 0.  1.
</event>
<event>
 5   0  0.5261878E-06  0.2874474E+04  0.7818609E-02  0.8280513E-01
        1   -1    0    0  501    0  0.00000000000E+00  0.00000000000E+00  0.16214745678E+04  0.16214745678E+04  0.50400001928E-02 0.  1.
       -1   -1    0    0    0  501  0.00000000000E+00  0.00000000000E+00 -0.12739334376E+04  0.12739334376E+04  0.50400001928E-02 0. -1.
    10030    2    1    2    0    0  0.00000000000E+00  0.00000000000E+00  0.34754113018E+03  0.28954080054E+04  0.28744743312E+04 0.  0.
        5    1    3    3  502    0  0.12975800529E+04 -0.28597891604E+03 -0.37806096052E+03  0.13814666532E+04  0.46999998093E+01 0. -1.
       -5    1    3    3    0  502 -0.12975800529E+04  0.28597891604E+03  0.72560209070E+03  0.15139413522E+04  0.46999998093E+01 0.  1.
</event>
<event>
 5   0  0.1339837E-05  0.2717534E+04  0.7818609E-02  0.8329338E-01
        2   -1    0    0  501    0  0.00000000000E+00  0.00000000000E+00  0.16090511324E+04  0.16090511324E+04  0.25500000920E-02 0.  1.
       -2   -1    0    0    0  501  0.00000000000E+00  0.00000000000E+00 -0.11474138980E+04  0.11474138980E+04  0.25500000920E-02 0. -1.
    10030    2    1    2    0    0  0.00000000000E+00  0.00000000000E+00  0.46163723449E+03  0.27564650304E+04  0.27175339055E+04 0.  0.
        5    1    3    3  502    0  0.57228158799E+03 -0.19647266894E+03 -0.10032112159E+04  0.11715641508E+04  0.46999998093E+01 0. -1.
       -5    1    3    3    0  502 -0.57228158799E+03  0.19647266894E+03  0.14648484504E+04  0.15849008796E+04  0.46999998093E+01 0.  1.
</event>
<event>
 5   0  0.5059249E-06  0.2498488E+04  0.7818609E-02  0.8403525E-01
       -1   -1    0    0    0  501  0.00000000000E+00  0.00000000000E+00  0.16323913280E+04  0.16323913280E+04  0.50400001928E-02 0.  1.
        1   -1    0    0  501    0  0.00000000000E+00  0.00000000000E+00 -0.95602699116E+03  0.95602699117E+03  0.50400001928E-02 0. -1.
    10030    2    1    2    0    0  0.00000000000E+00  0.00000000000E+00  0.67636433689E+03  0.25884183192E+04  0.24984876784E+04 0.  0.
        1    1    3    3  502    0  0.11404634885E+04 -0.38569984725E+03 -0.72699265045E+01  0.12039411085E+04  0.50400001928E-02 0. -1.
       -1    1    3    3    0  502 -0.11404634885E+04  0.38569984725E+03  0.68363426339E+03  0.13844772107E+04  0.50400001928E-02 0.  1.
</event>
<event>
 5   0  0.5352212E-06  0.1874799E+04  0.7818609E-02  0.8667503E-01
        1   -1    0    0  501    0  0.00000000000E+00  0.00000000000E+00  0.14891304993E+04  0.14891304993E+04  0.50400001928E-02 0.  1.
       -1   -1    0    0    0  501  0.00000000000E+00  0.00000000000E+00 -0.59008763572E+03  0.59008763574E+03  0.50400001928E-02 0. -1.
    10030    2    1    2    0    0  0.00000000000E+00  0.00000000000E+00  0.89904286360E+03  0.20792181351E+04  0.18747986512E+04 0.  0.
        2    1    3    3  502    0 -0.88071642893E+03 -0.30724228735E+03  0.34632603141E+03  0.99498792524E+03  0.25500000920E-02 0. -1.
       -2    1    3    3    0  502  0.88071642893E+03  0.30724228735E+03  0.55271683220E+03  0.10842302098E+04  0.25500000920E-02 0.  1.
</event>
<event>
 5   0  0.1385669E-05  0.2953141E+04  0.7818609E-02  0.8257240E-01
        2   -1    0    0  501    0  0.00000000000E+00  0.00000000000E+00  0.14426300547E+04  0.14426300547E+04  0.25500000920E-02 0.  1.
       -2   -1    0    0    0  501  0.00000000000E+00  0.00000000000E+00 -0.15113093963E+04  0.15113093963E+04  0.25500000920E-02 0. -1.
    10030    2    1    2    0    0  0.00000000000E+00  0.00000000000E+00 -0.68679341551E+02  0.29539394510E+04  0.29531409429E+04 0.  0.
        3    1    3    3  502    0 -0.10733720963E+04 -0.23869624129E+03  0.95139967246E+03  0.14540512026E+04  0.10100000352E+00 0.  1.
       -3    1    3    3    0  502  0.10733720963E+04  0.23869624129E+03 -0.10200790140E+04  0.14998882484E+04  0.10100000352E+00 0. -1.
</event>
<event>
 5   0  0.5154476E-06  0.2791970E+04  0.7818609E-02  0.8305766E-01
        1   -1    0    0  501    0  0.00000000000E+00  0.00000000000E+00  0.20094591086E+04  0.20094591086E+04  0.50400001928E-02 0. -1.
       -1   -1    0    0    0  501  0.00000000000E+00  0.00000000000E+00 -0.96980024809E+03  0.96980024810E+03  0.50400001928E-02 0.  1.
    10030    2    1    2    0    0  0.00000000000E+00  0.00000000000E+00  0.10396588605E+04  0.29792593567E+04  0.27919698724E+04 0.  0.
        3    1    3    3  502    0 -0.12161473539E+04 -0.14812212572E+03 -0.19425411745E+03  0.12404391251E+04  0.10100000352E+00 0.  1.
       -3    1    3    3    0  502  0.12161473539E+04  0.14812212572E+03  0.12339129780E+04  0.17388202316E+04  0.10100000352E+00 0. -1.
</event>
<event>
 5   0  0.1336899E-05  0.2878216E+04  0.7818609E-02  0.8279389E-01
       -2   -1    0    0    0  501  0.00000000000E+00  0.00000000000E+00  0.95207927475E+03  0.95207927476E+03  0.25500000920E-02 0. -1.
        2   -1    0    0  501    0  0.00000000000E+00  0.00000000000E+00 -0.21752720874E+04  0.21752720874E+04  0.25500000920E-02 0.  1.
    10030    2    1    2    0    0  0.00000000000E+00  0.00000000000E+00 -0.12231928126E+04  0.31273513621E+04  0.28782157468E+04 0.  0.
        1    1    3    3  502    0 -0.36011116111E+03 -0.52980295932E+02 -0.21244302143E+04  0.21553864377E+04  0.50400001928E-02 0.  1.
       -1    1    3    3    0  502  0.36011116111E+03  0.52980295932E+02  0.90123740171E+03  0.97196492446E+03  0.50400001928E-02 0. -1.
</event>
<event>
 5   0  0.5059249E-06  0.2902656E+04  0.7818609E-02  0.8272088E-01
       -1   -1    0    0    0  501  0.00000000000E+00  0.00000000000E+00  0.14274348908E+04  0.14274348908E+04  0.50400001928E-02 0. -1.
        1   -1    0    0  501    0  0.00000000000E+00  0.00000000000E+00 -0.14756208893E+04  0.14756208893E+04  0.50400001928E-02 0.  1.
    10030    2    1    2    0    0  0.00000000000E+00  0.00000000000E+00 -0.48185998436E+02  0.29030557801E+04  0.29026558480E+04 0.  0.
        1    1    3    3  502    0  0.57541846323E+03  0.64320076341E+03 -0.11911038512E+04  0.14708983698E+04  0.50400001928E-02 0.  1.
       -1    1    3    3    0  502 -0.57541846323E+03 -0.64320076341E+03  0.11429178528E+04  0.14321574104E+04  0.50400001928E-02 0. -1.
</event>
<event>
 5   0  0.1382803E-05  0.2857209E+04  0.7818609E-02  0.8285724E-01
        2   -1    0    0  501    0  0.00000000000E+00  0.00000000000E+00  0.16130752666E+04  0.16130752666E+04  0.25500000920E-02 0. -1.
       -2   -1    0    0    0  501  0.00000000000E+00  0.00000000000E+00 -0.12652301222E+04  0.12652301222E+04  0.25500000920E-02 0.  1.
    10030    2    1    2    0    0  0.00000000000E+00  0.00000000000E+00  0.34784514440E+03  0.28783053888E+04  0.28572094194E+04 0.  0.
        2    1    3    3  502    0  0.37668315215E+03 -0.38039615862E+03  0.15082094122E+04  0.16004021575E+04  0.25500000920E-02 0. -1.
       -2    1    3    3    0  502 -0.37668315215E+03  0.38039615862E+03 -0.11603642678E+04  0.12779032313E+04  0.25500000920E-02 0.  1.
</event>
<event>
 5   0  0.5154476E-06  0.2266484E+04  0.7818609E-02  0.8491255E-01
        1   -1    0    0  501    0  0.00000000000E+00  0.00000000000E+00  0.12241464983E+04  0.12241464983E+04  0.50400001928E-02 0.  1.
       -1   -1    0    0    0  501  0.00000000000E+00  0.00000000000E+00 -0.10490877185E+04  0.10490877185E+04  0.50400001928E-02 0. -1.
    10030    2    1    2    0    0  0.00000000000E+00  0.00000000000E+00  0.17505877987E+03  0.22732342168E+04  0.22664836704E+04 0.  0.
        3    1    3    3  502    0  0.11064317786E+04  0.13306647631E+03  0.29390686417E+03  0.11525099665E+04  0.10100000352E+00 0. -1.
       -3    1    3    3    0  502 -0.11064317786E+04 -0.13306647631E+03 -0.11884808429E+03  0.11207242503E+04  0.10100000352E+00 0.  1.
</event>
<event>
 5   0  0.1307832E-05  0.2869992E+04  0.7818609E-02  0.8281862E-01
        2   -1    0    0  501    0  0.00000000000E+00  0.00000000000E+00  0.20870405004E+04  0.20870405004E+04  0.25500000920E-02 0.  1.
       -2   -1    0    0    0  501  0.00000000000E+00  0.00000000000E+00 -0.98666702937E+03  0.98666702938E+03  0.25500000920E-02 0. -1.
    10030    2    1    2    0    0  0.00000000000E+00  0.00000000000E+00  0.11003734711E+04  0.30737075298E+04  0.28699923699E+04 0.  0.
        4    1    3    3  502    0 -0.27506495553E+03  0.29405071580E+03  0.20252997519E+04  0.20649375902E+04  0.12699999809E+01 0.  1.
       -4    1    3    3    0  502  0.27506495553E+03 -0.29405071580E+03 -0.92492628086E+03  0.10087699397E+04  0.12699999809E+01 0. -1.
</event>
<event>
 5   0  0.1336899E-05  0.2942544E+04  0.7818609E-02  0.8260331E-01
        2   -1    0    0  501    0  0.00000000000E+00  0.00000000000E+00  0.17956524954E+04  0.17956524954E+04  0.25500000920E-02 0. -1.
       -2   -1    0    0    0  501  0.00000000000E+00  0.00000000000E+00 -0.12054901083E+04  0.12054901083E+04  0.25500000920E-02 0.  1.
    10030    2    1    2    0    0  0.00000000000E+00  0.00000000000E+00  0.59016238712E+03  0.30011426038E+04  0.29425440158E+04 0.  0.
        1    1    3    3  502    0 -0.70701332513E+03 -0.92463509061E+03  0.12129039738E+04  0.16810573882E+04  0.50400001928E-02 0. -1.
       -1    1    3    3    0  502  0.70701332513E+03  0.92463509061E+03 -0.62274158664E+03  0.13200852156E+04  0.50400001928E-02 0.  1.
</event>
<event>
 5   0  0.5154476E-06  0.2941064E+04  0.7818609E-02  0.8260763E-01
        1   -1    0    0  501    0  0.00000000000E+00  0.00000000000E+00  0.16046571792E+04  0.16046571793E+04  0.50400001928E-02 0.  1.
       -1   -1    0    0    0  501  0.00000000000E+00  0.00000000000E+00 -0.13476180072E+04  0.13476180072E+04  0.50400001928E-02 0. -1.
    10030    2    1    2    0    0  0.00000000000E+00  0.00000000000E+00  0.25703917203E+03  0.29522751865E+04  0.29410643721E+04 0.  0.
        3    1    3    3  502    0 -0.11718293727E+03 -0.13717719930E+04 -0.39014587205E+03  0.14309801023E+04  0.10100000352E+00 0. -1.
       -3    1    3    3    0  502  0.11718293727E+03  0.13717719930E+04  0.64718504408E+03  0.15212950842E+04  0.10100000352E+00 0.  1.
</event>
<event>
 5   0  0.5261878E-06  0.2907995E+04  0.7818609E-02  0.8270503E-01
        1   -1    0    0  501    0  0.00000000000E+00  0.00000000000E+00  0.14388388589E+04  0.14388388589E+04  0.50400001928E-02 0.  1.
       -1   -1    0    0    0  501  0.00000000000E+00  0.00000000000E+00 -0.14693155826E+04  0.14693155826E+04  0.50400001928E-02 0. -1.
    10030    2    1    2    0    0  0.00000000000E+00  0.00000000000E+00 -0.30476723689E+02  0.29081544415E+04  0.29079947430E+04 0.  0.
        5    1    3    3  502    0  0.29634012073E+03 -0.14229841057E+04  0.21979726774E+02  0.14536871846E+04  0.46999998093E+01 0.  1.
       -5    1    3    3    0  502 -0.29634012073E+03  0.14229841057E+04 -0.52456450463E+02  0.14544672569E+04  0.46999998093E+01 0. -1.
</event>
<event>
 5   0  0.5154476E-06  0.2960401E+04  0.7818609E-02  0.8255130E-01
        1   -1    0    0  501    0  0.00000000000E+00  0.00000000000E+00  0.17591353721E+04  0.17591353721E+04  0.50400001928E-02 0.  1.
       -1   -1    0    0    0  501  0.00000000000E+00  0.00000000000E+00 -0.12454947385E+04  0.12454947385E+04  0.50400001928E-02 0. -1.
    10030    2    1    2    0    0  0.00000000000E+00  0.00000000000E+00  0.51364063355E+03  0.30046301106E+04  0.29604012230E+04 0.  0.
        3    1    3    3  502    0  0.32018998347E+03 -0.18951572419E+03  0.17108991353E+04  0.17508894016E+04  0.10100000352E+00 0.  1.
       -3    1    3    3    0  502 -0.32018998347E+03  0.18951572419E+03 -0.11972585017E+04  0.12537407090E+04  0.10100000352E+00 0. -1.
</event>
<event>
 5   0  0.5261878E-06  0.3418443E+04  0.7818609E-02  0.8133395E-01
       -1   -1    0    0    0  501  0.00000000000E+00  0.00000000000E+00  0.94750657475E+03  0.94750657476E+03  0.50400001928E-02 0. -1.
        1   -1    0    0  501    0  0.00000000000E+00  0.00000000000E+00 -0.30832905782E+04  0.30832905782E+04  0.50400001928E-02 0.  1.
    10030    2    1    2    0    0  0.00000000000E+00  0.00000000000E+00 -0.21357840035E+04  0.40307971530E+04  0.34184429758E+04 0.  0.
        5    1    3    3  502    0  0.14895593283E+02  0.13828749531E+04 -0.22522312336E+04  0.26429401495E+04  0.46999998093E+01 0.  1.
       -5    1    3    3    0  502 -0.14895593283E+02 -0.13828749531E+04  0.11644723006E+03  0.13878570035E+04  0.46999998093E+01 0. -1.
</event>
<event>
 5   0  0.1382803E-05  0.2835237E+04  0.7818609E-02  0.8292411E-01
        2   -1    0    0  501    0  0.00000000000E+00  0.00000000000E+00  0.11711708805E+04  0.11711708805E+04  0.25500000920E-02 0.  1.
       -2   -1    0    0    0  501  0.00000000000E+00  0.00000000000E+00 -0.17159262611E+04  0.17159262611E+04  0.25500000920E-02 0. -1.
    10030    2    1    2    0    0  0.00000000000E+00  0.00000000000E+00 -0.54475538064E+03  0.28870971416E+04  0.28352374645E+04 0.  0.
        2    1    3    3  502    0 -0.51912686558E+03 -0.13164688539E+04 -0.18681745288E+03  0.14274045350E+04  0.25500000920E-02 0. -1.
       -2    1    3    3    0  502  0.51912686558E+03  0.13164688539E+04 -0.35793792776E+03  0.14596926066E+04  0.25500000920E-02 0.  1.
</event>
<event>
 5   0  0.5154476E-06  0.3192073E+04  0.7818609E-02  0.8190914E-01
        1   -1    0    0  501    0  0.00000000000E+00  0.00000000000E+00  0.15853177551E+04  0.15853177552E+04  0.50400001928E-02 0.  1.
       -1   -1    0    0    0  501  0.00000000000E+00  0.00000000000E+00 -0.16068274449E+04  0.16068274449E+04  0.50400001928E-02 0. -1.
    10030    2    1    2    0    0  0.00000000000E+00  0.00000000000E+00 -0.21509689779E+02  0.31921452001E+04  0.31920727297E+04 0.  0.
        3    1    3    3  502    0  0.65914423481E+03 -0.12785772394E+04 -0.70221915884E+03  0.16007319065E+04  0.10100000352E+00 0. -1.
       -3    1    3    3    0  502 -0.65914423481E+03  0.12785772394E+04  0.68070946906E+03  0.15914132935E+04  0.10100000352E+00 0.  1.
</event>
<event>
 5   0  0.1336899E-05  0.2876854E+04  0.7818609E-02  0.8279797E-01
        2   -1    0    0  501    0  0.00000000000E+00  0.00000000000E+00  0.22370049735E+04  0.22370049735E+04  0.25500000920E-02 0. -1.
       -2   -1    0    0    0  501  0.00000000000E+00  0.00000000000E+00 -0.92492985581E+03  0.92492985581E+03  0.25500000920E-02 0.  1.
    10030    2    1    2    0    0  0.00000000000E+00  0.00000000000E+00  0.13120751177E+04  0.31619348294E+04  0.28768543151E+04 0.  0.
        1    1    3    3  502    0  0.10891669278E+04  0.93768267608E+03  0.59065030225E+03  0.15538343468E+04  0.50400001928E-02 0. -1.
       -1    1    3    3    0  502 -0.10891669278E+04 -0.93768267608E+03  0.72142481548E+03  0.16081004826E+04  0.50400001928E-02 0.  1.
</event>
<event>
 5   0  0.1307832E-05  0.2805157E+04  0.7818609E-02  0.8301669E-01
        2   -1    0    0  501    0  0.00000000000E+00  0.00000000000E+00  0.20955080535E+04  0.20955080535E+04  0.25500000920E-02 0. -1.
       -2   -1    0    0    0  501  0.00000000000E+00  0.00000000000E+00 -0.93878246247E+03  0.93878246247E+03  0.25500000920E-02 0.  1.
    10030    2    1    2    0    0  0.00000000000E+00  0.00000000000E+00  0.11567255910E+04  0.30342905160E+04  0.28051568302E+04 0.  0.
        4    1    3    3  502    0  0.95041333670E+03  0.11179988702E+03  0.16875177768E+04  0.19399748930E+04  0.12699999809E+01 0. -1.
       -4    1    3    3    0  502 -0.95041333670E+03 -0.11179988702E+03 -0.53079218581E+03  0.10943156230E+04  0.12699999809E+01 0.  1.
</event>
<event>
 5   0  0.5154476E-06  0.2496418E+04  0.7818609E-02  0.8404263E-01
       -1   -1    0    0    0  501  0.00000000000E+00  0.00000000000E+00  0.86273445346E+03  0.86273445348E+03  0.50400001928E-02 0.  1.
        1   -1    0    0  501    0  0.00000000000E+00  0.00000000000E+00 -0.18059156888E+04  0.18059156888E+04  0.50400001928E-02 0. -1.
    10030    2    1    2    0    0  0.00000000000E+00  0.00000000000E+00 -0.94318123529E+03  0.26686501422E+04  0.24964179816E+04 0.  0.
        3    1    3    3  502    0 -0.29087028737E+03 -0.11818964245E+04 -0.76733832308E+03  0.14388512065E+04  0.10100000352E+00 0.  1.
       -3    1    3    3    0  502  0.29087028737E+03  0.11818964245E+04 -0.17584291221E+03  0.12297989357E+04  0.10100000352E+00 0. -1.
</event>
<event>
 5   0  0.1385669E-05  0.1781945E+04  0.7818609E-02  0.8715960E-01
        2   -1    0    0  501    0  0.00000000000E+00  0.00000000000E+00  0.16267746615E+04  0.16267746615E+04  0.25500000920E-02 0.  1.
       -2   -1    0    0    0  501  0.00000000000E+00  0.00000000000E+00 -0.48797931510E+03  0.48797931510E+03  0.25500000920E-02 0. -1.
    10030    2    1    2    0    0  0.00000000000E+00  0.00000000000E+00  0.11387953464E+04  0.21147539766E+04  0.17819454371E+04 0.  0.
        3    1    3    3  502    0  0.65266251629E+03  0.39018319602E+03  0.11204731249E+04  0.13541312051E+04  0.10100000352E+00 0.  1.
       -3    1    3    3    0  502 -0.65266251629E+03 -0.39018319602E+03  0.18322221503E+02  0.76062277157E+03  0.10100000352E+00 0. -1.
</event>
<event>
 5   0  0.1336899E-05  0.2864186E+04  0.7818609E-02  0.8283614E-01
        2   -1    0    0  501    0  0.00000000000E+00  0.00000000000E+00  0.11326692033E+04  0.11326692033E+04  0.25500000920E-02 0. -1.
       -2   -1    0    0    0  501  0.00000000000E+00  0.00000000000E+00 -0.18106698417E+04  0.18106698417E+04  0.25500000920E-02 0.  1.
    10030    2    1    2    0    0  0.00000000000E+00  0.00000000000E+00 -0.67800063845E+03  0.29433390450E+04  0.28641857251E+04 0.  0.
        1    1    3    3  502    0 -0.90956055489E+03  0.90416076646E+03 -0.99385728559E+03  0.16225163786E+04  0.50400001928E-02 0.  1.
       -1    1    3    3    0  502  0.90956055489E+03 -0.90416076646E+03  0.31585664713E+03  0.13208226664E+04  0.50400001928E-02 0. -1.
</event>
<event>
 5   0  0.5352212E-06  0.2234404E+04  0.7818609E-02  0.8504244E-01
        1   -1    0    0  501    0  0.00000000000E+00  0.00000000000E+00  0.17687258930E+04  0.17687258930E+04  0.50400001928E-02 0.  1.
       -1   -1    0    0    0  501  0.00000000000E+00  0.00000000000E+00 -0.70567167053E+03  0.70567167055E+03  0.50400001928E-02 0. -1.
    10030    2    1    2    0    0  0.00000000000E+00  0.00000000000E+00  0.10630542224E+04  0.24743975635E+04  0.22344035049E+04 0.  0.
        2    1    3    3  502    0 -0.31602677136E+03  0.38451064161E+03 -0.57611309357E+03  0.76133281180E+03  0.25500000920E-02 0. -1.
       -2    1    3    3    0  502  0.31602677136E+03 -0.38451064161E+03  0.16391673160E+04  0.17130647517E+04  0.25500000920E-02 0.  1.
</event>
<event>
 5   0  0.5261878E-06  0.2835218E+04  0.7818609E-02  0.8292417E-01
       -1   -1    0    0    0  501  0.00000000000E+00  0.00000000000E+00  0.14710311419E+04  0.14710311419E+04  0.50400001928E-02 0. -1.
        1   -1    0    0  501    0  0.00000000000E+00  0.00000000000E+00 -0.13661274117E+04  0.13661274117E+04  0.50400001928E-02 0.  1.
    10030    2    1    2    0    0  0.00000000000E+00  0.00000000000E+00  0.10490373019E+03  0.28371585536E+04  0.28352184865E+04 0.  0.
        5    1    3    3  502    0 -0.27873727268E+02  0.48807897665E+03 -0.12790960386E+04  0.13693453904E+04  0.46999998093E+01 0.  1.
       -5    1    3    3    0  502  0.27873727268E+02 -0.48807897665E+03  0.13839997688E+04  0.14678131633E+04  0.46999998093E+01 0. -1.
</event>
<event>
 5   0  0.5059249E-06  0.2888278E+04  0.7818609E-02  0.8276374E-01
       -1   -1    0    0    0  501  0.00000000000E+00  0.00000000000E+00  0.18561708821E+04  0.18561708821E+04  0.50400001928E-02 0. -1.
        1   -1    0    0  501    0  0.00000000000E+00  0.00000000000E+00 -0.11235699523E+04  0.11235699523E+04  0.50400001928E-02 0.  1.
    10030    2    1    2    0    0  0.00000000000E+00  0.00000000000E+00  0.73260092978E+03  0.29797408344E+04  0.28882782619E+04 0.  0.
        1    1    3    3  502    0  0.84959988332E+03 -0.24652135059E+03 -0.81131233634E+03  0.12003418035E+04  0.50400001928E-02 0.  1.
       -1    1    3    3    0  502 -0.84959988332E+03  0.24652135059E+03  0.15439132661E+04  0.17793990310E+04  0.50400001928E-02 0. -1.
</event>
<event>
 5   0  0.1339837E-05  0.2903799E+04  0.7818609E-02  0.8271748E-01
       -2   -1    0    0    0  501  0.00000000000E+00  0.00000000000E+00  0.36752790434E+04  0.36752790434E+04  0.25500000920E-02 0.  1.
        2   -1    0    0  501    0  0.00000000000E+00  0.00000000000E+00 -0.57356502557E+03  0.57356502558E+03  0.25500000920E-02 0. -1.
    10030    2    1    2    0    0  0.00000000000E+00  0.00000000000E+00  0.31017140178E+04  0.42488440690E+04  0.29037985595E+04 0.  0.
        5    1    3    3  502    0  0.29680222683E+03  0.31552874526E+03 -0.47679448750E+03  0.64420883589E+03  0.46999998093E+01 0. -1.
       -5    1    3    3    0  502 -0.29680222683E+03 -0.31552874526E+03  0.35785085053E+04  0.36046352331E+04  0.46999998093E+01 0.  1.
</event>
<event>
 5   0  0.1385669E-05  0.2868071E+04  0.7818609E-02  0.8282441E-01
       -2   -1    0    0    0  501  0.00000000000E+00  0.00000000000E+00  0.13315646868E+04  0.13315646868E+04  0.25500000920E-02 0.  1.
        2   -1    0    0  501    0  0.00000000000E+00  0.00000000000E+00 -0.15443917579E+04  0.15443917579E+04  0.25500000920E-02 0. -1.
    10030    2    1    2    0    0  0.00000000000E+00  0.00000000000E+00 -0.21282707111E+03  0.28759564448E+04  0.28680707993E+04 0.  0.
        3    1    3    3  502    0 -0.38009695245E+03  0.11834900891E+04  0.61062948185E+03  0.13849154698E+04  0.10100000352E+00 0.  1.
       -3    1    3    3    0  502  0.38009695245E+03 -0.11834900891E+04 -0.82345655296E+03  0.14910409750E+04  0.10100000352E+00 0. -1.
</event>
<event>
 5   0  0.1307832E-05  0.2932278E+04  0.7818609E-02  0.8263338E-01
       -2   -1    0    0    0  501  0.00000000000E+00  0.00000000000E+00  0.91327151981E+03  0.91327151981E+03  0.25500000920E-02 0. -1.
        2   -1    0    0  501    0  0.00000000000E+00  0.00000000000E+00 -0.23536963275E+04  0.23536963275E+04  0.25500000920E-02 0.  1.
    10030    2    1    2    0    0  0.00000000000E+00  0.00000000000E+00 -0.14404248077E+04  0.32669678473E+04  0.29322781738E+04 0.  0.
        4    1    3    3  502    0  0.12682480462E+03 -0.14427591112E+04 -0.97408921349E+03  0.17454196610E+04  0.12699999809E+01 0.  1.
       -4    1    3    3    0  502 -0.12682480462E+03  0.14427591112E+04 -0.46633559421E+03  0.15215481864E+04  0.12699999809E+01 0. -1.
</event>
<event>
 5   0  0.1385669E-05  0.2879883E+04  0.7818609E-02  0.8278888E-01
        2   -1    0    0  501    0  0.00000000000E+00  0.00000000000E+00  0.23200770380E+04  0.23200770380E+04  0.25500000920E-02 0. -1.
       -2   -1    0    0    0  501  0.00000000000E+00  0.00000000000E+00 -0.89369089666E+03  0.89369089667E+03  0.25500000920E-02 0.  1.
    10030    2    1    2    0    0  0.00000000000E+00  0.00000000000E+00  0.14263861414E+04  0.32137679347E+04  0.28798831424E+04 0.  0.
        3    1    3    3  502    0  0.10684113781E+04 -0.26795468422E+03  0.17481480930E+04  0.20662343407E+04  0.10100000352E+00 0.  1.
       -3    1    3    3    0  502 -0.10684113781E+04  0.26795468422E+03 -0.32176195161E+03  0.11475335940E+04  0.10100000352E+00 0. -1.
</event>
<event>
 5   0  0.5261878E-06  0.2845501E+04  0.7818609E-02  0.8289280E-01
        1   -1    0    0  501    0  0.00000000000E+00  0.00000000000E+00  0.14007052326E+04  0.14007052326E+04  0.50400001928E-02 0. -1.
       -1   -1    0    0    0  501  0.00000000000E+00  0.00000000000E+00 -0.14451424629E+04  0.14451424629E+04  0.50400001928E-02 0.  1.
    10030    2    1    2    0    0  0.00000000000E+00  0.00000000000E+00 -0.44437230330E+02  0.28458476955E+04  0.28455007360E+04 0.  0.
        5    1    3    3  502    0  0.43754384002E+03  0.51545073815E+02  0.13307563798E+04  0.14017974672E+04  0.46999998093E+01 0. -1.
       -5    1    3    3    0  502 -0.43754384002E+03 -0.51545073815E+02 -0.13751936102E+04  0.14440502283E+04  0.46999998093E+01 0.  1.
</event>
<event>
 5   0  0.5002240E-06  0.2767433E+04  0.7818609E-02  0.8313451E-01
        1   -1    0    0  501    0  0.00000000000E+00  0.00000000000E+00  0.10698387365E+04  0.10698387365E+04  0.50400001928E-02 0.  1.
       -1   -1    0    0    0  501  0.00000000000E+00  0.00000000000E+00 -0.17896821427E+04  0.17896821427E+04  0.50400001928E-02 0. -1.
    10030    2    1    2    0    0  0.00000000000E+00  0.00000000000E+00 -0.71984340628E+03  0.28595208792E+04  0.27674329493E+04 0.  0.
        4    1    3    3  502    0 -0.51932597721E+03 -0.61272189563E+03  0.80431078548E+03  0.11366815933E+04  0.12699999809E+01 0.  1.
       -4    1    3    3    0  502  0.51932597721E+03  0.61272189563E+03 -0.15241541918E+04  0.17228392859E+04  0.12699999809E+01 0. -1.
</event>
<event>
 5   0  0.5261878E-06  0.3004084E+04  0.7818609E-02  0.8242566E-01
        1   -1    0    0  501    0  0.00000000000E+00  0.00000000000E+00  0.18629566021E+04  0.18629566021E+04  0.50400001928E-02 0.  1.
       -1   -1    0    0    0  501  0.00000000000E+00  0.00000000000E+00 -0.12110478181E+04  0.12110478181E+04  0.50400001928E-02 0. -1.
    10030    2    1    2    0    0  0.00000000000E+00  0.00000000000E+00  0.65190878397E+03  0.30740044202E+04  0.30040835728E+04 0.  0.
        5    1    3    3  502    0 -0.78126039691E+03 -0.61691952982E+03 -0.82501420383E+03  0.12929145527E+04  0.46999998093E+01 0. -1.
       -5    1    3    3    0  502  0.78126039691E+03  0.61691952982E+03  0.14769229878E+04  0.17810898675E+04  0.46999998093E+01 0.  1.
</event>
<event>
 5   0  0.5002240E-06  0.2969273E+04  0.7818609E-02  0.8252560E-01
       -1   -1    0    0    0  501  0.00000000000E+00  0.00000000000E+00  0.10627080525E+04  0.10627080525E+04  0.50400001928E-02 0. -1.
        1   -1    0    0  501    0  0.00000000000E+00  0.00000000000E+00 -0.20740838153E+04  0.20740838153E+04  0.50400001928E-02 0.  1.
    10030    2    1    2    0    0  0.00000000000E+00  0.00000000000E+00 -0.10113757628E+04  0.31367918678E+04  0.29692730236E+04 0.  0.
        4    1    3    3  502    0 -0.11615863382E+03 -0.20358256186E+03 -0.20544136316E+04  0.20677416836E+04  0.12699999809E+01 0.  1.
       -4    1    3    3    0  502  0.11615863382E+03  0.20358256186E+03  0.10430378688E+04  0.10690501842E+04  0.12699999809E+01 0. -1.
</event>
<event>
 5   0  0.1385669E-05  0.2864104E+04  0.7818609E-02  0.8283638E-01
        2   -1    0    0  501    0  0.00000000000E+00  0.00000000000E+00  0.15515707867E+04  0.15515707867E+04  0.25500000920E-02 0.  1.
       -2   -1    0    0    0  501  0.00000000000E+00  0.00000000000E+00 -0.13217402197E+04  0.13217402197E+04  0.25500000920E-02 0. -1.
    10030    2    1    2    0    0  0.00000000000E+00  0.00000000000E+00  0.22983056705E+03  0.28733110064E+04  0.28641044062E+04 0.  0.
        3    1    3    3  502    0  0.11821178338E+04  0.64003033522E+03  0.61019455884E+03  0.14762719305E+04  0.10100000352E+00 0.  1.
       -3    1    3    3    0  502 -0.11821178338E+04 -0.64003033522E+03 -0.38036399178E+03  0.13970390759E+04  0.10100000352E+00 0. -1.
</event>
<event>
 5   0  0.5154476E-06  0.2905915E+04  0.7818609E-02  0.8271120E-01
       -1   -1    0    0    0  501  0.00000000000E+00  0.00000000000E+00  0.16189410849E+04  0.16189410849E+04  0.50400001928E-02 0.  1.
        1   -1    0    0  501    0  0.00000000000E+00  0.00000000000E+00 -0.13039919360E+04  0.13039919360E+04  0.50400001928E-02 0. -1.
    10030    2    1    2    0    0  0.00000000000E+00  0.00000000000E+00  0.31494914890E+03  0.29229330209E+04  0.29059154287E+04 0.  0.
        3    1    3    3  502    0 -0.17554345013E+03  0.22010638525E+03  0.15912426723E+04  0.16159565514E+04  0.10100000352E+00 0.  1.
       -3    1    3    3    0  502  0.17554345013E+03 -0.22010638525E+03 -0.12762935234E+04  0.13069764695E+04  0.10100000352E+00 0. -1.
</event>
<event>
 5   0  0.1339837E-05  0.1802332E+04  0.7818609E-02  0.8705060E-01
       -2   -1    0    0    0  501  0.00000000000E+00  0.00000000000E+00  0.47634510558E+03  0.47634510559E+03  0.25500000920E-02 0.  1.
        2   -1    0    0  501    0  0.00000000000E+00  0.00000000000E+00 -0.17048565210E+04  0.17048565210E+04  0.25500000920E-02 0. -1.
    10030    2    1    2    0    0  0.00000000000E+00  0.00000000000E+00 -0.12285114155E+04  0.21812016266E+04  0.18023318890E+04 0.  0.
        5    1    3    3  502    0  0.52429129430E+03  0.15531632282E+03  0.25260799020E+03  0.60235986597E+03  0.46999998093E+01 0.  1.
       -5    1    3    3    0  502 -0.52429129430E+03 -0.15531632282E+03 -0.14811194057E+04  0.15788417607E+04  0.46999998093E+01 0. -1.
</event>
<event>
 5   0  0.1385669E-05  0.2977452E+04  0.7818609E-02  0.8250199E-01
        2   -1    0    0  501    0  0.00000000000E+00  0.00000000000E+00  0.18110809194E+04  0.18110809194E+04  0.25500000920E-02 0.  1.
       -2   -1    0    0    0  501  0.00000000000E+00  0.00000000000E+00 -0.12237467545E+04  0.12237467545E+04  0.25500000920E-02 0. -1.
    10030    2    1    2    0    0  0.00000000000E+00  0.00000000000E+00  0.58733416487E+03  0.30348276739E+04  0.29774515259E+04 0.  0.
        3    1    3    3  502    0 -0.14833661110E+04  0.58052129284E+02  0.17943913716E+03  0.14953071535E+04  0.10100000352E+00 0.  1.
       -3    1    3    3    0  502  0.14833661110E+04 -0.58052129284E+02  0.40789502771E+03  0.15395205204E+04  0.10100000352E+00 0. -1.
</event>
<event>
 5   0  0.5154476E-06  0.2443209E+04  0.7818609E-02  0.8423502E-01
        1   -1    0    0  501    0  0.00000000000E+00  0.00000000000E+00  0.86645117373E+03  0.86645117375E+03  0.50400001928E-02 0.  1.
       -1   -1    0    0    0  501  0.00000000000E+00  0.00000000000E+00 -0.17223328907E+04  0.17223328907E+04  0.50400001928E-02 0. -1.
    10030    2    1    2    0    0  0.00000000000E+00  0.00000000000E+00 -0.85588171693E+03  0.25887840644E+04  0.24432088365E+04 0.  0.
        3    1    3    3  502    0 -0.97819276981E+03  0.27133437131E+03  0.29213482331E+03  0.10563267492E+04  0.10100000352E+00 0.  1.
       -3    1    3    3    0  502  0.97819276981E+03 -0.27133437131E+03 -0.11480165402E+04  0.15324573152E+04  0.10100000352E+00 0. -1.
</event>
<event>
 5   0  0.1307832E-05  0.2743353E+04  0.7818609E-02  0.8321074E-01
        2   -1    0    0  501    0  0.00000000000E+00  0.00000000000E+00  0.15623936940E+04  0.15623936940E+04  0.25500000920E-02 0. -1.
       -2   -1    0    0    0  501  0.00000000000E+00  0.00000000000E+00 -0.12042400046E+04  0.12042400046E+04  0.25500000920E-02 0.  1.
    10030    2    1    2    0    0  0.00000000000E+00  0.00000000000E+00  0.35815368942E+03  0.27666336986E+04  0.27433534145E+04 0.  0.
        4    1    3    3  502    0  0.98612829247E+03  0.23480090757E+03  0.11109937693E+04  0.15039578597E+04  0.12699999809E+01 0. -1.
       -4    1    3    3    0  502 -0.98612829247E+03 -0.23480090757E+03 -0.75284007984E+03  0.12626758389E+04  0.12699999809E+01 0.  1.
</event>
<event>
 5   0  0.1339837E-05  0.2750808E+04  0.7818609E-02  0.8318705E-01
        2   -1    0    0  501    0  0.00000000000E+00  0.00000000000E+00  0.15524870086E+04  0.15524870086E+04  0.25500000920E-02 0. -1.
       -2   -1    0    0    0  501  0.00000000000E+00  0.00000000000E+00 -0.12185198812E+04  0.12185198812E+04  0.25500000920E-02 0.  1.
    10030    2    1    2    0    0  0.00000000000E+00  0.00000000000E+00  0.33396712731E+03  0.27710068898E+04  0.27508080888E+04 0.  0.
        5    1    3    3  502    0 -0.49969514237E+03  0.14349363644E+03 -0.11157197567E+04  0.12309095517E+04  0.46999998093E+01 0.  1.
       -5    1    3    3    0  502  0.49969514237E+03 -0.14349363644E+03  0.14496868840E+04  0.15400973381E+04  0.46999998093E+01 0. -1.
</event>
<event>
 5   0  0.5352212E-06  0.3087899E+04  0.7818609E-02  0.8219067E-01
       -1   -1    0    0    0  501  0.00000000000E+00  0.00000000000E+00  0.13387309229E+04  0.13387309229E+04  0.50400001928E-02 0.  1.
        1   -1    0    0  501    0  0.00000000000E+00  0.00000000000E+00 -0.17806267658E+04  0.17806267658E+04  0.50400001928E-02 0. -1.
    10030    2    1    2    0    0  0.00000000000E+00  0.00000000000E+00 -0.44189584288E+03  0.31193576887E+04  0.30878990356E+04 0.  0.
        2    1    3    3  502    0  0.90443045901E+03  0.14534826488E+03  0.10345571483E+04  0.13818209241E+04  0.25500000920E-02 0.  1.
       -2    1    3    3    0  502 -0.90443045901E+03 -0.14534826488E+03 -0.14764529911E+04  0.17375367646E+04  0.25500000920E-02 0. -1.
</event>
<event>
 5   0  0.5002240E-06  0.2823690E+04  0.7818609E-02  0.8295951E-01
        1   -1    0    0  501    0  0.00000000000E+00  0.00000000000E+00  0.14843605103E+04  0.14843605103E+04  0.50400001928E-02 0. -1.
       -1   -1    0    0    0  501  0.00000000000E+00  0.00000000000E+00 -0.13428719873E+04  0.13428719873E+04  0.50400001928E-02 0.  1.
    10030    2    1    2    0    0  0.00000000000E+00  0.00000000000E+00  0.14148852304E+03  0.28272324976E+04  0.28236898897E+04 0.  0.
        4    1    3    3  502    0 -0.57997184493E+03 -0.57814381823E+03 -0.10807798998E+04  0.13559883555E+04  0.12699999809E+01 0.  1.
       -4    1    3    3    0  502  0.57997184493E+03  0.57814381823E+03  0.12222684228E+04  0.14712441421E+04  0.12699999809E+01 0. -1.
</event>
<event>
 5   0  0.5154476E-06  0.2353205E+04  0.7818609E-02  0.8457234E-01
        1   -1    0    0  501    0  0.00000000000E+00  0.00000000000E+00  0.93748002588E+03  0.93748002589E+03  0.50400001928E-02 0.  1.
       -1   -1    0    0    0  501  0.00000000000E+00  0.00000000000E+00 -0.14767177342E+04  0.14767177342E+04  0.50400001928E-02 0. -1.
    10030    2    1    2    0    0  0.00000000000E+00  0.00000000000E+00 -0.53923770831E+03  0.24141977601E+04  0.23532049462E+04 0.  0.
        3    1    3    3  502    0 -0.43385159152E+03 -0.90443901566E+03  0.36126399580E+03  0.10661842343E+04  0.10100000352E+00 0.  1.
       -3    1    3    3    0  502  0.43385159152E+03  0.90443901566E+03 -0.90050170411E+03  0.13480135258E+04  0.10100000352E+00 0. -1.
</event>
<event>
 5   0  0.5261878E-06  0.2792346E+04  0.7818609E-02  0.8305649E-01
        1   -1    0    0  501    0  0.00000000000E+00  0.00000000000E+00  0.22183533769E+04  0.22183533769E+04  0.50400001928E-02 0.  1.
       -1   -1    0    0    0  501  0.00000000000E+00  0.00000000000E+00 -0.87871408915E+03  0.87871408917E+03  0.50400001928E-02 0. -1.
    10030    2    1    2    0    0  0.00000000000E+00  0.00000000000E+00  0.13396392878E+04  0.30970674661E+04  0.27923455138E+04 0.  0.
        5    1    3    3  502    0  0.28514324883E+03 -0.75918280426E+03  0.19303328236E+04  0.20937698304E+04  0.46999998093E+01 0.  1.
       -5    1    3    3    0  502 -0.28514324883E+03  0.75918280426E+03 -0.59069353582E+03  0.10032976357E+04  0.46999998093E+01 0. -1.
</event>
<event>
 5   0  0.1336899E-05  0.2930815E+04  0.7818609E-02  0.8263768E-01
        2   -1    0    0  501    0  0.00000000000E+00  0.00000000000E+00  0.21165148760E+04  0.21165148760E+04  0.25500000920E-02 0.  1.
       -2   -1    0    0    0  501  0.00000000000E+00  0.00000000000E+00 -0.10146018308E+04  0.10146018308E+04  0.25500000920E-02 0. -1.
    10030    2    1    2    0    0  0.00000000000E+00  0.00000000000E+00  0.11019130452E+04  0.31311167068E+04  0.29308154961E+04 0.  0.
        1    1    3    3  502    0 -0.46254843495E+03  0.81878474184E+03  0.17516242267E+04  0.19881013404E+04  0.50400001928E-02 0.  1.
       -1    1    3    3    0  502  0.46254843495E+03 -0.81878474184E+03 -0.64971118156E+03  0.11430153663E+04  0.50400001928E-02 0. -1.
</event>
<event>
 5   0  0.5059249E-06  0.2467907E+04  0.7818609E-02  0.8414509E-01
       -1   -1    0    0    0  501  0.00000000000E+00  0.00000000000E+00  0.77583049098E+03  0.77583049099E+03  0.50400001928E-02 0.  1.
        1   -1    0    0  501    0  0.00000000000E+00  0.00000000000E+00 -0.19625948839E+04  0.19625948839E+04  0.50400001928E-02 0. -1.
    10030    2    1    2    0    0  0.00000000000E+00  0.00000000000E+00 -0.11867643929E+04  0.27384253749E+04  0.24679067668E+04 0.  0.
        1    1    3    3  502    0  0.29472039948E+03  0.25689510421E+03 -0.18920512229E+04  0.19320230430E+04  0.50400001928E-02 0. -1.
       -1    1    3    3    0  502 -0.29472039948E+03 -0.25689510421E+03  0.70528682996E+03  0.80640233195E+03  0.50400001928E-02 0.  1.
</event>
<event>
 5   0  0.1336899E-05  0.2901397E+04  0.7818609E-02  0.8272462E-01
       -2   -1    0    0    0  501  0.00000000000E+00  0.00000000000E+00  0.10933303284E+04  0.10933303284E+04  0.25500000920E-02 0.  1.
        2   -1    0    0  501    0  0.00000000000E+00  0.00000000000E+00 -0.19248764149E+04  0.19248764149E+04  0.25500000920E-02 0. -1.
    10030    2    1    2    0    0  0.00000000000E+00  0.00000000000E+00 -0.83154608649E+03  0.30182067434E+04  0.29013967415E+04 0.  0.
        1    1    3    3  502    0  0.15580559139E+03  0.74396067315E+03 -0.17011457888E+04  0.18632363941E+04  0.50400001928E-02 0. -1.
       -1    1    3    3    0  502 -0.15580559139E+03 -0.74396067315E+03  0.86959970228E+03  0.11549703493E+04  0.50400001928E-02 0.  1.
</event>
<event>
 5   0  0.5154476E-06  0.2871167E+04  0.7818609E-02  0.8281508E-01
        1   -1    0    0  501    0  0.00000000000E+00  0.00000000000E+00  0.15415096364E+04  0.15415096365E+04  0.50400001928E-02 0.  1.
       -1   -1    0    0    0  501  0.00000000000E+00  0.00000000000E+00 -0.13369363510E+04  0.13369363510E+04  0.50400001928E-02 0. -1.
    10030    2    1    2    0    0  0.00000000000E+00  0.00000000000E+00  0.20457328542E+03  0.28784459875E+04  0.28711671971E+04 0.  0.
        3    1    3    3  502    0  0.61635557750E+03  0.98905718430E+03 -0.73815354179E+03  0.13794922882E+04  0.10100000352E+00 0. -1.
       -3    1    3    3    0  502 -0.61635557750E+03 -0.98905718430E+03  0.94272682721E+03  0.14989536993E+04  0.10100000352E+00 0.  1.
</event>
<event>
 5   0  0.5352212E-06  0.2881867E+04  0.7818609E-02  0.8278293E-01
        1   -1    0    0  501    0  0.00000000000E+00  0.00000000000E+00  0.22951686635E+04  0.22951686635E+04  0.50400001928E-02 0. -1.
       -1   -1    0    0    0  501  0.00000000000E+00  0.00000000000E+00 -0.90463501543E+03  0.90463501544E+03  0.50400001928E-02 0.  1.
    10030    2    1    2    0    0  0.00000000000E+00  0.00000000000E+00  0.13905336481E+04  0.31998036790E+04  0.28818674080E+04 0.  0.
        2    1    3    3  502    0  0.14158791577E+04 -0.12354031384E+03  0.95875267481E+03  0.17144044709E+04  0.25500000920E-02 0.  1.
       -2    1    3    3    0  502 -0.14158791577E+04  0.12354031384E+03  0.43178097329E+03  0.14853992081E+04  0.25500000920E-02 0. -1.
</event>
<event>
 5   0  0.5261878E-06  0.2934553E+04  0.7818609E-02  0.8262671E-01
       -1   -1    0    0    0  501  0.00000000000E+00  0.00000000000E+00  0.10995104838E+04  0.10995104838E+04  0.50400001928E-02 0. -1.
        1   -1    0    0  501    0  0.00000000000E+00  0.00000000000E+00 -0.19580535350E+04  0.19580535351E+04  0.50400001928E-02 0.  1.
    10030    2    1    2    0    0  0.00000000000E+00  0.00000000000E+00 -0.85854305126E+03  0.30575640188E+04  0.29345530424E+04 0.  0.
        5    1    3    3  502    0  0.71899392166E+03 -0.11004235933E+03  0.89843502974E+03  0.11559710952E+04  0.46999998093E+01 0. -1.
       -5    1    3    3    0  502 -0.71899392166E+03  0.11004235933E+03 -0.17569780810E+04  0.19015929237E+04  0.46999998093E+01 0.  1.
</event>
<event>
 5   0  0.1339837E-05  0.2872122E+04  0.7818609E-02  0.8281221E-01
       -2   -1    0    0    0  501  0.00000000000E+00  0.00000000000E+00  0.85378649408E+03  0.85378649409E+03  0.25500000920E-02 0. -1.
        2   -1    0    0  501    0  0.00000000000E+00  0.00000000000E+00 -0.24154405843E+04  0.24154405843E+04  0.25500000920E-02 0.  1.
    10030    2    1    2    0    0  0.00000000000E+00  0.00000000000E+00 -0.15616540902E+04  0.32692270783E+04  0.28721215490E+04 0.  0.
        5    1    3    3  502    0 -0.10246109254E+04  0.48335963725E+03 -0.17853292297E+04  0.21144471229E+04  0.46999998093E+01 0. -1.
       -5    1    3    3    0  502  0.10246109254E+04 -0.48335963725E+03  0.22367513949E+03  0.11547799554E+04  0.46999998093E+01 0.  1.
</event>
<event>
 5   0  0.1339837E-05  0.2903681E+04  0.7818609E-02  0.8271783E-01
        2   -1    0    0  501    0  0.00000000000E+00  0.00000000000E+00  0.14814703149E+04  0.14814703149E+04  0.25500000920E-02 0. -1.
       -2   -1    0    0    0  501  0.00000000000E+00  0.00000000000E+00 -0.14228035669E+04  0.14228035669E+04  0.25500000920E-02 0.  1.
    10030    2    1    2    0    0  0.00000000000E+00  0.00000000000E+00  0.58666747973E+02  0.29042738818E+04  0.29036812830E+04 0.  0.
        5    1    3    3  502    0 -0.13195352024E+04 -0.50074045494E+02  0.63289550318E+03  0.14643289823E+04  0.46999998093E+01 0. -1.
       -5    1    3    3    0  502  0.13195352024E+04  0.50074045494E+02 -0.57422875521E+03  0.14399448995E+04  0.46999998093E+01 0.  1.
</event>
<event>
 5   0  0.1339837E-05  0.2937228E+04  0.7818609E-02  0.8261886E-01
       -2   -1    0    0    0  501  0.00000000000E+00  0.00000000000E+00  0.19628041530E+04  0.19628041530E+04  0.25500000920E-02 0.  1.
        2   -1    0    0  501    0  0.00000000000E+00  0.00000000000E+00 -0.10988501903E+04  0.10988501903E+04  0.25500000920E-02 0. -1.
    10030    2    1    2    0    0  0.00000000000E+00  0.00000000000E+00  0.86395396265E+03  0.30616543433E+04  0.29372284331E+04 0.  0.
        5    1    3    3  502    0 -0.65116214033E+03  0.10872378599E+04  0.12055100111E+04  0.17491068503E+04  0.46999998093E+01 0.  1.
       -5    1    3    3    0  502  0.65116214033E+03 -0.10872378599E+04 -0.34155604848E+03  0.13125474929E+04  0.46999998093E+01 0. -1.
</event>
<event>
 5   0  0.5002240E-06  0.2844737E+04  0.7818609E-02  0.8289512E-01
       -1   -1    0    0    0  501  0.00000000000E+00  0.00000000000E+00  0.18865479138E+04  0.18865479138E+04  0.50400001928E-02 0. -1.
        1   -1    0    0  501    0  0.00000000000E+00  0.00000000000E+00 -0.10723988532E+04  0.10723988532E+04  0.50400001928E-02 0.  1.
    10030    2    1    2    0    0  0.00000000000E+00  0.00000000000E+00  0.81414906059E+03  0.29589467670E+04  0.28447367676E+04 0.  0.
        4    1    3    3  502    0  0.69904442990E+03  0.10950346619E+04  0.10094325523E+04  0.16452111464E+04  0.12699999809E+01 0. -1.
       -4    1    3    3    0  502 -0.69904442990E+03 -0.10950346619E+04 -0.19528349175E+03  0.13137356206E+04  0.12699999809E+01 0.  1.
</event>
<event>
 5   0  0.1382803E-05  0.2995801E+04  0.7818609E-02  0.8244931E-01
       -2   -1    0    0    0  501  0.00000000000E+00  0.00000000000E+00  0.10870919428E+04  0.10870919428E+04  0.25500000920E-02 0. -1.
        2   -1    0    0  501    0  0.00000000000E+00  0.00000000000E+00 -0.20639527919E+04  0.20639527919E+04  0.25500000920E-02 0.  1.
    10030    2    1    2    0    0  0.00000000000E+00  0.00000000000E+00 -0.97686084914E+03  0.31510447347E+04  0.29958013621E+04 0.  0.
        2    1    3    3  502    0 -0.46403172061E+02  0.73572624375E+03  0.88308038649E+03  0.11503379195E+04  0.25500000920E-02 0. -1.
       -2    1    3    3    0  502  0.46403172061E+02 -0.73572624375E+03 -0.18599412356E+04  0.20007068151E+04  0.25500000920E-02 0.  1.
</event>
<event>
 5   0  0.1385669E-05  0.2851216E+04  0.7818609E-02  0.8287542E-01
       -2   -1    0    0    0  501  0.00000000000E+00  0.00000000000E+00  0.61941454897E+03  0.61941454898E+03  0.25500000920E-02 0.  1.
        2   -1    0    0  501    0  0.00000000000E+00  0.00000000000E+00 -0.32810960410E+04  0.32810960410E+04  0.25500000920E-02 0. -1.
    10030    2    1    2    0    0  0.00000000000E+00  0.00000000000E+00 -0.26616814920E+04  0.39005105899E+04  0.28512163189E+04 0.  0.
        3    1    3    3  502    0  0.27642246498E+03 -0.70031448454E+03  0.32525528816E+03  0.82014679727E+03  0.10100000352E+00 0.  1.
       -3    1    3    3    0  502 -0.27642246498E+03  0.70031448454E+03 -0.29869367801E+04  0.30803637927E+04  0.10100000352E+00 0. -1.
</event>
<event>
 5   0  0.5059249E-06  0.2313344E+04  0.7818609E-02  0.8472678E-01
        1   -1    0    0  501    0  0.00000000000E+00  0.00000000000E+00  0.95472599056E+03  0.95472599058E+03  0.50400001928E-02 0. -1.
       -1   -1    0    0    0  501  0.00000000000E+00  0.00000000000E+00 -0.14013338100E+04  0.14013338100E+04  0.50400001928E-02 0.  1.
    10030    2    1    2    0    0  0.00000000000E+00  0.00000000000E+00 -0.44660781947E+03  0.23560598006E+04  0.23133437357E+04 0.  0.
        1    1    3    3  502    0  0.64229837053E+03  0.56283213861E+03  0.57120499478E+03  0.10274251112E+04  0.50400001928E-02 0. -1.
       -1    1    3    3    0  502 -0.64229837053E+03 -0.56283213861E+03 -0.10178128143E+04  0.13286346894E+04  0.50400001928E-02 0.  1.
</event>
<event>
 5   0  0.1385669E-05  0.2922102E+04  0.7818609E-02  0.8266332E-01
        2   -1    0    0  501    0  0.00000000000E+00  0.00000000000E+00  0.11224774576E+04  0.11224774576E+04  0.25500000920E-02 0.  1.
       -2   -1    0    0    0  501  0.00000000000E+00  0.00000000000E+00 -0.19017491992E+04  0.19017491992E+04  0.25500000920E-02 0. -1.
    10030    2    1    2    0    0  0.00000000000E+00  0.00000000000E+00 -0.77927174156E+03  0.30242266568E+04  0.29221023980E+04 0.  0.
        3    1    3    3  502    0 -0.50115989163E+03  0.13565982536E+04 -0.60462277733E+03  0.15675103737E+04  0.10100000352E+00 0. -1.
       -3    1    3    3    0  502  0.50115989163E+03 -0.13565982536E+04 -0.17464896423E+03  0.14567162831E+04  0.10100000352E+00 0.  1.
</event>
<event>
 5   0  0.5002240E-06  0.2920322E+04  0.7818609E-02  0.8266857E-01
       -1   -1    0    0    0  501  0.00000000000E+00  0.00000000000E+00  0.87288179607E+03  0.87288179609E+03  0.50400001928E-02 0.  1.
        1   -1    0    0  501    0  0.00000000000E+00  0.00000000000E+00 -0.24425639207E+04  0.24425639207E+04  0.50400001928E-02 0. -1.
    10030    2    1    2    0    0  0.00000000000E+00  0.00000000000E+00 -0.15696821247E+04  0.33154457168E+04  0.29203216139E+04 0.  0.
        4    1    3    3  502    0  0.11705127899E+04  0.77820802628E+03 -0.33591570868E+03  0.14451812688E+04  0.12699999809E+01 0.  1.
       -4    1    3    3    0  502 -0.11705127899E+04 -0.77820802628E+03 -0.12337664160E+04  0.18702644480E+04  0.12699999809E+01 0. -1.
</event>
<event>
 5   0  0.1339837E-05  0.2631728E+04  0.7818609E-02  0.8357503E-01
        2   -1    0    0  501    0  0.00000000000E+00  0.00000000000E+00  0.12676669597E+04  0.12676669597E+04  0.25500000920E-02 0.  1.
       -2   -1    0    0    0  501  0.00000000000E+00  0.00000000000E+00 -0.13658935442E+04  0.13658935442E+04  0.25500000920E-02 0. -1.
    10030    2    1    2    0    0  0.00000000000E+00  0.00000000000E+00 -0.98226584525E+02  0.26335605040E+04  0.26317280380E+04 0.  0.
        5    1    3    3  502    0 -0.57542811364E+03  0.10352360376E+04 -0.62278801513E+03  0.13381771816E+04  0.46999998093E+01 0. -1.
       -5    1    3    3    0  502  0.57542811364E+03 -0.10352360376E+04  0.52456143060E+03  0.12953833224E+04  0.46999998093E+01 0.  1.
</event>
<event>
 5   0  0.5154476E-06  0.2931566E+04  0.7818609E-02  0.8263547E-01
       -1   -1    0    0    0  501  0.00000000000E+00  0.00000000000E+00  0.18345141427E+04  0.18345141427E+04  0.50400001928E-02 0. -1.
        1   -1    0    0  501    0  0.00000000000E+00  0.00000000000E+00 -0.11711657368E+04  0.11711657368E+04  0.50400001928E-02 0.  1.
    10030    2    1    2    0    0  0.00000000000E+00  0.00000000000E+00  0.66334840590E+03  0.30056798795E+04  0.29315662077E+04 0.  0.
        3    1    3    3  502    0  0.53494113965E+01  0.12143849078E+04 -0.50990671485E+03  0.13171044713E+04  0.10100000352E+00 0.  1.
       -3    1    3    3    0  502 -0.53494113965E+01 -0.12143849078E+04  0.11732551207E+04  0.16885754081E+04  0.10100000352E+00 0. -1.
</event>
<event>
 5   0  0.1382803E-05  0.2851257E+04  0.7818609E-02  0.8287529E-01
       -2   -1    0    0    0  501  0.00000000000E+00  0.00000000000E+00  0.15439675927E+04  0.15439675927E+04  0.25500000920E-02 0.  1.
        2   -1    0    0  501    0  0.00000000000E+00  0.00000000000E+00 -0.13163598626E+04  0.13163598626E+04  0.25500000920E-02 0. -1.
    10030    2    1    2    0    0  0.00000000000E+00  0.00000000000E+00  0.22760773005E+03  0.28603274553E+04  0.28512572443E+04 0.  0.
        2    1    3    3  502    0  0.12743976400E+04  0.40761980163E+03 -0.37987309622E+03  0.13908798714E+04  0.25500000920E-02 0. -1.
       -2    1    3    3    0  502 -0.12743976400E+04 -0.40761980163E+03  0.60748082628E+03  0.14694475839E+04  0.25500000920E-02 0.  1.
</event>
<event>
 5   0  0.5261878E-06  0.2601166E+04  0.7818609E-02  0.8367805E-01
        1   -1    0    0  501    0  0.00000000000E+00  0.00000000000E+00  0.13492416931E+04  0.13492416931E+04  0.50400001928E-02 0.  1.
       -1   -1    0    0    0  501  0.00000000000E+00  0.00000000000E+00 -0.12536791542E+04  0.12536791542E+04  0.50400001928E-02 0. -1.
    10030    2    1    2    0    0  0.00000000000E+00  0.00000000000E+00  0.95562538848E+02  0.26029208473E+04  0.26011660344E+04 0.  0.
        5    1    3    3  502    0  0.21106123457E+03 -0.99339376698E+03  0.86080466164E+03  0.13313094218E+04  0.46999998093E+01 0.  1.
       -5    1    3    3    0  502 -0.21106123457E+03  0.99339376698E+03 -0.76524212279E+03  0.12716114255E+04  0.46999998093E+01 0. -1.
</event>
<event>
 5   0  0.5352212E-06  0.3036645E+04  0.7818609E-02  0.8233344E-01
       -1   -1    0    0    0  501  0.00000000000E+00  0.00000000000E+00  0.14162372751E+04  0.14162372751E+04  0.50400001928E-02 0. -1.
        1   -1    0    0  501    0  0.00000000000E+00  0.00000000000E+00 -0.16277658532E+04  0.16277658532E+04  0.50400001928E-02 0.  1.
    10030    2    1    2    0    0  0.00000000000E+00  0.00000000000E+00 -0.21152857810E+03  0.30440031282E+04  0.30366446459E+04 0.  0.
        2    1    3    3  502    0  0.61917201666E+03  0.53280811454E+03 -0.13887266934E+04  0.16111549591E+04  0.25500000920E-02 0.  1.
       -2    1    3    3    0  502 -0.61917201666E+03 -0.53280811454E+03  0.11771981153E+04  0.14328481692E+04  0.25500000920E-02 0. -1.
</event>
<event>
 5   0  0.5261878E-06  0.2650560E+04  0.7818609E-02  0.8351227E-01
        1   -1    0    0  501    0  0.00000000000E+00  0.00000000000E+00  0.91697663614E+03  0.91697663616E+03  0.50400001928E-02 0. -1.
       -1   -1    0    0    0  501  0.00000000000E+00  0.00000000000E+00 -0.19153885544E+04  0.19153885544E+04  0.50400001928E-02 0.  1.
    10030    2    1    2    0    0  0.00000000000E+00  0.00000000000E+00 -0.99841191829E+03  0.28323651906E+04  0.26505596040E+04 0.  0.
        5    1    3    3  502    0 -0.16640591142E+03 -0.13131708306E+04 -0.56875398696E+03  0.14406983534E+04  0.46999998093E+01 0. -1.
       -5    1    3    3    0  502  0.16640591142E+03  0.13131708306E+04 -0.42965793133E+03  0.13916668372E+04  0.46999998093E+01 0.  1.
</event>
<event>
 5   0  0.1339837E-05  0.2870048E+04  0.7818609E-02  0.8281845E-01
        2   -1    0    0  501    0  0.00000000000E+00  0.00000000000E+00  0.27684218785E+04  0.27684218785E+04  0.25500000920E-02 0. -1.
       -2   -1    0    0    0  501  0.00000000000E+00  0.00000000000E+00 -0.74385138990E+03  0.74385138990E+03  0.25500000920E-02 0.  1.
    10030    2    1    2    0    0  0.00000000000E+00  0.00000000000E+00  0.20245704886E+04  0.35122732684E+04  0.28700484053E+04 0.  0.
        5    1    3    3  502    0 -0.90072810318E+03 -0.70445401942E+03 -0.48733422937E+02  0.11445364205E+04  0.46999998093E+01 0.  1.
       -5    1    3    3    0  502  0.90072810318E+03  0.70445401942E+03  0.20733039115E+04  0.23677368479E+04  0.46999998093E+01 0. -1.
</event>
<event>
 5   0  0.5261878E-06  0.2851224E+04  0.7818609E-02  0.8287540E-01
       -1   -1    0    0    0  501  0.00000000000E+00  0.00000000000E+00  0.13797349967E+04  0.13797349967E+04  0.50400001928E-02 0.  1.
        1   -1    0    0  501    0  0.00000000000E+00  0.00000000000E+00 -0.14730143554E+04  0.14730143554E+04  0.50400001928E-02 0. -1.
    10030    2    1    2    0    0  0.00000000000E+00  0.00000000000E+00 -0.93279358726E+02  0.28527493521E+04  0.28512239174E+04 0.  0.
        5    1    3    3  502    0 -0.54898091538E+02 -0.58997645471E+03  0.12506886582E+04  0.13839545611E+04  0.46999998093E+01 0.  1.
       -5    1    3    3    0  502  0.54898091538E+02  0.58997645471E+03 -0.13439680169E+04  0.14687947910E+04  0.46999998093E+01 0. -1.
</event>
<event>
 5   0  0.1336899E-05  0.2742437E+04  0.7818609E-02  0.8321365E-01
       -2   -1    0    0    0  501  0.00000000000E+00  0.00000000000E+00  0.85877869472E+03  0.85877869472E+03  0.25500000920E-02 0. -1.
        2   -1    0    0  501    0  0.00000000000E+00  0.00000000000E+00 -0.21894357216E+04  0.21894357216E+04  0.25500000920E-02 0.  1.
    10030    2    1    2    0    0  0.00000000000E+00  0.00000000000E+00 -0.13306570269E+04  0.30482144163E+04  0.27424374204E+04 0.  0.
        1    1    3    3  502    0 -0.73373888377E+03  0.10328748190E+04 -0.12482429741E+04  0.17785706799E+04  0.50400001928E-02 0.  1.
       -1    1    3    3    0  502  0.73373888377E+03 -0.10328748190E+04 -0.82414052812E+02  0.12696437364E+04  0.50400001928E-02 0. -1.
</event>
<event>
 5   0  0.1339837E-05  0.2914143E+04  0.7818609E-02  0.8268682E-01
        2   -1    0    0  501    0  0.00000000000E+00  0.00000000000E+00  0.18844534776E+04  0.18844534776E+04  0.25500000920E-02 0.  1.
       -2   -1    0    0    0  501  0.00000000000E+00  0.00000000000E+00 -0.11266167129E+04  0.11266167129E+04  0.25500000920E-02 0. -1.
    10030    2    1    2    0    0  0.00000000000E+00  0.00000000000E+00  0.75783676469E+03  0.30110701905E+04  0.29141426063E+04 0.  0.
        5    1    3    3  502    0 -0.11381541265E+04  0.16985654160E+03  0.13023952404E+04  0.17379590077E+04  0.46999998093E+01 0. -1.
       -5    1    3    3    0  502  0.11381541265E+04 -0.16985654160E+03 -0.54455847566E+03  0.12731111828E+04  0.46999998093E+01 0.  1.
</event>
<event>
 5   0  0.1339837E-05  0.2929363E+04  0.7818609E-02  0.8264194E-01
       -2   -1    0    0    0  501  0.00000000000E+00  0.00000000000E+00  0.13889980120E+04  0.13889980120E+04  0.25500000920E-02 0.  1.
        2   -1    0    0  501    0  0.00000000000E+00  0.00000000000E+00 -0.15444888207E+04  0.15444888207E+04  0.25500000920E-02 0. -1.
    10030    2    1    2    0    0  0.00000000000E+00  0.00000000000E+00 -0.15549080862E+03  0.29334868327E+04  0.29293630035E+04 0.  0.
        5    1    3    3  502    0 -0.35212938002E+03 -0.11811539955E+04  0.71466492137E+03  0.14247413453E+04  0.46999998093E+01 0.  1.
       -5    1    3    3    0  502  0.35212938002E+03  0.11811539955E+04 -0.87015572999E+03  0.15087454874E+04  0.46999998093E+01 0. -1.
</event>
<event>
 5   0  0.5154476E-06  0.2917750E+04  0.7818609E-02  0.8267616E-01
       -1   -1    0    0    0  501  0.00000000000E+00  0.00000000000E+00  0.11818663324E+04  0.11818663324E+04  0.50400001928E-02 0.  1.
        1   -1    0    0  501    0  0.00000000000E+00  0.00000000000E+00 -0.18008101341E+04  0.18008101341E+04  0.50400001928E-02 0. -1.
    10030    2    1    2    0    0  0.00000000000E+00  0.00000000000E+00 -0.61894380166E+03  0.29826764665E+04  0.29177504132E+04 0.  0.
        3    1    3    3  502    0 -0.11921257674E+04 -0.40672502058E+03  0.44292770274E+03  0.13352056200E+04  0.10100000352E+00 0.  1.
       -3    1    3    3    0  502  0.11921257674E+04  0.40672502058E+03 -0.10618715044E+04  0.16474708464E+04  0.10100000352E+00 0. -1.
</event>
<event>
 5   0  0.5261878E-06  0.2832979E+04  0.7818609E-02  0.8293102E-01
        1   -1    0    0  501    0  0.00000000000E+00  0.00000000000E+00  0.17234153141E+04  0.17234153141E+04  0.50400001928E-02 0. -1.
       -1   -1    0    0    0  501  0.00000000000E+00  0.00000000000E+00 -0.11642246448E+04  0.11642246448E+04  0.50400001928E-02 0.  1.
    10030    2    1    2    0    0  0.00000000000E+00  0.00000000000E+00  0.55919066923E+03  0.28876399589E+04  0.28329790553E+04 0.  0.
        5    1    3    3  502    0 -0.45290745246E+03  0.24054865783E+03 -0.10662716673E+04  0.11831932115E+04  0.46999998093E+01 0.  1.
       -5    1    3    3    0  502  0.45290745246E+03 -0.24054865783E+03  0.16254623365E+04  0.17044467474E+04  0.46999998093E+01 0. -1.
</event>
<event>
 5   0  0.1339837E-05  0.2944375E+04  0.7818609E-02  0.8259796E-01
        2   -1    0    0  501    0  0.00000000000E+00  0.00000000000E+00  0.17989951898E+04  0.17989951898E+04  0.25500000920E-02 0. -1.
       -2   -1    0    0    0  501  0.00000000000E+00  0.00000000000E+00 -0.12047481261E+04  0.12047481261E+04  0.25500000920E-02 0.  1.
    10030    2    1    2    0    0  0.00000000000E+00  0.00000000000E+00  0.59424706378E+03  0.30037433159E+04  0.29443750330E+04 0.  0.
        5    1    3    3  502    0  0.79789121852E+03  0.92929155896E+03 -0.53610746988E+03  0.13370289853E+04  0.46999998093E+01 0.  1.
       -5    1    3    3    0  502 -0.79789121852E+03 -0.92929155896E+03  0.11303545337E+04  0.16667143306E+04  0.46999998093E+01 0. -1.
</event>
<event>
 5   0  0.5002240E-06  0.3000989E+04  0.7818609E-02  0.8243448E-01
       -1   -1    0    0    0  501  0.00000000000E+00  0.00000000000E+00  0.10733415710E+04  0.10733415710E+04  0.50400001928E-02 0.  1.
        1   -1    0    0  501    0  0.00000000000E+00  0.00000000000E+00 -0.20976398361E+04  0.20976398361E+04  0.50400001928E-02 0. -1.
    10030    2    1    2    0    0  0.00000000000E+00  0.00000000000E+00 -0.10242982651E+04  0.31709814072E+04  0.30009891950E+04 0.  0.
        4    1    3    3  502    0  0.10457977314E+04 -0.13580828640E+03 -0.16400138498E+04  0.19498163570E+04  0.12699999809E+01 0. -1.
       -4    1    3    3    0  502 -0.10457977314E+04  0.13580828640E+03  0.61571558468E+03  0.12211650502E+04  0.12699999809E+01 0.  1.
</event>
<event>
 5   0  0.1336899E-05  0.2909134E+04  0.7818609E-02  0.8270165E-01
        2   -1    0    0  501    0  0.00000000000E+00  0.00000000000E+00  0.17235802379E+04  0.17235802379E+04  0.25500000920E-02 0. -1.
       -2   -1    0    0    0  501  0.00000000000E+00  0.00000000000E+00 -0.12275404729E+04  0.12275404729E+04  0.25500000920E-02 0.  1.
    10030    2    1    2    0    0  0.00000000000E+00  0.00000000000E+00  0.49603976503E+03  0.29511207108E+04  0.29091335482E+04 0.  0.
        1    1    3    3  502    0 -0.10197399494E+03 -0.90892409970E+03  0.13953711733E+04  0.16684131461E+04  0.50400001928E-02 0. -1.
       -1    1    3    3    0  502  0.10197399494E+03  0.90892409970E+03 -0.89933140828E+03  0.12827075647E+04  0.50400001928E-02 0.  1.
</event>
<event>
 5   0  0.5261878E-06  0.3014223E+04  0.7818609E-02  0.8239681E-01
        1   -1    0    0  501    0  0.00000000000E+00  0.00000000000E+00  0.15710874269E+04  0.15710874269E+04  0.50400001928E-02 0.  1.
       -1   -1    0    0    0  501  0.00000000000E+00  0.00000000000E+00 -0.14457408707E+04  0.14457408707E+04  0.50400001928E-02 0. -1.
    10030    2    1    2    0    0  0.00000000000E+00  0.00000000000E+00  0.12534655621E+03  0.30168282977E+04  0.30142231534E+04 0.  0.
        5    1    3    3  502    0 -0.11373367243E+03  0.11874229517E+04  0.98458533739E+03  0.15467187822E+04  0.46999998093E+01 0.  1.
       -5    1    3    3    0  502  0.11373367243E+03 -0.11874229517E+04 -0.85923878118E+03  0.14701095155E+04  0.46999998093E+01 0. -1.
</event>
<event>
 5   0  0.5059249E-06  0.2894060E+04  0.7818609E-02  0.8274647E-01
        1   -1    0    0  501    0  0.00000000000E+00  0.00000000000E+00  0.13068822041E+04  0.13068822041E+04  0.50400001928E-02 0. -1.
       -1   -1    0    0    0  501  0.00000000000E+00  0.00000000000E+00 -0.16022071011E+04  0.16022071011E+04  0.50400001928E-02 0.  1.
    10030    2    1    2    0    0  0.00000000000E+00  0.00000000000E+00 -0.29532489702E+03  0.29090893053E+04  0.28940600877E+04 0.  0.
        1    1    3    3  502    0  0.14431831592E+04 -0.26103285823E+02 -0.25035430524E+03  0.14649697234E+04  0.50400001928E-02 0. -1.
       -1    1    3    3    0  502 -0.14431831592E+04  0.26103285823E+02 -0.44970591784E+02  0.14441195818E+04  0.50400001928E-02 0.  1.
</event>
<event>
 5   0  0.5059249E-06  0.2912151E+04  0.7818609E-02  0.8269271E-01
        1   -1    0    0  501    0  0.00000000000E+00  0.00000000000E+00  0.13052784933E+04  0.13052784934E+04  0.50400001928E-02 0. -1.
       -1   -1    0    0    0  501  0.00000000000E+00  0.00000000000E+00 -0.16242944104E+04  0.16242944104E+04  0.50400001928E-02 0.  1.
    10030    2    1    2    0    0  0.00000000000E+00  0.00000000000E+00 -0.31901591705E+03  0.29295729038E+04  0.29121514801E+04 0.  0.
        1    1    3    3  502    0  0.68887752127E+03  0.58682057603E+03 -0.13070537932E+04  0.15897484852E+04  0.50400001928E-02 0.  1.
       -1    1    3    3    0  502 -0.68887752127E+03 -0.58682057603E+03  0.98803787619E+03  0.13398244186E+04  0.50400001928E-02 0. -1.
</event>
<event>
 5   0  0.5002240E-06  0.2621879E+04  0.7818609E-02  0.8360807E-01
        1   -1    0    0  501    0  0.00000000000E+00  0.00000000000E+00  0.14586398040E+04  0.14586398040E+04  0.50400001928E-02 0.  1.
       -1   -1    0    0    0  501  0.00000000000E+00  0.00000000000E+00 -0.11781950738E+04  0.11781950739E+04  0.50400001928E-02 0. -1.
    10030    2    1    2    0    0  0.00000000000E+00  0.00000000000E+00  0.28044473015E+03  0.26368348779E+04  0.26218788924E+04 0.  0.
        4    1    3    3  502    0  0.11470550428E+04 -0.44977704174E+03  0.59057800881E+03  0.13663157234E+04  0.12699999809E+01 0.  1.
       -4    1    3    3    0  502 -0.11470550428E+04  0.44977704174E+03 -0.31013327866E+03  0.12705191545E+04  0.12699999809E+01 0. -1.
</event>
<event>
 5   0  0.1307832E-05  0.2805226E+04  0.7818609E-02  0.8301648E-01
        2   -1    0    0  501    0  0.00000000000E+00  0.00000000000E+00  0.15037192132E+04  0.15037192132E+04  0.25500000920E-02 0.  1.
       -2   -1    0    0    0  501  0.00000000000E+00  0.00000000000E+00 -0.13083047725E+04  0.13083047725E+04  0.25500000920E-02 0. -1.
    10030    2    1    2    0    0  0.00000000000E+00  0.00000000000E+00  0.19541444071E+03  0.28120239858E+04  0.28052258542E+04 0.  0.
        4    1    3    3  502    0 -0.12491067251E+04 -0.49205571634E+03 -0.30939883569E+03  0.13777211950E+04  0.12699999809E+01 0. -1.
       -4    1    3    3    0  502  0.12491067251E+04  0.49205571634E+03  0.50481327641E+03  0.14343027908E+04  0.12699999809E+01 0.  1.
</event>
<event>
 5   0  0.1336899E-05  0.2854117E+04  0.7818609E-02  0.8286662E-01
       -2   -1    0    0    0  501  0.00000000000E+00  0.00000000000E+00  0.91967545379E+03  0.91967545380E+03  0.25500000920E-02 0.  1.
        2   -1    0    0  501    0  0.00000000000E+00  0.00000000000E+00 -0.22143630710E+04  0.22143630710E+04  0.25500000920E-02 0. -1.
    10030    2    1    2    0    0  0.00000000000E+00  0.00000000000E+00 -0.12946876172E+04  0.31340385248E+04  0.28541165794E+04 0.  0.
        1    1    3    3  502    0 -0.90982821358E+03  0.59566707697E+03  0.36734591003E+03  0.11478456614E+04  0.50400001928E-02 0.  1.
       -1    1    3    3    0  502  0.90982821358E+03 -0.59566707697E+03 -0.16620335272E+04  0.19861928634E+04  0.50400001928E-02 0. -1.
</event>
<event>
 5   0  0.5002240E-06  0.2770914E+04  0.7818609E-02  0.8312356E-01
       -1   -1    0    0    0  501  0.00000000000E+00  0.00000000000E+00  0.18852653263E+04  0.18852653263E+04  0.50400001928E-02 0.  1.
        1   -1    0    0  501    0  0.00000000000E+00  0.00000000000E+00 -0.10181542010E+04  0.10181542010E+04  0.50400001928E-02 0. -1.
    10030    2    1    2    0    0  0.00000000000E+00  0.00000000000E+00  0.86711112533E+03  0.29034195273E+04  0.27709137929E+04 0.  0.
        4    1    3    3  502    0 -0.67360187205E+03 -0.27726808627E+03 -0.80130496829E+03  0.10829165890E+04  0.12699999809E+01 0. -1.
       -4    1    3    3    0  502  0.67360187205E+03  0.27726808627E+03  0.16684160936E+04  0.18205029382E+04  0.12699999809E+01 0.  1.
</event>
<event>
 5   0  0.1339837E-05  0.2849652E+04  0.7818609E-02  0.8288017E-01
       -2   -1    0    0    0  501  0.00000000000E+00  0.00000000000E+00  0.14205041067E+04  0.14205041067E+04  0.25500000920E-02 0.  1.
        2   -1    0    0  501    0  0.00000000000E+00  0.00000000000E+00 -0.14291611286E+04  0.14291611286E+04  0.25500000920E-02 0. -1.
    10030    2    1    2    0    0  0.00000000000E+00  0.00000000000E+00 -0.86570218413E+01  0.28496652353E+04  0.28496520856E+04 0.  0.
        5    1    3    3  502    0  0.60807654116E+03 -0.87052656389E+03 -0.95435057034E+03  0.14277186976E+04  0.46999998093E+01 0. -1.
       -5    1    3    3    0  502 -0.60807654116E+03  0.87052656389E+03  0.94569354850E+03  0.14219465377E+04  0.46999998093E+01 0.  1.
</event>
<event>
 5   0  0.1385669E-05  0.2912805E+04  0.7818609E-02  0.8269078E-01
        2   -1    0    0  501    0  0.00000000000E+00  0.00000000000E+00  0.18348204597E+04  0.18348204597E+04  0.25500000920E-02 0.  1.
       -2   -1    0    0    0  501  0.00000000000E+00  0.00000000000E+00 -0.11560300555E+04  0.11560300555E+04  0.25500000920E-02 0. -1.
    10030    2    1    2    0    0  0.00000000000E+00  0.00000000000E+00  0.67879040422E+03  0.29908505152E+04  0.29128045577E+04 0.  0.
        3    1    3    3  502    0  0.13883962933E+04 -0.73251921453E+02 -0.10592751087E+03  0.13943567545E+04  0.10100000352E+00 0. -1.
       -3    1    3    3    0  502 -0.13883962933E+04  0.73251921453E+02  0.78471791509E+03  0.15964937606E+04  0.10100000352E+00 0.  1.
</event>
<event>
 5   0  0.1307832E-05  0.2933587E+04  0.7818609E-02  0.8262954E-01
       -2   -1    0    0    0  501  0.00000000000E+00  0.00000000000E+00  0.11243104948E+04  0.11243104948E+04  0.25500000920E-02 0.  1.
        2   -1    0    0  501    0  0.00000000000E+00  0.00000000000E+00 -0.19136024863E+04  0.19136024863E+04  0.25500000920E-02 0. -1.
    10030    2    1    2    0    0  0.00000000000E+00  0.00000000000E+00 -0.78929199158E+03  0.30379129811E+04  0.29335871272E+04 0.  0.
        4    1    3    3  502    0  0.13685753011E+04 -0.39357407749E+03 -0.75869128634E+03  0.16135405139E+04  0.12699999809E+01 0. -1.
       -4    1    3    3    0  502 -0.13685753011E+04  0.39357407749E+03 -0.30600705236E+02  0.14243724672E+04  0.12699999809E+01 0.  1.
</event>
<event>
 5   0  0.1382803E-05  0.2875594E+04  0.7818609E-02  0.8280176E-01
       -2   -1    0    0    0  501  0.00000000000E+00  0.00000000000E+00  0.88246830501E+03  0.88246830501E+03  0.25500000920E-02 0. -1.
        2   -1    0    0  501    0  0.00000000000E+00  0.00000000000E+00 -0.23425889921E+04  0.23425889921E+04  0.25500000920E-02 0.  1.
    10030    2    1    2    0    0  0.00000000000E+00  0.00000000000E+00 -0.14601206871E+04  0.32250572971E+04  0.28755942254E+04 0.  0.
        2    1    3    3  502    0 -0.63061467853E+03  0.50935096064E+03  0.60174902767E+03  0.10095618684E+04  0.25500000920E-02 0. -1.
       -2    1    3    3    0  502  0.63061467853E+03 -0.50935096064E+03 -0.20618697148E+04  0.22154954287E+04  0.25500000920E-02 0.  1.
</event>
<event>
 5   0  0.1382803E-05  0.2732591E+04  0.7818609E-02  0.8324507E-01
       -2   -1    0    0    0  501  0.00000000000E+00  0.00000000000E+00  0.81900085587E+03  0.81900085587E+03  0.25500000920E-02 0.  1.
        2   -1    0    0  501    0  0.00000000000E+00  0.00000000000E+00 -0.22793180773E+04  0.22793180773E+04  0.25500000920E-02 0. -1.
    10030    2    1    2    0    0  0.00000000000E+00  0.00000000000E+00 -0.14603172214E+04  0.30983189332E+04  0.27325910459E+04 0.  0.
        2    1    3    3  502    0  0.87017860387E+03  0.86368936784E+03 -0.46468286946E+02  0.12269186723E+04  0.25500000920E-02 0. -1.
       -2    1    3    3    0  502 -0.87017860387E+03 -0.86368936784E+03 -0.14138489345E+04  0.18714002608E+04  0.25500000920E-02 0.  1.
</event>
<event>
 5   0  0.1382803E-05  0.2910559E+04  0.7818609E-02  0.8269743E-01
        2   -1    0    0  501    0  0.00000000000E+00  0.00000000000E+00  0.20112774295E+04  0.20112774295E+04  0.25500000920E-02 0.  1.
       -2   -1    0    0    0  501  0.00000000000E+00  0.00000000000E+00 -0.10529816914E+04  0.10529816914E+04  0.25500000920E-02 0. -1.
    10030    2    1    2    0    0  0.00000000000E+00  0.00000000000E+00  0.95829573811E+03  0.30642591209E+04  0.29105589220E+04 0.  0.
        2    1    3    3  502    0  0.10248923578E+04  0.39003083629E+03  0.14863883560E+04  0.18471271595E+04  0.25500000920E-02 0.  1.
       -2    1    3    3    0  502 -0.10248923578E+04 -0.39003083629E+03 -0.52809261793E+03  0.12171319614E+04  0.25500000920E-02 0. -1.
</event>
<event>
 5   0  0.1385669E-05  0.2751495E+04  0.7818609E-02  0.8318487E-01
       -2   -1    0    0    0  501  0.00000000000E+00  0.00000000000E+00  0.11420982636E+04  0.11420982636E+04  0.25500000920E-02 0. -1.
        2   -1    0    0  501    0  0.00000000000E+00  0.00000000000E+00 -0.16571963253E+04  0.16571963253E+04  0.25500000920E-02 0.  1.
    10030    2    1    2    0    0  0.00000000000E+00  0.00000000000E+00 -0.51509806164E+03  0.27992945889E+04  0.27514948996E+04 0.  0.
        3    1    3    3  502    0  0.95596143398E+03  0.71945309870E+03 -0.94846840660E+03  0.15267833353E+04  0.10100000352E+00 0.  1.
       -3    1    3    3    0  502 -0.95596143398E+03 -0.71945309870E+03  0.43337034496E+03  0.12725112536E+04  0.10100000352E+00 0. -1.
</event>
<event>
 5   0  0.1307832E-05  0.1773872E+04  0.7818609E-02  0.8720319E-01
        2   -1    0    0  501    0  0.00000000000E+00  0.00000000000E+00  0.93694318328E+03  0.93694318328E+03  0.25500000920E-02 0.  1.
       -2   -1    0    0    0  501  0.00000000000E+00  0.00000000000E+00 -0.83959737843E+03  0.83959737843E+03  0.25500000920E-02 0. -1.
    10030    2    1    2    0    0  0.00000000000E+00  0.00000000000E+00  0.97345804853E+02  0.17765405617E+04  0.17738715178E+04 0.  0.
        4    1    3    3  502    0 -0.64670698220E+03  0.53435810483E+03 -0.23965769713E+03  0.87247116268E+03  0.12699999809E+01 0. -1.
       -4    1    3    3    0  502  0.64670698220E+03 -0.53435810483E+03  0.33700350198E+03  0.90406939903E+03  0.12699999809E+01 0.  1.
</event>
<event>
 5   0  0.1336899E-05  0.2899256E+04  0.7818609E-02  0.8273099E-01
        2   -1    0    0  501    0  0.00000000000E+00  0.00000000000E+00  0.17932947802E+04  0.17932947802E+04  0.25500000920E-02 0.  1.
       -2   -1    0    0    0  501  0.00000000000E+00  0.00000000000E+00 -0.11718215912E+04  0.11718215912E+04  0.25500000920E-02 0. -1.
    10030    2    1    2    0    0  0.00000000000E+00  0.00000000000E+00  0.62147318907E+03  0.29651163714E+04  0.28992561410E+04 0.  0.
        1    1    3    3  502    0  0.10959836772E+04  0.67102647325E+03  0.99676867480E+03  0.16263469924E+04  0.50400001928E-02 0.  1.
       -1    1    3    3    0  502 -0.10959836772E+04 -0.67102647325E+03 -0.37529548573E+03  0.13387693790E+04  0.50400001928E-02 0. -1.
</event>
<event>
 5   0  0.5059249E-06  0.2921246E+04  0.7818609E-02  0.8266584E-01
        1   -1    0    0  501    0  0.00000000000E+00  0.00000000000E+00  0.22748306447E+04  0.22748306447E+04  0.50400001928E-02 0.  1.
       -1   -1    0    0    0  501  0.00000000000E+00  0.00000000000E+00 -0.93783651715E+03  0.93783651716E+03  0.50400001928E-02 0. -1.
    10030    2    1    2    0    0  0.00000000000E+00  0.00000000000E+00  0.13369941276E+04  0.32126671619E+04  0.29212457952E+04 0.  0.
        1    1    3    3  502    0 -0.91600543589E+02  0.28687822581E+03 -0.90332384445E+03  0.95219942449E+03  0.50400001928E-02 0. -1.
       -1    1    3    3    0  502  0.91600543589E+02 -0.28687822581E+03  0.22403179720E+04  0.22604677374E+04  0.50400001928E-02 0.  1.
</event>
<event>
 5   0  0.5154476E-06  0.2906359E+04  0.7818609E-02  0.8270988E-01
       -1   -1    0    0    0  501  0.00000000000E+00  0.00000000000E+00  0.95219420409E+03  0.95219420410E+03  0.50400001928E-02 0.  1.
        1   -1    0    0  501    0  0.00000000000E+00  0.00000000000E+00 -0.22177516352E+04  0.22177516352E+04  0.50400001928E-02 0. -1.
    10030    2    1    2    0    0  0.00000000000E+00  0.00000000000E+00 -0.12655574311E+04  0.31699458393E+04  0.29063587206E+04 0.  0.
        3    1    3    3  502    0 -0.40035571614E+03 -0.80281755217E+03 -0.18796703452E+04  0.20827773137E+04  0.10100000352E+00 0. -1.
       -3    1    3    3    0  502  0.40035571614E+03  0.80281755217E+03  0.61411291414E+03  0.10871685256E+04  0.10100000352E+00 0.  1.
</event>
<event>
 5   0  0.5059249E-06  0.2800129E+04  0.7818609E-02  0.8303228E-01
       -1   -1    0    0    0  501  0.00000000000E+00  0.00000000000E+00  0.89753883376E+03  0.89753883377E+03  0.50400001928E-02 0. -1.
        1   -1    0    0  501    0  0.00000000000E+00  0.00000000000E+00 -0.21839504823E+04  0.21839504823E+04  0.50400001928E-02 0.  1.
    10030    2    1    2    0    0  0.00000000000E+00  0.00000000000E+00 -0.12864116486E+04  0.30814893161E+04  0.28001288320E+04 0.  0.
        1    1    3    3  502    0  0.98345853522E+03  0.90463285619E+03 -0.18332963036E+03  0.13487627843E+04  0.50400001928E-02 0. -1.
       -1    1    3    3    0  502 -0.98345853522E+03 -0.90463285619E+03 -0.11030820182E+04  0.17327265318E+04  0.50400001928E-02 0.  1.
</event>
<event>
 5   0  0.1307832E-05  0.2937244E+04  0.7818609E-02  0.8261882E-01
       -2   -1    0    0    0  501  0.00000000000E+00  0.00000000000E+00  0.10515559445E+04  0.10515559445E+04  0.25500000920E-02 0.  1.
        2   -1    0    0  501    0  0.00000000000E+00  0.00000000000E+00 -0.20511041612E+04  0.20511041612E+04  0.25500000920E-02 0. -1.
    10030    2    1    2    0    0  0.00000000000E+00  0.00000000000E+00 -0.99954821670E+03  0.31026601056E+04  0.29372441324E+04 0.  0.
        4    1    3    3  502    0 -0.43349110321E+02 -0.53662719241E+03  0.94355863285E+03  0.10863481926E+04  0.12699999809E+01 0.  1.
       -4    1    3    3    0  502  0.43349110321E+02  0.53662719241E+03 -0.19431068496E+04  0.20163119130E+04  0.12699999809E+01 0. -1.
</event>
<event>
 5   0  0.1382803E-05  0.2674887E+04  0.7818609E-02  0.8343199E-01
       -2   -1    0    0    0  501  0.00000000000E+00  0.00000000000E+00  0.12896912366E+04  0.12896912366E+04  0.25500000920E-02 0. -1.
        2   -1    0    0  501    0  0.00000000000E+00  0.00000000000E+00 -0.13869640172E+04  0.13869640172E+04  0.25500000920E-02 0.  1.
    10030    2    1    2    0    0  0.00000000000E+00  0.00000000000E+00 -0.97272780569E+02  0.26766552538E+04  0.26748871665E+04 0.  0.
        2    1    3    3  502    0  0.67059755126E+03 -0.41921464622E+03 -0.11279193653E+04  0.13775500317E+04  0.25500000920E-02 0.  1.
       -2    1    3    3    0  502 -0.67059755126E+03  0.41921464622E+03  0.10306465847E+04  0.12991052220E+04  0.25500000920E-02 0. -1.
</event>
<event>
 5   0  0.1382803E-05  0.2102134E+04  0.7818609E-02  0.8560304E-01
        2   -1    0    0  501    0  0.00000000000E+00  0.00000000000E+00  0.77760963815E+03  0.77760963816E+03  0.25500000920E-02 0. -1.
       -2   -1    0    0    0  501  0.00000000000E+00  0.00000000000E+00 -0.14206888834E+04  0.14206888834E+04  0.25500000920E-02 0.  1.
    10030    2    1    2    0    0  0.00000000000E+00  0.00000000000E+00 -0.64307924524E+03  0.21982985215E+04  0.21021335529E+04 0.  0.
        2    1    3    3  502    0  0.85457492233E+03 -0.55082863190E+02  0.31577303698E+03  0.91271300560E+03  0.25500000920E-02 0. -1.
       -2    1    3    3    0  502 -0.85457492233E+03  0.55082863190E+02 -0.95885228222E+03  0.12855855159E+04  0.25500000920E-02 0.  1.
</event>
<event>
 5   0  0.1336899E-05  0.2492416E+04  0.7818609E-02  0.8405692E-01
       -2   -1    0    0    0  501  0.00000000000E+00  0.00000000000E+00  0.79050040016E+03  0.79050040017E+03  0.25500000920E-02 0. -1.
        2   -1    0    0  501    0  0.00000000000E+00  0.00000000000E+00 -0.19646215519E+04  0.19646215519E+04  0.25500000920E-02 0.  1.
    10030    2    1    2    0    0  0.00000000000E+00  0.00000000000E+00 -0.11741211517E+04  0.27551219520E+04  0.24924157943E+04 0.  0.
        1    1    3    3  502    0  0.99349132580E+03 -0.73555874797E+03 -0.76170865817E+03  0.14519889001E+04  0.50400001928E-02 0.  1.
       -1    1    3    3    0  502 -0.99349132580E+03  0.73555874797E+03 -0.41241249354E+03  0.13031330519E+04  0.50400001928E-02 0. -1.
</event>
<event>
 5   0  0.1339837E-05  0.2845494E+04  0.7818609E-02  0.8289282E-01
        2   -1    0    0  501    0  0.00000000000E+00  0.00000000000E+00  0.25926261365E+04  0.25926261365E+04  0.25500000920E-02 0. -1.
       -2   -1    0    0    0  501  0.00000000000E+00  0.00000000000E+00 -0.78075643864E+03  0.78075643865E+03  0.25500000920E-02 0.  1.
    10030    2    1    2    0    0  0.00000000000E+00  0.00000000000E+00  0.18118696979E+04  0.33733825752E+04  0.28454943676E+04 0.  0.
        5    1    3    3  502    0  0.67411438237E+03 -0.88814468991E+03 -0.14172723008E+03  0.11239839360E+04  0.46999998093E+01 0.  1.
       -5    1    3    3    0  502 -0.67411438237E+03  0.88814468991E+03  0.19535969280E+04  0.22493986391E+04  0.46999998093E+01 0. -1.
</event>
<event>
 5   0  0.5352212E-06  0.2640046E+04  0.7818609E-02  0.8354724E-01
        1   -1    0    0  501    0  0.00000000000E+00  0.00000000000E+00  0.20650606460E+04  0.20650606460E+04  0.50400001928E-02 0. -1.
       -1   -1    0    0    0  501  0.00000000000E+00  0.00000000000E+00 -0.84378202330E+03  0.84378202332E+03  0.50400001928E-02 0.  1.
    10030    2    1    2    0    0  0.00000000000E+00  0.00000000000E+00  0.12212786227E+04  0.29088426693E+04  0.26400462497E+04 0.  0.
        2    1    3    3  502    0  0.17037883853E+03 -0.12839614170E+04  0.33000033436E+03  0.13365949610E+04  0.25500000920E-02 0. -1.
       -2    1    3    3    0  502 -0.17037883853E+03  0.12839614170E+04  0.89127828831E+03  0.15722477083E+04  0.25500000920E-02 0.  1.
</event>
<event>
 5   0  0.5154476E-06  0.2578605E+04  0.7818609E-02  0.8375505E-01
       -1   -1    0    0    0  501  0.00000000000E+00  0.00000000000E+00  0.88244684341E+03  0.88244684342E+03  0.50400001928E-02 0.  1.
        1   -1    0    0  501    0  0.00000000000E+00  0.00000000000E+00 -0.18837407455E+04  0.18837407455E+04  0.50400001928E-02 0. -1.
    10030    2    1    2    0    0  0.00000000000E+00  0.00000000000E+00 -0.10012939021E+04  0.27661875889E+04  0.25786051072E+04 0.  0.
        3    1    3    3  502    0 -0.11299669659E+04  0.36713140463E+03  0.36465863091E+02  0.11886717720E+04  0.10100000352E+00 0.  1.
       -3    1    3    3    0  502  0.11299669659E+04 -0.36713140463E+03 -0.10377597652E+04  0.15775158169E+04  0.10100000352E+00 0. -1.
</event>
<event>
 5   0  0.5059249E-06  0.2891071E+04  0.7818609E-02  0.8275539E-01
       -1   -1    0    0    0  501  0.00000000000E+00  0.00000000000E+00  0.14167200581E+04  0.14167200581E+04  0.50400001928E-02 0. -1.
        1   -1    0    0  501    0  0.00000000000E+00  0.00000000000E+00 -0.14749366413E+04  0.14749366413E+04  0.50400001928E-02 0.  1.
    10030    2    1    2    0    0  0.00000000000E+00  0.00000000000E+00 -0.58216583253E+02  0.28916566994E+04  0.28910706142E+04 0.  0.
        1    1    3    3  502    0 -0.87370713335E+02  0.90408756808E+03  0.10956481776E+04  0.14231840715E+04  0.50400001928E-02 0. -1.
       -1    1    3    3    0  502  0.87370713335E+02 -0.90408756808E+03 -0.11538647609E+04  0.14684726278E+04  0.50400001928E-02 0.  1.
</event>
<event>
 5   0  0.5352212E-06  0.2887916E+04  0.7818609E-02  0.8276482E-01
        1   -1    0    0  501    0  0.00000000000E+00  0.00000000000E+00  0.11737711740E+04  0.11737711740E+04  0.50400001928E-02 0. -1.
       -1   -1    0    0    0  501  0.00000000000E+00  0.00000000000E+00 -0.17763380929E+04  0.17763380929E+04  0.50400001928E-02 0.  1.
    10030    2    1    2    0    0  0.00000000000E+00  0.00000000000E+00 -0.60256691889E+03  0.29501092668E+04  0.28879158219E+04 0.  0.
        2    1    3    3  502    0  0.10475844323E+04  0.99185730989E+03 -0.36425832356E+03  0.14879174010E+04  0.25500000920E-02 0. -1.
       -2    1    3    3    0  502 -0.10475844323E+04 -0.99185730989E+03 -0.23830859533E+03  0.14621918658E+04  0.25500000920E-02 0.  1.
</event>
<event>
 5   0  0.1385669E-05  0.2924689E+04  0.7818609E-02  0.8265569E-01
        2   -1    0    0  501    0  0.00000000000E+00  0.00000000000E+00  0.15042585544E+04  0.15042585544E+04  0.25500000920E-02 0.  1.
       -2   -1    0    0    0  501  0.00000000000E+00  0.00000000000E+00 -0.14215987749E+04  0.14215987749E+04  0.25500000920E-02 0. -1.
    10030    2    1    2    0    0  0.00000000000E+00  0.00000000000E+00  0.82659779482E+02  0.29258573293E+04  0.29246894659E+04 0.  0.
        3    1    3    3  502    0 -0.48093763546E+03  0.12689570079E+04  0.58643205340E+03  0.14783286037E+04  0.10100000352E+00 0.  1.
       -3    1    3    3    0  502  0.48093763546E+03 -0.12689570079E+04 -0.50377227392E+03  0.14475287256E+04  0.10100000352E+00 0. -1.
</event>
<event>
 5   0  0.5352212E-06  0.2882878E+04  0.7818609E-02  0.8277990E-01
       -1   -1    0    0    0  501  0.00000000000E+00  0.00000000000E+00  0.17956149678E+04  0.17956149678E+04  0.50400001928E-02 0.  1.
        1   -1    0    0  501    0  0.00000000000E+00  0.00000000000E+00 -0.11571224803E+04  0.11571224803E+04  0.50400001928E-02 0. -1.
    10030    2    1    2    0    0  0.00000000000E+00  0.00000000000E+00  0.63849248748E+03  0.29527374481E+04  0.28828780378E+04 0.  0.
        2    1    3    3  502    0 -0.10010494844E+04 -0.40840210728E+03  0.12956864331E+04  0.16875116842E+04  0.25500000920E-02 0.  1.
       -2    1    3    3    0  502  0.10010494844E+04  0.40840210728E+03 -0.65719394563E+03  0.12652257639E+04  0.25500000920E-02 0. -1.
</event>
<event>
 5   0  0.1339837E-05  0.2906241E+04  0.7818609E-02  0.8271023E-01
       -2   -1    0    0    0  501  0.00000000000E+00  0.00000000000E+00  0.10142995967E+04  0.10142995967E+04  0.25500000920E-02 0.  1.
        2   -1    0    0  501    0  0.00000000000E+00  0.00000000000E+00 -0.20817900442E+04  0.20817900442E+04  0.25500000920E-02 0. -1.
    10030    2    1    2    0    0  0.00000000000E+00  0.00000000000E+00 -0.10674904476E+04  0.30960896409E+04  0.29062407348E+04 0.  0.
        5    1    3    3  502    0  0.81735053578E+03  0.90083626446E+03 -0.13806406215E+04  0.18400430673E+04  0.46999998093E+01 0.  1.
       -5    1    3    3    0  502 -0.81735053578E+03 -0.90083626446E+03  0.31315017390E+03  0.12560465736E+04  0.46999998093E+01 0. -1.
</event>
<event>
 5   0  0.1307832E-05  0.2872701E+04  0.7818609E-02  0.8281046E-01
        2   -1    0    0  501    0  0.00000000000E+00  0.00000000000E+00  0.28794964616E+04  0.28794964616E+04  0.25500000920E-02 0.  1.
       -2   -1    0    0    0  501  0.00000000000E+00  0.00000000000E+00 -0.71648025454E+03  0.71648025454E+03  0.25500000920E-02 0. -1.
    10030    2    1    2    0    0  0.00000000000E+00  0.00000000000E+00  0.21630162070E+04  0.35959767161E+04  0.28727007207E+04 0.  0.
        4    1    3    3  502    0 -0.24859661206E+03 -0.44059462926E+03 -0.60126985166E+03  0.78578047206E+03  0.12699999809E+01 0. -1.
       -4    1    3    3    0  502  0.24859661206E+03  0.44059462926E+03  0.27642860587E+04  0.28101962441E+04  0.12699999809E+01 0.  1.
</event>
<event>
 5   0  0.5261878E-06  0.2917350E+04  0.7818609E-02  0.8267734E-01
        1   -1    0    0  501    0  0.00000000000E+00  0.00000000000E+00  0.20287441246E+04  0.20287441246E+04  0.50400001928E-02 0. -1.
       -1   -1    0    0    0  501  0.00000000000E+00  0.00000000000E+00 -0.10487930063E+04  0.10487930063E+04  0.50400001928E-02 0.  1.
    10030    2    1    2    0    0  0.00000000000E+00  0.00000000000E+00  0.97995111824E+03  0.30775371309E+04  0.29173499272E+04 0.  0.
        5    1    3    3  502    0  0.24174210277E+03  0.26968085624E+03 -0.10006006008E+04  0.10641384594E+04  0.46999998093E+01 0.  1.
       -5    1    3    3    0  502 -0.24174210277E+03 -0.26968085624E+03  0.19805517191E+04  0.20133986715E+04  0.46999998093E+01 0. -1.
</event>
<event>
 5   0  0.5154476E-06  0.2969663E+04  0.7818609E-02  0.8252447E-01
       -1   -1    0    0    0  501  0.00000000000E+00  0.00000000000E+00  0.23201195510E+04  0.23201195511E+04  0.50400001928E-02 0.  1.
        1   -1    0    0  501    0  0.00000000000E+00  0.00000000000E+00 -0.95026313103E+03  0.95026313105E+03  0.50400001928E-02 0. -1.
    10030    2    1    2    0    0  0.00000000000E+00  0.00000000000E+00  0.13698564200E+04  0.32703826821E+04  0.29696626536E+04 0.  0.
        3    1    3    3  502    0  0.45549311596E+03 -0.87322217844E+03 -0.53878036584E+03  0.11226198129E+04  0.10100000352E+00 0. -1.
       -3    1    3    3    0  502 -0.45549311596E+03  0.87322217844E+03  0.19086367859E+04  0.21477628692E+04  0.10100000352E+00 0.  1.
</event>
<event>
 5   0  0.5002240E-06  0.3232459E+04  0.7818609E-02  0.8180297E-01
        1   -1    0    0  501    0  0.00000000000E+00  0.00000000000E+00  0.18659995033E+04  0.18659995033E+04  0.50400001928E-02 0. -1.
       -1   -1    0    0    0  501  0.00000000000E+00  0.00000000000E+00 -0.13998917790E+04  0.13998917790E+04  0.50400001928E-02 0.  1.
    10030    2    1    2    0    0  0.00000000000E+00  0.00000000000E+00  0.46610772435E+03  0.32658912823E+04  0.32324587325E+04 0.  0.
        4    1    3    3  502    0 -0.15103625862E+04 -0.43613518371E+03 -0.14604245558E+03  0.15788410471E+04  0.12699999809E+01 0.  1.
       -4    1    3    3    0  502  0.15103625862E+04  0.43613518371E+03  0.61215017994E+03  0.16870502352E+04  0.12699999809E+01 0. -1.
</event>
<event>
 5   0  0.5261878E-06  0.3314587E+04  0.7818609E-02  0.8159193E-01
        1   -1    0    0  501    0  0.00000000000E+00  0.00000000000E+00  0.16855598878E+04  0.16855598878E+04  0.50400001928E-02 0. -1.
       -1   -1    0    0    0  501  0.00000000000E+00  0.00000000000E+00 -0.16295016215E+04  0.16295016216E+04  0.50400001928E-02 0.  1.
    10030    2    1    2    0    0  0.00000000000E+00  0.00000000000E+00  0.56058266260E+02  0.33150615094E+04  0.33145874980E+04 0.  0.
        5    1    3    3  502    0 -0.15609033873E+04 -0.29369391039E+03 -0.44524566403E+03  0.16495275956E+04  0.46999998093E+01 0.  1.
       -5    1    3    3    0  502  0.15609033873E+04  0.29369391039E+03  0.50130393029E+03  0.16655339138E+04  0.46999998093E+01 0. -1.
</event>
<event>
 5   0  0.1382803E-05  0.2964274E+04  0.7818609E-02  0.8254007E-01
        2   -1    0    0  501    0  0.00000000000E+00  0.00000000000E+00  0.11237947273E+04  0.11237947273E+04  0.25500000920E-02 0. -1.
       -2   -1    0    0    0  501  0.00000000000E+00  0.00000000000E+00 -0.19547438008E+04  0.19547438008E+04  0.25500000920E-02 0.  1.
    10030    2    1    2    0    0  0.00000000000E+00  0.00000000000E+00 -0.83094907344E+03  0.30785385281E+04  0.29642744654E+04 0.  0.
        2    1    3    3  502    0 -0.14410455571E+04 -0.48936912883E+02 -0.77180918501E+03  0.16354499495E+04  0.25500000920E-02 0. -1.
       -2    1    3    3    0  502  0.14410455571E+04  0.48936912883E+02 -0.59139888433E+02  0.14430885786E+04  0.25500000920E-02 0.  1.
</event>
<event>
 5   0  0.5352212E-06  0.2204318E+04  0.7818609E-02  0.8516633E-01
        1   -1    0    0  501    0  0.00000000000E+00  0.00000000000E+00  0.10422423571E+04  0.10422423571E+04  0.50400001928E-02 0.  1.
       -1   -1    0    0    0  501  0.00000000000E+00  0.00000000000E+00 -0.11655203052E+04  0.11655203052E+04  0.50400001928E-02 0. -1.
    10030    2    1    2    0    0  0.00000000000E+00  0.00000000000E+00 -0.12327794810E+03  0.22077626622E+04  0.22043181532E+04 0.  0.
        2    1    3    3  502    0  0.87427982752E+03  0.13201916336E+03  0.59738645412E+03  0.10670824016E+04  0.25500000920E-02 0.  1.
       -2    1    3    3    0  502 -0.87427982752E+03 -0.13201916336E+03 -0.72066440223E+03  0.11406802606E+04  0.25500000920E-02 0. -1.
</event>
<event>
 5   0  0.1339837E-05  0.2635585E+04  0.7818609E-02  0.8356213E-01
       -2   -1    0    0    0  501  0.00000000000E+00  0.00000000000E+00  0.14270863677E+04  0.14270863677E+04  0.25500000920E-02 0.  1.
        2   -1    0    0  501    0  0.00000000000E+00  0.00000000000E+00 -0.12168686060E+04  0.12168686060E+04  0.25500000920E-02 0. -1.
    10030    2    1    2    0    0  0.00000000000E+00  0.00000000000E+00  0.21021776175E+03  0.26439549737E+04  0.26355846402E+04 0.  0.
        5    1    3    3  502    0  0.70869375759E+03  0.10351827752E+04  0.50975612536E+03  0.13541505151E+04  0.46999998093E+01 0.  1.
       -5    1    3    3    0  502 -0.70869375759E+03 -0.10351827752E+04 -0.29953836361E+03  0.12898044586E+04  0.46999998093E+01 0. -1.
</event>
<event>
 5   0  0.5059249E-06  0.2813692E+04  0.7818609E-02  0.8299030E-01
       -1   -1    0    0    0  501  0.00000000000E+00  0.00000000000E+00  0.66775844912E+03  0.66775844914E+03  0.50400001928E-02 0. -1.
        1   -1    0    0  501    0  0.00000000000E+00  0.00000000000E+00 -0.29639694835E+04  0.29639694835E+04  0.50400001928E-02 0.  1.
    10030    2    1    2    0    0  0.00000000000E+00  0.00000000000E+00 -0.22962110344E+04  0.36317279326E+04  0.28136919985E+04 0.  0.
        1    1    3    3  502    0  0.73364506419E+03 -0.49026856998E+03 -0.25623974101E+04  0.27100698954E+04  0.50400001928E-02 0.  1.
       -1    1    3    3    0  502 -0.73364506419E+03  0.49026856998E+03  0.26618637571E+03  0.92165803721E+03  0.50400001928E-02 0. -1.
</event>
<event>
 5   0  0.1385669E-05  0.2804102E+04  0.7818609E-02  0.8301996E-01
       -2   -1    0    0    0  501  0.00000000000E+00  0.00000000000E+00  0.76549007383E+03  0.76549007384E+03  0.25500000920E-02 0. -1.
        2   -1    0    0  501    0  0.00000000000E+00  0.00000000000E+00 -0.25679588655E+04  0.25679588655E+04  0.25500000920E-02 0.  1.
    10030    2    1    2    0    0  0.00000000000E+00  0.00000000000E+00 -0.18024687917E+04  0.33334489393E+04  0.28041020107E+04 0.  0.
        3    1    3    3  502    0 -0.13067712399E+04 -0.50734869268E+03 -0.93253425625E+03  0.16836489892E+04  0.10100000352E+00 0. -1.
       -3    1    3    3    0  502  0.13067712399E+04  0.50734869268E+03 -0.86993453542E+03  0.16497999502E+04  0.10100000352E+00 0.  1.
</event>
<event>
 5   0  0.1339837E-05  0.2911319E+04  0.7818609E-02  0.8269518E-01
       -2   -1    0    0    0  501  0.00000000000E+00  0.00000000000E+00  0.91846807951E+03  0.91846807952E+03  0.25500000920E-02 0.  1.
        2   -1    0    0  501    0  0.00000000000E+00  0.00000000000E+00 -0.23070429406E+04  0.23070429406E+04  0.25500000920E-02 0. -1.
    10030    2    1    2    0    0  0.00000000000E+00  0.00000000000E+00 -0.13885748611E+04  0.32255110202E+04  0.29113194940E+04 0.  0.
        5    1    3    3  502    0  0.14298286490E+03 -0.14319337852E+04 -0.93713379392E+03  0.17173002948E+04  0.46999998093E+01 0. -1.
       -5    1    3    3    0  502 -0.14298286490E+03  0.14319337852E+04 -0.45144106720E+03  0.15082107253E+04  0.46999998093E+01 0.  1.
</event>
<event>
 5   0  0.1339837E-05  0.2875367E+04  0.7818609E-02  0.8280245E-01
       -2   -1    0    0    0  501  0.00000000000E+00  0.00000000000E+00  0.14430380878E+04  0.14430380878E+04  0.25500000920E-02 0.  1.
        2   -1    0    0  501    0  0.00000000000E+00  0.00000000000E+00 -0.14323484593E+04  0.14323484593E+04  0.25500000920E-02 0. -1.
    10030    2    1    2    0    0  0.00000000000E+00  0.00000000000E+00  0.10689628478E+02  0.28753865470E+04  0.28753666769E+04 0.  0.
        5    1    3    3  502    0 -0.43313223694E+03 -0.47823586525E+03 -0.12794201554E+04  0.14329169904E+04  0.46999998093E+01 0. -1.
       -5    1    3    3    0  502  0.43313223694E+03  0.47823586525E+03  0.12901097838E+04  0.14424695566E+04  0.46999998093E+01 0.  1.
</event>
<event>
 5   0  0.1385669E-05  0.2706663E+04  0.7818609E-02  0.8332846E-01
        2   -1    0    0  501    0  0.00000000000E+00  0.00000000000E+00  0.74818478921E+03  0.74818478922E+03  0.25500000920E-02 0.  1.
       -2   -1    0    0    0  501  0.00000000000E+00  0.00000000000E+00 -0.24479323911E+04  0.24479323911E+04  0.25500000920E-02 0. -1.
    10030    2    1    2    0    0  0.00000000000E+00  0.00000000000E+00 -0.16997476019E+04  0.31961171803E+04  0.27066627274E+04 0.  0.
        3    1    3    3  502    0 -0.12882136664E+04 -0.26244246450E+03 -0.47065299113E+03  0.13963827361E+04  0.10100000352E+00 0.  1.
       -3    1    3    3    0  502  0.12882136664E+04  0.26244246450E+03 -0.12290946107E+04  0.17997344442E+04  0.10100000352E+00 0. -1.
</event>
<event>
 5   0  0.5059249E-06  0.3000445E+04  0.7818609E-02  0.8243604E-01
       -1   -1    0    0    0  501  0.00000000000E+00  0.00000000000E+00  0.16819217589E+04  0.16819217589E+04  0.50400001928E-02 0.  1.
        1   -1    0    0  501    0  0.00000000000E+00  0.00000000000E+00 -0.13381520800E+04  0.13381520800E+04  0.50400001928E-02 0. -1.
    10030    2    1    2    0    0  0.00000000000E+00  0.00000000000E+00  0.34376967888E+03  0.30200738389E+04  0.30004447004E+04 0.  0.
        1    1    3    3  502    0  0.48597538234E+03 -0.89423106697E+03  0.12812959666E+04  0.16363192315E+04  0.50400001928E-02 0.  1.
       -1    1    3    3    0  502 -0.48597538234E+03  0.89423106697E+03 -0.93752628770E+03  0.13837546074E+04  0.50400001928E-02 0. -1.
</event>
<event>
 5   0  0.5352212E-06  0.2170330E+04  0.7818609E-02  0.8530880E-01
       -1   -1    0    0    0  501  0.00000000000E+00  0.00000000000E+00  0.10661256765E+04  0.10661256765E+04  0.50400001928E-02 0.  1.
        1   -1    0    0  501    0  0.00000000000E+00  0.00000000000E+00 -0.11045447554E+04  0.11045447554E+04  0.50400001928E-02 0. -1.
    10030    2    1    2    0    0  0.00000000000E+00  0.00000000000E+00 -0.38419078897E+02  0.21706704319E+04  0.21703304123E+04 0.  0.
        2    1    3    3  502    0 -0.10785982388E+03 -0.33684995748E+03  0.10068565860E+04  0.10671746906E+04  0.25500000920E-02 0.  1.
       -2    1    3    3    0  502  0.10785982388E+03  0.33684995748E+03 -0.10452756649E+04  0.11034957413E+04  0.25500000920E-02 0. -1.
</event>
<event>
 5   0  0.5261878E-06  0.2893539E+04  0.7818609E-02  0.8274802E-01
        1   -1    0    0  501    0  0.00000000000E+00  0.00000000000E+00  0.15210425885E+04  0.15210425885E+04  0.50400001928E-02 0. -1.
       -1   -1    0    0    0  501  0.00000000000E+00  0.00000000000E+00 -0.13761233428E+04  0.13761233428E+04  0.50400001928E-02 0.  1.
    10030    2    1    2    0    0  0.00000000000E+00  0.00000000000E+00  0.14491924566E+03  0.28971659313E+04  0.28935391557E+04 0.  0.
        5    1    3    3  502    0  0.39162501910E+03  0.13434686856E+04  0.44012807573E+03  0.14669741231E+04  0.46999998093E+01 0. -1.
       -5    1    3    3    0  502 -0.39162501910E+03 -0.13434686856E+04 -0.29520883007E+03  0.14301918082E+04  0.46999998093E+01 0.  1.
</event>
<event>
 5   0  0.1382803E-05  0.2907725E+04  0.7818609E-02  0.8270583E-01
        2   -1    0    0  501    0  0.00000000000E+00  0.00000000000E+00  0.26127262910E+04  0.26127262910E+04  0.25500000920E-02 0.  1.
       -2   -1    0    0    0  501  0.00000000000E+00  0.00000000000E+00 -0.80900771364E+03  0.80900771364E+03  0.25500000920E-02 0. -1.
    10030    2    1    2    0    0  0.00000000000E+00  0.00000000000E+00  0.18037185774E+04  0.34217340047E+04  0.29077246933E+04 0.  0.
        2    1    3    3  502    0 -0.83852809436E+01 -0.73543661528E+03 -0.57393806914E+03  0.93292134462E+03  0.25500000920E-02 0. -1.
       -2    1    3    3    0  502  0.83852809436E+01  0.73543661528E+03  0.23776566465E+04  0.24888126600E+04  0.25500000920E-02 0.  1.
</event>
<event>
 5   0  0.5154476E-06  0.2836435E+04  0.7818609E-02  0.8292045E-01
       -1   -1    0    0    0  501  0.00000000000E+00  0.00000000000E+00  0.89577130632E+03  0.89577130633E+03  0.50400001928E-02 0.  1.
        1   -1    0    0  501    0  0.00000000000E+00  0.00000000000E+00 -0.22453736158E+04  0.22453736159E+04  0.50400001928E-02 0. -1.
    10030    2    1    2    0    0  0.00000000000E+00  0.00000000000E+00 -0.13496023095E+04  0.31411449222E+04  0.28364352678E+04 0.  0.
        3    1    3    3  502    0 -0.74285143020E+03 -0.74813611256E+02 -0.20101192785E+04  0.21442958863E+04  0.10100000352E+00 0. -1.
       -3    1    3    3    0  502  0.74285143020E+03  0.74813611256E+02  0.66051696902E+03  0.99684903589E+03  0.10100000352E+00 0.  1.
</event>
<event>
 5   0  0.5002240E-06  0.2002069E+04  0.7818609E-02  0.8605654E-01
       -1   -1    0    0    0  501  0.00000000000E+00  0.00000000000E+00  0.11172676009E+04  0.11172676009E+04  0.50400001928E-02 0.  1.
        1   -1    0    0  501    0  0.00000000000E+00  0.00000000000E+00 -0.89689354671E+03  0.89689354673E+03  0.50400001928E-02 0. -1.
    10030    2    1    2    0    0  0.00000000000E+00  0.00000000000E+00  0.22037405415E+03  0.20141611476E+04  0.20020690310E+04 0.  0.
        4    1    3    3  502    0  0.20507175916E+03 -0.83547536968E+03 -0.40475891730E+03  0.95073914076E+03  0.12699999809E+01 0. -1.
       -4    1    3    3    0  502 -0.20507175916E+03  0.83547536968E+03  0.62513297145E+03  0.10634220068E+04  0.12699999809E+01 0.  1.
</event>
<event>
 5   0  0.1307832E-05  0.2874859E+04  0.7818609E-02  0.8280397E-01
        2   -1    0    0  501    0  0.00000000000E+00  0.00000000000E+00  0.20207712870E+04  0.20207712870E+04  0.25500000920E-02 0.  1.
       -2   -1    0    0    0  501  0.00000000000E+00  0.00000000000E+00 -0.10224827767E+04  0.10224827767E+04  0.25500000920E-02 0. -1.
    10030    2    1    2    0    0  0.00000000000E+00  0.00000000000E+00  0.99828851026E+03  0.30432540637E+04  0.28748591873E+04 0.  0.
        4    1    3    3  502    0 -0.87436625603E+03  0.47339889005E+03  0.15980141269E+04  0.18820928833E+04  0.12699999809E+01 0.  1.
       -4    1    3    3    0  502  0.87436625603E+03 -0.47339889005E+03 -0.59972561664E+03  0.11611611804E+04  0.12699999809E+01 0. -1.
</event>
<event>
 5   0  0.5002240E-06  0.2924978E+04  0.7818609E-02  0.8265484E-01
       -1   -1    0    0    0  501  0.00000000000E+00  0.00000000000E+00  0.12569199181E+04  0.12569199181E+04  0.50400001928E-02 0. -1.
        1   -1    0    0  501    0  0.00000000000E+00  0.00000000000E+00 -0.17016792406E+04  0.17016792406E+04  0.50400001928E-02 0.  1.
    10030    2    1    2    0    0  0.00000000000E+00  0.00000000000E+00 -0.44475932250E+03  0.29585991587E+04  0.29249783122E+04 0.  0.
        4    1    3    3  502    0 -0.55390082862E+03  0.13527300349E+04 -0.17506330353E+03  0.14721866214E+04  0.12699999809E+01 0.  1.
       -4    1    3    3    0  502  0.55390082862E+03 -0.13527300349E+04 -0.26969601897E+03  0.14864125372E+04  0.12699999809E+01 0. -1.
</event>
<event>
 5   0  0.5002240E-06  0.2929350E+04  0.7818609E-02  0.8264198E-01
       -1   -1    0    0    0  501  0.00000000000E+00  0.00000000000E+00  0.15107699838E+04  0.15107699838E+04  0.50400001928E-02 0. -1.
        1   -1    0    0  501    0  0.00000000000E+00  0.00000000000E+00 -0.14199860583E+04  0.14199860583E+04  0.50400001928E-02 0.  1.
    10030    2    1    2    0    0  0.00000000000E+00  0.00000000000E+00  0.90783925503E+02  0.29307560422E+04  0.29293496305E+04 0.  0.
        4    1    3    3  502    0  0.75848726643E+03  0.74683708224E+03  0.10519575651E+04  0.14965576810E+04  0.12699999809E+01 0. -1.
       -4    1    3    3    0  502 -0.75848726643E+03 -0.74683708224E+03 -0.96117363963E+03  0.14341983612E+04  0.12699999809E+01 0.  1.
</event>
<event>
 5   0  0.5059249E-06  0.2959747E+04  0.7818609E-02  0.8255320E-01
        1   -1    0    0  501    0  0.00000000000E+00  0.00000000000E+00  0.25479097649E+04  0.25479097649E+04  0.50400001928E-02 0.  1.
       -1   -1    0    0    0  501  0.00000000000E+00  0.00000000000E+00 -0.85953838138E+03  0.85953838139E+03  0.50400001928E-02 0. -1.
    10030    2    1    2    0    0  0.00000000000E+00  0.00000000000E+00  0.16883713835E+04  0.34074481463E+04  0.29597474455E+04 0.  0.
        1    1    3    3  502    0  0.14084131406E+04  0.40235251823E+02  0.32320918108E+03  0.14455831435E+04  0.50400001928E-02 0. -1.
       -1    1    3    3    0  502 -0.14084131406E+04 -0.40235251823E+02  0.13651622024E+04  0.19618650027E+04  0.50400001928E-02 0.  1.
</event>
<event>
 5   0  0.1336899E-05  0.2855298E+04  0.7818609E-02  0.8286303E-01
        2   -1    0    0  501    0  0.00000000000E+00  0.00000000000E+00  0.21694039685E+04  0.21694039685E+04  0.25500000920E-02 0. -1.
       -2   -1    0    0    0  501  0.00000000000E+00  0.00000000000E+00 -0.93951224436E+03  0.93951224436E+03  0.25500000920E-02 0.  1.
    10030    2    1    2    0    0  0.00000000000E+00  0.00000000000E+00  0.12298917241E+04  0.31089162129E+04  0.28552979469E+04 0.  0.
        1    1    3    3  502    0 -0.82637217642E+03 -0.88337982152E+03 -0.21064587488E+03  0.12278528282E+04  0.50400001928E-02 0.  1.
       -1    1    3    3    0  502  0.82637217642E+03  0.88337982152E+03  0.14405375990E+04  0.18810633847E+04  0.50400001928E-02 0. -1.
</event>
<event>
 5   0  0.5154476E-06  0.2909399E+04  0.7818609E-02  0.8270087E-01
        1   -1    0    0  501    0  0.00000000000E+00  0.00000000000E+00  0.19862426846E+04  0.19862426846E+04  0.50400001928E-02 0.  1.
       -1   -1    0    0    0  501  0.00000000000E+00  0.00000000000E+00 -0.10654038368E+04  0.10654038368E+04  0.50400001928E-02 0. -1.
    10030    2    1    2    0    0  0.00000000000E+00  0.00000000000E+00  0.92083884773E+03  0.30516465214E+04  0.29093989599E+04 0.  0.
        3    1    3    3  502    0  0.11188033358E+04 -0.59772426392E+03  0.12073865010E+04  0.17512216801E+04  0.10100000352E+00 0.  1.
       -3    1    3    3    0  502 -0.11188033358E+04  0.59772426392E+03 -0.28654765326E+03  0.13004248413E+04  0.10100000352E+00 0. -1.
</event>
<event>
 5   0  0.1382803E-05  0.2888881E+04  0.7818609E-02  0.8276193E-01
       -2   -1    0    0    0  501  0.00000000000E+00  0.00000000000E+00  0.19281852418E+04  0.19281852418E+04  0.25500000920E-02 0. -1.
        2   -1    0    0  501    0  0.00000000000E+00  0.00000000000E+00 -0.10820582845E+04  0.10820582845E+04  0.25500000920E-02 0.  1.
    10030    2    1    2    0    0  0.00000000000E+00  0.00000000000E+00  0.84612695731E+03  0.30102435262E+04  0.28888813162E+04 0.  0.
        2    1    3    3  502    0 -0.19167478480E+02  0.53918819467E+03 -0.97312022535E+03  0.11126788730E+04  0.25500000920E-02 0.  1.
       -2    1    3    3    0  502  0.19167478480E+02 -0.53918819467E+03  0.18192471827E+04  0.18975646532E+04  0.25500000920E-02 0. -1.
</event>
<event>
 5   0  0.1385669E-05  0.2921132E+04  0.7818609E-02  0.8266618E-01
        2   -1    0    0  501    0  0.00000000000E+00  0.00000000000E+00  0.20333597930E+04  0.20333597930E+04  0.25500000920E-02 0.  1.
       -2   -1    0    0    0  501  0.00000000000E+00  0.00000000000E+00 -0.10491274106E+04  0.10491274106E+04  0.25500000920E-02 0. -1.
    10030    2    1    2    0    0  0.00000000000E+00  0.00000000000E+00  0.98423238233E+03  0.30824872036E+04  0.29211323109E+04 0.  0.
        3    1    3    3  502    0  0.54556682009E+03  0.54986272489E+03 -0.81453040879E+03  0.11240337933E+04  0.10100000352E+00 0. -1.
       -3    1    3    3    0  502 -0.54556682009E+03 -0.54986272489E+03  0.17987627911E+04  0.19584534103E+04  0.10100000352E+00 0.  1.
</event>
<event>
 5   0  0.4590125E-06  0.2807876E+04  0.7818609E-02  0.8300827E-01
        3   -1    0    0  501    0  0.00000000000E+00  0.00000000000E+00  0.23748778242E+04  0.23748778264E+04  0.10100000352E+00 0. -1.
       -3   -1    0    0    0  501  0.00000000000E+00  0.00000000000E+00 -0.82995488291E+03  0.82995488905E+03  0.10100000352E+00 0.  1.
    10030    2    1    2    0    0  0.00000000000E+00  0.00000000000E+00  0.15449229413E+04  0.32048327154E+04  0.28078756809E+04 0.  0.
        2    1    3    3  502    0 -0.18345886093E+03 -0.10300247280E+03 -0.81185876163E+03  0.83867831252E+03  0.25500000920E-02 0.  1.
       -2    1    3    3    0  502  0.18345886093E+03  0.10300247280E+03  0.23567817029E+04  0.23661544029E+04  0.25500000920E-02 0. -1.
</event>
<event>
 5   0  0.5261878E-06  0.2900053E+04  0.7818609E-02  0.8272862E-01
       -1   -1    0    0    0  501  0.00000000000E+00  0.00000000000E+00  0.12046308699E+04  0.12046308699E+04  0.50400001928E-02 0.  1.
        1   -1    0    0  501    0  0.00000000000E+00  0.00000000000E+00 -0.17454118568E+04  0.17454118568E+04  0.50400001928E-02 0. -1.
    10030    2    1    2    0    0  0.00000000000E+00  0.00000000000E+00 -0.54078098692E+03  0.29500427268E+04  0.29000531054E+04 0.  0.
        5    1    3    3  502    0 -0.12248943667E+04 -0.37800396496E+03  0.41900967449E+03  0.13486453961E+04  0.46999998093E+01 0. -1.
       -5    1    3    3    0  502  0.12248943667E+04  0.37800396496E+03 -0.95979066141E+03  0.16013973307E+04  0.46999998093E+01 0.  1.
</event>
<event>
 5   0  0.1307832E-05  0.2769577E+04  0.7818609E-02  0.8312776E-01
        2   -1    0    0  501    0  0.00000000000E+00  0.00000000000E+00  0.17643355543E+04  0.17643355543E+04  0.25500000920E-02 0.  1.
       -2   -1    0    0    0  501  0.00000000000E+00  0.00000000000E+00 -0.10868906340E+04  0.10868906340E+04  0.25500000920E-02 0. -1.
    10030    2    1    2    0    0  0.00000000000E+00  0.00000000000E+00  0.67744492034E+03  0.28512261883E+04  0.27695774329E+04 0.  0.
        4    1    3    3  502    0 -0.79268118202E+01 -0.10152164177E+04  0.13082455848E+04  0.16559696048E+04  0.12699999809E+01 0.  1.
       -4    1    3    3    0  502  0.79268118202E+01  0.10152164177E+04 -0.63080066446E+03  0.11952565834E+04  0.12699999809E+01 0. -1.
</event>
<event>
 5   0  0.1307832E-05  0.2964637E+04  0.7818609E-02  0.8253902E-01
       -2   -1    0    0    0  501  0.00000000000E+00  0.00000000000E+00  0.12497663125E+04  0.12497663125E+04  0.25500000920E-02 0.  1.
        2   -1    0    0  501    0  0.00000000000E+00  0.00000000000E+00 -0.17581431107E+04  0.17581431107E+04  0.25500000920E-02 0. -1.
    10030    2    1    2    0    0  0.00000000000E+00  0.00000000000E+00 -0.50837679821E+03  0.30079094232E+04  0.29646369304E+04 0.  0.
        4    1    3    3  502    0 -0.12643847699E+03 -0.14375182520E+04 -0.59798684862E+03  0.15620612336E+04  0.12699999809E+01 0.  1.
       -4    1    3    3    0  502  0.12643847699E+03  0.14375182520E+04  0.89610050406E+02  0.14458481896E+04  0.12699999809E+01 0. -1.
</event>
<event>
 5   0  0.1382803E-05  0.2834663E+04  0.7818609E-02  0.8292587E-01
        2   -1    0    0  501    0  0.00000000000E+00  0.00000000000E+00  0.12746431790E+04  0.12746431790E+04  0.25500000920E-02 0.  1.
       -2   -1    0    0    0  501  0.00000000000E+00  0.00000000000E+00 -0.15759932575E+04  0.15759932575E+04  0.25500000920E-02 0. -1.
    10030    2    1    2    0    0  0.00000000000E+00  0.00000000000E+00 -0.30135007845E+03  0.28506364365E+04  0.28346633351E+04 0.  0.
        2    1    3    3  502    0  0.90513275318E+03 -0.32509250255E+03 -0.11976364398E+04  0.15359959238E+04  0.25500000920E-02 0. -1.
       -2    1    3    3    0  502 -0.90513275318E+03  0.32509250255E+03  0.89628636132E+03  0.13146405127E+04  0.25500000920E-02 0.  1.
</event>
<event>
 5   0  0.5154476E-06  0.2881342E+04  0.7818609E-02  0.8278450E-01
        1   -1    0    0  501    0  0.00000000000E+00  0.00000000000E+00  0.11182779971E+04  0.11182779971E+04  0.50400001928E-02 0.  1.
       -1   -1    0    0    0  501  0.00000000000E+00  0.00000000000E+00 -0.18560086381E+04  0.18560086381E+04  0.50400001928E-02 0. -1.
    10030    2    1    2    0    0  0.00000000000E+00  0.00000000000E+00 -0.73773064101E+03  0.29742866352E+04  0.28813424805E+04 0.  0.
        3    1    3    3  502    0  0.60027545744E+03 -0.90497444072E+03 -0.13460941768E+04  0.17295314123E+04  0.10100000352E+00 0. -1.
       -3    1    3    3    0  502 -0.60027545744E+03  0.90497444072E+03  0.60836353577E+03  0.12447552229E+04  0.10100000352E+00 0.  1.
</event>
<event>
 5   0  0.1385669E-05  0.2923269E+04  0.7818609E-02  0.8265988E-01
        2   -1    0    0  501    0  0.00000000000E+00  0.00000000000E+00  0.19168272002E+04  0.19168272002E+04  0.25500000920E-02 0. -1.
       -2   -1    0    0    0  501  0.00000000000E+00  0.00000000000E+00 -0.11145373862E+04  0.11145373862E+04  0.25500000920E-02 0.  1.
    10030    2    1    2    0    0  0.00000000000E+00  0.00000000000E+00  0.80228981397E+03  0.30313645864E+04  0.29232691135E+04 0.  0.
        3    1    3    3  502    0  0.13590246589E+04  0.44975415278E+03  0.70727071572E+03  0.15967024447E+04  0.10100000352E+00 0. -1.
       -3    1    3    3    0  502 -0.13590246589E+04 -0.44975415278E+03  0.95019098249E+02  0.14346621416E+04  0.10100000352E+00 0.  1.
</event>
<event>
 5   0  0.5261878E-06  0.2991098E+04  0.7818609E-02  0.8246277E-01
       -1   -1    0    0    0  501  0.00000000000E+00  0.00000000000E+00  0.11582419760E+04  0.11582419761E+04  0.50400001928E-02 0.  1.
        1   -1    0    0  501    0  0.00000000000E+00  0.00000000000E+00 -0.19310879946E+04  0.19310879947E+04  0.50400001928E-02 0. -1.
    10030    2    1    2    0    0  0.00000000000E+00  0.00000000000E+00 -0.77284601860E+03  0.30893299707E+04  0.29910982430E+04 0.  0.
        5    1    3    3  502    0  0.14872070456E+04 -0.15294096911E+03 -0.42601396657E+03  0.15545693057E+04  0.46999998093E+01 0.  1.
       -5    1    3    3    0  502 -0.14872070456E+04  0.15294096911E+03 -0.34683205203E+03  0.15347606650E+04  0.46999998093E+01 0. -1.
</event>
<event>
 5   0  0.5154476E-06  0.2506965E+04  0.7818609E-02  0.8400508E-01
        1   -1    0    0  501    0  0.00000000000E+00  0.00000000000E+00  0.81560311068E+03  0.81560311069E+03  0.50400001928E-02 0.  1.
       -1   -1    0    0    0  501  0.00000000000E+00  0.00000000000E+00 -0.19264503732E+04  0.19264503732E+04  0.50400001928E-02 0. -1.
    10030    2    1    2    0    0  0.00000000000E+00  0.00000000000E+00 -0.11108472625E+04  0.27420534839E+04  0.25069654301E+04 0.  0.
        3    1    3    3  502    0 -0.67282749960E+03  0.51261488521E+03  0.45639001696E+03  0.96112575792E+03  0.10100000352E+00 0.  1.
       -3    1    3    3    0  502  0.67282749960E+03 -0.51261488521E+03 -0.15672372795E+04  0.17809277260E+04  0.10100000352E+00 0. -1.
</event>
<event>
 5   0  0.5261878E-06  0.2906730E+04  0.7818609E-02  0.8270878E-01
        1   -1    0    0  501    0  0.00000000000E+00  0.00000000000E+00  0.18558373206E+04  0.18558373206E+04  0.50400001928E-02 0. -1.
       -1   -1    0    0    0  501  0.00000000000E+00  0.00000000000E+00 -0.11381760409E+04  0.11381760409E+04  0.50400001928E-02 0.  1.
    10030    2    1    2    0    0  0.00000000000E+00  0.00000000000E+00  0.71766127977E+03  0.29940133615E+04  0.29067298286E+04 0.  0.
        5    1    3    3  502    0  0.67526475374E+03 -0.42229560318E+03 -0.89337659264E+03  0.11968541642E+04  0.46999998093E+01 0.  1.
       -5    1    3    3    0  502 -0.67526475374E+03  0.42229560318E+03  0.16110378724E+04  0.17971591973E+04  0.46999998093E+01 0. -1.
</event>
<event>
 5   0  0.1307832E-05  0.2973251E+04  0.7818609E-02  0.8251411E-01
        2   -1    0    0  501    0  0.00000000000E+00  0.00000000000E+00  0.29398696083E+04  0.29398696083E+04  0.25500000920E-02 0. -1.
       -2   -1    0    0    0  501  0.00000000000E+00  0.00000000000E+00 -0.75175309175E+03  0.75175309176E+03  0.25500000920E-02 0.  1.
    10030    2    1    2    0    0  0.00000000000E+00  0.00000000000E+00  0.21881165165E+04  0.36916227000E+04  0.29732514642E+04 0.  0.
        4    1    3    3  502    0  0.14928864802E+03  0.98659464869E+03 -0.27419424451E+03  0.10348140886E+04  0.12699999809E+01 0.  1.
       -4    1    3    3    0  502 -0.14928864802E+03 -0.98659464869E+03  0.24623107610E+04  0.26568086115E+04  0.12699999809E+01 0. -1.
</event>
<event>
 5   0  0.5002240E-06  0.2904974E+04  0.7818609E-02  0.8271399E-01
       -1   -1    0    0    0  501  0.00000000000E+00  0.00000000000E+00  0.99109415513E+03  0.99109415514E+03  0.50400001928E-02 0.  1.
        1   -1    0    0  501    0  0.00000000000E+00  0.00000000000E+00 -0.21286765936E+04  0.21286765936E+04  0.50400001928E-02 0. -1.
    10030    2    1    2    0    0  0.00000000000E+00  0.00000000000E+00 -0.11375824384E+04  0.31197707487E+04  0.29049743063E+04 0.  0.
        4    1    3    3  502    0  0.47490461441E+03  0.54668269968E+03  0.78340272213E+03  0.10668260425E+04  0.12699999809E+01 0.  1.
       -4    1    3    3    0  502 -0.47490461441E+03 -0.54668269968E+03 -0.19209851606E+04  0.20529447062E+04  0.12699999809E+01 0. -1.
</event>
<event>
 5   0  0.5154476E-06  0.2984868E+04  0.7818609E-02  0.8248065E-01
       -1   -1    0    0    0  501  0.00000000000E+00  0.00000000000E+00  0.15441550667E+04  0.15441550667E+04  0.50400001928E-02 0.  1.
        1   -1    0    0  501    0  0.00000000000E+00  0.00000000000E+00 -0.14424452291E+04  0.14424452291E+04  0.50400001928E-02 0. -1.
    10030    2    1    2    0    0  0.00000000000E+00  0.00000000000E+00  0.10170983761E+03  0.29866002958E+04  0.29848679092E+04 0.  0.
        3    1    3    3  502    0 -0.69507636481E+03  0.12909727083E+04  0.32961563145E+03  0.15027934526E+04  0.10100000352E+00 0.  1.
       -3    1    3    3    0  502  0.69507636481E+03 -0.12909727083E+04 -0.22790579384E+03  0.14838068431E+04  0.10100000352E+00 0. -1.
</event>
<event>
 5   0  0.1382803E-05  0.2885682E+04  0.7818609E-02  0.8277150E-01
       -2   -1    0    0    0  501  0.00000000000E+00  0.00000000000E+00  0.14259716886E+04  0.14259716886E+04  0.25500000920E-02 0.  1.
        2   -1    0    0  501    0  0.00000000000E+00  0.00000000000E+00 -0.14599095998E+04  0.14599095998E+04  0.25500000920E-02 0. -1.
    10030    2    1    2    0    0  0.00000000000E+00  0.00000000000E+00 -0.33937911177E+02  0.28858812884E+04  0.28856817268E+04 0.  0.
        2    1    3    3  502    0 -0.58070820980E+03 -0.93165728474E+03 -0.95329351559E+03  0.14539518039E+04  0.25500000920E-02 0. -1.
       -2    1    3    3    0  502  0.58070820980E+03  0.93165728474E+03  0.91935560442E+03  0.14319294845E+04  0.25500000920E-02 0.  1.
</event>
<event>
 5   0  0.5154476E-06  0.2931485E+04  0.7818609E-02  0.8263571E-01
        1   -1    0    0  501    0  0.00000000000E+00  0.00000000000E+00  0.22988462304E+04  0.22988462304E+04  0.50400001928E-02 0. -1.
       -1   -1    0    0    0  501  0.00000000000E+00  0.00000000000E+00 -0.93455608260E+03  0.93455608262E+03  0.50400001928E-02 0.  1.
    10030    2    1    2    0    0  0.00000000000E+00  0.00000000000E+00  0.13642901478E+04  0.32334023130E+04  0.29314847621E+04 0.  0.
        3    1    3    3  502    0  0.67825728110E+03  0.15550633853E+03 -0.74075033422E+03  0.10163297834E+04  0.10100000352E+00 0.  1.
       -3    1    3    3    0  502 -0.67825728110E+03 -0.15550633853E+03  0.21050404820E+04  0.22170725297E+04  0.10100000352E+00 0. -1.
</event>
<event>
 5   0  0.1307832E-05  0.3038333E+04  0.7818609E-02  0.8232869E-01
       -2   -1    0    0    0  501  0.00000000000E+00  0.00000000000E+00  0.11756511377E+04  0.11756511377E+04  0.25500000920E-02 0.  1.
        2   -1    0    0  501    0  0.00000000000E+00  0.00000000000E+00 -0.19630539032E+04  0.19630539032E+04  0.25500000920E-02 0. -1.
    10030    2    1    2    0    0  0.00000000000E+00  0.00000000000E+00 -0.78740276544E+03  0.31387050409E+04  0.30383328025E+04 0.  0.
        4    1    3    3  502    0  0.54946594434E+02  0.12235105594E+04 -0.13222086161E+04  0.18022858970E+04  0.12699999809E+01 0. -1.
       -4    1    3    3    0  502 -0.54946594434E+02 -0.12235105594E+04  0.53480585067E+03  0.13364191439E+04  0.12699999809E+01 0.  1.
</event>
<event>
 5   0  0.1336899E-05  0.3037034E+04  0.7818609E-02  0.8233234E-01
        2   -1    0    0  501    0  0.00000000000E+00  0.00000000000E+00  0.14618598454E+04  0.14618598454E+04  0.25500000920E-02 0. -1.
       -2   -1    0    0    0  501  0.00000000000E+00  0.00000000000E+00 -0.15773698737E+04  0.15773698737E+04  0.25500000920E-02 0.  1.
    10030    2    1    2    0    0  0.00000000000E+00  0.00000000000E+00 -0.11551002821E+03  0.30392297191E+04  0.30370338686E+04 0.  0.
        1    1    3    3  502    0 -0.49180888035E+03  0.53530885360E+03 -0.13919339239E+04  0.15703221301E+04  0.50400001928E-02 0.  1.
       -1    1    3    3    0  502  0.49180888035E+03 -0.53530885360E+03  0.12764238957E+04  0.14689075890E+04  0.50400001928E-02 0. -1.
</event>
<event>
 5   0  0.1336899E-05  0.2914736E+04  0.7818609E-02  0.8268507E-01
        2   -1    0    0  501    0  0.00000000000E+00  0.00000000000E+00  0.15355648660E+04  0.15355648660E+04  0.25500000920E-02 0.  1.
       -2   -1    0    0    0  501  0.00000000000E+00  0.00000000000E+00 -0.13831527929E+04  0.13831527929E+04  0.25500000920E-02 0. -1.
    10030    2    1    2    0    0  0.00000000000E+00  0.00000000000E+00  0.15241207307E+03  0.29187176589E+04  0.29147355510E+04 0.  0.
        1    1    3    3  502    0 -0.12412311582E+04  0.58889054554E+03  0.56315629347E+03  0.14847868108E+04  0.50400001928E-02 0. -1.
       -1    1    3    3    0  502  0.12412311582E+04 -0.58889054554E+03 -0.41074422039E+03  0.14339308481E+04  0.50400001928E-02 0.  1.
</event>
<event>
 5   0  0.1385669E-05  0.2901864E+04  0.7818609E-02  0.8272323E-01
        2   -1    0    0  501    0  0.00000000000E+00  0.00000000000E+00  0.16139553259E+04  0.16139553259E+04  0.25500000920E-02 0.  1.
       -2   -1    0    0    0  501  0.00000000000E+00  0.00000000000E+00 -0.13043756405E+04  0.13043756405E+04  0.25500000920E-02 0. -1.
    10030    2    1    2    0    0  0.00000000000E+00  0.00000000000E+00  0.30957968540E+03  0.29183309664E+04  0.29018642366E+04 0.  0.
        3    1    3    3  502    0 -0.54257202913E+03 -0.11379140246E+04  0.87717732585E+03  0.15357971238E+04  0.10100000352E+00 0. -1.
       -3    1    3    3    0  502  0.54257202913E+03  0.11379140246E+04 -0.56759764045E+03  0.13825338426E+04  0.10100000352E+00 0.  1.
</event>
<event>
 5   0  0.1339837E-05  0.2944105E+04  0.7818609E-02  0.8259875E-01
       -2   -1    0    0    0  501  0.00000000000E+00  0.00000000000E+00  0.22665437925E+04  0.22665437925E+04  0.25500000920E-02 0. -1.
        2   -1    0    0  501    0  0.00000000000E+00  0.00000000000E+00 -0.95605404564E+03  0.95605404565E+03  0.25500000920E-02 0.  1.
    10030    2    1    2    0    0  0.00000000000E+00  0.00000000000E+00  0.13104897469E+04  0.32225978382E+04  0.29441048639E+04 0.  0.
        5    1    3    3  502    0  0.66197705725E+03 -0.10429820029E+04  0.15315290860E+04  0.19676454239E+04  0.46999998093E+01 0. -1.
       -5    1    3    3    0  502 -0.66197705725E+03  0.10429820029E+04 -0.22103933917E+03  0.12549524143E+04  0.46999998093E+01 0.  1.
</event>
<event>
 5   0  0.5154476E-06  0.2661762E+04  0.7818609E-02  0.8347519E-01
       -1   -1    0    0    0  501  0.00000000000E+00  0.00000000000E+00  0.14921756662E+04  0.14921756662E+04  0.50400001928E-02 0. -1.
        1   -1    0    0  501    0  0.00000000000E+00  0.00000000000E+00 -0.11870215555E+04  0.11870215555E+04  0.50400001928E-02 0.  1.
    10030    2    1    2    0    0  0.00000000000E+00  0.00000000000E+00  0.30515411075E+03  0.26791972217E+04  0.26617623337E+04 0.  0.
        3    1    3    3  502    0  0.90566636525E+03 -0.97187735445E+03  0.71629439865E+02  0.13303788724E+04  0.10100000352E+00 0. -1.
       -3    1    3    3    0  502 -0.90566636525E+03  0.97187735445E+03  0.23352467089E+03  0.13488183493E+04  0.10100000352E+00 0.  1.
</event>
<event>
 5   0  0.5002240E-06  0.2818310E+04  0.7818609E-02  0.8297606E-01
       -1   -1    0    0    0  501  0.00000000000E+00  0.00000000000E+00  0.10210555548E+04  0.10210555548E+04  0.50400001928E-02 0. -1.
        1   -1    0    0  501    0  0.00000000000E+00  0.00000000000E+00 -0.19447692703E+04  0.19447692703E+04  0.50400001928E-02 0.  1.
    10030    2    1    2    0    0  0.00000000000E+00  0.00000000000E+00 -0.92371371547E+03  0.29658248251E+04  0.28183097532E+04 0.  0.
        4    1    3    3  502    0 -0.45995565362E+03  0.10477113817E+04  0.40366299526E+03  0.12133440441E+04  0.12699999809E+01 0. -1.
       -4    1    3    3    0  502  0.45995565362E+03 -0.10477113817E+04 -0.13273767107E+04  0.17524807810E+04  0.12699999809E+01 0.  1.
</event>
<event>
 5   0  0.1307832E-05  0.2531068E+04  0.7818609E-02  0.8392000E-01
        2   -1    0    0  501    0  0.00000000000E+00  0.00000000000E+00  0.68919530922E+03  0.68919530923E+03  0.25500000920E-02 0. -1.
       -2   -1    0    0    0  501  0.00000000000E+00  0.00000000000E+00 -0.23238352497E+04  0.23238352497E+04  0.25500000920E-02 0.  1.
    10030    2    1    2    0    0  0.00000000000E+00  0.00000000000E+00 -0.16346399405E+04  0.30130305589E+04  0.25310680382E+04 0.  0.
        4    1    3    3  502    0 -0.70951352536E+03 -0.25448936397E+03  0.39281564383E+03  0.84998824814E+03  0.12699999809E+01 0. -1.
       -4    1    3    3    0  502  0.70951352536E+03  0.25448936397E+03 -0.20274555843E+04  0.21630423108E+04  0.12699999809E+01 0.  1.
</event>
<event>
 5   0  0.5154476E-06  0.1813396E+04  0.7818609E-02  0.8699208E-01
       -1   -1    0    0    0  501  0.00000000000E+00  0.00000000000E+00  0.13059978094E+04  0.13059978094E+04  0.50400001928E-02 0. -1.
        1   -1    0    0  501    0  0.00000000000E+00  0.00000000000E+00 -0.62948115357E+03  0.62948115359E+03  0.50400001928E-02 0.  1.
    10030    2    1    2    0    0  0.00000000000E+00  0.00000000000E+00  0.67651665579E+03  0.19354789630E+04  0.18133957181E+04 0.  0.
        3    1    3    3  502    0  0.70739773398E+03  0.41516083580E+03  0.75070779347E+03  0.11119047958E+04  0.10100000352E+00 0. -1.
       -3    1    3    3    0  502 -0.70739773398E+03 -0.41516083580E+03 -0.74191137684E+02  0.82357416711E+03  0.10100000352E+00 0.  1.
</event>
<event>
 5   0  0.5352212E-06  0.2767352E+04  0.7818609E-02  0.8313477E-01
        1   -1    0    0  501    0  0.00000000000E+00  0.00000000000E+00  0.15409918674E+04  0.15409918674E+04  0.50400001928E-02 0.  1.
       -1   -1    0    0    0  501  0.00000000000E+00  0.00000000000E+00 -0.12424198880E+04  0.12424198880E+04  0.50400001928E-02 0. -1.
    10030    2    1    2    0    0  0.00000000000E+00  0.00000000000E+00  0.29857197941E+03  0.27834117555E+04  0.27673517618E+04 0.  0.
        2    1    3    3  502    0  0.36618763255E+02 -0.80260067399E+03 -0.98377290940E+03  0.12701645220E+04  0.25500000920E-02 0. -1.
       -2    1    3    3    0  502 -0.36618763255E+02  0.80260067399E+03  0.12823448888E+04  0.15132472335E+04  0.25500000920E-02 0.  1.
</event>
<event>
 5   0  0.5154476E-06  0.2954700E+04  0.7818609E-02  0.8256786E-01
        1   -1    0    0  501    0  0.00000000000E+00  0.00000000000E+00  0.18385221100E+04  0.18385221100E+04  0.50400001928E-02 0. -1.
       -1   -1    0    0    0  501  0.00000000000E+00  0.00000000000E+00 -0.11871287669E+04  0.11871287669E+04  0.50400001928E-02 0.  1.
    10030    2    1    2    0    0  0.00000000000E+00  0.00000000000E+00  0.65139334308E+03  0.30256508769E+04  0.29546996364E+04 0.  0.
        3    1    3    3  502    0 -0.68012853780E+03 -0.47559057165E+03 -0.92586393658E+03  0.12433765556E+04  0.10100000352E+00 0.  1.
       -3    1    3    3    0  502  0.68012853780E+03  0.47559057165E+03  0.15772572797E+04  0.17822743213E+04  0.10100000352E+00 0. -1.
</event>
<event>
 5   0  0.5154476E-06  0.2354297E+04  0.7818609E-02  0.8456815E-01
        1   -1    0    0  501    0  0.00000000000E+00  0.00000000000E+00  0.11302406719E+04  0.11302406720E+04  0.50400001928E-02 0.  1.
       -1   -1    0    0    0  501  0.00000000000E+00  0.00000000000E+00 -0.12260035557E+04  0.12260035557E+04  0.50400001928E-02 0. -1.
    10030    2    1    2    0    0  0.00000000000E+00  0.00000000000E+00 -0.95762883793E+02  0.23562442277E+04  0.23542974176E+04 0.  0.
        3    1    3    3  502    0 -0.52549236574E+03  0.60882418594E+03  0.81240480760E+03  0.11431582119E+04  0.10100000352E+00 0.  1.
       -3    1    3    3    0  502  0.52549236574E+03 -0.60882418594E+03 -0.90816769139E+03  0.12130860158E+04  0.10100000352E+00 0. -1.
</event>
<event>
 5   0  0.5261878E-06  0.1957489E+04  0.7818609E-02  0.8626758E-01
       -1   -1    0    0    0  501  0.00000000000E+00  0.00000000000E+00  0.54682503934E+03  0.54682503936E+03  0.50400001928E-02 0.  1.
        1   -1    0    0  501    0  0.00000000000E+00  0.00000000000E+00 -0.17518241038E+04  0.17518241038E+04  0.50400001928E-02 0. -1.
    10030    2    1    2    0    0  0.00000000000E+00  0.00000000000E+00 -0.12049990644E+04  0.22986491431E+04  0.19574894988E+04 0.  0.
        5    1    3    3  502    0  0.63463989003E+03  0.50147956689E+03  0.44604252291E+02  0.81009948485E+03  0.46999998093E+01 0.  1.
       -5    1    3    3    0  502 -0.63463989003E+03 -0.50147956689E+03 -0.12496033167E+04  0.14885496583E+04  0.46999998093E+01 0. -1.
</event>
<event>
 5   0  0.5352212E-06  0.2903917E+04  0.7818609E-02  0.8271713E-01
        1   -1    0    0  501    0  0.00000000000E+00  0.00000000000E+00  0.14903962249E+04  0.14903962249E+04  0.50400001928E-02 0. -1.
       -1   -1    0    0    0  501  0.00000000000E+00  0.00000000000E+00 -0.14145123425E+04  0.14145123425E+04  0.50400001928E-02 0.  1.
    10030    2    1    2    0    0  0.00000000000E+00  0.00000000000E+00  0.75883882338E+02  0.29049085674E+04  0.29039172545E+04 0.  0.
        2    1    3    3  502    0  0.29319000672E+03  0.76059385149E+03  0.12399013102E+04  0.14838526362E+04  0.25500000920E-02 0. -1.
       -2    1    3    3    0  502 -0.29319000672E+03 -0.76059385149E+03 -0.11640174279E+04  0.14210559311E+04  0.25500000920E-02 0.  1.
</event>
<event>
 5   0  0.4590125E-06  0.2076483E+04  0.7818609E-02  0.8571674E-01
       -3   -1    0    0    0  501  0.00000000000E+00  0.00000000000E+00  0.61688939909E+03  0.61688940736E+03  0.10100000352E+00 0. -1.
        3   -1    0    0  501    0  0.00000000000E+00  0.00000000000E+00 -0.17473891696E+04  0.17473891725E+04  0.10100000352E+00 0.  1.
    10030    2    1    2    0    0  0.00000000000E+00  0.00000000000E+00 -0.11304997705E+04  0.23642785799E+04  0.20764834389E+04 0.  0.
        4    1    3    3  502    0 -0.60251595597E+03  0.56746137017E+03 -0.12789482661E+04  0.15234001983E+04  0.12699999809E+01 0.  1.
       -4    1    3    3    0  502  0.60251595597E+03 -0.56746137017E+03  0.14844849564E+03  0.84087838157E+03  0.12699999809E+01 0. -1.
</event>
<event>
 5   0  0.5352212E-06  0.2680830E+04  0.7818609E-02  0.8341252E-01
       -1   -1    0    0    0  501  0.00000000000E+00  0.00000000000E+00  0.81356149023E+03  0.81356149025E+03  0.50400001928E-02 0.  1.
        1   -1    0    0  501    0  0.00000000000E+00  0.00000000000E+00 -0.22084529035E+04  0.22084529035E+04  0.50400001928E-02 0. -1.
    10030    2    1    2    0    0  0.00000000000E+00  0.00000000000E+00 -0.13948914132E+04  0.30220143937E+04  0.26808298978E+04 0.  0.
        2    1    3    3  502    0  0.89398332063E+03 -0.98388687243E+03 -0.50392070297E+03  0.14216805655E+04  0.25500000920E-02 0. -1.
       -2    1    3    3    0  502 -0.89398332063E+03  0.98388687243E+03 -0.89097071026E+03  0.16003338283E+04  0.25500000920E-02 0.  1.
</event>
<event>
 5   0  0.1339837E-05  0.2906937E+04  0.7818609E-02  0.8270817E-01
       -2   -1    0    0    0  501  0.00000000000E+00  0.00000000000E+00  0.12413933980E+04  0.12413933980E+04  0.25500000920E-02 0. -1.
        2   -1    0    0  501    0  0.00000000000E+00  0.00000000000E+00 -0.17017736901E+04  0.17017736901E+04  0.25500000920E-02 0.  1.
    10030    2    1    2    0    0  0.00000000000E+00  0.00000000000E+00 -0.46038029214E+03  0.29431670881E+04  0.29069369610E+04 0.  0.
        5    1    3    3  502    0 -0.81985263396E+03  0.11648863833E+04  0.62252148235E+02  0.14258387172E+04  0.46999998093E+01 0. -1.
       -5    1    3    3    0  502  0.81985263396E+03 -0.11648863833E+04 -0.52263244038E+03  0.15173283709E+04  0.46999998093E+01 0.  1.
</event>
<event>
 5   0  0.5059249E-06  0.2914194E+04  0.7818609E-02  0.8268667E-01
        1   -1    0    0  501    0  0.00000000000E+00  0.00000000000E+00  0.14269077359E+04  0.14269077359E+04  0.50400001928E-02 0.  1.
       -1   -1    0    0    0  501  0.00000000000E+00  0.00000000000E+00 -0.14879245501E+04  0.14879245501E+04  0.50400001928E-02 0. -1.
    10030    2    1    2    0    0  0.00000000000E+00  0.00000000000E+00 -0.61016814135E+02  0.29148322860E+04  0.29141935770E+04 0.  0.
        1    1    3    3  502    0 -0.12686474900E+04  0.78318909709E+02  0.68205965466E+03  0.14424998018E+04  0.50400001928E-02 0.  1.
       -1    1    3    3    0  502  0.12686474900E+04 -0.78318909709E+02 -0.74307646879E+03  0.14723324842E+04  0.50400001928E-02 0. -1.
</event>
<event>
 5   0  0.1339837E-05  0.2904409E+04  0.7818609E-02  0.8271567E-01
       -2   -1    0    0    0  501  0.00000000000E+00  0.00000000000E+00  0.12449174410E+04  0.12449174410E+04  0.25500000920E-02 0. -1.
        2   -1    0    0  501    0  0.00000000000E+00  0.00000000000E+00 -0.16940058900E+04  0.16940058900E+04  0.25500000920E-02 0.  1.
    10030    2    1    2    0    0  0.00000000000E+00  0.00000000000E+00 -0.44908844901E+03  0.29389233309E+04  0.29044087023E+04 0.  0.
        5    1    3    3  502    0 -0.11138435967E+04  0.92718515432E+03 -0.31813945388E+03  0.14837636842E+04  0.46999998093E+01 0. -1.
       -5    1    3    3    0  502  0.11138435967E+04 -0.92718515432E+03 -0.13094899513E+03  0.14551596468E+04  0.46999998093E+01 0.  1.
</event>
<event>
 5   0  0.5154476E-06  0.2788380E+04  0.7818609E-02  0.8306885E-01
       -1   -1    0    0    0  501  0.00000000000E+00  0.00000000000E+00  0.10431751642E+04  0.10431751642E+04  0.50400001928E-02 0. -1.
        1   -1    0    0  501    0  0.00000000000E+00  0.00000000000E+00 -0.18633167417E+04  0.18633167417E+04  0.50400001928E-02 0.  1.
    10030    2    1    2    0    0  0.00000000000E+00  0.00000000000E+00 -0.82014157746E+03  0.29064919059E+04  0.27883799941E+04 0.  0.
        3    1    3    3  502    0  0.12819422793E+04 -0.27131364549E+02 -0.98066442467E+03  0.16142536487E+04  0.10100000352E+00 0.  1.
       -3    1    3    3    0  502 -0.12819422793E+04  0.27131364549E+02  0.16052284721E+03  0.12922382571E+04  0.10100000352E+00 0. -1.
</event>
<event>
 5   0  0.1307832E-05  0.2828430E+04  0.7818609E-02  0.8294496E-01
       -2   -1    0    0    0  501  0.00000000000E+00  0.00000000000E+00  0.14796001688E+04  0.14796001688E+04  0.25500000920E-02 0. -1.
        2   -1    0    0  501    0  0.00000000000E+00  0.00000000000E+00 -0.13517195910E+04  0.13517195911E+04  0.25500000920E-02 0.  1.
    10030    2    1    2    0    0  0.00000000000E+00  0.00000000000E+00  0.12788057775E+03  0.28313197599E+04  0.28284303315E+04 0.  0.
        4    1    3    3  502    0  0.11156689395E+03  0.15824239971E+03 -0.13383887805E+04  0.13523216960E+04  0.12699999809E+01 0.  1.
       -4    1    3    3    0  502 -0.11156689395E+03 -0.15824239971E+03  0.14662693583E+04  0.14789980638E+04  0.12699999809E+01 0. -1.
</event>
<event>
 5   0  0.5002240E-06  0.2900678E+04  0.7818609E-02  0.8272676E-01
       -1   -1    0    0    0  501  0.00000000000E+00  0.00000000000E+00  0.94548852092E+03  0.94548852094E+03  0.50400001928E-02 0.  1.
        1   -1    0    0  501    0  0.00000000000E+00  0.00000000000E+00 -0.22247587502E+04  0.22247587502E+04  0.50400001928E-02 0. -1.
    10030    2    1    2    0    0  0.00000000000E+00  0.00000000000E+00 -0.12792702293E+04  0.31702472712E+04  0.29006784449E+04 0.  0.
        4    1    3    3  502    0  0.91728601436E+03  0.75394186366E+03 -0.15498851460E+04  0.19524311882E+04  0.12699999809E+01 0. -1.
       -4    1    3    3    0  502 -0.91728601436E+03 -0.75394186366E+03  0.27061491670E+03  0.12178160830E+04  0.12699999809E+01 0.  1.
</event>
<event>
 5   0  0.1307832E-05  0.2109790E+04  0.7818609E-02  0.8556943E-01
        2   -1    0    0  501    0  0.00000000000E+00  0.00000000000E+00  0.10644989614E+04  0.10644989614E+04  0.25500000920E-02 0. -1.
       -2   -1    0    0    0  501  0.00000000000E+00  0.00000000000E+00 -0.10453778377E+04  0.10453778377E+04  0.25500000920E-02 0.  1.
    10030    2    1    2    0    0  0.00000000000E+00  0.00000000000E+00  0.19121123665E+02  0.21098767991E+04  0.21097901530E+04 0.  0.
        4    1    3    3  502    0 -0.10703660740E+01 -0.10399639955E+04 -0.16729621881E+03  0.10533356043E+04  0.12699999809E+01 0.  1.
       -4    1    3    3    0  502  0.10703660740E+01  0.10399639955E+04  0.18641734247E+03  0.10565411947E+04  0.12699999809E+01 0. -1.
</event>
<event>
 5   0  0.1382803E-05  0.2881842E+04  0.7818609E-02  0.8278300E-01
        2   -1    0    0  501    0  0.00000000000E+00  0.00000000000E+00  0.13048259466E+04  0.13048259466E+04  0.25500000920E-02 0.  1.
       -2   -1    0    0    0  501  0.00000000000E+00  0.00000000000E+00 -0.15912114739E+04  0.15912114739E+04  0.25500000920E-02 0. -1.
    10030    2    1    2    0    0  0.00000000000E+00  0.00000000000E+00 -0.28638552722E+03  0.28960374205E+04  0.28818424785E+04 0.  0.
        2    1    3    3  502    0  0.18937954365E+03 -0.88477246611E+03  0.98374391004E+03  0.13365773486E+04  0.25500000920E-02 0.  1.
       -2    1    3    3    0  502 -0.18937954365E+03  0.88477246611E+03 -0.12701294373E+04  0.15594600719E+04  0.25500000920E-02 0. -1.
</event>
<event>
 5   0  0.5059249E-06  0.2939302E+04  0.7818609E-02  0.8261279E-01
       -1   -1    0    0    0  501  0.00000000000E+00  0.00000000000E+00  0.15053640552E+04  0.15053640552E+04  0.50400001928E-02 0.  1.
        1   -1    0    0  501    0  0.00000000000E+00  0.00000000000E+00 -0.14347850100E+04  0.14347850100E+04  0.50400001928E-02 0. -1.
    10030    2    1    2    0    0  0.00000000000E+00  0.00000000000E+00  0.70579045202E+02  0.29401490651E+04  0.29393018089E+04 0.  0.
        1    1    3    3  502    0 -0.25976169864E+03 -0.13865325916E+04  0.44762796309E+03  0.14799728244E+04  0.50400001928E-02 0. -1.
       -1    1    3    3    0  502  0.25976169864E+03  0.13865325916E+04 -0.37704891789E+03  0.14601762408E+04  0.50400001928E-02 0.  1.
</event>
<event>
 5   0  0.5261878E-06  0.2854517E+04  0.7818609E-02  0.8286540E-01
        1   -1    0    0  501    0  0.00000000000E+00  0.00000000000E+00  0.21289317275E+04  0.21289317275E+04  0.50400001928E-02 0. -1.
       -1   -1    0    0    0  501  0.00000000000E+00  0.00000000000E+00 -0.95684916431E+03  0.95684916432E+03  0.50400001928E-02 0.  1.
    10030    2    1    2    0    0  0.00000000000E+00  0.00000000000E+00  0.11720825632E+04  0.30857808918E+04  0.28545168028E+04 0.  0.
        5    1    3    3  502    0  0.75047241934E+03  0.43310661948E+03  0.18120565942E+04  0.20085719769E+04  0.46999998093E+01 0.  1.
       -5    1    3    3    0  502 -0.75047241934E+03 -0.43310661948E+03 -0.63997403098E+03  0.10772089149E+04  0.46999998093E+01 0. -1.
</event>
<event>
 5   0  0.5059249E-06  0.2921991E+04  0.7818609E-02  0.8266364E-01
        1   -1    0    0  501    0  0.00000000000E+00  0.00000000000E+00  0.23141227676E+04  0.23141227676E+04  0.50400001928E-02 0. -1.
       -1   -1    0    0    0  501  0.00000000000E+00  0.00000000000E+00 -0.92238331400E+03  0.92238331401E+03  0.50400001928E-02 0.  1.
    10030    2    1    2    0    0  0.00000000000E+00  0.00000000000E+00  0.13917394536E+04  0.32365060816E+04  0.29219912576E+04 0.  0.
        1    1    3    3  502    0  0.14449843200E+04 -0.13004699942E+03  0.50525209779E+03  0.15362849962E+04  0.50400001928E-02 0. -1.
       -1    1    3    3    0  502 -0.14449843200E+04  0.13004699942E+03  0.88648735577E+03  0.17002210854E+04  0.50400001928E-02 0.  1.
</event>
<event>
 5   0  0.1339837E-05  0.2960993E+04  0.7818609E-02  0.8254958E-01
        2   -1    0    0  501    0  0.00000000000E+00  0.00000000000E+00  0.14306359595E+04  0.14306359595E+04  0.25500000920E-02 0. -1.
       -2   -1    0    0    0  501  0.00000000000E+00  0.00000000000E+00 -0.15320950374E+04  0.15320950374E+04  0.25500000920E-02 0.  1.
    10030    2    1    2    0    0  0.00000000000E+00  0.00000000000E+00 -0.10145907795E+03  0.29627309969E+04  0.29609932482E+04 0.  0.
        5    1    3    3  502    0 -0.53788911423E+03 -0.13403106623E+04  0.27517743410E+03  0.14702047751E+04  0.46999998093E+01 0. -1.
       -5    1    3    3    0  502  0.53788911423E+03  0.13403106623E+04 -0.37663651206E+03  0.14925262218E+04  0.46999998093E+01 0.  1.
</event>
<event>
 5   0  0.1385669E-05  0.2876654E+04  0.7818609E-02  0.8279858E-01
        2   -1    0    0  501    0  0.00000000000E+00  0.00000000000E+00  0.13301340184E+04  0.13301340184E+04  0.25500000920E-02 0. -1.
       -2   -1    0    0    0  501  0.00000000000E+00  0.00000000000E+00 -0.15553208087E+04  0.15553208087E+04  0.25500000920E-02 0.  1.
    10030    2    1    2    0    0  0.00000000000E+00  0.00000000000E+00 -0.22518679039E+03  0.28854548271E+04  0.28766543881E+04 0.  0.
        3    1    3    3  502    0 -0.27486240750E+01  0.14373813818E+04 -0.16483261491E+03  0.14468042690E+04  0.10100000352E+00 0.  1.
       -3    1    3    3    0  502  0.27486240750E+01 -0.14373813818E+04 -0.60354175474E+02  0.14386505581E+04  0.10100000352E+00 0. -1.
</event>
<event>
 5   0  0.1385669E-05  0.2955414E+04  0.7818609E-02  0.8256579E-01
       -2   -1    0    0    0  501  0.00000000000E+00  0.00000000000E+00  0.25001462695E+04  0.25001462695E+04  0.25500000920E-02 0. -1.
        2   -1    0    0  501    0  0.00000000000E+00  0.00000000000E+00 -0.87339590465E+03  0.87339590466E+03  0.25500000920E-02 0.  1.
    10030    2    1    2    0    0  0.00000000000E+00  0.00000000000E+00  0.16267503648E+04  0.33735421742E+04  0.29554136853E+04 0.  0.
        3    1    3    3  502    0 -0.11232093536E+04 -0.95316204206E+03  0.94600486662E+03  0.17507262345E+04  0.10100000352E+00 0.  1.
       -3    1    3    3    0  502  0.11232093536E+04  0.95316204206E+03  0.68074549823E+03  0.16228159396E+04  0.10100000352E+00 0. -1.
</event>
<event>
 5   0  0.5352212E-06  0.2803930E+04  0.7818609E-02  0.8302049E-01
        1   -1    0    0  501    0  0.00000000000E+00  0.00000000000E+00  0.16430727161E+04  0.16430727161E+04  0.50400001928E-02 0. -1.
       -1   -1    0    0    0  501  0.00000000000E+00  0.00000000000E+00 -0.11962381359E+04  0.11962381359E+04  0.50400001928E-02 0.  1.
    10030    2    1    2    0    0  0.00000000000E+00  0.00000000000E+00  0.44683458014E+03  0.28393108520E+04  0.28039302723E+04 0.  0.
        2    1    3    3  502    0 -0.66944552319E+03 -0.74365253432E+03  0.12178113843E+04  0.15761475083E+04  0.25500000920E-02 0. -1.
       -2    1    3    3    0  502  0.66944552319E+03  0.74365253432E+03 -0.77097680411E+03  0.12631633437E+04  0.25500000920E-02 0.  1.
</event>
<event>
 5   0  0.1307832E-05  0.2944681E+04  0.7818609E-02  0.8259706E-01
        2   -1    0    0  501    0  0.00000000000E+00  0.00000000000E+00  0.14547499975E+04  0.14547499975E+04  0.25500000920E-02 0. -1.
       -2   -1    0    0    0  501  0.00000000000E+00  0.00000000000E+00 -0.14901436741E+04  0.14901436741E+04  0.25500000920E-02 0.  1.
    10030    2    1    2    0    0  0.00000000000E+00  0.00000000000E+00 -0.35393676620E+02  0.29448936715E+04  0.29446809716E+04 0.  0.
        4    1    3    3  502    0  0.73235636933E+03  0.35273352054E+03 -0.12453921680E+04  0.14872020889E+04  0.12699999809E+01 0.  1.
       -4    1    3    3    0  502 -0.73235636933E+03 -0.35273352054E+03  0.12099984914E+04  0.14576915827E+04  0.12699999809E+01 0. -1.
</event>
<event>
 5   0  0.5059249E-06  0.2850101E+04  0.7818609E-02  0.8287881E-01
       -1   -1    0    0    0  501  0.00000000000E+00  0.00000000000E+00  0.13810239000E+04  0.13810239000E+04  0.50400001928E-02 0. -1.
        1   -1    0    0  501    0  0.00000000000E+00  0.00000000000E+00 -0.14704810517E+04  0.14704810517E+04  0.50400001928E-02 0.  1.
    10030    2    1    2    0    0  0.00000000000E+00  0.00000000000E+00 -0.89457151729E+02  0.28515049517E+04  0.28501013855E+04 0.  0.
        1    1    3    3  502    0 -0.66348765481E+03 -0.34705730372E+03  0.11683473221E+04  0.13876959701E+04  0.50400001928E-02 0. -1.
       -1    1    3    3    0  502  0.66348765481E+03  0.34705730372E+03 -0.12578044739E+04  0.14638089816E+04  0.50400001928E-02 0.  1.
</event>
<event>
 5   0  0.1385669E-05  0.2932273E+04  0.7818609E-02  0.8263340E-01
        2   -1    0    0  501    0  0.00000000000E+00  0.00000000000E+00  0.20963260849E+04  0.20963260849E+04  0.25500000920E-02 0. -1.
       -2   -1    0    0    0  501  0.00000000000E+00  0.00000000000E+00 -0.10253919070E+04  0.10253919070E+04  0.25500000920E-02 0.  1.
    10030    2    1    2    0    0  0.00000000000E+00  0.00000000000E+00  0.10709341779E+04  0.31217179919E+04  0.29322727035E+04 0.  0.
        3    1    3    3  502    0 -0.33255442291E+02  0.12377086918E+04  0.13713883703E+04  0.18476295091E+04  0.10100000352E+00 0. -1.
       -3    1    3    3    0  502  0.33255442291E+02 -0.12377086918E+04 -0.30045419242E+03  0.12740884829E+04  0.10100000352E+00 0.  1.
</event>
<event>
 5   0  0.5059249E-06  0.2987429E+04  0.7818609E-02  0.8247330E-01
       -1   -1    0    0    0  501  0.00000000000E+00  0.00000000000E+00  0.88500797548E+03  0.88500797549E+03  0.50400001928E-02 0. -1.
        1   -1    0    0  501    0  0.00000000000E+00  0.00000000000E+00 -0.25210885347E+04  0.25210885347E+04  0.50400001928E-02 0.  1.
    10030    2    1    2    0    0  0.00000000000E+00  0.00000000000E+00 -0.16360805592E+04  0.34060965102E+04  0.29874293030E+04 0.  0.
        1    1    3    3  502    0 -0.72396120851E+02  0.11190743106E+04  0.30696077492E+03  0.11626665164E+04  0.50400001928E-02 0.  1.
       -1    1    3    3    0  502  0.72396120851E+02 -0.11190743106E+04 -0.19430413342E+04  0.22434299938E+04  0.50400001928E-02 0. -1.
</event>
<event>
 5   0  0.1339837E-05  0.2922472E+04  0.7818609E-02  0.8266223E-01
        2   -1    0    0  501    0  0.00000000000E+00  0.00000000000E+00  0.13219359310E+04  0.13219359310E+04  0.25500000920E-02 0.  1.
       -2   -1    0    0    0  501  0.00000000000E+00  0.00000000000E+00 -0.16152153018E+04  0.16152153018E+04  0.25500000920E-02 0. -1.
    10030    2    1    2    0    0  0.00000000000E+00  0.00000000000E+00 -0.29327937078E+03  0.29371512328E+04  0.29224723395E+04 0.  0.
        5    1    3    3  502    0 -0.90818953258E+03 -0.11419642645E+04 -0.22640105077E+03  0.14765399196E+04  0.46999998093E+01 0.  1.
       -5    1    3    3    0  502  0.90818953258E+03  0.11419642645E+04 -0.66878320016E+02  0.14606113132E+04  0.46999998093E+01 0. -1.
</event>
<event>
 5   0  0.4590125E-06  0.2902926E+04  0.7818609E-02  0.8272008E-01
       -3   -1    0    0    0  501  0.00000000000E+00  0.00000000000E+00  0.99350959629E+03  0.99350960142E+03  0.10100000352E+00 0.  1.
        3   -1    0    0  501    0  0.00000000000E+00  0.00000000000E+00 -0.21205072910E+04  0.21205072934E+04  0.10100000352E+00 0. -1.
    10030    2    1    2    0    0  0.00000000000E+00  0.00000000000E+00 -0.11269976947E+04  0.31140168948E+04  0.29029256651E+04 0.  0.
        2    1    3    3  502    0 -0.22318084888E+03 -0.75820190167E+03  0.74242727020E+03  0.10843791157E+04  0.25500000920E-02 0.  1.
       -2    1    3    3    0  502  0.22318084888E+03  0.75820190167E+03 -0.18694249649E+04  0.20296377791E+04  0.25500000920E-02 0. -1.
</event>
<event>
 5   0  0.5002240E-06  0.2919620E+04  0.7818609E-02  0.8267064E-01
        1   -1    0    0  501    0  0.00000000000E+00  0.00000000000E+00  0.28861179792E+04  0.28861179792E+04  0.50400001928E-02 0.  1.
       -1   -1    0    0    0  501  0.00000000000E+00  0.00000000000E+00 -0.73837775708E+03  0.73837775710E+03  0.50400001928E-02 0. -1.
    10030    2    1    2    0    0  0.00000000000E+00  0.00000000000E+00  0.21477402221E+04  0.36244957363E+04  0.29196200576E+04 0.  0.
        4    1    3    3  502    0  0.11255551408E+04 -0.66730514839E+03  0.18773269042E+04  0.22883462269E+04  0.12699999809E+01 0. -1.
       -4    1    3    3    0  502 -0.11255551408E+04  0.66730514839E+03  0.27041331790E+03  0.13361495094E+04  0.12699999809E+01 0.  1.
</event>
<event>
 5   0  0.1382803E-05  0.2712293E+04  0.7818609E-02  0.8331027E-01
       -2   -1    0    0    0  501  0.00000000000E+00  0.00000000000E+00  0.74170473278E+03  0.74170473278E+03  0.25500000920E-02 0.  1.
        2   -1    0    0  501    0  0.00000000000E+00  0.00000000000E+00 -0.24796027412E+04  0.24796027412E+04  0.25500000920E-02 0. -1.
    10030    2    1    2    0    0  0.00000000000E+00  0.00000000000E+00 -0.17378980085E+04  0.32213074740E+04  0.27122928224E+04 0.  0.
        2    1    3    3  502    0  0.37955642073E+03 -0.42295804474E+03  0.59346550321E+03  0.82167991799E+03  0.25500000920E-02 0.  1.
       -2    1    3    3    0  502 -0.37955642073E+03  0.42295804474E+03 -0.23313635117E+04  0.23996275560E+04  0.25500000920E-02 0. -1.
</event>
<event>
 5   0  0.1385669E-05  0.2902781E+04  0.7818609E-02  0.8272050E-01
        2   -1    0    0  501    0  0.00000000000E+00  0.00000000000E+00  0.22096799476E+04  0.22096799476E+04  0.25500000920E-02 0.  1.
       -2   -1    0    0    0  501  0.00000000000E+00  0.00000000000E+00 -0.95332121183E+03  0.95332121183E+03  0.25500000920E-02 0. -1.
    10030    2    1    2    0    0  0.00000000000E+00  0.00000000000E+00  0.12563587358E+04  0.31630011595E+04  0.29027812632E+04 0.  0.
        3    1    3    3  502    0  0.13477591417E+04 -0.47955150542E+03  0.36102648434E+03  0.14753862149E+04  0.10100000352E+00 0. -1.
       -3    1    3    3    0  502 -0.13477591417E+04  0.47955150542E+03  0.89533225148E+03  0.16876149446E+04  0.10100000352E+00 0.  1.
</event>
<event>
 5   0  0.5154476E-06  0.1778947E+04  0.7818609E-02  0.8717576E-01
       -1   -1    0    0    0  501  0.00000000000E+00  0.00000000000E+00  0.88609017306E+03  0.88609017307E+03  0.50400001928E-02 0.  1.
        1   -1    0    0  501    0  0.00000000000E+00  0.00000000000E+00 -0.89286933619E+03  0.89286933621E+03  0.50400001928E-02 0. -1.
    10030    2    1    2    0    0  0.00000000000E+00  0.00000000000E+00 -0.67791631375E+01  0.17789595093E+04  0.17789465924E+04 0.  0.
        3    1    3    3  502    0 -0.68809693088E+02 -0.46595551926E+03 -0.75792366445E+03  0.89235509251E+03  0.10100000352E+00 0. -1.
       -3    1    3    3    0  502  0.68809693088E+02  0.46595551926E+03  0.75114450131E+03  0.88660441677E+03  0.10100000352E+00 0.  1.
</event>
<event>
 5   0  0.1339837E-05  0.2842940E+04  0.7818609E-02  0.8290060E-01
        2   -1    0    0  501    0  0.00000000000E+00  0.00000000000E+00  0.57538478305E+03  0.57538478305E+03  0.25500000920E-02 0.  1.
       -2   -1    0    0    0  501  0.00000000000E+00  0.00000000000E+00 -0.35116965515E+04  0.35116965515E+04  0.25500000920E-02 0. -1.
    10030    2    1    2    0    0  0.00000000000E+00  0.00000000000E+00 -0.29363117685E+04  0.40870813346E+04  0.28429398576E+04 0.  0.
        5    1    3    3  502    0  0.45645314727E+03 -0.95782810925E+02 -0.33985553400E+04  0.34304116825E+04  0.46999998093E+01 0. -1.
       -5    1    3    3    0  502 -0.45645314727E+03  0.95782810925E+02  0.46224357152E+03  0.65666965206E+03  0.46999998093E+01 0.  1.
</event>
<event>
 5   0  0.1307832E-05  0.2873985E+04  0.7818609E-02  0.8280660E-01
       -2   -1    0    0    0  501  0.00000000000E+00  0.00000000000E+00  0.73670536385E+03  0.73670536385E+03  0.25500000920E-02 0. -1.
        2   -1    0    0  501    0  0.00000000000E+00  0.00000000000E+00 -0.28029482493E+04  0.28029482493E+04  0.25500000920E-02 0.  1.
    10030    2    1    2    0    0  0.00000000000E+00  0.00000000000E+00 -0.20662428854E+04  0.35396536131E+04  0.28739846971E+04 0.  0.
        4    1    3    3  502    0  0.52228617021E+02  0.14244994872E+04 -0.80932312312E+03  0.16391864287E+04  0.12699999809E+01 0. -1.
       -4    1    3    3    0  502 -0.52228617021E+02 -0.14244994872E+04 -0.12569197623E+04  0.19004671845E+04  0.12699999809E+01 0.  1.
</event>
<event>
 5   0  0.1382803E-05  0.2864944E+04  0.7818609E-02  0.8283385E-01
       -2   -1    0    0    0  501  0.00000000000E+00  0.00000000000E+00  0.68312190876E+03  0.68312190876E+03  0.25500000920E-02 0.  1.
        2   -1    0    0  501    0  0.00000000000E+00  0.00000000000E+00 -0.30038201311E+04  0.30038201311E+04  0.25500000920E-02 0. -1.
    10030    2    1    2    0    0  0.00000000000E+00  0.00000000000E+00 -0.23206982223E+04  0.36869420398E+04  0.28649435188E+04 0.  0.
        2    1    3    3  502    0  0.43022222896E+03 -0.13658892843E+04 -0.11152035113E+04  0.18150547030E+04  0.25500000920E-02 0. -1.
       -2    1    3    3    0  502 -0.43022222896E+03  0.13658892843E+04 -0.12054947110E+04  0.18718873368E+04  0.25500000920E-02 0.  1.
</event>
<event>
 5   0  0.5352212E-06  0.2827544E+04  0.7818609E-02  0.8294768E-01
       -1   -1    0    0    0  501  0.00000000000E+00  0.00000000000E+00  0.90859656406E+03  0.90859656408E+03  0.50400001928E-02 0.  1.
        1   -1    0    0  501    0  0.00000000000E+00  0.00000000000E+00 -0.21998230854E+04  0.21998230854E+04  0.50400001928E-02 0. -1.
    10030    2    1    2    0    0  0.00000000000E+00  0.00000000000E+00 -0.12912265214E+04  0.31084196495E+04  0.28275443035E+04 0.  0.
        2    1    3    3  502    0 -0.87880613948E+03 -0.33543525696E+03  0.51465946846E+03  0.10722366394E+04  0.25500000920E-02 0.  1.
       -2    1    3    3    0  502  0.87880613948E+03  0.33543525696E+03 -0.18058859898E+04  0.20361830101E+04  0.25500000920E-02 0. -1.
</event>
<event>
 5   0  0.1307832E-05  0.2904953E+04  0.7818609E-02  0.8271405E-01
        2   -1    0    0  501    0  0.00000000000E+00  0.00000000000E+00  0.12391777271E+04  0.12391777271E+04  0.25500000920E-02 0. -1.
       -2   -1    0    0    0  501  0.00000000000E+00  0.00000000000E+00 -0.17024905086E+04  0.17024905086E+04  0.25500000920E-02 0.  1.
    10030    2    1    2    0    0  0.00000000000E+00  0.00000000000E+00 -0.46331278150E+03  0.29416682356E+04  0.29049532311E+04 0.  0.
        4    1    3    3  502    0  0.33346686934E+03  0.14097506430E+04 -0.33829488420E+03  0.14876296818E+04  0.12699999809E+01 0.  1.
       -4    1    3    3    0  502 -0.33346686934E+03 -0.14097506430E+04 -0.12501789729E+03  0.14540385538E+04  0.12699999809E+01 0. -1.
</event>
<event>
 5   0  0.1339837E-05  0.2635074E+04  0.7818609E-02  0.8356384E-01
        2   -1    0    0  501    0  0.00000000000E+00  0.00000000000E+00  0.19687250672E+04  0.19687250672E+04  0.25500000920E-02 0. -1.
       -2   -1    0    0    0  501  0.00000000000E+00  0.00000000000E+00 -0.88173979146E+03  0.88173979146E+03  0.25500000920E-02 0.  1.
    10030    2    1    2    0    0  0.00000000000E+00  0.00000000000E+00  0.10869852757E+04  0.28504648586E+04  0.26350736082E+04 0.  0.
        5    1    3    3  502    0  0.83512265701E+03 -0.84665992230E+03 -0.69977308375E+02  0.11912941660E+04  0.46999998093E+01 0.  1.
       -5    1    3    3    0  502 -0.83512265701E+03  0.84665992230E+03  0.11569625841E+04  0.16591706926E+04  0.46999998093E+01 0. -1.
</event>
<event>
 5   0  0.1307832E-05  0.2982848E+04  0.7818609E-02  0.8248646E-01
       -2   -1    0    0    0  501  0.00000000000E+00  0.00000000000E+00  0.10441068512E+04  0.10441068512E+04  0.25500000920E-02 0. -1.
        2   -1    0    0  501    0  0.00000000000E+00  0.00000000000E+00 -0.21303813742E+04  0.21303813742E+04  0.25500000920E-02 0.  1.
    10030    2    1    2    0    0  0.00000000000E+00  0.00000000000E+00 -0.10862745230E+04  0.31744882254E+04  0.29828481614E+04 0.  0.
        4    1    3    3  502    0 -0.78152189972E+02  0.14662223662E+04 -0.82153180252E+03  0.16825076248E+04  0.12699999809E+01 0.  1.
       -4    1    3    3    0  502  0.78152189972E+02 -0.14662223662E+04 -0.26474272044E+03  0.14919806007E+04  0.12699999809E+01 0. -1.
</event>
<event>
 5   0  0.1382803E-05  0.2890980E+04  0.7818609E-02  0.8275566E-01
       -2   -1    0    0    0  501  0.00000000000E+00  0.00000000000E+00  0.74103367611E+03  0.74103367611E+03  0.25500000920E-02 0. -1.
        2   -1    0    0  501    0  0.00000000000E+00  0.00000000000E+00 -0.28196308730E+04  0.28196308730E+04  0.25500000920E-02 0.  1.
    10030    2    1    2    0    0  0.00000000000E+00  0.00000000000E+00 -0.20785971969E+04  0.35606645491E+04  0.28909800629E+04 0.  0.
        2    1    3    3  502    0  0.14289266405E+04 -0.57706873445E+02 -0.78012557846E+03  0.16290357103E+04  0.25500000920E-02 0. -1.
       -2    1    3    3    0  502 -0.14289266405E+04  0.57706873445E+02 -0.12984716184E+04  0.19316288388E+04  0.25500000920E-02 0.  1.
</event>
<event>
 5   0  0.1339837E-05  0.2923355E+04  0.7818609E-02  0.8265962E-01
        2   -1    0    0  501    0  0.00000000000E+00  0.00000000000E+00  0.20352953621E+04  0.20352953621E+04  0.25500000920E-02 0. -1.
       -2   -1    0    0    0  501  0.00000000000E+00  0.00000000000E+00 -0.10497252930E+04  0.10497252930E+04  0.25500000920E-02 0.  1.
    10030    2    1    2    0    0  0.00000000000E+00  0.00000000000E+00  0.98557006911E+03  0.30850206551E+04  0.29233549359E+04 0.  0.
        5    1    3    3  502    0 -0.15181304665E+01 -0.19242684970E+03 -0.10362912214E+04  0.10540170694E+04  0.46999998093E+01 0.  1.
       -5    1    3    3    0  502  0.15181304665E+01  0.19242684970E+03  0.20218612905E+04  0.20310035857E+04  0.46999998093E+01 0. -1.
</event>
<event>
 5   0  0.5059249E-06  0.2889688E+04  0.7818609E-02  0.8275952E-01
       -1   -1    0    0    0  501  0.00000000000E+00  0.00000000000E+00  0.12406563563E+04  0.12406563563E+04  0.50400001928E-02 0.  1.
        1   -1    0    0  501    0  0.00000000000E+00  0.00000000000E+00 -0.16826368364E+04  0.16826368364E+04  0.50400001928E-02 0. -1.
    10030    2    1    2    0    0  0.00000000000E+00  0.00000000000E+00 -0.44198048009E+03  0.29232931927E+04  0.28896879322E+04 0.  0.
        1    1    3    3  502    0  0.99061360839E+03  0.34886374636E+03 -0.12247758101E+04  0.16134116089E+04  0.50400001928E-02 0. -1.
       -1    1    3    3    0  502 -0.99061360839E+03 -0.34886374636E+03  0.78279533005E+03  0.13098815837E+04  0.50400001928E-02 0.  1.
</event>
<event>
 5   0  0.1385669E-05  0.2892325E+04  0.7818609E-02  0.8275165E-01
       -2   -1    0    0    0  501  0.00000000000E+00  0.00000000000E+00  0.15290781063E+04  0.15290781063E+04  0.25500000920E-02 0.  1.
        2   -1    0    0  501    0  0.00000000000E+00  0.00000000000E+00 -0.13677429259E+04  0.13677429259E+04  0.25500000920E-02 0. -1.
    10030    2    1    2    0    0  0.00000000000E+00  0.00000000000E+00  0.16133518041E+03  0.28968210322E+04  0.28923248525E+04 0.  0.
        3    1    3    3  502    0 -0.83788124212E+03  0.10164690852E+03  0.12568050870E+04  0.15139141676E+04  0.10100000352E+00 0.  1.
       -3    1    3    3    0  502  0.83788124212E+03 -0.10164690852E+03 -0.10954699066E+04  0.13829068647E+04  0.10100000352E+00 0. -1.
</event>
<event>
 5   0  0.5059249E-06  0.2992756E+04  0.7818609E-02  0.8245802E-01
        1   -1    0    0  501    0  0.00000000000E+00  0.00000000000E+00  0.18541974453E+04  0.18541974453E+04  0.50400001928E-02 0. -1.
       -1   -1    0    0    0  501  0.00000000000E+00  0.00000000000E+00 -0.12076101759E+04  0.12076101759E+04  0.50400001928E-02 0.  1.
    10030    2    1    2    0    0  0.00000000000E+00  0.00000000000E+00  0.64658726941E+03  0.30618076211E+04  0.29927563903E+04 0.  0.
        1    1    3    3  502    0  0.21624165423E+03  0.13507359891E+04 -0.29724832652E+03  0.13998588261E+04  0.50400001928E-02 0.  1.
       -1    1    3    3    0  502 -0.21624165423E+03 -0.13507359891E+04  0.94383559593E+03  0.16619487951E+04  0.50400001928E-02 0. -1.
</event>
<event>
 5   0  0.1382803E-05  0.2867719E+04  0.7818609E-02  0.8282547E-01
        2   -1    0    0  501    0  0.00000000000E+00  0.00000000000E+00  0.10087517574E+04  0.10087517574E+04  0.25500000920E-02 0.  1.
       -2   -1    0    0    0  501  0.00000000000E+00  0.00000000000E+00 -0.20381153391E+04  0.20381153391E+04  0.25500000920E-02 0. -1.
    10030    2    1    2    0    0  0.00000000000E+00  0.00000000000E+00 -0.10293635817E+04  0.30468670965E+04  0.28677185567E+04 0.  0.
        2    1    3    3  502    0  0.37314734316E+03 -0.13818080569E+04 -0.60558350241E+03  0.15541440809E+04  0.25500000920E-02 0. -1.
       -2    1    3    3    0  502 -0.37314734316E+03  0.13818080569E+04 -0.42378007925E+03  0.14927230156E+04  0.25500000920E-02 0.  1.
</event>
<event>
 5   0  0.1339837E-05  0.2848620E+04  0.7818609E-02  0.8288331E-01
       -2   -1    0    0    0  501  0.00000000000E+00  0.00000000000E+00  0.79211352046E+03  0.79211352046E+03  0.25500000920E-02 0.  1.
        2   -1    0    0  501    0  0.00000000000E+00  0.00000000000E+00 -0.25610706689E+04  0.25610706689E+04  0.25500000920E-02 0. -1.
    10030    2    1    2    0    0  0.00000000000E+00  0.00000000000E+00 -0.17689571484E+04  0.33531841894E+04  0.28486198087E+04 0.  0.
        5    1    3    3  502    0  0.11590458638E+03  0.91444417129E+01 -0.25554663840E+04  0.25581141537E+04  0.46999998093E+01 0. -1.
       -5    1    3    3    0  502 -0.11590458638E+03 -0.91444417129E+01  0.78650923554E+03  0.79507003562E+03  0.46999998093E+01 0.  1.
</event>
<event>
 5   0  0.5059249E-06  0.2830263E+04  0.7818609E-02  0.8293934E-01
       -1   -1    0    0    0  501  0.00000000000E+00  0.00000000000E+00  0.10043348746E+04  0.10043348746E+04  0.50400001928E-02 0. -1.
        1   -1    0    0  501    0  0.00000000000E+00  0.00000000000E+00 -0.19939542081E+04  0.19939542082E+04  0.50400001928E-02 0.  1.
    10030    2    1    2    0    0  0.00000000000E+00  0.00000000000E+00 -0.98961933354E+03  0.29982890828E+04  0.28302634151E+04 0.  0.
        1    1    3    3  502    0  0.31397990002E+03 -0.72259759872E+03 -0.17401262793E+04  0.19101754201E+04  0.50400001928E-02 0.  1.
       -1    1    3    3    0  502 -0.31397990002E+03  0.72259759872E+03  0.75050694580E+03  0.10881136627E+04  0.50400001928E-02 0. -1.
</event>
<event>
 5   0  0.5002240E-06  0.2854397E+04  0.7818609E-02  0.8286576E-01
       -1   -1    0    0    0  501  0.00000000000E+00  0.00000000000E+00  0.10473817691E+04  0.10473817691E+04  0.50400001928E-02 0.  1.
        1   -1    0    0  501    0  0.00000000000E+00  0.00000000000E+00 -0.19447496901E+04  0.19447496901E+04  0.50400001928E-02 0. -1.
    10030    2    1    2    0    0  0.00000000000E+00  0.00000000000E+00 -0.89736792104E+03  0.29921314592E+04  0.28543968686E+04 0.  0.
        4    1    3    3  502    0 -0.20397518834E+02 -0.66133646121E+03 -0.17742632981E+04  0.18936192431E+04  0.12699999809E+01 0. -1.
       -4    1    3    3    0  502  0.20397518834E+02  0.66133646121E+03  0.87689537711E+03  0.10985122161E+04  0.12699999809E+01 0.  1.
</event>
<event>
 5   0  0.5154476E-06  0.2742269E+04  0.7818609E-02  0.8321419E-01
        1   -1    0    0  501    0  0.00000000000E+00  0.00000000000E+00  0.14034495876E+04  0.14034495876E+04  0.50400001928E-02 0.  1.
       -1   -1    0    0    0  501  0.00000000000E+00  0.00000000000E+00 -0.13395632397E+04  0.13395632397E+04  0.50400001928E-02 0. -1.
    10030    2    1    2    0    0  0.00000000000E+00  0.00000000000E+00  0.63886347909E+02  0.27430128273E+04  0.27422687515E+04 0.  0.
        3    1    3    3  502    0 -0.31618297525E+03 -0.11664492942E+04  0.67975601897E+03  0.13865943478E+04  0.10100000352E+00 0.  1.
       -3    1    3    3    0  502  0.31618297525E+03  0.11664492942E+04 -0.61586967107E+03  0.13564184796E+04  0.10100000352E+00 0. -1.
</event>
<event>
 5   0  0.4590125E-06  0.2739724E+04  0.7818609E-02  0.8322230E-01
       -3   -1    0    0    0  501  0.00000000000E+00  0.00000000000E+00  0.24121218448E+04  0.24121218469E+04  0.10100000352E+00 0.  1.
        3   -1    0    0  501    0  0.00000000000E+00  0.00000000000E+00 -0.77795479411E+03  0.77795480066E+03  0.10100000352E+00 0. -1.
    10030    2    1    2    0    0  0.00000000000E+00  0.00000000000E+00  0.16341670507E+04  0.31900766476E+04  0.27397239036E+04 0.  0.
        2    1    3    3  502    0  0.13225178232E+04 -0.18860389252E+03  0.46410778471E+03  0.14142209364E+04  0.25500000920E-02 0. -1.
       -2    1    3    3    0  502 -0.13225178232E+04  0.18860389252E+03  0.11700592660E+04  0.17758557112E+04  0.25500000920E-02 0.  1.
</event>
<event>
 5   0  0.5261878E-06  0.2928170E+04  0.7818609E-02  0.8264545E-01
        1   -1    0    0  501    0  0.00000000000E+00  0.00000000000E+00  0.20014188473E+04  0.20014188473E+04  0.50400001928E-02 0. -1.
       -1   -1    0    0    0  501  0.00000000000E+00  0.00000000000E+00 -0.10710129262E+04  0.10710129262E+04  0.50400001928E-02 0.  1.
    10030    2    1    2    0    0  0.00000000000E+00  0.00000000000E+00  0.93040592115E+03  0.30724317735E+04  0.29281703886E+04 0.  0.
        5    1    3    3  502    0  0.19092436262E+03  0.13512163639E+04 -0.91289963729E+02  0.13676965021E+04  0.46999998093E+01 0.  1.
       -5    1    3    3    0  502 -0.19092436262E+03 -0.13512163639E+04  0.10216958849E+04  0.17047352714E+04  0.46999998093E+01 0. -1.
</event>
<event>
 5   0  0.5154476E-06  0.2914758E+04  0.7818609E-02  0.8268500E-01
       -1   -1    0    0    0  501  0.00000000000E+00  0.00000000000E+00  0.17249170989E+04  0.17249170989E+04  0.50400001928E-02 0. -1.
        1   -1    0    0  501    0  0.00000000000E+00  0.00000000000E+00 -0.12313365108E+04  0.12313365108E+04  0.50400001928E-02 0.  1.
    10030    2    1    2    0    0  0.00000000000E+00  0.00000000000E+00  0.49358058811E+03  0.29562536098E+04  0.29147578988E+04 0.  0.
        3    1    3    3  502    0 -0.11995763530E+04 -0.54357928540E+03 -0.38618711013E+03  0.13724439371E+04  0.10100000352E+00 0.  1.
       -3    1    3    3    0  502  0.11995763530E+04  0.54357928540E+03  0.87976769824E+03  0.15838096727E+04  0.10100000352E+00 0. -1.
</event>
<event>
 5   0  0.1339837E-05  0.2633713E+04  0.7818609E-02  0.8356839E-01
        2   -1    0    0  501    0  0.00000000000E+00  0.00000000000E+00  0.14844299472E+04  0.14844299472E+04  0.25500000920E-02 0.  1.
       -2   -1    0    0    0  501  0.00000000000E+00  0.00000000000E+00 -0.11682003539E+04  0.11682003539E+04  0.25500000920E-02 0. -1.
    10030    2    1    2    0    0  0.00000000000E+00  0.00000000000E+00  0.31622959330E+03  0.26526303010E+04  0.26337134161E+04 0.  0.
        5    1    3    3  502    0 -0.68514597507E+03  0.69644302021E+03 -0.73119470071E+03  0.12202973686E+04  0.46999998093E+01 0. -1.
       -5    1    3    3    0  502  0.68514597507E+03 -0.69644302021E+03  0.10474242940E+04  0.14323329324E+04  0.46999998093E+01 0.  1.
</event>
<event>
 5   0  0.5261878E-06  0.2907218E+04  0.7818609E-02  0.8270733E-01
       -1   -1    0    0    0  501  0.00000000000E+00  0.00000000000E+00  0.14266403885E+04  0.14266403885E+04  0.50400001928E-02 0.  1.
        1   -1    0    0  501    0  0.00000000000E+00  0.00000000000E+00 -0.14810876110E+04  0.14810876110E+04  0.50400001928E-02 0. -1.
    10030    2    1    2    0    0  0.00000000000E+00  0.00000000000E+00 -0.54447222466E+02  0.29077279995E+04  0.29072181925E+04 0.  0.
        5    1    3    3  502    0 -0.13069475902E+04  0.14677593416E+03  0.59199894903E+03  0.14422690540E+04  0.46999998093E+01 0.  1.
       -5    1    3    3    0  502  0.13069475902E+04 -0.14677593416E+03 -0.64644617149E+03  0.14654589455E+04  0.46999998093E+01 0. -1.
</event>
<event>
 5   0  0.1339837E-05  0.2903265E+04  0.7818609E-02  0.8271907E-01
       -2   -1    0    0    0  501  0.00000000000E+00  0.00000000000E+00  0.13487566243E+04  0.13487566243E+04  0.25500000920E-02 0. -1.
        2   -1    0    0  501    0  0.00000000000E+00  0.00000000000E+00 -0.15623553839E+04  0.15623553839E+04  0.25500000920E-02 0.  1.
    10030    2    1    2    0    0  0.00000000000E+00  0.00000000000E+00 -0.21359875962E+03  0.29111120082E+04  0.29032651781E+04 0.  0.
        5    1    3    3  502    0  0.25014009118E+03  0.11464365807E+04 -0.96370154688E+03  0.15184299985E+04  0.46999998093E+01 0.  1.
       -5    1    3    3    0  502 -0.25014009118E+03 -0.11464365807E+04  0.75010278726E+03  0.13926820097E+04  0.46999998093E+01 0. -1.
</event>
<event>
 5   0  0.5002240E-06  0.2907548E+04  0.7818609E-02  0.8270635E-01
        1   -1    0    0  501    0  0.00000000000E+00  0.00000000000E+00  0.14192218541E+04  0.14192218541E+04  0.50400001928E-02 0. -1.
       -1   -1    0    0    0  501  0.00000000000E+00  0.00000000000E+00 -0.14891670684E+04  0.14891670684E+04  0.50400001928E-02 0.  1.
    10030    2    1    2    0    0  0.00000000000E+00  0.00000000000E+00 -0.69945214303E+02  0.29083889225E+04  0.29075477282E+04 0.  0.
        4    1    3    3  502    0 -0.12790783907E+02 -0.82671727107E+03 -0.12310742939E+04  0.14829600738E+04  0.12699999809E+01 0.  1.
       -4    1    3    3    0  502  0.12790783907E+02  0.82671727107E+03  0.11611290796E+04  0.14254288487E+04  0.12699999809E+01 0. -1.
</event>
<event>
 5   0  0.5261878E-06  0.2941778E+04  0.7818609E-02  0.8260555E-01
       -1   -1    0    0    0  501  0.00000000000E+00  0.00000000000E+00  0.83607753353E+03  0.83607753354E+03  0.50400001928E-02 0.  1.
        1   -1    0    0  501    0  0.00000000000E+00  0.00000000000E+00 -0.25876963881E+04  0.25876963881E+04  0.50400001928E-02 0. -1.
    10030    2    1    2    0    0  0.00000000000E+00  0.00000000000E+00 -0.17516188546E+04  0.34237739217E+04  0.29417782471E+04 0.  0.
        5    1    3    3  502    0  0.22005028686E+03 -0.27248573960E+03  0.78682865419E+03  0.86127349203E+03  0.46999998093E+01 0.  1.
       -5    1    3    3    0  502 -0.22005028686E+03  0.27248573960E+03 -0.25384475088E+04  0.25625004296E+04  0.46999998093E+01 0. -1.
</event>
<event>
 5   0  0.1385669E-05  0.2907490E+04  0.7818609E-02  0.8270652E-01
        2   -1    0    0  501    0  0.00000000000E+00  0.00000000000E+00  0.27721505786E+04  0.27721505786E+04  0.25500000920E-02 0.  1.
       -2   -1    0    0    0  501  0.00000000000E+00  0.00000000000E+00 -0.76235940415E+03  0.76235940415E+03  0.25500000920E-02 0. -1.
    10030    2    1    2    0    0  0.00000000000E+00  0.00000000000E+00  0.20097911744E+04  0.35345099827E+04  0.29074903703E+04 0.  0.
        3    1    3    3  502    0 -0.40971745483E+03  0.10830089324E+03  0.26953917434E+04  0.27285040108E+04  0.10100000352E+00 0.  1.
       -3    1    3    3    0  502  0.40971745483E+03 -0.10830089324E+03 -0.68560056903E+03  0.80600597189E+03  0.10100000352E+00 0. -1.
</event>
<event>
 5   0  0.1339837E-05  0.2875424E+04  0.7818609E-02  0.8280227E-01
       -2   -1    0    0    0  501  0.00000000000E+00  0.00000000000E+00  0.12061520539E+04  0.12061520539E+04  0.25500000920E-02 0. -1.
        2   -1    0    0  501    0  0.00000000000E+00  0.00000000000E+00 -0.17137270508E+04  0.17137270508E+04  0.25500000920E-02 0.  1.
    10030    2    1    2    0    0  0.00000000000E+00  0.00000000000E+00 -0.50757499683E+03  0.29198791047E+04  0.28754237268E+04 0.  0.
        5    1    3    3  502    0 -0.14006630090E+03 -0.88670760984E+03  0.88657250121E+03  0.12617059261E+04  0.46999998093E+01 0. -1.
       -5    1    3    3    0  502  0.14006630090E+03  0.88670760984E+03 -0.13941474980E+04  0.16581731786E+04  0.46999998093E+01 0.  1.
</event>
<event>
 5   0  0.5261878E-06  0.2891855E+04  0.7818609E-02  0.8275305E-01
       -1   -1    0    0    0  501  0.00000000000E+00  0.00000000000E+00  0.12728956507E+04  0.12728956507E+04  0.50400001928E-02 0. -1.
        1   -1    0    0  501    0  0.00000000000E+00  0.00000000000E+00 -0.16424810173E+04  0.16424810173E+04  0.50400001928E-02 0.  1.
    10030    2    1    2    0    0  0.00000000000E+00  0.00000000000E+00 -0.36958536659E+03  0.29153766680E+04  0.28918554205E+04 0.  0.
        5    1    3    3  502    0 -0.14205107167E+04 -0.82921558782E+02 -0.44370481676E+03  0.14905108975E+04  0.46999998093E+01 0.  1.
       -5    1    3    3    0  502  0.14205107167E+04  0.82921558782E+02  0.74119450176E+02  0.14248657705E+04  0.46999998093E+01 0. -1.
</event>
<event>
 5   0  0.1307832E-05  0.2884049E+04  0.7818609E-02  0.8277639E-01
       -2   -1    0    0    0  501  0.00000000000E+00  0.00000000000E+00  0.14879069262E+04  0.14879069262E+04  0.25500000920E-02 0. -1.
        2   -1    0    0  501    0  0.00000000000E+00  0.00000000000E+00 -0.13975565684E+04  0.13975565684E+04  0.25500000920E-02 0.  1.
    10030    2    1    2    0    0  0.00000000000E+00  0.00000000000E+00  0.90350357749E+02  0.28854634946E+04  0.28840486111E+04 0.  0.
        4    1    3    3  502    0  0.36272739881E+03  0.94262285407E+03  0.10749145219E+04  0.14749752043E+04  0.12699999809E+01 0. -1.
       -4    1    3    3    0  502 -0.36272739881E+03 -0.94262285407E+03 -0.98456416417E+03  0.14104882903E+04  0.12699999809E+01 0.  1.
</event>
<event>
 5   0  0.5059249E-06  0.2942596E+04  0.7818609E-02  0.8260316E-01
       -1   -1    0    0    0  501  0.00000000000E+00  0.00000000000E+00  0.12051394696E+04  0.12051394696E+04  0.50400001928E-02 0.  1.
        1   -1    0    0  501    0  0.00000000000E+00  0.00000000000E+00 -0.17962379932E+04  0.17962379932E+04  0.50400001928E-02 0. -1.
    10030    2    1    2    0    0  0.00000000000E+00  0.00000000000E+00 -0.59109852352E+03  0.30013774628E+04  0.29425956586E+04 0.  0.
        1    1    3    3  502    0  0.25386519517E+03  0.98827816861E+03  0.78561394897E+03  0.12877618385E+04  0.50400001928E-02 0.  1.
       -1    1    3    3    0  502 -0.25386519517E+03 -0.98827816861E+03 -0.13767124725E+04  0.17136156243E+04  0.50400001928E-02 0. -1.
</event>
<event>
 5   0  0.5352212E-06  0.2999859E+04  0.7818609E-02  0.8243771E-01
       -1   -1    0    0    0  501  0.00000000000E+00  0.00000000000E+00  0.88809558127E+03  0.88809558128E+03  0.50400001928E-02 0. -1.
        1   -1    0    0  501    0  0.00000000000E+00  0.00000000000E+00 -0.25332725372E+04  0.25332725372E+04  0.50400001928E-02 0.  1.
    10030    2    1    2    0    0  0.00000000000E+00  0.00000000000E+00 -0.16451769560E+04  0.34213681185E+04  0.29998587610E+04 0.  0.
        2    1    3    3  502    0 -0.52793665582E+03  0.70498899028E+03  0.56211507478E+03  0.10448444603E+04  0.25500000920E-02 0. -1.
       -2    1    3    3    0  502  0.52793665582E+03 -0.70498899028E+03 -0.22072920308E+04  0.23765236582E+04  0.25500000920E-02 0.  1.
</event>
<event>
 5   0  0.5002240E-06  0.2950221E+04  0.7818609E-02  0.8258090E-01
       -1   -1    0    0    0  501  0.00000000000E+00  0.00000000000E+00  0.13950509440E+04  0.13950509440E+04  0.50400001928E-02 0. -1.
        1   -1    0    0  501    0  0.00000000000E+00  0.00000000000E+00 -0.15597646415E+04  0.15597646415E+04  0.50400001928E-02 0.  1.
    10030    2    1    2    0    0  0.00000000000E+00  0.00000000000E+00 -0.16471369754E+03  0.29548155855E+04  0.29502211005E+04 0.  0.
        4    1    3    3  502    0  0.87631333347E+03 -0.14248371971E+03 -0.12622079073E+04  0.15431775928E+04  0.12699999809E+01 0.  1.
       -4    1    3    3    0  502 -0.87631333347E+03  0.14248371971E+03  0.10974942098E+04  0.14116379926E+04  0.12699999809E+01 0. -1.
</event>
<event>
 5   0  0.5002240E-06  0.2419343E+04  0.7818609E-02  0.8432297E-01
       -1   -1    0    0    0  501  0.00000000000E+00  0.00000000000E+00  0.72693908499E+03  0.72693908501E+03  0.50400001928E-02 0.  1.
        1   -1    0    0  501    0  0.00000000000E+00  0.00000000000E+00 -0.20129675353E+04  0.20129675353E+04  0.50400001928E-02 0. -1.
    10030    2    1    2    0    0  0.00000000000E+00  0.00000000000E+00 -0.12860284503E+04  0.27399066203E+04  0.24193427027E+04 0.  0.
        4    1    3    3  502    0 -0.54887758890E+03  0.33289714154E+03 -0.18041536266E+04  0.19149566668E+04  0.12699999809E+01 0. -1.
       -4    1    3    3    0  502  0.54887758890E+03 -0.33289714154E+03  0.51812517635E+03  0.82494995346E+03  0.12699999809E+01 0.  1.
</event>
<event>
 5   0  0.5059249E-06  0.2618328E+04  0.7818609E-02  0.8362002E-01
       -1   -1    0    0    0  501  0.00000000000E+00  0.00000000000E+00  0.62385906972E+03  0.62385906974E+03  0.50400001928E-02 0.  1.
        1   -1    0    0  501    0  0.00000000000E+00  0.00000000000E+00 -0.27472712116E+04  0.27472712116E+04  0.50400001928E-02 0. -1.
    10030    2    1    2    0    0  0.00000000000E+00  0.00000000000E+00 -0.21234121419E+04  0.33711302814E+04  0.26183277582E+04 0.  0.
        1    1    3    3  502    0 -0.21045867613E+03 -0.11854703325E+04 -0.39982272096E+03  0.12686571530E+04  0.50400001928E-02 0.  1.
       -1    1    3    3    0  502  0.21045867613E+03  0.11854703325E+04 -0.17235894209E+04  0.21024731284E+04  0.50400001928E-02 0. -1.
</event>
<event>
 5   0  0.5261878E-06  0.2582011E+04  0.7818609E-02  0.8374337E-01
       -1   -1    0    0    0  501  0.00000000000E+00  0.00000000000E+00  0.12343531473E+04  0.12343531473E+04  0.50400001928E-02 0. -1.
        1   -1    0    0  501    0  0.00000000000E+00  0.00000000000E+00 -0.13502581753E+04  0.13502581754E+04  0.50400001928E-02 0.  1.
    10030    2    1    2    0    0  0.00000000000E+00  0.00000000000E+00 -0.11590502806E+03  0.25846113227E+04  0.25820111761E+04 0.  0.
        5    1    3    3  502    0  0.12520328861E+04  0.30815386839E+03  0.63631334651E+01  0.12894214726E+04  0.46999998093E+01 0. -1.
       -5    1    3    3    0  502 -0.12520328861E+04 -0.30815386839E+03 -0.12226816152E+03  0.12951898501E+04  0.46999998093E+01 0.  1.
</event>
<event>
 5   0  0.1307832E-05  0.2906978E+04  0.7818609E-02  0.8270804E-01
        2   -1    0    0  501    0  0.00000000000E+00  0.00000000000E+00  0.15101654079E+04  0.15101654079E+04  0.25500000920E-02 0. -1.
       -2   -1    0    0    0  501  0.00000000000E+00  0.00000000000E+00 -0.13989395509E+04  0.13989395509E+04  0.25500000920E-02 0.  1.
    10030    2    1    2    0    0  0.00000000000E+00  0.00000000000E+00  0.11122585697E+03  0.29091049588E+04  0.29069778929E+04 0.  0.
        4    1    3    3  502    0 -0.80544814060E+03 -0.62332837365E+03 -0.98213356837E+03  0.14148755873E+04  0.12699999809E+01 0.  1.
       -4    1    3    3    0  502  0.80544814060E+03  0.62332837365E+03  0.10933594253E+04  0.14942293714E+04  0.12699999809E+01 0. -1.
</event>
<event>
 5   0  0.5261878E-06  0.2844618E+04  0.7818609E-02  0.8289549E-01
       -1   -1    0    0    0  501  0.00000000000E+00  0.00000000000E+00  0.13133300709E+04  0.13133300709E+04  0.50400001928E-02 0.  1.
        1   -1    0    0  501    0  0.00000000000E+00  0.00000000000E+00 -0.15403309527E+04  0.15403309527E+04  0.50400001928E-02 0. -1.
    10030    2    1    2    0    0  0.00000000000E+00  0.00000000000E+00 -0.22700088184E+03  0.28536610236E+04  0.28446180477E+04 0.  0.
        5    1    3    3  502    0  0.50546517190E+02 -0.95993749177E+03  0.93811918138E+03  0.13431770646E+04  0.46999998093E+01 0.  1.
       -5    1    3    3    0  502 -0.50546517190E+02  0.95993749177E+03 -0.11651200632E+04  0.15104839589E+04  0.46999998093E+01 0. -1.
</event>
<event>
 5   0  0.1307832E-05  0.2884286E+04  0.7818609E-02  0.8277568E-01
       -2   -1    0    0    0  501  0.00000000000E+00  0.00000000000E+00  0.20173752400E+04  0.20173752400E+04  0.25500000920E-02 0. -1.
        2   -1    0    0  501    0  0.00000000000E+00  0.00000000000E+00 -0.10309321230E+04  0.10309321230E+04  0.25500000920E-02 0.  1.
    10030    2    1    2    0    0  0.00000000000E+00  0.00000000000E+00  0.98644311709E+03  0.30483073630E+04  0.28842863513E+04 0.  0.
        4    1    3    3  502    0  0.81421785469E+02  0.58343834656E+03 -0.89797268481E+03  0.10739582706E+04  0.12699999809E+01 0.  1.
       -4    1    3    3    0  502 -0.81421785469E+02 -0.58343834656E+03  0.18844158019E+04  0.19743490924E+04  0.12699999809E+01 0. -1.
</event>
<event>
 5   0  0.5059249E-06  0.2860799E+04  0.7818609E-02  0.8284637E-01
       -1   -1    0    0    0  501  0.00000000000E+00  0.00000000000E+00  0.11187950649E+04  0.11187950649E+04  0.50400001928E-02 0. -1.
        1   -1    0    0  501    0  0.00000000000E+00  0.00000000000E+00 -0.18287915568E+04  0.18287915568E+04  0.50400001928E-02 0.  1.
    10030    2    1    2    0    0  0.00000000000E+00  0.00000000000E+00 -0.70999649192E+03  0.29475866217E+04  0.28607991670E+04 0.  0.
        1    1    3    3  502    0 -0.25516101325E+02 -0.26160742382E+03  0.10936983113E+04  0.11248402161E+04  0.50400001928E-02 0. -1.
       -1    1    3    3    0  502  0.25516101325E+02  0.26160742382E+03 -0.18036948033E+04  0.18227464055E+04  0.50400001928E-02 0.  1.
</event>
<event>
 5   0  0.1336899E-05  0.2094360E+04  0.7818609E-02  0.8563732E-01
        2   -1    0    0  501    0  0.00000000000E+00  0.00000000000E+00  0.15082468099E+04  0.15082468099E+04  0.25500000920E-02 0.  1.
       -2   -1    0    0    0  501  0.00000000000E+00  0.00000000000E+00 -0.72706019372E+03  0.72706019372E+03  0.25500000920E-02 0. -1.
    10030    2    1    2    0    0  0.00000000000E+00  0.00000000000E+00  0.78118661619E+03  0.22353070036E+04  0.20943602534E+04 0.  0.
        1    1    3    3  502    0 -0.10178656021E+04  0.22843204434E+03  0.48814830808E+03  0.11517466533E+04  0.50400001928E-02 0. -1.
       -1    1    3    3    0  502  0.10178656021E+04 -0.22843204434E+03  0.29303830811E+03  0.10835603503E+04  0.50400001928E-02 0.  1.
</event>
<event>
 5   0  0.5154476E-06  0.2720934E+04  0.7818609E-02  0.8328245E-01
        1   -1    0    0  501    0  0.00000000000E+00  0.00000000000E+00  0.13889368998E+04  0.13889368998E+04  0.50400001928E-02 0.  1.
       -1   -1    0    0    0  501  0.00000000000E+00  0.00000000000E+00 -0.13325802664E+04  0.13325802664E+04  0.50400001928E-02 0. -1.
    10030    2    1    2    0    0  0.00000000000E+00  0.00000000000E+00  0.56356633358E+02  0.27215171662E+04  0.27209335927E+04 0.  0.
        3    1    3    3  502    0 -0.10894522065E+04  0.49644992841E+03 -0.61810363330E+03  0.13473755057E+04  0.10100000352E+00 0. -1.
       -3    1    3    3    0  502  0.10894522065E+04 -0.49644992841E+03  0.67446026666E+03  0.13741416605E+04  0.10100000352E+00 0.  1.
</event>
<event>
 5   0  0.1382803E-05  0.2814990E+04  0.7818609E-02  0.8298630E-01
        2   -1    0    0  501    0  0.00000000000E+00  0.00000000000E+00  0.19827483583E+04  0.19827483583E+04  0.25500000920E-02 0.  1.
       -2   -1    0    0    0  501  0.00000000000E+00  0.00000000000E+00 -0.99913971554E+03  0.99913971554E+03  0.25500000920E-02 0. -1.
    10030    2    1    2    0    0  0.00000000000E+00  0.00000000000E+00  0.98360864274E+03  0.29818880738E+04  0.28149903237E+04 0.  0.
        2    1    3    3  502    0 -0.29927605952E+03  0.22233553548E+03  0.19294913638E+04  0.19651809517E+04  0.25500000920E-02 0.  1.
       -2    1    3    3    0  502  0.29927605952E+03 -0.22233553548E+03 -0.94588272104E+03  0.10167071221E+04  0.25500000920E-02 0. -1.
</event>
<event>
 5   0  0.5059249E-06  0.2841754E+04  0.7818609E-02  0.8290421E-01
        1   -1    0    0  501    0  0.00000000000E+00  0.00000000000E+00  0.12744950507E+04  0.12744950507E+04  0.50400001928E-02 0.  1.
       -1   -1    0    0    0  501  0.00000000000E+00  0.00000000000E+00 -0.15840718915E+04  0.15840718915E+04  0.50400001928E-02 0. -1.
    10030    2    1    2    0    0  0.00000000000E+00  0.00000000000E+00 -0.30957684080E+03  0.28585669422E+04  0.28417542369E+04 0.  0.
        1    1    3    3  502    0  0.11463828044E+04  0.63570853381E+03 -0.70627731310E+03  0.14890085685E+04  0.50400001928E-02 0.  1.
       -1    1    3    3    0  502 -0.11463828044E+04 -0.63570853381E+03  0.39670047230E+03  0.13695583737E+04  0.50400001928E-02 0. -1.
</event>
<event>
 5   0  0.5154476E-06  0.2937751E+04  0.7818609E-02  0.8261733E-01
        1   -1    0    0  501    0  0.00000000000E+00  0.00000000000E+00  0.14766279006E+04  0.14766279006E+04  0.50400001928E-02 0.  1.
       -1   -1    0    0    0  501  0.00000000000E+00  0.00000000000E+00 -0.14611635208E+04  0.14611635208E+04  0.50400001928E-02 0. -1.
    10030    2    1    2    0    0  0.00000000000E+00  0.00000000000E+00  0.15464379771E+02  0.29377914214E+04  0.29377507193E+04 0.  0.
        3    1    3    3  502    0 -0.57857729602E+03 -0.11372606911E+04 -0.71993251096E+03  0.14650653219E+04  0.10100000352E+00 0. -1.
       -3    1    3    3    0  502  0.57857729602E+03  0.11372606911E+04  0.73539689073E+03  0.14727260995E+04  0.10100000352E+00 0.  1.
</event>
<event>
 5   0  0.5059249E-06  0.2912096E+04  0.7818609E-02  0.8269288E-01
       -1   -1    0    0    0  501  0.00000000000E+00  0.00000000000E+00  0.17437438828E+04  0.17437438828E+04  0.50400001928E-02 0.  1.
        1   -1    0    0  501    0  0.00000000000E+00  0.00000000000E+00 -0.12158186701E+04  0.12158186701E+04  0.50400001928E-02 0. -1.
    10030    2    1    2    0    0  0.00000000000E+00  0.00000000000E+00  0.52792521271E+03  0.29595625529E+04  0.29120964054E+04 0.  0.
        1    1    3    3  502    0  0.85551324369E+03 -0.70158429893E+03  0.12259389059E+04  0.16513781032E+04  0.50400001928E-02 0.  1.
       -1    1    3    3    0  502 -0.85551324369E+03  0.70158429893E+03 -0.69801369320E+03  0.13081844497E+04  0.50400001928E-02 0. -1.
</event>
<event>
 5   0  0.1339837E-05  0.2915671E+04  0.7818609E-02  0.8268230E-01
        2   -1    0    0  501    0  0.00000000000E+00  0.00000000000E+00  0.27580333507E+04  0.27580333507E+04  0.25500000920E-02 0. -1.
       -2   -1    0    0    0  501  0.00000000000E+00  0.00000000000E+00 -0.77057941238E+03  0.77057941238E+03  0.25500000920E-02 0.  1.
    10030    2    1    2    0    0  0.00000000000E+00  0.00000000000E+00  0.19874539383E+04  0.35286127631E+04  0.29156705704E+04 0.  0.
        5    1    3    3  502    0  0.25949304798E+03 -0.10195586350E+04  0.22150487741E+04  0.24522030124E+04  0.46999998093E+01 0. -1.
       -5    1    3    3    0  502 -0.25949304798E+03  0.10195586350E+04 -0.22759483579E+03  0.10764097507E+04  0.46999998093E+01 0.  1.
</event>
<event>
 5   0  0.1385669E-05  0.2237973E+04  0.7818609E-02  0.8502787E-01
        2   -1    0    0  501    0  0.00000000000E+00  0.00000000000E+00  0.16972205313E+04  0.16972205313E+04  0.25500000920E-02 0.  1.
       -2   -1    0    0    0  501  0.00000000000E+00  0.00000000000E+00 -0.73775367974E+03  0.73775367974E+03  0.25500000920E-02 0. -1.
    10030    2    1    2    0    0  0.00000000000E+00  0.00000000000E+00  0.95946685160E+03  0.24349742111E+04  0.22379729152E+04 0.  0.
        3    1    3    3  502    0  0.43164326688E+03  0.99356766505E+03  0.17462376772E+03  0.10972629973E+04  0.10100000352E+00 0. -1.
       -3    1    3    3    0  502 -0.43164326688E+03 -0.99356766505E+03  0.78484308388E+03  0.13377112137E+04  0.10100000352E+00 0.  1.
</event>
<event>
 5   0  0.1336899E-05  0.3025859E+04  0.7818609E-02  0.8236385E-01
        2   -1    0    0  501    0  0.00000000000E+00  0.00000000000E+00  0.20924436786E+04  0.20924436786E+04  0.25500000920E-02 0. -1.
       -2   -1    0    0    0  501  0.00000000000E+00  0.00000000000E+00 -0.10939153806E+04  0.10939153806E+04  0.25500000920E-02 0.  1.
    10030    2    1    2    0    0  0.00000000000E+00  0.00000000000E+00  0.99852829804E+03  0.31863590592E+04  0.30258594303E+04 0.  0.
        1    1    3    3  502    0  0.13459240324E+04 -0.54092249119E+03  0.95200842411E+03  0.17350586970E+04  0.50400001928E-02 0.  1.
       -1    1    3    3    0  502 -0.13459240324E+04  0.54092249119E+03  0.46519873931E+02  0.14513003622E+04  0.50400001928E-02 0. -1.
</event>
<event>
 5   0  0.5352212E-06  0.2865006E+04  0.7818609E-02  0.8283366E-01
        1   -1    0    0  501    0  0.00000000000E+00  0.00000000000E+00  0.21245066741E+04  0.21245066741E+04  0.50400001928E-02 0.  1.
       -1   -1    0    0    0  501  0.00000000000E+00  0.00000000000E+00 -0.96590178116E+03  0.96590178117E+03  0.50400001928E-02 0. -1.
    10030    2    1    2    0    0  0.00000000000E+00  0.00000000000E+00  0.11586048929E+04  0.30904084553E+04  0.28650059550E+04 0.  0.
        2    1    3    3  502    0 -0.10993232430E+04 -0.48656823172E+03  0.14195645296E+04  0.18602214090E+04  0.25500000920E-02 0.  1.
       -2    1    3    3    0  502  0.10993232430E+04  0.48656823172E+03 -0.26095963672E+03  0.12301870462E+04  0.25500000920E-02 0. -1.
</event>
<event>
 5   0  0.5059249E-06  0.2890679E+04  0.7818609E-02  0.8275656E-01
        1   -1    0    0  501    0  0.00000000000E+00  0.00000000000E+00  0.24418393195E+04  0.24418393195E+04  0.50400001928E-02 0.  1.
       -1   -1    0    0    0  501  0.00000000000E+00  0.00000000000E+00 -0.85550526290E+03  0.85550526292E+03  0.50400001928E-02 0. -1.
    10030    2    1    2    0    0  0.00000000000E+00  0.00000000000E+00  0.15863340566E+04  0.32973445824E+04  0.28906790822E+04 0.  0.
        1    1    3    3  502    0 -0.11311371457E+04 -0.89866674751E+03  0.74301303854E+03  0.16245434869E+04  0.50400001928E-02 0. -1.
       -1    1    3    3    0  502  0.11311371457E+04  0.89866674751E+03  0.84332101807E+03  0.16728010955E+04  0.50400001928E-02 0.  1.
</event>
<event>
 5   0  0.1339837E-05  0.2860027E+04  0.7818609E-02  0.8284871E-01
       -2   -1    0    0    0  501  0.00000000000E+00  0.00000000000E+00  0.12347590293E+04  0.12347590293E+04  0.25500000920E-02 0.  1.
        2   -1    0    0  501    0  0.00000000000E+00  0.00000000000E+00 -0.16561443380E+04  0.16561443380E+04  0.25500000920E-02 0. -1.
    10030    2    1    2    0    0  0.00000000000E+00  0.00000000000E+00 -0.42138530869E+03  0.28909033674E+04  0.28600273952E+04 0.  0.
        5    1    3    3  502    0 -0.10873016826E+04 -0.80032661814E+03  0.26574441280E+03  0.13760050246E+04  0.46999998093E+01 0.  1.
       -5    1    3    3    0  502  0.10873016826E+04  0.80032661814E+03 -0.68712972149E+03  0.15148983428E+04  0.46999998093E+01 0. -1.
</event>
<event>
 5   0  0.5154476E-06  0.2901584E+04  0.7818609E-02  0.8272406E-01
       -1   -1    0    0    0  501  0.00000000000E+00  0.00000000000E+00  0.98178433584E+03  0.98178433585E+03  0.50400001928E-02 0.  1.
        1   -1    0    0  501    0  0.00000000000E+00  0.00000000000E+00 -0.21438490054E+04  0.21438490054E+04  0.50400001928E-02 0. -1.
    10030    2    1    2    0    0  0.00000000000E+00  0.00000000000E+00 -0.11620646696E+04  0.31256333413E+04  0.29015839619E+04 0.  0.
        3    1    3    3  502    0 -0.43206206374E+03 -0.70154564826E+03  0.70530703283E+03  0.10845745453E+04  0.10100000352E+00 0.  1.
       -3    1    3    3    0  502  0.43206206374E+03  0.70154564826E+03 -0.18673717024E+04  0.20410587960E+04  0.10100000352E+00 0. -1.
</event>
<event>
 5   0  0.5002240E-06  0.2824193E+04  0.7818609E-02  0.8295797E-01
        1   -1    0    0  501    0  0.00000000000E+00  0.00000000000E+00  0.14147143217E+04  0.14147143217E+04  0.50400001928E-02 0. -1.
       -1   -1    0    0    0  501  0.00000000000E+00  0.00000000000E+00 -0.14094834808E+04  0.14094834808E+04  0.50400001928E-02 0.  1.
    10030    2    1    2    0    0  0.00000000000E+00  0.00000000000E+00  0.52308408560E+01  0.28241978025E+04  0.28241929583E+04 0.  0.
        4    1    3    3  502    0 -0.65362597860E+03 -0.79782426135E+03 -0.96188837580E+03  0.14103124945E+04  0.12699999809E+01 0.  1.
       -4    1    3    3    0  502  0.65362597860E+03  0.79782426135E+03  0.96711921665E+03  0.14138853079E+04  0.12699999809E+01 0. -1.
</event>
<event>
 5   0  0.1385669E-05  0.2926050E+04  0.7818609E-02  0.8265169E-01
        2   -1    0    0  501    0  0.00000000000E+00  0.00000000000E+00  0.19587395746E+04  0.19587395746E+04  0.25500000920E-02 0.  1.
       -2   -1    0    0    0  501  0.00000000000E+00  0.00000000000E+00 -0.10927648464E+04  0.10927648464E+04  0.25500000920E-02 0. -1.
    10030    2    1    2    0    0  0.00000000000E+00  0.00000000000E+00  0.86597472813E+03  0.30515044210E+04  0.29260497265E+04 0.  0.
        3    1    3    3  502    0  0.34994300458E+03  0.99500047838E+03  0.14903391344E+04  0.18258140113E+04  0.10100000352E+00 0.  1.
       -3    1    3    3    0  502 -0.34994300458E+03 -0.99500047838E+03 -0.62436440623E+03  0.12256904097E+04  0.10100000352E+00 0. -1.
</event>
<event>
 5   0  0.5261878E-06  0.3083988E+04  0.7818609E-02  0.8220146E-01
       -1   -1    0    0    0  501  0.00000000000E+00  0.00000000000E+00  0.10013193704E+04  0.10013193704E+04  0.50400001928E-02 0.  1.
        1   -1    0    0  501    0  0.00000000000E+00  0.00000000000E+00 -0.23746126473E+04  0.23746126473E+04  0.50400001928E-02 0. -1.
    10030    2    1    2    0    0  0.00000000000E+00  0.00000000000E+00 -0.13732932769E+04  0.33759320178E+04  0.30839880940E+04 0.  0.
        5    1    3    3  502    0 -0.54863254062E+02 -0.18708731483E+03  0.98776484084E+03  0.10068332090E+04  0.46999998093E+01 0.  1.
       -5    1    3    3    0  502  0.54863254062E+02  0.18708731483E+03 -0.23610581178E+04  0.23690988087E+04  0.46999998093E+01 0. -1.
</event>
<event>
 5   0  0.1339837E-05  0.2582542E+04  0.7818609E-02  0.8374156E-01
       -2   -1    0    0    0  501  0.00000000000E+00  0.00000000000E+00  0.81880424383E+03  0.81880424384E+03  0.25500000920E-02 0. -1.
        2   -1    0    0  501    0  0.00000000000E+00  0.00000000000E+00 -0.20363605569E+04  0.20363605569E+04  0.25500000920E-02 0.  1.
    10030    2    1    2    0    0  0.00000000000E+00  0.00000000000E+00 -0.12175563131E+04  0.28551648008E+04  0.25825418998E+04 0.  0.
        5    1    3    3  502    0  0.11827407783E+04  0.46851061997E+03 -0.36409956506E+03  0.13232416759E+04  0.46999998093E+01 0. -1.
       -5    1    3    3    0  502 -0.11827407783E+04 -0.46851061997E+03 -0.85345674802E+03  0.15319231248E+04  0.46999998093E+01 0.  1.
</event>
<event>
 5   0  0.1307832E-05  0.2944052E+04  0.7818609E-02  0.8259890E-01
       -2   -1    0    0    0  501  0.00000000000E+00  0.00000000000E+00  0.13459934114E+04  0.13459934114E+04  0.25500000920E-02 0. -1.
        2   -1    0    0  501    0  0.00000000000E+00  0.00000000000E+00 -0.16098602246E+04  0.16098602246E+04  0.25500000920E-02 0.  1.
    10030    2    1    2    0    0  0.00000000000E+00  0.00000000000E+00 -0.26386681327E+03  0.29558536360E+04  0.29440524830E+04 0.  0.
        4    1    3    3  502    0  0.10853233383E+04 -0.11796048046E+03  0.85945478818E+03  0.13894263454E+04  0.12699999809E+01 0. -1.
       -4    1    3    3    0  502 -0.10853233383E+04  0.11796048046E+03 -0.11233216014E+04  0.15664272906E+04  0.12699999809E+01 0.  1.
</event>
<event>
 5   0  0.1336899E-05  0.2906723E+04  0.7818609E-02  0.8270880E-01
       -2   -1    0    0    0  501  0.00000000000E+00  0.00000000000E+00  0.12214677462E+04  0.12214677462E+04  0.25500000920E-02 0.  1.
        2   -1    0    0  501    0  0.00000000000E+00  0.00000000000E+00 -0.17292795563E+04  0.17292795563E+04  0.25500000920E-02 0. -1.
    10030    2    1    2    0    0  0.00000000000E+00  0.00000000000E+00 -0.50781181017E+03  0.29507473025E+04  0.29067226921E+04 0.  0.
        1    1    3    3  502    0  0.99303494015E+03  0.49047506602E+02  0.82221334641E+03  0.12901778317E+04  0.50400001928E-02 0.  1.
       -1    1    3    3    0  502 -0.99303494015E+03 -0.49047506602E+02 -0.13300251566E+04  0.16605694708E+04  0.50400001928E-02 0. -1.
</event>
<event>
 5   0  0.1336899E-05  0.2877603E+04  0.7818609E-02  0.8279573E-01
        2   -1    0    0  501    0  0.00000000000E+00  0.00000000000E+00  0.72628379281E+03  0.72628379281E+03  0.25500000920E-02 0. -1.
       -2   -1    0    0    0  501  0.00000000000E+00  0.00000000000E+00 -0.28503309695E+04  0.28503309695E+04  0.25500000920E-02 0.  1.
    10030    2    1    2    0    0  0.00000000000E+00  0.00000000000E+00 -0.21240471767E+04  0.35766147624E+04  0.28776026045E+04 0.  0.
        1    1    3    3  502    0  0.21798355102E+03  0.57950872538E+03 -0.26762832707E+04  0.27469691182E+04  0.50400001928E-02 0.  1.
       -1    1    3    3    0  502 -0.21798355102E+03 -0.57950872538E+03  0.55223609398E+03  0.82964564414E+03  0.50400001928E-02 0. -1.
</event>
<event>
 5   0  0.5352212E-06  0.2883030E+04  0.7818609E-02  0.8277945E-01
        1   -1    0    0  501    0  0.00000000000E+00  0.00000000000E+00  0.77191801387E+03  0.77191801388E+03  0.50400001928E-02 0. -1.
       -1   -1    0    0    0  501  0.00000000000E+00  0.00000000000E+00 -0.26919507084E+04  0.26919507084E+04  0.50400001928E-02 0.  1.
    10030    2    1    2    0    0  0.00000000000E+00  0.00000000000E+00 -0.19200326946E+04  0.34638687223E+04  0.28830298259E+04 0.  0.
        2    1    3    3  502    0 -0.10763149181E+04  0.88057008475E+03 -0.50392064119E+03  0.14791191601E+04  0.25500000920E-02 0. -1.
       -2    1    3    3    0  502  0.10763149181E+04 -0.88057008475E+03 -0.14161120534E+04  0.19847495622E+04  0.25500000920E-02 0.  1.
</event>
<event>
 5   0  0.1336899E-05  0.2897175E+04  0.7818609E-02  0.8273719E-01
        2   -1    0    0  501    0  0.00000000000E+00  0.00000000000E+00  0.16587940701E+04  0.16587940701E+04  0.25500000920E-02 0.  1.
       -2   -1    0    0    0  501  0.00000000000E+00  0.00000000000E+00 -0.12650187941E+04  0.12650187941E+04  0.25500000920E-02 0. -1.
    10030    2    1    2    0    0  0.00000000000E+00  0.00000000000E+00  0.39377527605E+03  0.29238128642E+04  0.28971749510E+04 0.  0.
        1    1    3    3  502    0 -0.20049592320E+03 -0.74271922054E+03  0.14355993980E+04  0.16287345049E+04  0.50400001928E-02 0.  1.
       -1    1    3    3    0  502  0.20049592320E+03  0.74271922054E+03 -0.10418241219E+04  0.12950783594E+04  0.50400001928E-02 0. -1.
</event>
<event>
 5   0  0.5261878E-06  0.2920178E+04  0.7818609E-02  0.8266899E-01
        1   -1    0    0  501    0  0.00000000000E+00  0.00000000000E+00  0.16465477488E+04  0.16465477488E+04  0.50400001928E-02 0. -1.
       -1   -1    0    0    0  501  0.00000000000E+00  0.00000000000E+00 -0.12947455104E+04  0.12947455104E+04  0.50400001928E-02 0.  1.
    10030    2    1    2    0    0  0.00000000000E+00  0.00000000000E+00  0.35180223842E+03  0.29412932592E+04  0.29201782860E+04 0.  0.
        5    1    3    3  502    0 -0.81303339563E+02  0.13293161364E+04 -0.42687962703E+03  0.13985492231E+04  0.46999998093E+01 0.  1.
       -5    1    3    3    0  502  0.81303339563E+02 -0.13293161364E+04  0.77868186545E+03  0.15427440361E+04  0.46999998093E+01 0. -1.
</event>
<event>
 5   0  0.5154476E-06  0.2887761E+04  0.7818609E-02  0.8276528E-01
       -1   -1    0    0    0  501  0.00000000000E+00  0.00000000000E+00  0.13762676110E+04  0.13762676110E+04  0.50400001928E-02 0.  1.
        1   -1    0    0  501    0  0.00000000000E+00  0.00000000000E+00 -0.15148154690E+04  0.15148154690E+04  0.50400001928E-02 0. -1.
    10030    2    1    2    0    0  0.00000000000E+00  0.00000000000E+00 -0.13854785800E+03  0.28910830800E+04  0.28877613936E+04 0.  0.
        3    1    3    3  502    0 -0.13646562352E+04 -0.30201875719E+03 -0.43202962509E+03  0.14629256909E+04  0.10100000352E+00 0. -1.
       -3    1    3    3    0  502  0.13646562352E+04  0.30201875719E+03  0.29348176709E+03  0.14281573890E+04  0.10100000352E+00 0.  1.
</event>
<event>
 5   0  0.1307832E-05  0.2883857E+04  0.7818609E-02  0.8277697E-01
       -2   -1    0    0    0  501  0.00000000000E+00  0.00000000000E+00  0.10194378153E+04  0.10194378153E+04  0.25500000920E-02 0.  1.
        2   -1    0    0  501    0  0.00000000000E+00  0.00000000000E+00 -0.20395144874E+04  0.20395144874E+04  0.25500000920E-02 0. -1.
    10030    2    1    2    0    0  0.00000000000E+00  0.00000000000E+00 -0.10200766721E+04  0.30589523026E+04  0.28838572733E+04 0.  0.
        4    1    3    3  502    0  0.84827322196E+03  0.94455251644E+03  0.21514495123E+03  0.12876474200E+04  0.12699999809E+01 0.  1.
       -4    1    3    3    0  502 -0.84827322196E+03 -0.94455251644E+03 -0.12352216233E+04  0.17713048826E+04  0.12699999809E+01 0. -1.
</event>
<event>
 5   0  0.5002240E-06  0.2884240E+04  0.7818609E-02  0.8277582E-01
       -1   -1    0    0    0  501  0.00000000000E+00  0.00000000000E+00  0.14476856820E+04  0.14476856820E+04  0.50400001928E-02 0. -1.
        1   -1    0    0  501    0  0.00000000000E+00  0.00000000000E+00 -0.14365758009E+04  0.14365758009E+04  0.50400001928E-02 0.  1.
    10030    2    1    2    0    0  0.00000000000E+00  0.00000000000E+00  0.11109881126E+02  0.28842614830E+04  0.28842400858E+04 0.  0.
        4    1    3    3  502    0  0.74359735754E+01 -0.41226647191E+03  0.13874804098E+04  0.14474537775E+04  0.12699999809E+01 0. -1.
       -4    1    3    3    0  502 -0.74359735754E+01  0.41226647191E+03 -0.13763705286E+04  0.14368077055E+04  0.12699999809E+01 0.  1.
</event>
<event>
 5   0  0.1336899E-05  0.2669893E+04  0.7818609E-02  0.8344840E-01
        2   -1    0    0  501    0  0.00000000000E+00  0.00000000000E+00  0.14152665100E+04  0.14152665100E+04  0.25500000920E-02 0.  1.
       -2   -1    0    0    0  501  0.00000000000E+00  0.00000000000E+00 -0.12591852098E+04  0.12591852098E+04  0.25500000920E-02 0. -1.
    10030    2    1    2    0    0  0.00000000000E+00  0.00000000000E+00  0.15608130019E+03  0.26744517197E+04  0.26698933741E+04 0.  0.
        1    1    3    3  502    0 -0.88184684467E+03 -0.72155189532E+03  0.77477951126E+03  0.13778876174E+04  0.50400001928E-02 0.  1.
       -1    1    3    3    0  502  0.88184684467E+03  0.72155189532E+03 -0.61869821107E+03  0.12965641023E+04  0.50400001928E-02 0. -1.
</event>
<event>
 5   0  0.1385669E-05  0.2671701E+04  0.7818609E-02  0.8344246E-01
        2   -1    0    0  501    0  0.00000000000E+00  0.00000000000E+00  0.15045809999E+04  0.15045809999E+04  0.25500000920E-02 0. -1.
       -2   -1    0    0    0  501  0.00000000000E+00  0.00000000000E+00 -0.11860422762E+04  0.11860422763E+04  0.25500000920E-02 0.  1.
    10030    2    1    2    0    0  0.00000000000E+00  0.00000000000E+00  0.31853872368E+03  0.26906232762E+04  0.26717010865E+04 0.  0.
        3    1    3    3  502    0  0.61168873861E+03  0.59690483421E+03 -0.87466554275E+03  0.12229056856E+04  0.10100000352E+00 0.  1.
       -3    1    3    3    0  502 -0.61168873861E+03 -0.59690483421E+03  0.11932042664E+04  0.14677175906E+04  0.10100000352E+00 0. -1.
</event>
<event>
 5   0  0.1385669E-05  0.2906696E+04  0.7818609E-02  0.8270888E-01
       -2   -1    0    0    0  501  0.00000000000E+00  0.00000000000E+00  0.13395784363E+04  0.13395784363E+04  0.25500000920E-02 0. -1.
        2   -1    0    0  501    0  0.00000000000E+00  0.00000000000E+00 -0.15767800489E+04  0.15767800489E+04  0.25500000920E-02 0.  1.
    10030    2    1    2    0    0  0.00000000000E+00  0.00000000000E+00 -0.23720161257E+03  0.29163584852E+04  0.29066960985E+04 0.  0.
        3    1    3    3  502    0 -0.47638205885E+03  0.43112859976E+03 -0.14265480045E+04  0.15645609464E+04  0.10100000352E+00 0.  1.
       -3    1    3    3    0  502  0.47638205885E+03 -0.43112859976E+03  0.11893463920E+04  0.13517975388E+04  0.10100000352E+00 0. -1.
</event>
<event>
 5   0  0.5352212E-06  0.2886854E+04  0.7818609E-02  0.8276799E-01
       -1   -1    0    0    0  501  0.00000000000E+00  0.00000000000E+00  0.32135835327E+04  0.32135835327E+04  0.50400001928E-02 0. -1.
        1   -1    0    0  501    0  0.00000000000E+00  0.00000000000E+00 -0.64833601658E+03  0.64833601660E+03  0.50400001928E-02 0.  1.
    10030    2    1    2    0    0  0.00000000000E+00  0.00000000000E+00  0.25652475162E+04  0.38619195493E+04  0.28868543064E+04 0.  0.
        2    1    3    3  502    0 -0.11819223267E+04  0.82482791959E+03  0.13879630581E+04  0.20009305170E+04  0.25500000920E-02 0.  1.
       -2    1    3    3    0  502  0.11819223267E+04 -0.82482791959E+03  0.11772844581E+04  0.18609890324E+04  0.25500000920E-02 0. -1.
</event>
<event>
 5   0  0.1339837E-05  0.2787999E+04  0.7818609E-02  0.8307004E-01
       -2   -1    0    0    0  501  0.00000000000E+00  0.00000000000E+00  0.11977174464E+04  0.11977174464E+04  0.25500000920E-02 0.  1.
        2   -1    0    0  501    0  0.00000000000E+00  0.00000000000E+00 -0.16224484752E+04  0.16224484752E+04  0.25500000920E-02 0. -1.
    10030    2    1    2    0    0  0.00000000000E+00  0.00000000000E+00 -0.42473102872E+03  0.28201659216E+04  0.27879991712E+04 0.  0.
        5    1    3    3  502    0  0.58328892567E+03 -0.74544572584E+03 -0.12475483059E+04  0.15659866431E+04  0.46999998093E+01 0. -1.
       -5    1    3    3    0  502 -0.58328892567E+03  0.74544572584E+03  0.82281727715E+03  0.12541792785E+04  0.46999998093E+01 0.  1.
</event>
<event>
 5   0  0.1339837E-05  0.2124188E+04  0.7818609E-02  0.8550663E-01
        2   -1    0    0  501    0  0.00000000000E+00  0.00000000000E+00  0.18662878495E+04  0.18662878495E+04  0.25500000920E-02 0.  1.
       -2   -1    0    0    0  501  0.00000000000E+00  0.00000000000E+00 -0.60443163592E+03  0.60443163593E+03  0.25500000920E-02 0. -1.
    10030    2    1    2    0    0  0.00000000000E+00  0.00000000000E+00  0.12618562136E+04  0.24707194855E+04  0.21241877676E+04 0.  0.
        5    1    3    3  502    0  0.69143098681E+03  0.73495729128E+03  0.24554143019E+03  0.10385334436E+04  0.46999998093E+01 0. -1.
       -5    1    3    3    0  502 -0.69143098681E+03 -0.73495729128E+03  0.10163147834E+04  0.14321860419E+04  0.46999998093E+01 0.  1.
</event>
<event>
 5   0  0.1307832E-05  0.2897461E+04  0.7818609E-02  0.8273633E-01
       -2   -1    0    0    0  501  0.00000000000E+00  0.00000000000E+00  0.17990947378E+04  0.17990947378E+04  0.25500000920E-02 0.  1.
        2   -1    0    0  501    0  0.00000000000E+00  0.00000000000E+00 -0.11665979662E+04  0.11665979662E+04  0.25500000920E-02 0. -1.
    10030    2    1    2    0    0  0.00000000000E+00  0.00000000000E+00  0.63249677162E+03  0.29656927039E+04  0.28974611383E+04 0.  0.
        4    1    3    3  502    0  0.26340461734E+03  0.70099503349E+03  0.15856314917E+04  0.17535691802E+04  0.12699999809E+01 0.  1.
       -4    1    3    3    0  502 -0.26340461734E+03 -0.70099503349E+03 -0.95313472004E+03  0.12121235238E+04  0.12699999809E+01 0. -1.
</event>
<event>
 5   0  0.1307832E-05  0.2714707E+04  0.7818609E-02  0.8330249E-01
       -2   -1    0    0    0  501  0.00000000000E+00  0.00000000000E+00  0.12683201024E+04  0.12683201024E+04  0.25500000920E-02 0.  1.
        2   -1    0    0  501    0  0.00000000000E+00  0.00000000000E+00 -0.14526373702E+04  0.14526373702E+04  0.25500000920E-02 0. -1.
    10030    2    1    2    0    0  0.00000000000E+00  0.00000000000E+00 -0.18431726776E+03  0.27209574726E+04  0.27147074819E+04 0.  0.
        4    1    3    3  502    0  0.10198400762E+04  0.60633926096E+03 -0.75298411807E+03  0.14052429595E+04  0.12699999809E+01 0. -1.
       -4    1    3    3    0  502 -0.10198400762E+04 -0.60633926096E+03  0.56866685031E+03  0.13157145131E+04  0.12699999809E+01 0.  1.
</event>
<event>
 5   0  0.5352212E-06  0.2915696E+04  0.7818609E-02  0.8268223E-01
        1   -1    0    0  501    0  0.00000000000E+00  0.00000000000E+00  0.12284514720E+04  0.12284514720E+04  0.50400001928E-02 0. -1.
       -1   -1    0    0    0  501  0.00000000000E+00  0.00000000000E+00 -0.17300814670E+04  0.17300814670E+04  0.50400001928E-02 0.  1.
    10030    2    1    2    0    0  0.00000000000E+00  0.00000000000E+00 -0.50162999493E+03  0.29585329390E+04  0.29156962289E+04 0.  0.
        2    1    3    3  502    0  0.77542443366E+03 -0.79419410216E+03 -0.12098430121E+04  0.16418731493E+04  0.25500000920E-02 0.  1.
       -2    1    3    3    0  502 -0.77542443366E+03  0.79419410216E+03  0.70821301721E+03  0.13166597898E+04  0.25500000920E-02 0. -1.
</event>
<event>
 5   0  0.1385669E-05  0.2927390E+04  0.7818609E-02  0.8264774E-01
        2   -1    0    0  501    0  0.00000000000E+00  0.00000000000E+00  0.13949434960E+04  0.13949434960E+04  0.25500000920E-02 0. -1.
       -2   -1    0    0    0  501  0.00000000000E+00  0.00000000000E+00 -0.15358350437E+04  0.15358350437E+04  0.25500000920E-02 0.  1.
    10030    2    1    2    0    0  0.00000000000E+00  0.00000000000E+00 -0.14089154771E+03  0.29307785397E+04  0.29273900356E+04 0.  0.
        3    1    3    3  502    0 -0.77695703025E+03  0.10948040934E+03 -0.13074952650E+04  0.15248580475E+04  0.10100000352E+00 0.  1.
       -3    1    3    3    0  502  0.77695703025E+03 -0.10948040934E+03  0.11666037173E+04  0.14059204922E+04  0.10100000352E+00 0. -1.
</event>
<event>
 5   0  0.5002240E-06  0.2904512E+04  0.7818609E-02  0.8271536E-01
       -1   -1    0    0    0  501  0.00000000000E+00  0.00000000000E+00  0.93227957528E+03  0.93227957529E+03  0.50400001928E-02 0. -1.
        1   -1    0    0  501    0  0.00000000000E+00  0.00000000000E+00 -0.22622478334E+04  0.22622478334E+04  0.50400001928E-02 0.  1.
    10030    2    1    2    0    0  0.00000000000E+00  0.00000000000E+00 -0.13299682581E+04  0.31945274087E+04  0.29045119723E+04 0.  0.
        4    1    3    3  502    0  0.55488258552E+03  0.13298612237E+04 -0.86362896451E+03  0.16799649280E+04  0.12699999809E+01 0.  1.
       -4    1    3    3    0  502 -0.55488258552E+03 -0.13298612237E+04 -0.46633929357E+03  0.15145624806E+04  0.12699999809E+01 0. -1.
</event>
<event>
 5   0  0.1336899E-05  0.2965491E+04  0.7818609E-02  0.8253654E-01
        2   -1    0    0  501    0  0.00000000000E+00  0.00000000000E+00  0.18558135033E+04  0.18558135033E+04  0.25500000920E-02 0.  1.
       -2   -1    0    0    0  501  0.00000000000E+00  0.00000000000E+00 -0.11846742774E+04  0.11846742774E+04  0.25500000920E-02 0. -1.
    10030    2    1    2    0    0  0.00000000000E+00  0.00000000000E+00  0.67113922592E+03  0.30404877807E+04  0.29654912045E+04 0.  0.
        1    1    3    3  502    0  0.44938257825E+03  0.81390872477E+03  0.15198314015E+04  0.17816508084E+04  0.50400001928E-02 0.  1.
       -1    1    3    3    0  502 -0.44938257825E+03 -0.81390872477E+03 -0.84869217560E+03  0.12588369723E+04  0.50400001928E-02 0. -1.
</event>
<event>
 5   0  0.1382803E-05  0.2922388E+04  0.7818609E-02  0.8266247E-01
       -2   -1    0    0    0  501  0.00000000000E+00  0.00000000000E+00  0.87685718562E+03  0.87685718563E+03  0.25500000920E-02 0. -1.
        2   -1    0    0  501    0  0.00000000000E+00  0.00000000000E+00 -0.24349329767E+04  0.24349329767E+04  0.25500000920E-02 0.  1.
    10030    2    1    2    0    0  0.00000000000E+00  0.00000000000E+00 -0.15580757911E+04  0.33117901623E+04  0.29223883911E+04 0.  0.
        2    1    3    3  502    0 -0.15032498544E+03 -0.41633728344E+03 -0.23571252649E+04  0.23983273024E+04  0.25500000920E-02 0.  1.
       -2    1    3    3    0  502  0.15032498544E+03  0.41633728344E+03  0.79904947385E+03  0.91346285994E+03  0.25500000920E-02 0. -1.
</event>
<event>
 5   0  0.5002240E-06  0.2961093E+04  0.7818609E-02  0.8254929E-01
       -1   -1    0    0    0  501  0.00000000000E+00  0.00000000000E+00  0.89198418635E+03  0.89198418637E+03  0.50400001928E-02 0. -1.
        1   -1    0    0  501    0  0.00000000000E+00  0.00000000000E+00 -0.24574631630E+04  0.24574631631E+04  0.50400001928E-02 0.  1.
    10030    2    1    2    0    0  0.00000000000E+00  0.00000000000E+00 -0.15654789767E+04  0.33494473494E+04  0.29610932306E+04 0.  0.
        4    1    3    3  502    0 -0.15831388441E+02  0.12425906268E+04  0.12763402049E+03  0.12492294244E+04  0.12699999809E+01 0. -1.
       -4    1    3    3    0  502  0.15831388441E+02 -0.12425906268E+04 -0.16931129972E+04  0.21002179251E+04  0.12699999809E+01 0.  1.
</event>
<event>
 5   0  0.5352212E-06  0.2859875E+04  0.7818609E-02  0.8284917E-01
        1   -1    0    0  501    0  0.00000000000E+00  0.00000000000E+00  0.22881971897E+04  0.22881971897E+04  0.50400001928E-02 0.  1.
       -1   -1    0    0    0  501  0.00000000000E+00  0.00000000000E+00 -0.89359457155E+03  0.89359457156E+03  0.50400001928E-02 0. -1.
    10030    2    1    2    0    0  0.00000000000E+00  0.00000000000E+00  0.13946026181E+04  0.31817917612E+04  0.28598745339E+04 0.  0.
        2    1    3    3  502    0 -0.13145723723E+04 -0.25041661704E+03  0.12579180072E+04  0.18366182829E+04  0.25500000920E-02 0.  1.
       -2    1    3    3    0  502  0.13145723723E+04  0.25041661704E+03  0.13668461089E+03  0.13451734784E+04  0.25500000920E-02 0. -1.
</event>
<event>
 5   0  0.1307832E-05  0.2780068E+04  0.7818609E-02  0.8309483E-01
       -2   -1    0    0    0  501  0.00000000000E+00  0.00000000000E+00  0.75000053470E+03  0.75000053470E+03  0.25500000920E-02 0. -1.
        2   -1    0    0  501    0  0.00000000000E+00  0.00000000000E+00 -0.25762573859E+04  0.25762573859E+04  0.25500000920E-02 0.  1.
    10030    2    1    2    0    0  0.00000000000E+00  0.00000000000E+00 -0.18262568512E+04  0.33262579206E+04  0.27800679250E+04 0.  0.
        4    1    3    3  502    0 -0.13718913442E+03 -0.12273165263E+04 -0.16764947147E+04  0.20822494701E+04  0.12699999809E+01 0. -1.
       -4    1    3    3    0  502  0.13718913442E+03  0.12273165263E+04 -0.14976213643E+03  0.12440084504E+04  0.12699999809E+01 0.  1.
</event>
<event>
 5   0  0.1307832E-05  0.2577876E+04  0.7818609E-02  0.8375755E-01
        2   -1    0    0  501    0  0.00000000000E+00  0.00000000000E+00  0.17615314081E+04  0.17615314081E+04  0.25500000920E-02 0.  1.
       -2   -1    0    0    0  501  0.00000000000E+00  0.00000000000E+00 -0.94313460160E+03  0.94313460161E+03  0.25500000920E-02 0. -1.
    10030    2    1    2    0    0  0.00000000000E+00  0.00000000000E+00  0.81839680646E+03  0.27046660097E+04  0.25778760426E+04 0.  0.
        4    1    3    3  502    0 -0.20816080899E+03  0.30827630478E+03 -0.88559586140E+03  0.96054507708E+03  0.12699999809E+01 0. -1.
       -4    1    3    3    0  502  0.20816080899E+03 -0.30827630478E+03  0.17039926679E+04  0.17441209326E+04  0.12699999809E+01 0.  1.
</event>
<event>
 5   0  0.5002240E-06  0.2038764E+04  0.7818609E-02  0.8588708E-01
        1   -1    0    0  501    0  0.00000000000E+00  0.00000000000E+00  0.55674885321E+03  0.55674885323E+03  0.50400001928E-02 0. -1.
       -1   -1    0    0    0  501  0.00000000000E+00  0.00000000000E+00 -0.18664431661E+04  0.18664431661E+04  0.50400001928E-02 0.  1.
    10030    2    1    2    0    0  0.00000000000E+00  0.00000000000E+00 -0.13096943129E+04  0.24231920193E+04  0.20387644222E+04 0.  0.
        4    1    3    3  502    0  0.47493141353E+03 -0.80709658194E+03 -0.11334894259E+04  0.14702940630E+04  0.12699999809E+01 0.  1.
       -4    1    3    3    0  502 -0.47493141353E+03  0.80709658194E+03 -0.17620488700E+03  0.95289795636E+03  0.12699999809E+01 0. -1.
</event>
<event>
 5   0  0.5352212E-06  0.2892011E+04  0.7818609E-02  0.8275258E-01
       -1   -1    0    0    0  501  0.00000000000E+00  0.00000000000E+00  0.11861036243E+04  0.11861036243E+04  0.50400001928E-02 0.  1.
        1   -1    0    0  501    0  0.00000000000E+00  0.00000000000E+00 -0.17628573353E+04  0.17628573353E+04  0.50400001928E-02 0. -1.
    10030    2    1    2    0    0  0.00000000000E+00  0.00000000000E+00 -0.57675371099E+03  0.29489609595E+04  0.28920107015E+04 0.  0.
        2    1    3    3  502    0  0.75126980492E+03  0.11793559903E+04  0.87175410225E+02  0.14010304864E+04  0.25500000920E-02 0.  1.
       -2    1    3    3    0  502 -0.75126980492E+03 -0.11793559903E+04 -0.66392912122E+03  0.15479304731E+04  0.25500000920E-02 0. -1.
</event>
<event>
 5   0  0.1339837E-05  0.2908929E+04  0.7818609E-02  0.8270226E-01
        2   -1    0    0  501    0  0.00000000000E+00  0.00000000000E+00  0.13568445832E+04  0.13568445832E+04  0.25500000920E-02 0.  1.
       -2   -1    0    0    0  501  0.00000000000E+00  0.00000000000E+00 -0.15591074811E+04  0.15591074811E+04  0.25500000920E-02 0. -1.
    10030    2    1    2    0    0  0.00000000000E+00  0.00000000000E+00 -0.20226289789E+03  0.29159520643E+04  0.29089286965E+04 0.  0.
        5    1    3    3  502    0  0.12497952085E+04  0.18303815573E+03  0.62168749164E+03  0.14078382211E+04  0.46999998093E+01 0.  1.
       -5    1    3    3    0  502 -0.12497952085E+04 -0.18303815573E+03 -0.82395038953E+03  0.15081138432E+04  0.46999998093E+01 0. -1.
</event>
<event>
 5   0  0.1339837E-05  0.2846244E+04  0.7818609E-02  0.8289054E-01
       -2   -1    0    0    0  501  0.00000000000E+00  0.00000000000E+00  0.10979221628E+04  0.10979221628E+04  0.25500000920E-02 0.  1.
        2   -1    0    0  501    0  0.00000000000E+00  0.00000000000E+00 -0.18446443935E+04  0.18446443935E+04  0.25500000920E-02 0. -1.
    10030    2    1    2    0    0  0.00000000000E+00  0.00000000000E+00 -0.74672223070E+03  0.29425665562E+04  0.28462438139E+04 0.  0.
        5    1    3    3  502    0  0.36007889921E+03  0.13445689983E+04 -0.67957959517E+03  0.15489910009E+04  0.46999998093E+01 0. -1.
       -5    1    3    3    0  502 -0.36007889921E+03 -0.13445689983E+04 -0.67142635538E+02  0.13935755553E+04  0.46999998093E+01 0.  1.
</event>
<event>
 5   0  0.5154476E-06  0.2994489E+04  0.7818609E-02  0.8245306E-01
        1   -1    0    0  501    0  0.00000000000E+00  0.00000000000E+00  0.22630444147E+04  0.22630444147E+04  0.50400001928E-02 0.  1.
       -1   -1    0    0    0  501  0.00000000000E+00  0.00000000000E+00 -0.99058668509E+03  0.99058668510E+03  0.50400001928E-02 0. -1.
    10030    2    1    2    0    0  0.00000000000E+00  0.00000000000E+00  0.12724577296E+04  0.32536310998E+04  0.29944893822E+04 0.  0.
        3    1    3    3  502    0  0.60044745000E+03 -0.12652018457E+04  0.12116526565E+04  0.18518571816E+04  0.10100000352E+00 0.  1.
       -3    1    3    3    0  502 -0.60044745000E+03  0.12652018457E+04  0.60805073089E+02  0.14017739182E+04  0.10100000352E+00 0. -1.
</event>
<event>
 5   0  0.1382803E-05  0.2894146E+04  0.7818609E-02  0.8274621E-01
        2   -1    0    0  501    0  0.00000000000E+00  0.00000000000E+00  0.18927347890E+04  0.18927347890E+04  0.25500000920E-02 0.  1.
       -2   -1    0    0    0  501  0.00000000000E+00  0.00000000000E+00 -0.11063463263E+04  0.11063463263E+04  0.25500000920E-02 0. -1.
    10030    2    1    2    0    0  0.00000000000E+00  0.00000000000E+00  0.78638846268E+03  0.29990811153E+04  0.28941459400E+04 0.  0.
        2    1    3    3  502    0 -0.46760706020E+03 -0.67802074889E+03  0.16261457212E+04  0.18228325226E+04  0.25500000920E-02 0.  1.
       -2    1    3    3    0  502  0.46760706020E+03  0.67802074889E+03 -0.83975725853E+03  0.11762485927E+04  0.25500000920E-02 0. -1.
</event>
<event>
 5   0  0.5002240E-06  0.2891910E+04  0.7818609E-02  0.8275288E-01
       -1   -1    0    0    0  501  0.00000000000E+00  0.00000000000E+00  0.88934713525E+03  0.88934713527E+03  0.50400001928E-02 0.  1.
        1   -1    0    0  501    0  0.00000000000E+00  0.00000000000E+00 -0.23509226580E+04  0.23509226580E+04  0.50400001928E-02 0. -1.
    10030    2    1    2    0    0  0.00000000000E+00  0.00000000000E+00 -0.14615755227E+04  0.32402697933E+04  0.28919103244E+04 0.  0.
        4    1    3    3  502    0 -0.48881023517E+03  0.60319682483E+03 -0.20975665612E+04  0.22366423378E+04  0.12699999809E+01 0. -1.
       -4    1    3    3    0  502  0.48881023517E+03 -0.60319682483E+03  0.63599103848E+03  0.10036274555E+04  0.12699999809E+01 0.  1.
</event>
<event>
 5   0  0.1385669E-05  0.2959962E+04  0.7818609E-02  0.8255257E-01
        2   -1    0    0  501    0  0.00000000000E+00  0.00000000000E+00  0.28797735711E+04  0.28797735711E+04  0.25500000920E-02 0.  1.
       -2   -1    0    0    0  501  0.00000000000E+00  0.00000000000E+00 -0.76059562445E+03  0.76059562446E+03  0.25500000920E-02 0. -1.
    10030    2    1    2    0    0  0.00000000000E+00  0.00000000000E+00  0.21191779466E+04  0.36403691955E+04  0.29599616062E+04 0.  0.
        3    1    3    3  502    0 -0.62253455274E+03  0.96573604709E+03 -0.87655204889E+02  0.11523362474E+04  0.10100000352E+00 0. -1.
       -3    1    3    3    0  502  0.62253455274E+03 -0.96573604709E+03  0.22068331515E+04  0.24880329481E+04  0.10100000352E+00 0.  1.
</event>
<event>
 5   0  0.1339837E-05  0.2285313E+04  0.7818609E-02  0.8483735E-01
       -2   -1    0    0    0  501  0.00000000000E+00  0.00000000000E+00  0.82096059737E+03  0.82096059737E+03  0.25500000920E-02 0.  1.
        2   -1    0    0  501    0  0.00000000000E+00  0.00000000000E+00 -0.15904098236E+04  0.15904098236E+04  0.25500000920E-02 0. -1.
    10030    2    1    2    0    0  0.00000000000E+00  0.00000000000E+00 -0.76944922623E+03  0.24113704210E+04  0.22853129316E+04 0.  0.
        5    1    3    3  502    0 -0.49591181906E+03 -0.95734929148E+03  0.14560348478E+02  0.10782765378E+04  0.46999998093E+01 0. -1.
       -5    1    3    3    0  502  0.49591181906E+03  0.95734929148E+03 -0.78400957470E+03  0.13330938832E+04  0.46999998093E+01 0.  1.
</event>
<event>
 5   0  0.1382803E-05  0.3074989E+04  0.7818609E-02  0.8222636E-01
       -2   -1    0    0    0  501  0.00000000000E+00  0.00000000000E+00  0.12850366288E+04  0.12850366288E+04  0.25500000920E-02 0.  1.
        2   -1    0    0  501    0  0.00000000000E+00  0.00000000000E+00 -0.18395504773E+04  0.18395504773E+04  0.25500000920E-02 0. -1.
    10030    2    1    2    0    0  0.00000000000E+00  0.00000000000E+00 -0.55451384852E+03  0.31245871060E+04  0.30749892642E+04 0.  0.
        2    1    3    3  502    0 -0.61571945462E+02  0.10976296284E+04  0.81493231242E+03  0.13684650450E+04  0.25500000920E-02 0.  1.
       -2    1    3    3    0  502  0.61571945462E+02 -0.10976296284E+04 -0.13694461609E+04  0.17561220610E+04  0.25500000920E-02 0. -1.
</event>
<event>
 5   0  0.5154476E-06  0.2866544E+04  0.7818609E-02  0.8282902E-01
       -1   -1    0    0    0  501  0.00000000000E+00  0.00000000000E+00  0.10994870944E+04  0.10994870945E+04  0.50400001928E-02 0. -1.
        1   -1    0    0  501    0  0.00000000000E+00  0.00000000000E+00 -0.18683882584E+04  0.18683882584E+04  0.50400001928E-02 0.  1.
    10030    2    1    2    0    0  0.00000000000E+00  0.00000000000E+00 -0.76890116400E+03  0.29678753529E+04  0.28665441058E+04 0.  0.
        3    1    3    3  502    0  0.91070051140E+03  0.79791169641E+03  0.40962293769E+03  0.12782133852E+04  0.10100000352E+00 0. -1.
       -3    1    3    3    0  502 -0.91070051140E+03 -0.79791169641E+03 -0.11785241017E+04  0.16896619677E+04  0.10100000352E+00 0.  1.
</event>
<event>
 5   0  0.1382803E-05  0.2902750E+04  0.7818609E-02  0.8272060E-01
       -2   -1    0    0    0  501  0.00000000000E+00  0.00000000000E+00  0.14446194297E+04  0.14446194297E+04  0.25500000920E-02 0. -1.
        2   -1    0    0  501    0  0.00000000000E+00  0.00000000000E+00 -0.14581625348E+04  0.14581625348E+04  0.25500000920E-02 0.  1.
    10030    2    1    2    0    0  0.00000000000E+00  0.00000000000E+00 -0.13543105090E+02  0.29027819645E+04  0.29027503712E+04 0.  0.
        2    1    3    3  502    0  0.95736312197E+03 -0.44400537306E+03 -0.10031784083E+04  0.14560397788E+04  0.25500000920E-02 0.  1.
       -2    1    3    3    0  502 -0.95736312197E+03  0.44400537306E+03  0.98963530317E+03  0.14467421857E+04  0.25500000920E-02 0. -1.
</event>
<event>
 5   0  0.5154476E-06  0.2203475E+04  0.7818609E-02  0.8516983E-01
        1   -1    0    0  501    0  0.00000000000E+00  0.00000000000E+00  0.83698530797E+03  0.83698530799E+03  0.50400001928E-02 0.  1.
       -1   -1    0    0    0  501  0.00000000000E+00  0.00000000000E+00 -0.14502355524E+04  0.14502355524E+04  0.50400001928E-02 0. -1.
    10030    2    1    2    0    0  0.00000000000E+00  0.00000000000E+00 -0.61325024446E+03  0.22872208604E+04  0.22034753010E+04 0.  0.
        3    1    3    3  502    0  0.67672462749E+03 -0.34794866740E+03 -0.11336504978E+04  0.13653526863E+04  0.10100000352E+00 0. -1.
       -3    1    3    3    0  502 -0.67672462749E+03  0.34794866740E+03  0.52040025334E+03  0.92186817413E+03  0.10100000352E+00 0.  1.
</event>
<event>
 5   0  0.5002240E-06  0.2137949E+04  0.7818609E-02  0.8544708E-01
       -1   -1    0    0    0  501  0.00000000000E+00  0.00000000000E+00  0.17544986954E+04  0.17544986954E+04  0.50400001928E-02 0. -1.
        1   -1    0    0  501    0  0.00000000000E+00  0.00000000000E+00 -0.65130099581E+03  0.65130099583E+03  0.50400001928E-02 0.  1.
    10030    2    1    2    0    0  0.00000000000E+00  0.00000000000E+00  0.11031976996E+04  0.24057996912E+04  0.21379492487E+04 0.  0.
        4    1    3    3  502    0  0.93391319383E+03 -0.51999599151E+03  0.53950794858E+03  0.11973554711E+04  0.12699999809E+01 0. -1.
       -4    1    3    3    0  502 -0.93391319383E+03  0.51999599151E+03  0.56368975101E+03  0.12084442201E+04  0.12699999809E+01 0.  1.
</event>
<event>
 5   0  0.1385669E-05  0.2858146E+04  0.7818609E-02  0.8285440E-01
        2   -1    0    0  501    0  0.00000000000E+00  0.00000000000E+00  0.17270656079E+04  0.17270656079E+04  0.25500000920E-02 0.  1.
       -2   -1    0    0    0  501  0.00000000000E+00  0.00000000000E+00 -0.11824966681E+04  0.11824966681E+04  0.25500000920E-02 0. -1.
    10030    2    1    2    0    0  0.00000000000E+00  0.00000000000E+00  0.54456893976E+03  0.29095622760E+04  0.28581457814E+04 0.  0.
        3    1    3    3  502    0  0.89281678986E+02 -0.40946083918E+02 -0.11790563272E+04  0.11831405804E+04  0.10100000352E+00 0. -1.
       -3    1    3    3    0  502 -0.89281678986E+02  0.40946083918E+02  0.17236252670E+04  0.17264216956E+04  0.10100000352E+00 0.  1.
</event>
<event>
 5   0  0.5059249E-06  0.3018278E+04  0.7818609E-02  0.8238531E-01
       -1   -1    0    0    0  501  0.00000000000E+00  0.00000000000E+00  0.96305871944E+03  0.96305871945E+03  0.50400001928E-02 0.  1.
        1   -1    0    0  501    0  0.00000000000E+00  0.00000000000E+00 -0.23648619955E+04  0.23648619956E+04  0.50400001928E-02 0. -1.
    10030    2    1    2    0    0  0.00000000000E+00  0.00000000000E+00 -0.14018032761E+04  0.33279207150E+04  0.30182782941E+04 0.  0.
        1    1    3    3  502    0  0.30651210781E+02  0.40614855013E+03 -0.23031137602E+04  0.23388520975E+04  0.50400001928E-02 0. -1.
       -1    1    3    3    0  502 -0.30651210781E+02 -0.40614855013E+03  0.90131048407E+03  0.98906861754E+03  0.50400001928E-02 0.  1.
</event>
<event>
 5   0  0.5352212E-06  0.2944747E+04  0.7818609E-02  0.8259687E-01
       -1   -1    0    0    0  501  0.00000000000E+00  0.00000000000E+00  0.15128752471E+04  0.15128752471E+04  0.50400001928E-02 0. -1.
        1   -1    0    0  501    0  0.00000000000E+00  0.00000000000E+00 -0.14329560430E+04  0.14329560430E+04  0.50400001928E-02 0.  1.
    10030    2    1    2    0    0  0.00000000000E+00  0.00000000000E+00  0.79919204126E+02  0.29458312902E+04  0.29447470029E+04 0.  0.
        2    1    3    3  502    0  0.73805260416E+03  0.57626301887E+03 -0.10967171200E+04  0.14420780682E+04  0.25500000920E-02 0.  1.
       -2    1    3    3    0  502 -0.73805260416E+03 -0.57626301887E+03  0.11766363241E+04  0.15037532220E+04  0.25500000920E-02 0. -1.
</event>
<event>
 5   0  0.5352212E-06  0.2890816E+04  0.7818609E-02  0.8275615E-01
       -1   -1    0    0    0  501  0.00000000000E+00  0.00000000000E+00  0.11283842465E+04  0.11283842465E+04  0.50400001928E-02 0.  1.
        1   -1    0    0  501    0  0.00000000000E+00  0.00000000000E+00 -0.18515005377E+04  0.18515005377E+04  0.50400001928E-02 0. -1.
    10030    2    1    2    0    0  0.00000000000E+00  0.00000000000E+00 -0.72311629124E+03  0.29798847842E+04  0.28908158289E+04 0.  0.
        2    1    3    3  502    0 -0.32477642187E+03 -0.73409999854E+03  0.87748419519E+03  0.11892691221E+04  0.25500000920E-02 0.  1.
       -2    1    3    3    0  502  0.32477642187E+03  0.73409999854E+03 -0.16006004864E+04  0.17906156621E+04  0.25500000920E-02 0. -1.
</event>
<event>
 5   0  0.1307832E-05  0.2909247E+04  0.7818609E-02  0.8270131E-01
        2   -1    0    0  501    0  0.00000000000E+00  0.00000000000E+00  0.16166093989E+04  0.16166093989E+04  0.25500000920E-02 0. -1.
       -2   -1    0    0    0  501  0.00000000000E+00  0.00000000000E+00 -0.13088688655E+04  0.13088688655E+04  0.25500000920E-02 0.  1.
    10030    2    1    2    0    0  0.00000000000E+00  0.00000000000E+00  0.30774053336E+03  0.29254782645E+04  0.29092471260E+04 0.  0.
        4    1    3    3  502    0  0.46224216315E+03 -0.13054782651E+04 -0.29356927040E+03  0.14156715182E+04  0.12699999809E+01 0.  1.
       -4    1    3    3    0  502 -0.46224216315E+03  0.13054782651E+04  0.60130980377E+03  0.15098067463E+04  0.12699999809E+01 0. -1.
</event>
<event>
 5   0  0.5002240E-06  0.2886557E+04  0.7818609E-02  0.8276888E-01
        1   -1    0    0  501    0  0.00000000000E+00  0.00000000000E+00  0.11978213813E+04  0.11978213814E+04  0.50400001928E-02 0. -1.
       -1   -1    0    0    0  501  0.00000000000E+00  0.00000000000E+00 -0.17390351789E+04  0.17390351789E+04  0.50400001928E-02 0.  1.
    10030    2    1    2    0    0  0.00000000000E+00  0.00000000000E+00 -0.54121379755E+03  0.29368565603E+04  0.28865574792E+04 0.  0.
        4    1    3    3  502    0  0.14101582424E+04 -0.26311919359E+03 -0.43235489258E+03  0.14982357441E+04  0.12699999809E+01 0.  1.
       -4    1    3    3    0  502 -0.14101582424E+04  0.26311919359E+03 -0.10885890497E+03  0.14386208162E+04  0.12699999809E+01 0. -1.
</event>
<event>
 5   0  0.5059249E-06  0.2823425E+04  0.7818609E-02  0.8296033E-01
       -1   -1    0    0    0  501  0.00000000000E+00  0.00000000000E+00  0.16679621619E+04  0.16679621619E+04  0.50400001928E-02 0. -1.
        1   -1    0    0  501    0  0.00000000000E+00  0.00000000000E+00 -0.11948306187E+04  0.11948306187E+04  0.50400001928E-02 0.  1.
    10030    2    1    2    0    0  0.00000000000E+00  0.00000000000E+00  0.47313154323E+03  0.28627927806E+04  0.28234250561E+04 0.  0.
        1    1    3    3  502    0  0.11565237935E+03  0.82368376671E+03 -0.91999722860E+03  0.12402521200E+04  0.50400001928E-02 0.  1.
       -1    1    3    3    0  502 -0.11565237935E+03 -0.82368376671E+03  0.13931287718E+04  0.16225406606E+04  0.50400001928E-02 0. -1.
</event>
<event>
 5   0  0.1339837E-05  0.2907432E+04  0.7818609E-02  0.8270670E-01
       -2   -1    0    0    0  501  0.00000000000E+00  0.00000000000E+00  0.10300197007E+04  0.10300197007E+04  0.25500000920E-02 0. -1.
        2   -1    0    0  501    0  0.00000000000E+00  0.00000000000E+00 -0.20516985394E+04  0.20516985394E+04  0.25500000920E-02 0.  1.
    10030    2    1    2    0    0  0.00000000000E+00  0.00000000000E+00 -0.10216788387E+04  0.30817182401E+04  0.29074317983E+04 0.  0.
        5    1    3    3  502    0  0.11315949351E+04 -0.41195703939E+02 -0.14771139545E+04  0.18612071103E+04  0.46999998093E+01 0.  1.
       -5    1    3    3    0  502 -0.11315949351E+04  0.41195703939E+02  0.45543511573E+03  0.12205111297E+04  0.46999998093E+01 0. -1.
</event>
<event>
 5   0  0.1336899E-05  0.2854421E+04  0.7818609E-02  0.8286569E-01
       -2   -1    0    0    0  501  0.00000000000E+00  0.00000000000E+00  0.18526046449E+04  0.18526046449E+04  0.25500000920E-02 0. -1.
        2   -1    0    0  501    0  0.00000000000E+00  0.00000000000E+00 -0.10994951203E+04  0.10994951203E+04  0.25500000920E-02 0.  1.
    10030    2    1    2    0    0  0.00000000000E+00  0.00000000000E+00  0.75310952463E+03  0.29520997652E+04  0.28544209689E+04 0.  0.
        1    1    3    3  502    0  0.10566252244E+03 -0.81241201820E+03  0.15852001959E+04  0.17843871545E+04  0.50400001928E-02 0. -1.
       -1    1    3    3    0  502 -0.10566252244E+03  0.81241201820E+03 -0.83209067130E+03  0.11677126107E+04  0.50400001928E-02 0.  1.
</event>
<event>
 5   0  0.1336899E-05  0.2882485E+04  0.7818609E-02  0.8278108E-01
        2   -1    0    0  501    0  0.00000000000E+00  0.00000000000E+00  0.14194597628E+04  0.14194597628E+04  0.25500000920E-02 0. -1.
       -2   -1    0    0    0  501  0.00000000000E+00  0.00000000000E+00 -0.14633590567E+04  0.14633590567E+04  0.25500000920E-02 0.  1.
    10030    2    1    2    0    0  0.00000000000E+00  0.00000000000E+00 -0.43899293981E+02  0.28828188195E+04  0.28824845530E+04 0.  0.
        1    1    3    3  502    0  0.14336542701E+04  0.82233447540E+02  0.10075277645E+03  0.14395409088E+04  0.50400001928E-02 0. -1.
       -1    1    3    3    0  502 -0.14336542701E+04 -0.82233447540E+02 -0.14465207043E+03  0.14432779107E+04  0.50400001928E-02 0.  1.
</event>
<event>
 5   0  0.5154476E-06  0.2522513E+04  0.7818609E-02  0.8395009E-01
       -1   -1    0    0    0  501  0.00000000000E+00  0.00000000000E+00  0.77361948882E+03  0.77361948883E+03  0.50400001928E-02 0. -1.
        1   -1    0    0  501    0  0.00000000000E+00  0.00000000000E+00 -0.20562664676E+04  0.20562664676E+04  0.50400001928E-02 0.  1.
    10030    2    1    2    0    0  0.00000000000E+00  0.00000000000E+00 -0.12826469788E+04  0.28298859564E+04  0.25225128848E+04 0.  0.
        3    1    3    3  502    0  0.75882408141E+03  0.49024395438E+03 -0.16286900229E+04  0.18624672674E+04  0.10100000352E+00 0.  1.
       -3    1    3    3    0  502 -0.75882408141E+03 -0.49024395438E+03  0.34604304409E+03  0.96741868903E+03  0.10100000352E+00 0. -1.
</event>
<event>
 5   0  0.1339837E-05  0.2945619E+04  0.7818609E-02  0.8259432E-01
        2   -1    0    0  501    0  0.00000000000E+00  0.00000000000E+00  0.19905843132E+04  0.19905843132E+04  0.25500000920E-02 0.  1.
       -2   -1    0    0    0  501  0.00000000000E+00  0.00000000000E+00 -0.10897141195E+04  0.10897141195E+04  0.25500000920E-02 0. -1.
    10030    2    1    2    0    0  0.00000000000E+00  0.00000000000E+00  0.90087019373E+03  0.30802984327E+04  0.29456190060E+04 0.  0.
        5    1    3    3  502    0 -0.91465581484E+03  0.98213591303E+03  0.10847665551E+04  0.17256670537E+04  0.46999998093E+01 0.  1.
       -5    1    3    3    0  502  0.91465581484E+03 -0.98213591303E+03 -0.18389636132E+03  0.13546313790E+04  0.46999998093E+01 0. -1.
</event>
<event>
 5   0  0.1382803E-05  0.2729299E+04  0.7818609E-02  0.8325561E-01
        2   -1    0    0  501    0  0.00000000000E+00  0.00000000000E+00  0.21031786974E+04  0.21031786974E+04  0.25500000920E-02 0.  1.
       -2   -1    0    0    0  501  0.00000000000E+00  0.00000000000E+00 -0.88545417943E+03  0.88545417944E+03  0.25500000920E-02 0. -1.
    10030    2    1    2    0    0  0.00000000000E+00  0.00000000000E+00  0.12177245180E+04  0.29886328768E+04  0.27292990805E+04 0.  0.
        2    1    3    3  502    0 -0.57191926254E+03  0.51813736432E+02 -0.74670339797E+03  0.94198846633E+03  0.25500000920E-02 0. -1.
       -2    1    3    3    0  502  0.57191926254E+03 -0.51813736432E+02  0.19644279159E+04  0.20466444105E+04  0.25500000920E-02 0.  1.
</event>
<event>
 5   0  0.5261878E-06  0.2883561E+04  0.7818609E-02  0.8277785E-01
        1   -1    0    0  501    0  0.00000000000E+00  0.00000000000E+00  0.13550071025E+04  0.13550071025E+04  0.50400001928E-02 0.  1.
       -1   -1    0    0    0  501  0.00000000000E+00  0.00000000000E+00 -0.15341108867E+04  0.15341108867E+04  0.50400001928E-02 0. -1.
    10030    2    1    2    0    0  0.00000000000E+00  0.00000000000E+00 -0.17910378423E+03  0.28891179893E+04  0.28835610953E+04 0.  0.
        5    1    3    3  502    0  0.10022033077E+04  0.90875098343E+02  0.94492961058E+03  0.13804288509E+04  0.46999998093E+01 0.  1.
       -5    1    3    3    0  502 -0.10022033077E+04 -0.90875098343E+02 -0.11240333948E+04  0.15086891383E+04  0.46999998093E+01 0. -1.
</event>
<event>
 5   0  0.1336899E-05  0.2806469E+04  0.7818609E-02  0.8301263E-01
       -2   -1    0    0    0  501  0.00000000000E+00  0.00000000000E+00  0.10102532563E+04  0.10102532563E+04  0.25500000920E-02 0. -1.
        2   -1    0    0  501    0  0.00000000000E+00  0.00000000000E+00 -0.19490831715E+04  0.19490831715E+04  0.25500000920E-02 0.  1.
    10030    2    1    2    0    0  0.00000000000E+00  0.00000000000E+00 -0.93882991521E+03  0.29593364279E+04  0.28064693983E+04 0.  0.
        1    1    3    3  502    0 -0.12243180567E+04 -0.30709761315E+03  0.17700493480E+03  0.12745957771E+04  0.50400001928E-02 0. -1.
       -1    1    3    3    0  502  0.12243180567E+04  0.30709761315E+03 -0.11158348500E+04  0.16847406508E+04  0.50400001928E-02 0.  1.
</event>
<event>
 5   0  0.1307832E-05  0.2884808E+04  0.7818609E-02  0.8277412E-01
       -2   -1    0    0    0  501  0.00000000000E+00  0.00000000000E+00  0.15400542828E+04  0.15400542828E+04  0.25500000920E-02 0.  1.
        2   -1    0    0  501    0  0.00000000000E+00  0.00000000000E+00 -0.13509454958E+04  0.13509454958E+04  0.25500000920E-02 0. -1.
    10030    2    1    2    0    0  0.00000000000E+00  0.00000000000E+00  0.18910878701E+03  0.28909997785E+04  0.28848080675E+04 0.  0.
        4    1    3    3  502    0 -0.48569962059E+02  0.13832977431E+04  0.50120370559E+03  0.14721000152E+04  0.12699999809E+01 0.  1.
       -4    1    3    3    0  502  0.48569962059E+02 -0.13832977431E+04 -0.31209491858E+03  0.14188997633E+04  0.12699999809E+01 0. -1.
</event>
<event>
 5   0  0.1336899E-05  0.1806811E+04  0.7818609E-02  0.8702686E-01
       -2   -1    0    0    0  501  0.00000000000E+00  0.00000000000E+00  0.47650304879E+03  0.47650304880E+03  0.25500000920E-02 0. -1.
        2   -1    0    0  501    0  0.00000000000E+00  0.00000000000E+00 -0.17127736779E+04  0.17127736779E+04  0.25500000920E-02 0.  1.
    10030    2    1    2    0    0  0.00000000000E+00  0.00000000000E+00 -0.12362706292E+04  0.21892767267E+04  0.18068114229E+04 0.  0.
        1    1    3    3  502    0  0.33251002279E+01  0.42230049803E+03  0.34953572843E+03  0.54820068625E+03  0.50400001928E-02 0. -1.
       -1    1    3    3    0  502 -0.33251002279E+01 -0.42230049803E+03 -0.15858063576E+04  0.16410760405E+04  0.50400001928E-02 0.  1.
</event>
<event>
 5   0  0.1382803E-05  0.2933811E+04  0.7818609E-02  0.8262888E-01
       -2   -1    0    0    0  501  0.00000000000E+00  0.00000000000E+00  0.18685009688E+04  0.18685009688E+04  0.25500000920E-02 0. -1.
        2   -1    0    0  501    0  0.00000000000E+00  0.00000000000E+00 -0.11516243682E+04  0.11516243682E+04  0.25500000920E-02 0.  1.
    10030    2    1    2    0    0  0.00000000000E+00  0.00000000000E+00  0.71687660065E+03  0.30201253370E+04  0.29338106603E+04 0.  0.
        2    1    3    3  502    0  0.73253616865E+03  0.85413955346E+03  0.13272142919E+04  0.17400176413E+04  0.25500000920E-02 0. -1.
       -2    1    3    3    0  502 -0.73253616865E+03 -0.85413955346E+03 -0.61033769130E+03  0.12801076957E+04  0.25500000920E-02 0.  1.
</event>
<event>
 5   0  0.5352212E-06  0.2889723E+04  0.7818609E-02  0.8275942E-01
       -1   -1    0    0    0  501  0.00000000000E+00  0.00000000000E+00  0.14045045905E+04  0.14045045905E+04  0.50400001928E-02 0. -1.
        1   -1    0    0  501    0  0.00000000000E+00  0.00000000000E+00 -0.14863780825E+04  0.14863780825E+04  0.50400001928E-02 0.  1.
    10030    2    1    2    0    0  0.00000000000E+00  0.00000000000E+00 -0.81873491934E+02  0.28908826730E+04  0.28897230595E+04 0.  0.
        2    1    3    3  502    0  0.34990739598E+03 -0.82730366802E+03  0.10912233176E+04  0.14133771166E+04  0.25500000920E-02 0. -1.
       -2    1    3    3    0  502 -0.34990739598E+03  0.82730366802E+03 -0.11730968095E+04  0.14775055564E+04  0.25500000920E-02 0.  1.
</event>
<event>
 5   0  0.5352212E-06  0.2899994E+04  0.7818609E-02  0.8272879E-01
       -1   -1    0    0    0  501  0.00000000000E+00  0.00000000000E+00  0.12764382792E+04  0.12764382792E+04  0.50400001928E-02 0.  1.
        1   -1    0    0  501    0  0.00000000000E+00  0.00000000000E+00 -0.16471542556E+04  0.16471542556E+04  0.50400001928E-02 0. -1.
    10030    2    1    2    0    0  0.00000000000E+00  0.00000000000E+00 -0.37071597635E+03  0.29235925348E+04  0.28999936163E+04 0.  0.
        2    1    3    3  502    0 -0.50698412519E+03 -0.40003376034E+03 -0.14941639645E+04  0.16277548542E+04  0.25500000920E-02 0. -1.
       -2    1    3    3    0  502  0.50698412519E+03  0.40003376034E+03  0.11234479881E+04  0.12958376807E+04  0.25500000920E-02 0.  1.
</event>
<event>
 5   0  0.1336899E-05  0.2910256E+04  0.7818609E-02  0.8269833E-01
       -2   -1    0    0    0  501  0.00000000000E+00  0.00000000000E+00  0.12297756316E+04  0.12297756316E+04  0.25500000920E-02 0. -1.
        2   -1    0    0  501    0  0.00000000000E+00  0.00000000000E+00 -0.17217752941E+04  0.17217752941E+04  0.25500000920E-02 0.  1.
    10030    2    1    2    0    0  0.00000000000E+00  0.00000000000E+00 -0.49199966246E+03  0.29515509257E+04  0.29102558649E+04 0.  0.
        1    1    3    3  502    0 -0.97374527661E+03 -0.45754074890E+03  0.74763360896E+03  0.13101448065E+04  0.50400001928E-02 0. -1.
       -1    1    3    3    0  502  0.97374527661E+03  0.45754074890E+03 -0.12396332714E+04  0.16414061192E+04  0.50400001928E-02 0.  1.
</event>
<event>
 5   0  0.5059249E-06  0.2947177E+04  0.7818609E-02  0.8258978E-01
       -1   -1    0    0    0  501  0.00000000000E+00  0.00000000000E+00  0.11989592001E+04  0.11989592001E+04  0.50400001928E-02 0. -1.
        1   -1    0    0  501    0  0.00000000000E+00  0.00000000000E+00 -0.18111232594E+04  0.18111232595E+04  0.50400001928E-02 0.  1.
    10030    2    1    2    0    0  0.00000000000E+00  0.00000000000E+00 -0.61216405934E+03  0.30100824596E+04  0.29471768827E+04 0.  0.
        1    1    3    3  502    0 -0.43375938129E+03  0.12860604977E+04 -0.89223411503E+03  0.16242476784E+04  0.50400001928E-02 0.  1.
       -1    1    3    3    0  502  0.43375938129E+03 -0.12860604977E+04  0.28007005570E+03  0.13858347812E+04  0.50400001928E-02 0. -1.
</event>
<event>
 5   0  0.5261878E-06  0.2641180E+04  0.7818609E-02  0.8354346E-01
       -1   -1    0    0    0  501  0.00000000000E+00  0.00000000000E+00  0.13572165198E+04  0.13572165198E+04  0.50400001928E-02 0. -1.
        1   -1    0    0  501    0  0.00000000000E+00  0.00000000000E+00 -0.12849518011E+04  0.12849518011E+04  0.50400001928E-02 0.  1.
    10030    2    1    2    0    0  0.00000000000E+00  0.00000000000E+00  0.72264718717E+02  0.26421683210E+04  0.26411798967E+04 0.  0.
        5    1    3    3  502    0  0.47660281254E+03  0.86107449668E+01  0.12681415979E+04  0.13547802730E+04  0.46999998093E+01 0. -1.
       -5    1    3    3    0  502 -0.47660281254E+03 -0.86107449668E+01 -0.11958768792E+04  0.12873880479E+04  0.46999998093E+01 0.  1.
</event>
<event>
 5   0  0.1336899E-05  0.1801889E+04  0.7818609E-02  0.8705296E-01
       -2   -1    0    0    0  501  0.00000000000E+00  0.00000000000E+00  0.47301209039E+03  0.47301209040E+03  0.25500000920E-02 0.  1.
        2   -1    0    0  501    0  0.00000000000E+00  0.00000000000E+00 -0.17160255865E+04  0.17160255865E+04  0.25500000920E-02 0. -1.
    10030    2    1    2    0    0  0.00000000000E+00  0.00000000000E+00 -0.12430134961E+04  0.21890376769E+04  0.18018888421E+04 0.  0.
        1    1    3    3  502    0  0.68866792609E+03 -0.38357928168E+02  0.82655778133E+02  0.69467029645E+03  0.50400001928E-02 0.  1.
       -1    1    3    3    0  502 -0.68866792609E+03  0.38357928168E+02 -0.13256692742E+04  0.14943673805E+04  0.50400001928E-02 0. -1.
</event>
<event>
 5   0  0.5002240E-06  0.2868865E+04  0.7818609E-02  0.8282202E-01
       -1   -1    0    0    0  501  0.00000000000E+00  0.00000000000E+00  0.98445468730E+03  0.98445468731E+03  0.50400001928E-02 0.  1.
        1   -1    0    0  501    0  0.00000000000E+00  0.00000000000E+00 -0.20900872218E+04  0.20900872218E+04  0.50400001928E-02 0. -1.
    10030    2    1    2    0    0  0.00000000000E+00  0.00000000000E+00 -0.11056325345E+04  0.30745419091E+04  0.28688646970E+04 0.  0.
        4    1    3    3  502    0 -0.36385369551E+03  0.50200397339E+03 -0.19390737261E+04  0.20357814296E+04  0.12699999809E+01 0. -1.
       -4    1    3    3    0  502  0.36385369551E+03 -0.50200397339E+03  0.83344119159E+03  0.10387604795E+04  0.12699999809E+01 0.  1.
</event>
<event>
 5   0  0.1382803E-05  0.2896761E+04  0.7818609E-02  0.8273842E-01
        2   -1    0    0  501    0  0.00000000000E+00  0.00000000000E+00  0.19625019730E+04  0.19625019730E+04  0.25500000920E-02 0. -1.
       -2   -1    0    0    0  501  0.00000000000E+00  0.00000000000E+00 -0.10689448709E+04  0.10689448709E+04  0.25500000920E-02 0.  1.
    10030    2    1    2    0    0  0.00000000000E+00  0.00000000000E+00  0.89355710215E+03  0.30314468439E+04  0.28967612384E+04 0.  0.
        2    1    3    3  502    0  0.17586317953E+03 -0.11778352508E+04 -0.41591868847E+03  0.12614325552E+04  0.25500000920E-02 0.  1.
       -2    1    3    3    0  502 -0.17586317953E+03  0.11778352508E+04  0.13094757906E+04  0.17700142887E+04  0.25500000920E-02 0. -1.
</event>
<event>
 5   0  0.5002240E-06  0.2853658E+04  0.7818609E-02  0.8286801E-01
       -1   -1    0    0    0  501  0.00000000000E+00  0.00000000000E+00  0.83660362175E+03  0.83660362176E+03  0.50400001928E-02 0. -1.
        1   -1    0    0  501    0  0.00000000000E+00  0.00000000000E+00 -0.24334589000E+04  0.24334589000E+04  0.50400001928E-02 0.  1.
    10030    2    1    2    0    0  0.00000000000E+00  0.00000000000E+00 -0.15968552782E+04  0.32700625218E+04  0.28536576733E+04 0.  0.
        4    1    3    3  502    0 -0.76177373290E+03 -0.12045779566E+04 -0.72128721735E+03  0.15973616173E+04  0.12699999809E+01 0.  1.
       -4    1    3    3    0  502  0.76177373290E+03  0.12045779566E+04 -0.87556806089E+03  0.16727009045E+04  0.12699999809E+01 0. -1.
</event>
<event>
 5   0  0.5059249E-06  0.2521594E+04  0.7818609E-02  0.8395333E-01
       -1   -1    0    0    0  501  0.00000000000E+00  0.00000000000E+00  0.61399483332E+03  0.61399483334E+03  0.50400001928E-02 0.  1.
        1   -1    0    0  501    0  0.00000000000E+00  0.00000000000E+00 -0.25889612697E+04  0.25889612697E+04  0.50400001928E-02 0. -1.
    10030    2    1    2    0    0  0.00000000000E+00  0.00000000000E+00 -0.19749664364E+04  0.32029561030E+04  0.25215938161E+04 0.  0.
        1    1    3    3  502    0  0.18222974493E+03 -0.12080249186E+04 -0.59172135829E+03  0.13574483599E+04  0.50400001928E-02 0.  1.
       -1    1    3    3    0  502 -0.18222974493E+03  0.12080249186E+04 -0.13832450781E+04  0.18455077431E+04  0.50400001928E-02 0. -1.
</event>
<event>
 5   0  0.1339837E-05  0.2898200E+04  0.7818609E-02  0.8273413E-01
       -2   -1    0    0    0  501  0.00000000000E+00  0.00000000000E+00  0.81753150899E+03  0.81753150899E+03  0.25500000920E-02 0. -1.
        2   -1    0    0  501    0  0.00000000000E+00  0.00000000000E+00 -0.25685745326E+04  0.25685745326E+04  0.25500000920E-02 0.  1.
    10030    2    1    2    0    0  0.00000000000E+00  0.00000000000E+00 -0.17510430236E+04  0.33861060416E+04  0.28981998645E+04 0.  0.
        5    1    3    3  502    0 -0.19903814866E+03  0.73237173387E+03  0.56675381797E+03  0.94721513997E+03  0.46999998093E+01 0. -1.
       -5    1    3    3    0  502  0.19903814866E+03 -0.73237173387E+03 -0.23177968416E+04  0.24388909016E+04  0.46999998093E+01 0.  1.
</event>
<event>
 5   0  0.5154476E-06  0.2508453E+04  0.7818609E-02  0.8399980E-01
        1   -1    0    0  501    0  0.00000000000E+00  0.00000000000E+00  0.13797162081E+04  0.13797162081E+04  0.50400001928E-02 0.  1.
       -1   -1    0    0    0  501  0.00000000000E+00  0.00000000000E+00 -0.11401507115E+04  0.11401507115E+04  0.50400001928E-02 0. -1.
    10030    2    1    2    0    0  0.00000000000E+00  0.00000000000E+00  0.23956549660E+03  0.25198669197E+04  0.25084532417E+04 0.  0.
        3    1    3    3  502    0  0.11661616497E+04 -0.21649988935E+03  0.52941163271E+03  0.12988771621E+04  0.10100000352E+00 0.  1.
       -3    1    3    3    0  502 -0.11661616497E+04  0.21649988935E+03 -0.28984613611E+03  0.12209897575E+04  0.10100000352E+00 0. -1.
</event>
<event>
 5   0  0.5154476E-06  0.2858096E+04  0.7818609E-02  0.8285455E-01
        1   -1    0    0  501    0  0.00000000000E+00  0.00000000000E+00  0.23072044757E+04  0.23072044757E+04  0.50400001928E-02 0.  1.
       -1   -1    0    0    0  501  0.00000000000E+00  0.00000000000E+00 -0.88513095179E+03  0.88513095180E+03  0.50400001928E-02 0. -1.
    10030    2    1    2    0    0  0.00000000000E+00  0.00000000000E+00  0.14220735239E+04  0.31923354275E+04  0.28580959351E+04 0.  0.
        3    1    3    3  502    0 -0.13254438030E+04 -0.46405820049E+03  0.41546438748E+03  0.14645005824E+04  0.10100000352E+00 0. -1.
       -3    1    3    3    0  502  0.13254438030E+04  0.46405820049E+03  0.10066091364E+04  0.17278348451E+04  0.10100000352E+00 0.  1.
</event>
<event>
 5   0  0.1382803E-05  0.2925671E+04  0.7818609E-02  0.8265280E-01
        2   -1    0    0  501    0  0.00000000000E+00  0.00000000000E+00  0.18366620752E+04  0.18366620752E+04  0.25500000920E-02 0.  1.
       -2   -1    0    0    0  501  0.00000000000E+00  0.00000000000E+00 -0.11650958005E+04  0.11650958005E+04  0.25500000920E-02 0. -1.
    10030    2    1    2    0    0  0.00000000000E+00  0.00000000000E+00  0.67156627466E+03  0.30017578756E+04  0.29256707065E+04 0.  0.
        2    1    3    3  502    0 -0.46399487926E+03  0.95204288492E+03 -0.69952343954E+03  0.12692556658E+04  0.25500000920E-02 0. -1.
       -2    1    3    3    0  502  0.46399487926E+03 -0.95204288492E+03  0.13710897142E+04  0.17325022098E+04  0.25500000920E-02 0.  1.
</event>
<event>
 5   0  0.1307832E-05  0.2831901E+04  0.7818609E-02  0.8293432E-01
        2   -1    0    0  501    0  0.00000000000E+00  0.00000000000E+00  0.14396242651E+04  0.14396242651E+04  0.25500000920E-02 0. -1.
       -2   -1    0    0    0  501  0.00000000000E+00  0.00000000000E+00 -0.13926663050E+04  0.13926663050E+04  0.25500000920E-02 0.  1.
    10030    2    1    2    0    0  0.00000000000E+00  0.00000000000E+00  0.46957960115E+02  0.28322905701E+04  0.28319012736E+04 0.  0.
        4    1    3    3  502    0  0.59713082402E+03 -0.10615137778E+04 -0.69879608602E+03  0.14041703259E+04  0.12699999809E+01 0.  1.
       -4    1    3    3    0  502 -0.59713082402E+03  0.10615137778E+04  0.74575404614E+03  0.14281202441E+04  0.12699999809E+01 0. -1.
</event>
<event>
 5   0  0.5154476E-06  0.2969586E+04  0.7818609E-02  0.8252469E-01
        1   -1    0    0  501    0  0.00000000000E+00  0.00000000000E+00  0.18178737717E+04  0.18178737717E+04  0.50400001928E-02 0. -1.
       -1   -1    0    0    0  501  0.00000000000E+00  0.00000000000E+00 -0.12127414843E+04  0.12127414843E+04  0.50400001928E-02 0.  1.
    10030    2    1    2    0    0  0.00000000000E+00  0.00000000000E+00  0.60513228739E+03  0.30306152561E+04  0.29695864603E+04 0.  0.
        3    1    3    3  502    0 -0.18278630531E+03 -0.24553087347E+03  0.17853237859E+04  0.18113744157E+04  0.10100000352E+00 0. -1.
       -3    1    3    3    0  502  0.18278630531E+03  0.24553087347E+03 -0.11801914985E+04  0.12192408403E+04  0.10100000352E+00 0.  1.
</event>
<event>
 5   0  0.1382803E-05  0.2923341E+04  0.7818609E-02  0.8265967E-01
       -2   -1    0    0    0  501  0.00000000000E+00  0.00000000000E+00  0.11529976965E+04  0.11529976965E+04  0.25500000920E-02 0.  1.
        2   -1    0    0  501    0  0.00000000000E+00  0.00000000000E+00 -0.18529785433E+04  0.18529785433E+04  0.25500000920E-02 0. -1.
    10030    2    1    2    0    0  0.00000000000E+00  0.00000000000E+00 -0.69998084685E+03  0.30059762398E+04  0.29233405495E+04 0.  0.
        2    1    3    3  502    0 -0.13916323436E+04 -0.30649693945E+03 -0.68461061317E+03  0.15809088036E+04  0.25500000920E-02 0. -1.
       -2    1    3    3    0  502  0.13916323436E+04  0.30649693945E+03 -0.15370233682E+02  0.14250674362E+04  0.25500000920E-02 0.  1.
</event>
<event>
 5   0  0.1307832E-05  0.2946283E+04  0.7818609E-02  0.8259239E-01
       -2   -1    0    0    0  501  0.00000000000E+00  0.00000000000E+00  0.17728542845E+04  0.17728542845E+04  0.25500000920E-02 0. -1.
        2   -1    0    0  501    0  0.00000000000E+00  0.00000000000E+00 -0.12240972438E+04  0.12240972438E+04  0.25500000920E-02 0.  1.
    10030    2    1    2    0    0  0.00000000000E+00  0.00000000000E+00  0.54875704066E+03  0.29969515283E+04  0.29462831115E+04 0.  0.
        4    1    3    3  502    0 -0.12194895704E+04 -0.34462333371E+03  0.10384450312E+04  0.16383802215E+04  0.12699999809E+01 0. -1.
       -4    1    3    3    0  502  0.12194895704E+04  0.34462333371E+03 -0.48968799058E+03  0.13585713067E+04  0.12699999809E+01 0.  1.
</event>
<event>
 5   0  0.1385669E-05  0.2920879E+04  0.7818609E-02  0.8266692E-01
        2   -1    0    0  501    0  0.00000000000E+00  0.00000000000E+00  0.16134148297E+04  0.16134148297E+04  0.25500000920E-02 0.  1.
       -2   -1    0    0    0  501  0.00000000000E+00  0.00000000000E+00 -0.13219680857E+04  0.13219680857E+04  0.25500000920E-02 0. -1.
    10030    2    1    2    0    0  0.00000000000E+00  0.00000000000E+00  0.29144674403E+03  0.29353829154E+04  0.29208785760E+04 0.  0.
        3    1    3    3  502    0  0.13702941980E+03  0.48924251229E+03  0.15217367707E+04  0.16043123472E+04  0.10100000352E+00 0.  1.
       -3    1    3    3    0  502 -0.13702941980E+03 -0.48924251229E+03 -0.12302900267E+04  0.13310705683E+04  0.10100000352E+00 0. -1.
</event>
<event>
 5   0  0.5154476E-06  0.2862102E+04  0.7818609E-02  0.8284243E-01
        1   -1    0    0  501    0  0.00000000000E+00  0.00000000000E+00  0.11149861020E+04  0.11149861020E+04  0.50400001928E-02 0.  1.
       -1   -1    0    0    0  501  0.00000000000E+00  0.00000000000E+00 -0.18367113559E+04  0.18367113559E+04  0.50400001928E-02 0. -1.
    10030    2    1    2    0    0  0.00000000000E+00  0.00000000000E+00 -0.72172525393E+03  0.29516974579E+04  0.28621024686E+04 0.  0.
        3    1    3    3  502    0  0.12533497453E+04  0.29936048588E+03 -0.10027657145E+04  0.16328016943E+04  0.10100000352E+00 0. -1.
       -3    1    3    3    0  502 -0.12533497453E+04 -0.29936048588E+03  0.28104046055E+03  0.13188957636E+04  0.10100000352E+00 0.  1.
</event>
<event>
 5   0  0.1382803E-05  0.2972894E+04  0.7818609E-02  0.8251514E-01
        2   -1    0    0  501    0  0.00000000000E+00  0.00000000000E+00  0.18113680998E+04  0.18113680998E+04  0.25500000920E-02 0.  1.
       -2   -1    0    0    0  501  0.00000000000E+00  0.00000000000E+00 -0.12198098317E+04  0.12198098317E+04  0.25500000920E-02 0. -1.
    10030    2    1    2    0    0  0.00000000000E+00  0.00000000000E+00  0.59155826803E+03  0.30311779315E+04  0.29728939550E+04 0.  0.
        2    1    3    3  502    0  0.14329492567E+04 -0.39181773118E+03  0.24319369462E+03  0.15053265027E+04  0.25500000920E-02 0. -1.
       -2    1    3    3    0  502 -0.14329492567E+04  0.39181773118E+03  0.34836457341E+03  0.15258514288E+04  0.25500000920E-02 0.  1.
</event>
<event>
 5   0  0.5261878E-06  0.2164628E+04  0.7818609E-02  0.8533297E-01
        1   -1    0    0  501    0  0.00000000000E+00  0.00000000000E+00  0.16870145032E+04  0.16870145032E+04  0.50400001928E-02 0. -1.
       -1   -1    0    0    0  501  0.00000000000E+00  0.00000000000E+00 -0.69436457168E+03  0.69436457170E+03  0.50400001928E-02 0.  1.
    10030    2    1    2    0    0  0.00000000000E+00  0.00000000000E+00  0.99264993153E+03  0.23813790749E+04  0.21646275458E+04 0.  0.
        5    1    3    3  502    0  0.10347359469E+04  0.21142303676E+02  0.14798802431E+03  0.10454893697E+04  0.46999998093E+01 0.  1.
       -5    1    3    3    0  502 -0.10347359469E+04 -0.21142303676E+02  0.84466190723E+03  0.13358897052E+04  0.46999998093E+01 0. -1.
</event>
<event>
 5   0  0.5002240E-06  0.2909650E+04  0.7818609E-02  0.8270012E-01
        1   -1    0    0  501    0  0.00000000000E+00  0.00000000000E+00  0.20232853527E+04  0.20232853527E+04  0.50400001928E-02 0.  1.
       -1   -1    0    0    0  501  0.00000000000E+00  0.00000000000E+00 -0.10460786483E+04  0.10460786483E+04  0.50400001928E-02 0. -1.
    10030    2    1    2    0    0  0.00000000000E+00  0.00000000000E+00  0.97720670440E+03  0.30693640010E+04  0.29096498805E+04 0.  0.
        4    1    3    3  502    0  0.41425618411E+03  0.13310096291E+04  0.49435068029E+02  0.13948620927E+04  0.12699999809E+01 0. -1.
       -4    1    3    3    0  502 -0.41425618411E+03 -0.13310096291E+04  0.92777163637E+03  0.16745019083E+04  0.12699999809E+01 0.  1.
</event>
<event>
 5   0  0.1382803E-05  0.3012317E+04  0.7818609E-02  0.8240223E-01
        2   -1    0    0  501    0  0.00000000000E+00  0.00000000000E+00  0.18117410192E+04  0.18117410192E+04  0.25500000920E-02 0. -1.
       -2   -1    0    0    0  501  0.00000000000E+00  0.00000000000E+00 -0.12521176837E+04  0.12521176837E+04  0.25500000920E-02 0.  1.
    10030    2    1    2    0    0  0.00000000000E+00  0.00000000000E+00  0.55962333552E+03  0.30638587029E+04  0.30123166954E+04 0.  0.
        2    1    3    3  502    0  0.18517796534E+03  0.11850840756E+04 -0.64670716144E+03  0.13626978013E+04  0.25500000920E-02 0.  1.
       -2    1    3    3    0  502 -0.18517796534E+03 -0.11850840756E+04  0.12063304970E+04  0.17011609016E+04  0.25500000920E-02 0. -1.
</event>
<event>
 5   0  0.5154476E-06  0.2880827E+04  0.7818609E-02  0.8278605E-01
        1   -1    0    0  501    0  0.00000000000E+00  0.00000000000E+00  0.18540563813E+04  0.18540563813E+04  0.50400001928E-02 0. -1.
       -1   -1    0    0    0  501  0.00000000000E+00  0.00000000000E+00 -0.11190553067E+04  0.11190553068E+04  0.50400001928E-02 0.  1.
    10030    2    1    2    0    0  0.00000000000E+00  0.00000000000E+00  0.73500107458E+03  0.29731116881E+04  0.28808274038E+04 0.  0.
        3    1    3    3  502    0 -0.25426039178E+03 -0.13264157690E+04  0.88430588323E+03  0.16143184458E+04  0.10100000352E+00 0. -1.
       -3    1    3    3    0  502  0.25426039178E+03  0.13264157690E+04 -0.14930480864E+03  0.13587932423E+04  0.10100000352E+00 0.  1.
</event>
<event>
 5   0  0.5154476E-06  0.2924680E+04  0.7818609E-02  0.8265572E-01
        1   -1    0    0  501    0  0.00000000000E+00  0.00000000000E+00  0.95409139466E+03  0.95409139467E+03  0.50400001928E-02 0. -1.
       -1   -1    0    0    0  501  0.00000000000E+00  0.00000000000E+00 -0.22413349455E+04  0.22413349455E+04  0.50400001928E-02 0.  1.
    10030    2    1    2    0    0  0.00000000000E+00  0.00000000000E+00 -0.12872435508E+04  0.31954263401E+04  0.29246800742E+04 0.  0.
        3    1    3    3  502    0  0.14513393386E+03 -0.13772392637E+04 -0.13047697265E+03  0.13909982383E+04  0.10100000352E+00 0. -1.
       -3    1    3    3    0  502 -0.14513393386E+03  0.13772392637E+04 -0.11567665782E+04  0.18044281019E+04  0.10100000352E+00 0.  1.
</event>
<event>
 5   0  0.5154476E-06  0.2844529E+04  0.7818609E-02  0.8289576E-01
        1   -1    0    0  501    0  0.00000000000E+00  0.00000000000E+00  0.17443784965E+04  0.17443784966E+04  0.50400001928E-02 0. -1.
       -1   -1    0    0    0  501  0.00000000000E+00  0.00000000000E+00 -0.11596314345E+04  0.11596314345E+04  0.50400001928E-02 0.  1.
    10030    2    1    2    0    0  0.00000000000E+00  0.00000000000E+00  0.58474706206E+03  0.29040099311E+04  0.28445288807E+04 0.  0.
        3    1    3    3  502    0 -0.38111374207E+03  0.23638397309E+03 -0.10855575531E+04  0.11745468396E+04  0.10100000352E+00 0.  1.
       -3    1    3    3    0  502  0.38111374207E+03 -0.23638397309E+03  0.16703046152E+04  0.17294630915E+04  0.10100000352E+00 0. -1.
</event>
<event>
 5   0  0.5352212E-06  0.2795636E+04  0.7818609E-02  0.8304624E-01
        1   -1    0    0  501    0  0.00000000000E+00  0.00000000000E+00  0.86446728355E+03  0.86446728357E+03  0.50400001928E-02 0. -1.
       -1   -1    0    0    0  501  0.00000000000E+00  0.00000000000E+00 -0.22602311050E+04  0.22602311051E+04  0.50400001928E-02 0.  1.
    10030    2    1    2    0    0  0.00000000000E+00  0.00000000000E+00 -0.13957638215E+04  0.31246983886E+04  0.27956364883E+04 0.  0.
        2    1    3    3  502    0 -0.12416295796E+04 -0.31792231354E+03 -0.74389300206E+02  0.12838428169E+04  0.25500000920E-02 0. -1.
       -2    1    3    3    0  502  0.12416295796E+04  0.31792231354E+03 -0.13213745213E+04  0.18408555717E+04  0.25500000920E-02 0.  1.
</event>
<event>
 5   0  0.1339837E-05  0.1864613E+04  0.7818609E-02  0.8672674E-01
       -2   -1    0    0    0  501  0.00000000000E+00  0.00000000000E+00  0.18381763392E+04  0.18381763392E+04  0.25500000920E-02 0.  1.
        2   -1    0    0  501    0  0.00000000000E+00  0.00000000000E+00 -0.47285742299E+03  0.47285742300E+03  0.25500000920E-02 0. -1.
    10030    2    1    2    0    0  0.00000000000E+00  0.00000000000E+00  0.13653189162E+04  0.23110337622E+04  0.18646129108E+04 0.  0.
        5    1    3    3  502    0  0.38591313420E+03 -0.16700898566E+03  0.17139503191E+04  0.17647857476E+04  0.46999998093E+01 0.  1.
       -5    1    3    3    0  502 -0.38591313420E+03  0.16700898566E+03 -0.34863140288E+03  0.54624801466E+03  0.46999998093E+01 0. -1.
</event>
<event>
 5   0  0.5002240E-06  0.2934593E+04  0.7818609E-02  0.8262659E-01
       -1   -1    0    0    0  501  0.00000000000E+00  0.00000000000E+00  0.15618629986E+04  0.15618629986E+04  0.50400001928E-02 0. -1.
        1   -1    0    0  501    0  0.00000000000E+00  0.00000000000E+00 -0.13784561822E+04  0.13784561822E+04  0.50400001928E-02 0.  1.
    10030    2    1    2    0    0  0.00000000000E+00  0.00000000000E+00  0.18340681637E+03  0.29403191808E+04  0.29345934684E+04 0.  0.
        4    1    3    3  502    0 -0.60191217968E+03 -0.73037002841E+03  0.12151490783E+04  0.15402361981E+04  0.12699999809E+01 0.  1.
       -4    1    3    3    0  502  0.60191217968E+03  0.73037002841E+03 -0.10317422620E+04  0.14000829827E+04  0.12699999809E+01 0. -1.
</event>
<event>
 5   0  0.5154476E-06  0.2838909E+04  0.7818609E-02  0.8291289E-01
        1   -1    0    0  501    0  0.00000000000E+00  0.00000000000E+00  0.80023992741E+03  0.80023992743E+03  0.50400001928E-02 0. -1.
       -1   -1    0    0    0  501  0.00000000000E+00  0.00000000000E+00 -0.25178086461E+04  0.25178086461E+04  0.50400001928E-02 0.  1.
    10030    2    1    2    0    0  0.00000000000E+00  0.00000000000E+00 -0.17175687187E+04  0.33180485735E+04  0.28389089511E+04 0.  0.
        3    1    3    3  502    0  0.28535964238E+03  0.94265778592E+03 -0.20534638992E+04  0.22774432644E+04  0.10100000352E+00 0.  1.
       -3    1    3    3    0  502 -0.28535964238E+03 -0.94265778592E+03  0.33589518056E+03  0.10406053091E+04  0.10100000352E+00 0. -1.
</event>
<event>
 5   0  0.1382803E-05  0.2924572E+04  0.7818609E-02  0.8265604E-01
        2   -1    0    0  501    0  0.00000000000E+00  0.00000000000E+00  0.22172676940E+04  0.22172676940E+04  0.25500000920E-02 0.  1.
       -2   -1    0    0    0  501  0.00000000000E+00  0.00000000000E+00 -0.96437643840E+03  0.96437643840E+03  0.25500000920E-02 0. -1.
    10030    2    1    2    0    0  0.00000000000E+00  0.00000000000E+00  0.12528912556E+04  0.31816441324E+04  0.29245722571E+04 0.  0.
        2    1    3    3  502    0  0.13999574739E+04  0.42142833783E+03  0.65717663559E+03  0.16029235487E+04  0.25500000920E-02 0. -1.
       -2    1    3    3    0  502 -0.13999574739E+04 -0.42142833783E+03  0.59571461996E+03  0.15787205836E+04  0.25500000920E-02 0.  1.
</event>
<event>
 5   0  0.5352212E-06  0.2627028E+04  0.7818609E-02  0.8359078E-01
        1   -1    0    0  501    0  0.00000000000E+00  0.00000000000E+00  0.16084762419E+04  0.16084762419E+04  0.50400001928E-02 0.  1.
       -1   -1    0    0    0  501  0.00000000000E+00  0.00000000000E+00 -0.10726418955E+04  0.10726418955E+04  0.50400001928E-02 0. -1.
    10030    2    1    2    0    0  0.00000000000E+00  0.00000000000E+00  0.53583434634E+03  0.26811181374E+04  0.26270279823E+04 0.  0.
        2    1    3    3  502    0  0.49398623003E+03  0.11674219270E+04 -0.83294261166E+02  0.12703677755E+04  0.25500000920E-02 0. -1.
       -2    1    3    3    0  502 -0.49398623003E+03 -0.11674219270E+04  0.61912860750E+03  0.14107503619E+04  0.25500000920E-02 0.  1.
</event>
<event>
 5   0  0.1339837E-05  0.2878340E+04  0.7818609E-02  0.8279351E-01
       -2   -1    0    0    0  501  0.00000000000E+00  0.00000000000E+00  0.19926905664E+04  0.19926905664E+04  0.25500000920E-02 0.  1.
        2   -1    0    0  501    0  0.00000000000E+00  0.00000000000E+00 -0.10394037044E+04  0.10394037044E+04  0.25500000920E-02 0. -1.
    10030    2    1    2    0    0  0.00000000000E+00  0.00000000000E+00  0.95328686208E+03  0.30320942708E+04  0.28783397689E+04 0.  0.
        5    1    3    3  502    0  0.11569797003E+04 -0.26198078937E+03 -0.38171554379E+03  0.12461800862E+04  0.46999998093E+01 0. -1.
       -5    1    3    3    0  502 -0.11569797003E+04  0.26198078937E+03  0.13350024059E+04  0.17859141846E+04  0.46999998093E+01 0.  1.
</event>
<event>
 5   0  0.5059249E-06  0.2809723E+04  0.7818609E-02  0.8300256E-01
        1   -1    0    0  501    0  0.00000000000E+00  0.00000000000E+00  0.11697103737E+04  0.11697103737E+04  0.50400001928E-02 0.  1.
       -1   -1    0    0    0  501  0.00000000000E+00  0.00000000000E+00 -0.16872857201E+04  0.16872857201E+04  0.50400001928E-02 0. -1.
    10030    2    1    2    0    0  0.00000000000E+00  0.00000000000E+00 -0.51757534637E+03  0.28569960939E+04  0.28097228406E+04 0.  0.
        1    1    3    3  502    0 -0.13103111216E+04  0.41473622297E+03 -0.55474178286E+03  0.14821132938E+04  0.50400001928E-02 0.  1.
       -1    1    3    3    0  502  0.13103111216E+04 -0.41473622297E+03  0.37166436484E+02  0.13748828001E+04  0.50400001928E-02 0. -1.
</event>
<event>
 5   0  0.1385669E-05  0.2967787E+04  0.7818609E-02  0.8252990E-01
        2   -1    0    0  501    0  0.00000000000E+00  0.00000000000E+00  0.21475776252E+04  0.21475776252E+04  0.25500000920E-02 0.  1.
       -2   -1    0    0    0  501  0.00000000000E+00  0.00000000000E+00 -0.10253129858E+04  0.10253129858E+04  0.25500000920E-02 0. -1.
    10030    2    1    2    0    0  0.00000000000E+00  0.00000000000E+00  0.11222646394E+04  0.31728906110E+04  0.29677865335E+04 0.  0.
        3    1    3    3  502    0  0.12221208792E+04 -0.15434256553E+03  0.14456800386E+04  0.18993135220E+04  0.10100000352E+00 0.  1.
       -3    1    3    3    0  502 -0.12221208792E+04  0.15434256553E+03 -0.32341539914E+03  0.12735770890E+04  0.10100000352E+00 0. -1.
</event>
<event>
 5   0  0.1339837E-05  0.2907036E+04  0.7818609E-02  0.8270787E-01
       -2   -1    0    0    0  501  0.00000000000E+00  0.00000000000E+00  0.16349151465E+04  0.16349151465E+04  0.25500000920E-02 0. -1.
        2   -1    0    0  501    0  0.00000000000E+00  0.00000000000E+00 -0.12922475639E+04  0.12922475639E+04  0.25500000920E-02 0.  1.
    10030    2    1    2    0    0  0.00000000000E+00  0.00000000000E+00  0.34266758258E+03  0.29271627104E+04  0.29070363708E+04 0.  0.
        5    1    3    3  502    0  0.77980286631E+03 -0.10497426747E+04  0.81026677135E+03  0.15383778873E+04  0.46999998093E+01 0. -1.
       -5    1    3    3    0  502 -0.77980286631E+03  0.10497426747E+04 -0.46759918876E+03  0.13887848231E+04  0.46999998093E+01 0.  1.
</event>
<event>
 5   0  0.5059249E-06  0.2785183E+04  0.7818609E-02  0.8307883E-01
        1   -1    0    0  501    0  0.00000000000E+00  0.00000000000E+00  0.13545845796E+04  0.13545845796E+04  0.50400001928E-02 0. -1.
       -1   -1    0    0    0  501  0.00000000000E+00  0.00000000000E+00 -0.14316648082E+04  0.14316648082E+04  0.50400001928E-02 0.  1.
    10030    2    1    2    0    0  0.00000000000E+00  0.00000000000E+00 -0.77080228630E+02  0.27862493878E+04  0.27851829903E+04 0.  0.
        1    1    3    3  502    0 -0.11856611630E+04  0.36324696611E+03 -0.67247850866E+03  0.14106622900E+04  0.50400001928E-02 0.  1.
       -1    1    3    3    0  502  0.11856611630E+04 -0.36324696611E+03  0.59539828003E+03  0.13755870978E+04  0.50400001928E-02 0. -1.
</event>
<event>
 5   0  0.1382803E-05  0.2896892E+04  0.7818609E-02  0.8273803E-01
       -2   -1    0    0    0  501  0.00000000000E+00  0.00000000000E+00  0.12290936661E+04  0.12290936661E+04  0.25500000920E-02 0. -1.
        2   -1    0    0  501    0  0.00000000000E+00  0.00000000000E+00 -0.17069454824E+04  0.17069454824E+04  0.25500000920E-02 0.  1.
    10030    2    1    2    0    0  0.00000000000E+00  0.00000000000E+00 -0.47785181638E+03  0.29360391485E+04  0.28968920455E+04 0.  0.
        2    1    3    3  502    0  0.13603502555E+04 -0.48310257603E+03 -0.35908161473E+03  0.14875753839E+04  0.25500000920E-02 0.  1.
       -2    1    3    3    0  502 -0.13603502555E+04  0.48310257603E+03 -0.11877020165E+03  0.14484637646E+04  0.25500000920E-02 0. -1.
</event>
<event>
 5   0  0.1339837E-05  0.2780039E+04  0.7818609E-02  0.8309492E-01
        2   -1    0    0  501    0  0.00000000000E+00  0.00000000000E+00  0.10308412653E+04  0.10308412654E+04  0.25500000920E-02 0. -1.
       -2   -1    0    0    0  501  0.00000000000E+00  0.00000000000E+00 -0.18743466003E+04  0.18743466003E+04  0.25500000920E-02 0.  1.
    10030    2    1    2    0    0  0.00000000000E+00  0.00000000000E+00 -0.84350533496E+03  0.29051878657E+04  0.27800387200E+04 0.  0.
        5    1    3    3  502    0  0.92653580119E+03 -0.38406375790E+03  0.58394156126E+03  0.11605961391E+04  0.46999998093E+01 0. -1.
       -5    1    3    3    0  502 -0.92653580119E+03  0.38406375790E+03 -0.14274468962E+04  0.17445917266E+04  0.46999998093E+01 0.  1.
</event>
<event>
 5   0  0.5352212E-06  0.2904181E+04  0.7818609E-02  0.8271635E-01
       -1   -1    0    0    0  501  0.00000000000E+00  0.00000000000E+00  0.11098537722E+04  0.11098537722E+04  0.50400001928E-02 0. -1.
        1   -1    0    0  501    0  0.00000000000E+00  0.00000000000E+00 -0.18998594824E+04  0.18998594824E+04  0.50400001928E-02 0.  1.
    10030    2    1    2    0    0  0.00000000000E+00  0.00000000000E+00 -0.79000571019E+03  0.30097132547E+04  0.29041805820E+04 0.  0.
        2    1    3    3  502    0  0.56747268526E+03  0.41462317537E+02  0.98951620693E+03  0.11414406231E+04  0.25500000920E-02 0. -1.
       -2    1    3    3    0  502 -0.56747268526E+03 -0.41462317537E+02 -0.17795219171E+04  0.18682726316E+04  0.25500000920E-02 0.  1.
</event>
<event>
 5   0  0.1339837E-05  0.2884911E+04  0.7818609E-02  0.8277381E-01
       -2   -1    0    0    0  501  0.00000000000E+00  0.00000000000E+00  0.72834694789E+03  0.72834694789E+03  0.25500000920E-02 0.  1.
        2   -1    0    0  501    0  0.00000000000E+00  0.00000000000E+00 -0.28567131404E+04  0.28567131404E+04  0.25500000920E-02 0. -1.
    10030    2    1    2    0    0  0.00000000000E+00  0.00000000000E+00 -0.21283661925E+04  0.35850600883E+04  0.28849112963E+04 0.  0.
        5    1    3    3  502    0  0.16489196368E+03 -0.58202742830E+03  0.56308620596E+03  0.82645837906E+03  0.46999998093E+01 0.  1.
       -5    1    3    3    0  502 -0.16489196368E+03  0.58202742830E+03 -0.26914523985E+04  0.27586017093E+04  0.46999998093E+01 0. -1.
</event>
<event>
 5   0  0.5002240E-06  0.2918174E+04  0.7818609E-02  0.8267491E-01
       -1   -1    0    0    0  501  0.00000000000E+00  0.00000000000E+00  0.10121190380E+04  0.10121190380E+04  0.50400001928E-02 0.  1.
        1   -1    0    0  501    0  0.00000000000E+00  0.00000000000E+00 -0.21034425003E+04  0.21034425003E+04  0.50400001928E-02 0. -1.
    10030    2    1    2    0    0  0.00000000000E+00  0.00000000000E+00 -0.10913234623E+04  0.31155615383E+04  0.29181735383E+04 0.  0.
        4    1    3    3  502    0  0.21137015743E+03 -0.19965454135E+03  0.98087565198E+03  0.10230630171E+04  0.12699999809E+01 0.  1.
       -4    1    3    3    0  502 -0.21137015743E+03  0.19965454135E+03 -0.20721991142E+04  0.20924985212E+04  0.12699999809E+01 0. -1.
</event>
<event>
 5   0  0.5261878E-06  0.2924223E+04  0.7818609E-02  0.8265707E-01
       -1   -1    0    0    0  501  0.00000000000E+00  0.00000000000E+00  0.21950403159E+04  0.21950403159E+04  0.50400001928E-02 0.  1.
        1   -1    0    0  501    0  0.00000000000E+00  0.00000000000E+00 -0.97390948037E+03  0.97390948039E+03  0.50400001928E-02 0. -1.
    10030    2    1    2    0    0  0.00000000000E+00  0.00000000000E+00  0.12211308356E+04  0.31689497963E+04  0.29242233660E+04 0.  0.
        5    1    3    3  502    0  0.67517190555E+03  0.12731545177E+04  0.34298200182E+03  0.14813636527E+04  0.46999998093E+01 0. -1.
       -5    1    3    3    0  502 -0.67517190555E+03 -0.12731545177E+04  0.87814883373E+03  0.16875861436E+04  0.46999998093E+01 0.  1.
</event>
<event>
 5   0  0.5261878E-06  0.2844893E+04  0.7818609E-02  0.8289465E-01
       -1   -1    0    0    0  501  0.00000000000E+00  0.00000000000E+00  0.12551629088E+04  0.12551629089E+04  0.50400001928E-02 0. -1.
        1   -1    0    0  501    0  0.00000000000E+00  0.00000000000E+00 -0.16120251455E+04  0.16120251455E+04  0.50400001928E-02 0.  1.
    10030    2    1    2    0    0  0.00000000000E+00  0.00000000000E+00 -0.35686223669E+03  0.28671880544E+04  0.28448930882E+04 0.  0.
        5    1    3    3  502    0  0.72030458640E+03 -0.81928024363E+03 -0.10984229104E+04  0.15481000597E+04  0.46999998093E+01 0.  1.
       -5    1    3    3    0  502 -0.72030458640E+03  0.81928024363E+03  0.74156067375E+03  0.13190879947E+04  0.46999998093E+01 0. -1.
</event>
<event>
 5   0  0.5261878E-06  0.2914255E+04  0.7818609E-02  0.8268649E-01
        1   -1    0    0  501    0  0.00000000000E+00  0.00000000000E+00  0.17411747530E+04  0.17411747530E+04  0.50400001928E-02 0.  1.
       -1   -1    0    0    0  501  0.00000000000E+00  0.00000000000E+00 -0.12194187296E+04  0.12194187296E+04  0.50400001928E-02 0. -1.
    10030    2    1    2    0    0  0.00000000000E+00  0.00000000000E+00  0.52175602339E+03  0.29605934826E+04  0.29142553803E+04 0.  0.
        5    1    3    3  502    0  0.75381657046E+03  0.68685962179E+02  0.15257625903E+04  0.17032118938E+04  0.46999998093E+01 0.  1.
       -5    1    3    3    0  502 -0.75381657046E+03 -0.68685962179E+02 -0.10040065669E+04  0.12573815888E+04  0.46999998093E+01 0. -1.
</event>
<event>
 5   0  0.1385669E-05  0.3043350E+04  0.7818609E-02  0.8231459E-01
       -2   -1    0    0    0  501  0.00000000000E+00  0.00000000000E+00  0.97563866614E+03  0.97563866614E+03  0.25500000920E-02 0. -1.
        2   -1    0    0  501    0  0.00000000000E+00  0.00000000000E+00 -0.23733113897E+04  0.23733113897E+04  0.25500000920E-02 0.  1.
    10030    2    1    2    0    0  0.00000000000E+00  0.00000000000E+00 -0.13976727235E+04  0.33489500558E+04  0.30433497062E+04 0.  0.
        3    1    3    3  502    0  0.12520121716E+03 -0.76749281811E+03 -0.21381422561E+04  0.22751643651E+04  0.10100000352E+00 0.  1.
       -3    1    3    3    0  502 -0.12520121716E+03  0.76749281811E+03  0.74046953261E+03  0.10737856907E+04  0.10100000352E+00 0. -1.
</event>
<event>
 5   0  0.5261878E-06  0.2761918E+04  0.7818609E-02  0.8315190E-01
       -1   -1    0    0    0  501  0.00000000000E+00  0.00000000000E+00  0.92650755548E+03  0.92650755549E+03  0.50400001928E-02 0. -1.
        1   -1    0    0  501    0  0.00000000000E+00  0.00000000000E+00 -0.20583189797E+04  0.20583189797E+04  0.50400001928E-02 0.  1.
    10030    2    1    2    0    0  0.00000000000E+00  0.00000000000E+00 -0.11318114242E+04  0.29848265352E+04  0.27619182365E+04 0.  0.
        5    1    3    3  502    0  0.11351660613E+04  0.46642927252E+03 -0.12501463043E+04  0.17518693231E+04  0.46999998093E+01 0.  1.
       -5    1    3    3    0  502 -0.11351660613E+04 -0.46642927252E+03  0.11833488014E+03  0.12329572121E+04  0.46999998093E+01 0. -1.
</event>
<event>
 5   0  0.5261878E-06  0.2922740E+04  0.7818609E-02  0.8266144E-01
        1   -1    0    0  501    0  0.00000000000E+00  0.00000000000E+00  0.10942984555E+04  0.10942984555E+04  0.50400001928E-02 0.  1.
       -1   -1    0    0    0  501  0.00000000000E+00  0.00000000000E+00 -0.19515723889E+04  0.19515723889E+04  0.50400001928E-02 0. -1.
    10030    2    1    2    0    0  0.00000000000E+00  0.00000000000E+00 -0.85727393336E+03  0.30458708444E+04  0.29227402560E+04 0.  0.
        5    1    3    3  502    0 -0.94051490474E+03  0.32322893251E+01  0.73696490060E+03  0.11948715782E+04  0.46999998093E+01 0.  1.
       -5    1    3    3    0  502  0.94051490474E+03 -0.32322893251E+01 -0.15942388340E+04  0.18509992662E+04  0.46999998093E+01 0. -1.
</event>
<event>
 5   0  0.1385669E-05  0.2886910E+04  0.7818609E-02  0.8276783E-01
        2   -1    0    0  501    0  0.00000000000E+00  0.00000000000E+00  0.14448393681E+04  0.14448393681E+04  0.25500000920E-02 0. -1.
       -2   -1    0    0    0  501  0.00000000000E+00  0.00000000000E+00 -0.14420717424E+04  0.14420717424E+04  0.25500000920E-02 0.  1.
    10030    2    1    2    0    0  0.00000000000E+00  0.00000000000E+00  0.27676256819E+01  0.28869111105E+04  0.28869097839E+04 0.  0.
        3    1    3    3  502    0  0.24461132839E+03  0.44593640332E+03 -0.13494935740E+04  0.14421604953E+04  0.10100000352E+00 0.  1.
       -3    1    3    3    0  502 -0.24461132839E+03 -0.44593640332E+03  0.13522611997E+04  0.14447506152E+04  0.10100000352E+00 0. -1.
</event>
<event>
 5   0  0.1336899E-05  0.2948067E+04  0.7818609E-02  0.8258718E-01
        2   -1    0    0  501    0  0.00000000000E+00  0.00000000000E+00  0.80060389935E+03  0.80060389935E+03  0.25500000920E-02 0. -1.
       -2   -1    0    0    0  501  0.00000000000E+00  0.00000000000E+00 -0.27139196256E+04  0.27139196256E+04  0.25500000920E-02 0.  1.
    10030    2    1    2    0    0  0.00000000000E+00  0.00000000000E+00 -0.19133157263E+04  0.35145235250E+04  0.29480669157E+04 0.  0.
        1    1    3    3  502    0 -0.10494880289E+04  0.87490494552E+02  0.27286797955E+03  0.10879047034E+04  0.50400001928E-02 0. -1.
       -1    1    3    3    0  502  0.10494880289E+04 -0.87490494552E+02 -0.21861837058E+04  0.24266188216E+04  0.50400001928E-02 0.  1.
</event>
<event>
 5   0  0.1307832E-05  0.2837494E+04  0.7818609E-02  0.8291722E-01
       -2   -1    0    0    0  501  0.00000000000E+00  0.00000000000E+00  0.93065319686E+03  0.93065319686E+03  0.25500000920E-02 0. -1.
        2   -1    0    0  501    0  0.00000000000E+00  0.00000000000E+00 -0.21628277511E+04  0.21628277511E+04  0.25500000920E-02 0.  1.
    10030    2    1    2    0    0  0.00000000000E+00  0.00000000000E+00 -0.12321745542E+04  0.30934809479E+04  0.28374936552E+04 0.  0.
        4    1    3    3  502    0 -0.10484949366E+04 -0.94085148217E+02  0.42084929577E+03  0.11337148627E+04  0.12699999809E+01 0. -1.
       -4    1    3    3    0  502  0.10484949366E+04  0.94085148217E+02 -0.16530238500E+04  0.19597660852E+04  0.12699999809E+01 0.  1.
</event>
<event>
 5   0  0.5352212E-06  0.2934124E+04  0.7818609E-02  0.8262796E-01
       -1   -1    0    0    0  501  0.00000000000E+00  0.00000000000E+00  0.13994694441E+04  0.13994694441E+04  0.50400001928E-02 0.  1.
        1   -1    0    0  501    0  0.00000000000E+00  0.00000000000E+00 -0.15379192359E+04  0.15379192359E+04  0.50400001928E-02 0. -1.
    10030    2    1    2    0    0  0.00000000000E+00  0.00000000000E+00 -0.13844979183E+03  0.29373886800E+04  0.29341240452E+04 0.  0.
        2    1    3    3  502    0 -0.12137166467E+04  0.93065522851E+02  0.75052785772E+03  0.14300564168E+04  0.25500000920E-02 0. -1.
       -2    1    3    3    0  502  0.12137166467E+04 -0.93065522851E+02 -0.88897764954E+03  0.15073322631E+04  0.25500000920E-02 0.  1.
</event>
<event>
 5   0  0.1339837E-05  0.2187906E+04  0.7818609E-02  0.8523479E-01
       -2   -1    0    0    0  501  0.00000000000E+00  0.00000000000E+00  0.10115665766E+04  0.10115665766E+04  0.25500000920E-02 0.  1.
        2   -1    0    0  501    0  0.00000000000E+00  0.00000000000E+00 -0.11830487992E+04  0.11830487993E+04  0.25500000920E-02 0. -1.
    10030    2    1    2    0    0  0.00000000000E+00  0.00000000000E+00 -0.17148222267E+03  0.21946153758E+04  0.21879055042E+04 0.  0.
        5    1    3    3  502    0  0.91363761548E+03 -0.57675627105E+03 -0.25752357185E+03  0.11107303762E+04  0.46999998093E+01 0. -1.
       -5    1    3    3    0  502 -0.91363761548E+03  0.57675627105E+03  0.86041349181E+02  0.10838849996E+04  0.46999998093E+01 0.  1.
</event>
<event>
 5   0  0.5002240E-06  0.2883658E+04  0.7818609E-02  0.8277756E-01
       -1   -1    0    0    0  501  0.00000000000E+00  0.00000000000E+00  0.85289115034E+03  0.85289115035E+03  0.50400001928E-02 0. -1.
        1   -1    0    0  501    0  0.00000000000E+00  0.00000000000E+00 -0.24374394510E+04  0.24374394510E+04  0.50400001928E-02 0.  1.
    10030    2    1    2    0    0  0.00000000000E+00  0.00000000000E+00 -0.15845483006E+04  0.32903306013E+04  0.28836577725E+04 0.  0.
        4    1    3    3  502    0 -0.13407565580E+04  0.77274123328E+02 -0.13909267254E+04  0.19334627502E+04  0.12699999809E+01 0.  1.
       -4    1    3    3    0  502  0.13407565580E+04 -0.77274123328E+02 -0.19362157522E+03  0.13568678511E+04  0.12699999809E+01 0. -1.
</event>
<event>
 5   0  0.1336899E-05  0.1791035E+04  0.7818609E-02  0.8711081E-01
       -2   -1    0    0    0  501  0.00000000000E+00  0.00000000000E+00  0.60944784809E+03  0.60944784810E+03  0.25500000920E-02 0. -1.
        2   -1    0    0  501    0  0.00000000000E+00  0.00000000000E+00 -0.13158660115E+04  0.13158660115E+04  0.25500000920E-02 0.  1.
    10030    2    1    2    0    0  0.00000000000E+00  0.00000000000E+00 -0.70641816337E+03  0.19253138596E+04  0.17910351298E+04 0.  0.
        1    1    3    3  502    0 -0.54021333888E+03 -0.57302498436E+03  0.10509204023E+03  0.79450136636E+03  0.50400001928E-02 0. -1.
       -1    1    3    3    0  502  0.54021333888E+03  0.57302498436E+03 -0.81151020360E+03  0.11308124932E+04  0.50400001928E-02 0.  1.
</event>
<event>
 5   0  0.1339837E-05  0.2949523E+04  0.7818609E-02  0.8258293E-01
        2   -1    0    0  501    0  0.00000000000E+00  0.00000000000E+00  0.24560578270E+04  0.24560578270E+04  0.25500000920E-02 0.  1.
       -2   -1    0    0    0  501  0.00000000000E+00  0.00000000000E+00 -0.88553376856E+03  0.88553376857E+03  0.25500000920E-02 0. -1.
    10030    2    1    2    0    0  0.00000000000E+00  0.00000000000E+00  0.15705240584E+04  0.33415915955E+04  0.29495234485E+04 0.  0.
        5    1    3    3  502    0 -0.10489191253E+03 -0.12925162932E+04 -0.10451602258E+02  0.12968161039E+04  0.46999998093E+01 0. -1.
       -5    1    3    3    0  502  0.10489191253E+03  0.12925162932E+04  0.15809756607E+04  0.20447754916E+04  0.46999998093E+01 0.  1.
</event>
<event>
 5   0  0.1382803E-05  0.2899206E+04  0.7818609E-02  0.8273114E-01
        2   -1    0    0  501    0  0.00000000000E+00  0.00000000000E+00  0.23287682207E+04  0.23287682207E+04  0.25500000920E-02 0.  1.
       -2   -1    0    0    0  501  0.00000000000E+00  0.00000000000E+00 -0.90234346987E+03  0.90234346988E+03  0.25500000920E-02 0. -1.
    10030    2    1    2    0    0  0.00000000000E+00  0.00000000000E+00  0.14264247508E+04  0.32311116906E+04  0.28992059580E+04 0.  0.
        2    1    3    3  502    0  0.31092303846E+03  0.54477626997E+03  0.21696886654E+04  0.22585400650E+04  0.25500000920E-02 0.  1.
       -2    1    3    3    0  502 -0.31092303846E+03 -0.54477626997E+03 -0.74326391461E+03  0.97257162561E+03  0.25500000920E-02 0. -1.
</event>
<event>
 5   0  0.5059249E-06  0.2854329E+04  0.7818609E-02  0.8286597E-01
        1   -1    0    0  501    0  0.00000000000E+00  0.00000000000E+00  0.15078942173E+04  0.15078942173E+04  0.50400001928E-02 0.  1.
       -1   -1    0    0    0  501  0.00000000000E+00  0.00000000000E+00 -0.13507566328E+04  0.13507566329E+04  0.50400001928E-02 0. -1.
    10030    2    1    2    0    0  0.00000000000E+00  0.00000000000E+00  0.15713758447E+03  0.28586508502E+04  0.28543287237E+04 0.  0.
        1    1    3    3  502    0 -0.65440952106E+03 -0.12679999157E+04  0.10548900551E+03  0.14308052061E+04  0.50400001928E-02 0.  1.
       -1    1    3    3    0  502  0.65440952106E+03  0.12679999157E+04  0.51648578961E+02  0.14278456441E+04  0.50400001928E-02 0. -1.
</event>
<event>
 5   0  0.5002240E-06  0.2738556E+04  0.7818609E-02  0.8322602E-01
        1   -1    0    0  501    0  0.00000000000E+00  0.00000000000E+00  0.17909225417E+04  0.17909225417E+04  0.50400001928E-02 0. -1.
       -1   -1    0    0    0  501  0.00000000000E+00  0.00000000000E+00 -0.10469033285E+04  0.10469033285E+04  0.50400001928E-02 0.  1.
    10030    2    1    2    0    0  0.00000000000E+00  0.00000000000E+00  0.74401921315E+03  0.28378258702E+04  0.27385563861E+04 0.  0.
        4    1    3    3  502    0  0.74803521438E+03 -0.49449817848E+03 -0.70031320069E+03  0.11377720872E+04  0.12699999809E+01 0.  1.
       -4    1    3    3    0  502 -0.74803521438E+03  0.49449817848E+03  0.14443324138E+04  0.17000537830E+04  0.12699999809E+01 0. -1.
</event>
<event>
 5   0  0.1382803E-05  0.2526939E+04  0.7818609E-02  0.8393451E-01
       -2   -1    0    0    0  501  0.00000000000E+00  0.00000000000E+00  0.12004518492E+04  0.12004518492E+04  0.25500000920E-02 0. -1.
        2   -1    0    0  501    0  0.00000000000E+00  0.00000000000E+00 -0.13297948650E+04  0.13297948650E+04  0.25500000920E-02 0.  1.
    10030    2    1    2    0    0  0.00000000000E+00  0.00000000000E+00 -0.12934301583E+03  0.25302467142E+04  0.25269386259E+04 0.  0.
        2    1    3    3  502    0  0.70327599806E+03  0.21674507944E+03  0.96369741284E+03  0.12125544369E+04  0.25500000920E-02 0. -1.
       -2    1    3    3    0  502 -0.70327599806E+03 -0.21674507944E+03 -0.10930404287E+04  0.13176922773E+04  0.25500000920E-02 0.  1.
</event>
<event>
 5   0  0.1339837E-05  0.2863697E+04  0.7818609E-02  0.8283761E-01
        2   -1    0    0  501    0  0.00000000000E+00  0.00000000000E+00  0.16200765679E+04  0.16200765679E+04  0.25500000920E-02 0. -1.
       -2   -1    0    0    0  501  0.00000000000E+00  0.00000000000E+00 -0.12654892227E+04  0.12654892227E+04  0.25500000920E-02 0.  1.
    10030    2    1    2    0    0  0.00000000000E+00  0.00000000000E+00  0.35458734524E+03  0.28855657906E+04  0.28636965179E+04 0.  0.
        5    1    3    3  502    0  0.72538063053E+02 -0.14287319926E+04  0.11658015761E+03  0.14353222288E+04  0.46999998093E+01 0.  1.
       -5    1    3    3    0  502 -0.72538063053E+02  0.14287319926E+04  0.23800718763E+03  0.14502435618E+04  0.46999998093E+01 0. -1.
</event>
<event>
 5   0  0.5002240E-06  0.2939594E+04  0.7818609E-02  0.8261194E-01
        1   -1    0    0  501    0  0.00000000000E+00  0.00000000000E+00  0.23898043268E+04  0.23898043268E+04  0.50400001928E-02 0.  1.
       -1   -1    0    0    0  501  0.00000000000E+00  0.00000000000E+00 -0.90396654500E+03  0.90396654502E+03  0.50400001928E-02 0. -1.
    10030    2    1    2    0    0  0.00000000000E+00  0.00000000000E+00  0.14858377818E+04  0.32937708719E+04  0.29395939588E+04 0.  0.
        4    1    3    3  502    0 -0.48397371598E+03  0.39890414414E+03 -0.74650300879E+03  0.97499919436E+03  0.12699999809E+01 0. -1.
       -4    1    3    3    0  502  0.48397371598E+03 -0.39890414414E+03  0.22323407906E+04  0.23187716775E+04  0.12699999809E+01 0.  1.
</event>
<event>
 5   0  0.5352212E-06  0.3162917E+04  0.7818609E-02  0.8198680E-01
        1   -1    0    0  501    0  0.00000000000E+00  0.00000000000E+00  0.20450821641E+04  0.20450821641E+04  0.50400001928E-02 0.  1.
       -1   -1    0    0    0  501  0.00000000000E+00  0.00000000000E+00 -0.12229388071E+04  0.12229388071E+04  0.50400001928E-02 0. -1.
    10030    2    1    2    0    0  0.00000000000E+00  0.00000000000E+00  0.82214335695E+03  0.32680209712E+04  0.31629165921E+04 0.  0.
        2    1    3    3  502    0 -0.66173091904E+03  0.11821552573E+04  0.12540453722E+04  0.18460792662E+04  0.25500000920E-02 0.  1.
       -2    1    3    3    0  502  0.66173091904E+03 -0.11821552573E+04 -0.43190201528E+03  0.14219417050E+04  0.25500000920E-02 0. -1.
</event>
<event>
 5   0  0.1307832E-05  0.2648721E+04  0.7818609E-02  0.8351838E-01
       -2   -1    0    0    0  501  0.00000000000E+00  0.00000000000E+00  0.98558138280E+03  0.98558138280E+03  0.25500000920E-02 0.  1.
        2   -1    0    0  501    0  0.00000000000E+00  0.00000000000E+00 -0.17795900887E+04  0.17795900887E+04  0.25500000920E-02 0. -1.
    10030    2    1    2    0    0  0.00000000000E+00  0.00000000000E+00 -0.79400870594E+03  0.27651714715E+04  0.26487210955E+04 0.  0.
        4    1    3    3  502    0  0.38452566306E+03 -0.12043946400E+04 -0.80867979655E+03  0.15007968086E+04  0.12699999809E+01 0.  1.
       -4    1    3    3    0  502 -0.38452566306E+03  0.12043946400E+04  0.14671090612E+02  0.12643746629E+04  0.12699999809E+01 0. -1.
</event>
<event>
 5   0  0.5261878E-06  0.2937858E+04  0.7818609E-02  0.8261702E-01
       -1   -1    0    0    0  501  0.00000000000E+00  0.00000000000E+00  0.13583670724E+04  0.13583670724E+04  0.50400001928E-02 0.  1.
        1   -1    0    0  501    0  0.00000000000E+00  0.00000000000E+00 -0.15884901857E+04  0.15884901857E+04  0.50400001928E-02 0. -1.
    10030    2    1    2    0    0  0.00000000000E+00  0.00000000000E+00 -0.23012311328E+03  0.29468572581E+04  0.29378582424E+04 0.  0.
        5    1    3    3  502    0 -0.57161285199E+03  0.59513756938E+03 -0.13340208625E+04  0.15686184146E+04  0.46999998093E+01 0.  1.
       -5    1    3    3    0  502  0.57161285199E+03 -0.59513756938E+03  0.11038977492E+04  0.13782388435E+04  0.46999998093E+01 0. -1.
</event>
<event>
 5   0  0.1307832E-05  0.2866606E+04  0.7818609E-02  0.8282883E-01
       -2   -1    0    0    0  501  0.00000000000E+00  0.00000000000E+00  0.11546279631E+04  0.11546279631E+04  0.25500000920E-02 0. -1.
        2   -1    0    0  501    0  0.00000000000E+00  0.00000000000E+00 -0.17792381328E+04  0.17792381328E+04  0.25500000920E-02 0.  1.
    10030    2    1    2    0    0  0.00000000000E+00  0.00000000000E+00 -0.62461016974E+03  0.29338660959E+04  0.28666064265E+04 0.  0.
        4    1    3    3  502    0  0.98170114475E+03 -0.37520135530E+03  0.68516113911E+03  0.12545758622E+04  0.12699999809E+01 0. -1.
       -4    1    3    3    0  502 -0.98170114475E+03  0.37520135530E+03 -0.13097713088E+04  0.16792902337E+04  0.12699999809E+01 0.  1.
</event>
<event>
 5   0  0.1307832E-05  0.2854988E+04  0.7818609E-02  0.8286397E-01
        2   -1    0    0  501    0  0.00000000000E+00  0.00000000000E+00  0.17165990532E+04  0.17165990532E+04  0.25500000920E-02 0.  1.
       -2   -1    0    0    0  501  0.00000000000E+00  0.00000000000E+00 -0.11870796393E+04  0.11870796393E+04  0.25500000920E-02 0. -1.
    10030    2    1    2    0    0  0.00000000000E+00  0.00000000000E+00  0.52951941391E+03  0.29036786925E+04  0.28549884658E+04 0.  0.
        4    1    3    3  502    0 -0.62254725769E+03  0.46294907296E+03 -0.95394622050E+03  0.12295942163E+04  0.12699999809E+01 0. -1.
       -4    1    3    3    0  502  0.62254725769E+03 -0.46294907296E+03  0.14834656344E+04  0.16740844762E+04  0.12699999809E+01 0.  1.
</event>
<event>
 5   0  0.1385669E-05  0.1858929E+04  0.7818609E-02  0.8675575E-01
       -2   -1    0    0    0  501  0.00000000000E+00  0.00000000000E+00  0.62212524242E+03  0.62212524243E+03  0.25500000920E-02 0.  1.
        2   -1    0    0  501    0  0.00000000000E+00  0.00000000000E+00 -0.13886333914E+04  0.13886333914E+04  0.25500000920E-02 0. -1.
    10030    2    1    2    0    0  0.00000000000E+00  0.00000000000E+00 -0.76650814897E+03  0.20107586338E+04  0.18589286003E+04 0.  0.
        3    1    3    3  502    0 -0.78742505629E+03  0.47012420818E+03 -0.21974956475E+03  0.94305083203E+03  0.10100000352E+00 0. -1.
       -3    1    3    3    0  502  0.78742505629E+03 -0.47012420818E+03 -0.54675858423E+03  0.10677078018E+04  0.10100000352E+00 0.  1.
</event>
<event>
 5   0  0.5352212E-06  0.2909817E+04  0.7818609E-02  0.8269963E-01
       -1   -1    0    0    0  501  0.00000000000E+00  0.00000000000E+00  0.98042108221E+03  0.98042108223E+03  0.50400001928E-02 0.  1.
        1   -1    0    0  501    0  0.00000000000E+00  0.00000000000E+00 -0.21590299477E+04  0.21590299477E+04  0.50400001928E-02 0. -1.
    10030    2    1    2    0    0  0.00000000000E+00  0.00000000000E+00 -0.11786088655E+04  0.31394510300E+04  0.29098168175E+04 0.  0.
        2    1    3    3  502    0  0.33707238474E+03 -0.14081096794E+04 -0.43532585723E+03  0.15119190665E+04  0.25500000920E-02 0.  1.
       -2    1    3    3    0  502 -0.33707238474E+03  0.14081096794E+04 -0.74328300828E+03  0.16275319635E+04  0.25500000920E-02 0. -1.
</event>
<event>
 5   0  0.5002240E-06  0.2807125E+04  0.7818609E-02  0.8301060E-01
        1   -1    0    0  501    0  0.00000000000E+00  0.00000000000E+00  0.24460002400E+04  0.24460002401E+04  0.50400001928E-02 0.  1.
       -1   -1    0    0    0  501  0.00000000000E+00  0.00000000000E+00 -0.80539162299E+03  0.80539162301E+03  0.50400001928E-02 0. -1.
    10030    2    1    2    0    0  0.00000000000E+00  0.00000000000E+00  0.16406086171E+04  0.32513918631E+04  0.28071252934E+04 0.  0.
        4    1    3    3  502    0 -0.67892768898E+02 -0.65076047005E+03 -0.61794413755E+03  0.89997510381E+03  0.12699999809E+01 0. -1.
       -4    1    3    3    0  502  0.67892768898E+02  0.65076047005E+03  0.22585527546E+04  0.23514167592E+04  0.12699999809E+01 0.  1.
</event>
<event>
 5   0  0.5261878E-06  0.2945445E+04  0.7818609E-02  0.8259483E-01
       -1   -1    0    0    0  501  0.00000000000E+00  0.00000000000E+00  0.11186349756E+04  0.11186349756E+04  0.50400001928E-02 0.  1.
        1   -1    0    0  501    0  0.00000000000E+00  0.00000000000E+00 -0.19388909946E+04  0.19388909946E+04  0.50400001928E-02 0. -1.
    10030    2    1    2    0    0  0.00000000000E+00  0.00000000000E+00 -0.82025601897E+03  0.30575259702E+04  0.29454448088E+04 0.  0.
        5    1    3    3  502    0  0.64527224517E+03  0.12529466803E+04 -0.85375124531E+03  0.16477757532E+04  0.46999998093E+01 0. -1.
       -5    1    3    3    0  502 -0.64527224517E+03 -0.12529466803E+04  0.33495226348E+02  0.14097502170E+04  0.46999998093E+01 0.  1.
</event>
<event>
 5   0  0.1336899E-05  0.2915334E+04  0.7818609E-02  0.8268330E-01
       -2   -1    0    0    0  501  0.00000000000E+00  0.00000000000E+00  0.73540068591E+03  0.73540068591E+03  0.25500000920E-02 0.  1.
        2   -1    0    0  501    0  0.00000000000E+00  0.00000000000E+00 -0.28892994827E+04  0.28892994827E+04  0.25500000920E-02 0. -1.
    10030    2    1    2    0    0  0.00000000000E+00  0.00000000000E+00 -0.21538987968E+04  0.36247001686E+04  0.29153338206E+04 0.  0.
        1    1    3    3  502    0  0.41897334538E+03 -0.28309614928E+03  0.62286425057E+03  0.80227300125E+03  0.50400001928E-02 0.  1.
       -1    1    3    3    0  502 -0.41897334538E+03  0.28309614928E+03 -0.27767630474E+04  0.28224271674E+04  0.50400001928E-02 0. -1.
</event>
<event>
 5   0  0.1339837E-05  0.2918021E+04  0.7818609E-02  0.8267536E-01
       -2   -1    0    0    0  501  0.00000000000E+00  0.00000000000E+00  0.14487496057E+04  0.14487496057E+04  0.25500000920E-02 0.  1.
        2   -1    0    0  501    0  0.00000000000E+00  0.00000000000E+00 -0.14693443219E+04  0.14693443219E+04  0.25500000920E-02 0. -1.
    10030    2    1    2    0    0  0.00000000000E+00  0.00000000000E+00 -0.20594716219E+02  0.29180939276E+04  0.29180212521E+04 0.  0.
        5    1    3    3  502    0 -0.12994243023E+03 -0.14350261571E+04 -0.23944234605E+03  0.14606641756E+04  0.46999998093E+01 0.  1.
       -5    1    3    3    0  502  0.12994243023E+03  0.14350261571E+04  0.21884762983E+03  0.14574297520E+04  0.46999998093E+01 0. -1.
</event>
<event>
 5   0  0.1307832E-05  0.2934069E+04  0.7818609E-02  0.8262813E-01
       -2   -1    0    0    0  501  0.00000000000E+00  0.00000000000E+00  0.98264598501E+03  0.98264598502E+03  0.25500000920E-02 0.  1.
        2   -1    0    0  501    0  0.00000000000E+00  0.00000000000E+00 -0.21901984269E+04  0.21901984269E+04  0.25500000920E-02 0. -1.
    10030    2    1    2    0    0  0.00000000000E+00  0.00000000000E+00 -0.12075524418E+04  0.31728444119E+04  0.29340686362E+04 0.  0.
        4    1    3    3  502    0 -0.95121195154E+03  0.33707647258E+03 -0.17552119841E+04  0.20246469932E+04  0.12699999809E+01 0. -1.
       -4    1    3    3    0  502  0.95121195154E+03 -0.33707647258E+03  0.54765954225E+03  0.11481974187E+04  0.12699999809E+01 0.  1.
</event>
<event>
 5   0  0.5261878E-06  0.2832294E+04  0.7818609E-02  0.8293312E-01
       -1   -1    0    0    0  501  0.00000000000E+00  0.00000000000E+00  0.16607433970E+04  0.16607433970E+04  0.50400001928E-02 0.  1.
        1   -1    0    0  501    0  0.00000000000E+00  0.00000000000E+00 -0.12075753717E+04  0.12075753717E+04  0.50400001928E-02 0. -1.
    10030    2    1    2    0    0  0.00000000000E+00  0.00000000000E+00  0.45316802528E+03  0.28683187687E+04  0.28322943526E+04 0.  0.
        5    1    3    3  502    0  0.13499516476E+04  0.12913429285E+03 -0.18653294388E+03  0.13688906989E+04  0.46999998093E+01 0. -1.
       -5    1    3    3    0  502 -0.13499516476E+04 -0.12913429285E+03  0.63970096916E+03  0.14994280698E+04  0.46999998093E+01 0.  1.
</event>
<event>
 5   0  0.5059249E-06  0.2974337E+04  0.7818609E-02  0.8251097E-01
       -1   -1    0    0    0  501  0.00000000000E+00  0.00000000000E+00  0.21795529564E+04  0.21795529564E+04  0.50400001928E-02 0. -1.
        1   -1    0    0  501    0  0.00000000000E+00  0.00000000000E+00 -0.10147357576E+04  0.10147357576E+04  0.50400001928E-02 0.  1.
    10030    2    1    2    0    0  0.00000000000E+00  0.00000000000E+00  0.11648171988E+04  0.31942887139E+04  0.29743371163E+04 0.  0.
        1    1    3    3  502    0 -0.94650992697E+03  0.11125726938E+04  0.88229122642E+03  0.17064984176E+04  0.50400001928E-02 0.  1.
       -1    1    3    3    0  502  0.94650992697E+03 -0.11125726938E+04  0.28252597238E+03  0.14877902964E+04  0.50400001928E-02 0. -1.
</event>
<event>
 5   0  0.5352212E-06  0.2871915E+04  0.7818609E-02  0.8281283E-01
        1   -1    0    0  501    0  0.00000000000E+00  0.00000000000E+00  0.13440564701E+04  0.13440564701E+04  0.50400001928E-02 0.  1.
       -1   -1    0    0    0  501  0.00000000000E+00  0.00000000000E+00 -0.15341421962E+04  0.15341421962E+04  0.50400001928E-02 0. -1.
    10030    2    1    2    0    0  0.00000000000E+00  0.00000000000E+00 -0.19008572617E+03  0.28781986663E+04  0.28719148628E+04 0.  0.
        2    1    3    3  502    0 -0.12547713646E+04  0.10164749473E+03 -0.78734398366E+03  0.14848211809E+04  0.25500000920E-02 0. -1.
       -2    1    3    3    0  502  0.12547713646E+04 -0.10164749473E+03  0.59725825749E+03  0.13933774854E+04  0.25500000920E-02 0.  1.
</event>
<event>
 5   0  0.5352212E-06  0.2821561E+04  0.7818609E-02  0.8296606E-01
        1   -1    0    0  501    0  0.00000000000E+00  0.00000000000E+00  0.12758243194E+04  0.12758243194E+04  0.50400001928E-02 0.  1.
       -1   -1    0    0    0  501  0.00000000000E+00  0.00000000000E+00 -0.15600119395E+04  0.15600119395E+04  0.50400001928E-02 0. -1.
    10030    2    1    2    0    0  0.00000000000E+00  0.00000000000E+00 -0.28418762015E+03  0.28358362589E+04  0.28215606823E+04 0.  0.
        2    1    3    3  502    0  0.38865570556E+03  0.42304121075E+03  0.11529455071E+04  0.12881383721E+04  0.25500000920E-02 0.  1.
       -2    1    3    3    0  502 -0.38865570556E+03 -0.42304121075E+03 -0.14371331272E+04  0.15476978868E+04  0.25500000920E-02 0. -1.
</event>
<event>
 5   0  0.5154476E-06  0.2819563E+04  0.7818609E-02  0.8297221E-01
       -1   -1    0    0    0  501  0.00000000000E+00  0.00000000000E+00  0.11059785456E+04  0.11059785457E+04  0.50400001928E-02 0.  1.
        1   -1    0    0  501    0  0.00000000000E+00  0.00000000000E+00 -0.17970361690E+04  0.17970361690E+04  0.50400001928E-02 0. -1.
    10030    2    1    2    0    0  0.00000000000E+00  0.00000000000E+00 -0.69105762332E+03  0.29030147146E+04  0.28195626956E+04 0.  0.
        3    1    3    3  502    0  0.53236127269E+03  0.12964080192E+04 -0.18802677006E+03  0.14140142692E+04  0.10100000352E+00 0.  1.
       -3    1    3    3    0  502 -0.53236127269E+03 -0.12964080192E+04 -0.50303085326E+03  0.14890004454E+04  0.10100000352E+00 0. -1.
</event>
<event>
 5   0  0.1336899E-05  0.2907130E+04  0.7818609E-02  0.8270759E-01
       -2   -1    0    0    0  501  0.00000000000E+00  0.00000000000E+00  0.97144566306E+03  0.97144566306E+03  0.25500000920E-02 0. -1.
        2   -1    0    0  501    0  0.00000000000E+00  0.00000000000E+00 -0.21749555432E+04  0.21749555432E+04  0.25500000920E-02 0.  1.
    10030    2    1    2    0    0  0.00000000000E+00  0.00000000000E+00 -0.12035098802E+04  0.31464012063E+04  0.29071299454E+04 0.  0.
        1    1    3    3  502    0  0.99468475802E+03 -0.71763081038E+03 -0.14459940188E+04  0.18961251146E+04  0.50400001928E-02 0.  1.
       -1    1    3    3    0  502 -0.99468475802E+03  0.71763081038E+03  0.24248413866E+03  0.12502760917E+04  0.50400001928E-02 0. -1.
</event>
<event>
 5   0  0.5352212E-06  0.2872831E+04  0.7818609E-02  0.8281007E-01
       -1   -1    0    0    0  501  0.00000000000E+00  0.00000000000E+00  0.16074669371E+04  0.16074669372E+04  0.50400001928E-02 0. -1.
        1   -1    0    0  501    0  0.00000000000E+00  0.00000000000E+00 -0.12835652957E+04  0.12835652957E+04  0.50400001928E-02 0.  1.
    10030    2    1    2    0    0  0.00000000000E+00  0.00000000000E+00  0.32390164148E+03  0.28910322328E+04  0.28728305028E+04 0.  0.
        2    1    3    3  502    0  0.44856067626E+03 -0.96232022206E+03 -0.81166121008E+03  0.13364358608E+04  0.25500000920E-02 0.  1.
       -2    1    3    3    0  502 -0.44856067626E+03  0.96232022206E+03  0.11355628516E+04  0.15545963720E+04  0.25500000920E-02 0. -1.
</event>
<event>
 5   0  0.5002240E-06  0.2901441E+04  0.7818609E-02  0.8272449E-01
        1   -1    0    0  501    0  0.00000000000E+00  0.00000000000E+00  0.14488149832E+04  0.14488149832E+04  0.50400001928E-02 0.  1.
       -1   -1    0    0    0  501  0.00000000000E+00  0.00000000000E+00 -0.14526283856E+04  0.14526283856E+04  0.50400001928E-02 0. -1.
    10030    2    1    2    0    0  0.00000000000E+00  0.00000000000E+00 -0.38134024523E+01  0.29014433688E+04  0.29014408628E+04 0.  0.
        4    1    3    3  502    0  0.11012974280E+04  0.46733335735E+03 -0.82247530192E+03  0.14518001677E+04  0.12699999809E+01 0. -1.
       -4    1    3    3    0  502 -0.11012974280E+04 -0.46733335735E+03  0.81866189947E+03  0.14496432011E+04  0.12699999809E+01 0.  1.
</event>
<event>
 5   0  0.1307832E-05  0.2832808E+04  0.7818609E-02  0.8293155E-01
        2   -1    0    0  501    0  0.00000000000E+00  0.00000000000E+00  0.19637059430E+04  0.19637059430E+04  0.25500000920E-02 0.  1.
       -2   -1    0    0    0  501  0.00000000000E+00  0.00000000000E+00 -0.10216398680E+04  0.10216398680E+04  0.25500000920E-02 0. -1.
    10030    2    1    2    0    0  0.00000000000E+00  0.00000000000E+00  0.94206607503E+03  0.29853458110E+04  0.28328079923E+04 0.  0.
        4    1    3    3  502    0  0.81296647408E+03  0.56153216015E+03  0.15405530395E+04  0.18301743456E+04  0.12699999809E+01 0.  1.
       -4    1    3    3    0  502 -0.81296647408E+03 -0.56153216015E+03 -0.59848696448E+03  0.11551714654E+04  0.12699999809E+01 0. -1.
</event>
<event>
 5   0  0.5261878E-06  0.2958774E+04  0.7818609E-02  0.8255602E-01
       -1   -1    0    0    0  501  0.00000000000E+00  0.00000000000E+00  0.96141239198E+03  0.96141239199E+03  0.50400001928E-02 0. -1.
        1   -1    0    0  501    0  0.00000000000E+00  0.00000000000E+00 -0.22764285518E+04  0.22764285518E+04  0.50400001928E-02 0.  1.
    10030    2    1    2    0    0  0.00000000000E+00  0.00000000000E+00 -0.13150161598E+04  0.32378409438E+04  0.29587744890E+04 0.  0.
        5    1    3    3  502    0 -0.13570694535E+04 -0.52972253055E+03 -0.37568964301E+03  0.15044627808E+04  0.46999998093E+01 0.  1.
       -5    1    3    3    0  502  0.13570694535E+04  0.52972253055E+03 -0.93932651682E+03  0.17333781630E+04  0.46999998093E+01 0. -1.
</event>
<event>
 5   0  0.5261878E-06  0.2587739E+04  0.7818609E-02  0.8372378E-01
       -1   -1    0    0    0  501  0.00000000000E+00  0.00000000000E+00  0.21538644990E+04  0.21538644990E+04  0.50400001928E-02 0.  1.
        1   -1    0    0  501    0  0.00000000000E+00  0.00000000000E+00 -0.77725335961E+03  0.77725335963E+03  0.50400001928E-02 0. -1.
    10030    2    1    2    0    0  0.00000000000E+00  0.00000000000E+00  0.13766111394E+04  0.29311178587E+04  0.25877391044E+04 0.  0.
        5    1    3    3  502    0  0.12547744407E+04 -0.28896354274E+03  0.83210648778E+03  0.15330956014E+04  0.46999998093E+01 0. -1.
       -5    1    3    3    0  502 -0.12547744407E+04  0.28896354274E+03  0.54450465165E+03  0.13980222573E+04  0.46999998093E+01 0.  1.
</event>
<event>
 5   0  0.5352212E-06  0.2919481E+04  0.7818609E-02  0.8267105E-01
        1   -1    0    0  501    0  0.00000000000E+00  0.00000000000E+00  0.11799030382E+04  0.11799030383E+04  0.50400001928E-02 0.  1.
       -1   -1    0    0    0  501  0.00000000000E+00  0.00000000000E+00 -0.18059463932E+04  0.18059463932E+04  0.50400001928E-02 0. -1.
    10030    2    1    2    0    0  0.00000000000E+00  0.00000000000E+00 -0.62604335493E+03  0.29858494314E+04  0.29194805266E+04 0.  0.
        2    1    3    3  502    0  0.58281522881E+03  0.56192675271E+02  0.10545413298E+04  0.12061876405E+04  0.25500000920E-02 0.  1.
       -2    1    3    3    0  502 -0.58281522881E+03 -0.56192675271E+02 -0.16805846847E+04  0.17796617910E+04  0.25500000920E-02 0. -1.
</event>
<event>
 5   0  0.1336899E-05  0.2930727E+04  0.7818609E-02  0.8263793E-01
        2   -1    0    0  501    0  0.00000000000E+00  0.00000000000E+00  0.19063167665E+04  0.19063167665E+04  0.25500000920E-02 0. -1.
       -2   -1    0    0    0  501  0.00000000000E+00  0.00000000000E+00 -0.11264081472E+04  0.11264081472E+04  0.25500000920E-02 0.  1.
    10030    2    1    2    0    0  0.00000000000E+00  0.00000000000E+00  0.77990861937E+03  0.30327249137E+04  0.29307273752E+04 0.  0.
        1    1    3    3  502    0 -0.34214331143E+03 -0.13137679273E+04  0.96073274422E+03  0.16631463009E+04  0.50400001928E-02 0. -1.
       -1    1    3    3    0  502  0.34214331143E+03  0.13137679273E+04 -0.18082412485E+03  0.13695786128E+04  0.50400001928E-02 0.  1.
</event>
<event>
 5   0  0.5352212E-06  0.2736398E+04  0.7818609E-02  0.8323291E-01
       -1   -1    0    0    0  501  0.00000000000E+00  0.00000000000E+00  0.12459617277E+04  0.12459617277E+04  0.50400001928E-02 0. -1.
        1   -1    0    0  501    0  0.00000000000E+00  0.00000000000E+00 -0.15024281220E+04  0.15024281220E+04  0.50400001928E-02 0.  1.
    10030    2    1    2    0    0  0.00000000000E+00  0.00000000000E+00 -0.25646639428E+03  0.27483898497E+04  0.27363975871E+04 0.  0.
        2    1    3    3  502    0 -0.11283588732E+04 -0.15907878994E+03 -0.88882874861E+03  0.14451700082E+04  0.25500000920E-02 0.  1.
       -2    1    3    3    0  502  0.11283588732E+04  0.15907878994E+03  0.63236235433E+03  0.13032198415E+04  0.25500000920E-02 0. -1.
</event>
<event>
 5   0  0.1336899E-05  0.1902228E+04  0.7818609E-02  0.8653748E-01
       -2   -1    0    0    0  501  0.00000000000E+00  0.00000000000E+00  0.93541439400E+03  0.93541439400E+03  0.25500000920E-02 0.  1.
        2   -1    0    0  501    0  0.00000000000E+00  0.00000000000E+00 -0.96707697933E+03  0.96707697933E+03  0.25500000920E-02 0. -1.
    10030    2    1    2    0    0  0.00000000000E+00  0.00000000000E+00 -0.31662585330E+02  0.19024913733E+04  0.19022278797E+04 0.  0.
        1    1    3    3  502    0  0.59960958462E+03 -0.47372486144E+03 -0.58218778114E+03  0.96067138546E+03  0.50400001928E-02 0. -1.
       -1    1    3    3    0  502 -0.59960958462E+03  0.47372486144E+03  0.55052519581E+03  0.94181998787E+03  0.50400001928E-02 0.  1.
</event>
<event>
 5   0  0.1385669E-05  0.2894989E+04  0.7818609E-02  0.8274370E-01
        2   -1    0    0  501    0  0.00000000000E+00  0.00000000000E+00  0.26883783686E+04  0.26883783686E+04  0.25500000920E-02 0.  1.
       -2   -1    0    0    0  501  0.00000000000E+00  0.00000000000E+00 -0.77936967102E+03  0.77936967102E+03  0.25500000920E-02 0. -1.
    10030    2    1    2    0    0  0.00000000000E+00  0.00000000000E+00  0.19090086976E+04  0.34677480397E+04  0.28949891639E+04 0.  0.
        3    1    3    3  502    0 -0.93689841897E+03 -0.94006587224E+03  0.26250854195E+03  0.13529276538E+04  0.10100000352E+00 0. -1.
       -3    1    3    3    0  502  0.93689841897E+03  0.94006587224E+03  0.16465001557E+04  0.21148203859E+04  0.10100000352E+00 0.  1.
</event>
<event>
 5   0  0.1385669E-05  0.2677206E+04  0.7818609E-02  0.8342439E-01
        2   -1    0    0  501    0  0.00000000000E+00  0.00000000000E+00  0.14511157015E+04  0.14511157015E+04  0.25500000920E-02 0.  1.
       -2   -1    0    0    0  501  0.00000000000E+00  0.00000000000E+00 -0.12348144224E+04  0.12348144224E+04  0.25500000920E-02 0. -1.
    10030    2    1    2    0    0  0.00000000000E+00  0.00000000000E+00  0.21630127910E+03  0.26859301238E+04  0.26772064520E+04 0.  0.
        3    1    3    3  502    0  0.65763990009E+03 -0.72394944785E+03 -0.80875602752E+03  0.12691254325E+04  0.10100000352E+00 0. -1.
       -3    1    3    3    0  502 -0.65763990009E+03  0.72394944785E+03  0.10250573066E+04  0.14168046913E+04  0.10100000352E+00 0.  1.
</event>
<event>
 5   0  0.5059249E-06  0.2956724E+04  0.7818609E-02  0.8256198E-01
       -1   -1    0    0    0  501  0.00000000000E+00  0.00000000000E+00  0.14327578789E+04  0.14327578789E+04  0.50400001928E-02 0. -1.
        1   -1    0    0  501    0  0.00000000000E+00  0.00000000000E+00 -0.15254175018E+04  0.15254175018E+04  0.50400001928E-02 0.  1.
    10030    2    1    2    0    0  0.00000000000E+00  0.00000000000E+00 -0.92659622903E+02  0.29581753807E+04  0.29567238250E+04 0.  0.
        1    1    3    3  502    0  0.10492238754E+04 -0.75754404222E+03 -0.76139057731E+03  0.15014857068E+04  0.50400001928E-02 0.  1.
       -1    1    3    3    0  502 -0.10492238754E+04  0.75754404222E+03  0.66873095441E+03  0.14566896739E+04  0.50400001928E-02 0. -1.
</event>
<event>
 5   0  0.5154476E-06  0.2835291E+04  0.7818609E-02  0.8292395E-01
        1   -1    0    0  501    0  0.00000000000E+00  0.00000000000E+00  0.17589733900E+04  0.17589733900E+04  0.50400001928E-02 0.  1.
       -1   -1    0    0    0  501  0.00000000000E+00  0.00000000000E+00 -0.11425524615E+04  0.11425524615E+04  0.50400001928E-02 0. -1.
    10030    2    1    2    0    0  0.00000000000E+00  0.00000000000E+00  0.61642092843E+03  0.29015258515E+04  0.28352914323E+04 0.  0.
        3    1    3    3  502    0 -0.92910190433E+03 -0.37821912781E+03 -0.71690856151E+03  0.12329792995E+04  0.10100000352E+00 0. -1.
       -3    1    3    3    0  502  0.92910190433E+03  0.37821912781E+03  0.13333294899E+04  0.16685465520E+04  0.10100000352E+00 0.  1.
</event>
<event>
 5   0  0.1385669E-05  0.1820359E+04  0.7818609E-02  0.8695547E-01
       -2   -1    0    0    0  501  0.00000000000E+00  0.00000000000E+00  0.44422442750E+03  0.44422442750E+03  0.25500000920E-02 0.  1.
        2   -1    0    0  501    0  0.00000000000E+00  0.00000000000E+00 -0.18648832352E+04  0.18648832352E+04  0.25500000920E-02 0. -1.
    10030    2    1    2    0    0  0.00000000000E+00  0.00000000000E+00 -0.14206588077E+04  0.23091076627E+04  0.18203589619E+04 0.  0.
        3    1    3    3  502    0 -0.26557947664E+03  0.71328855786E+03 -0.77209582126E+02  0.76503225746E+03  0.10100000352E+00 0.  1.
       -3    1    3    3    0  502  0.26557947664E+03 -0.71328855786E+03 -0.13434492256E+04  0.15440754053E+04  0.10100000352E+00 0. -1.
</event>
<event>
 5   0  0.5261878E-06  0.1819564E+04  0.7818609E-02  0.8695964E-01
       -1   -1    0    0    0  501  0.00000000000E+00  0.00000000000E+00  0.61398578327E+03  0.61398578329E+03  0.50400001928E-02 0. -1.
        1   -1    0    0  501    0  0.00000000000E+00  0.00000000000E+00 -0.13480814594E+04  0.13480814594E+04  0.50400001928E-02 0.  1.
    10030    2    1    2    0    0  0.00000000000E+00  0.00000000000E+00 -0.73409567617E+03  0.19620672427E+04  0.18195635200E+04 0.  0.
        5    1    3    3  502    0 -0.83977310705E+02  0.10803401859E+03  0.60281304726E+03  0.61816599537E+03  0.46999998093E+01 0. -1.
       -5    1    3    3    0  502  0.83977310705E+02 -0.10803401859E+03 -0.13369087234E+04  0.13439012474E+04  0.46999998093E+01 0.  1.
</event>
<event>
 5   0  0.1382803E-05  0.2770959E+04  0.7818609E-02  0.8312342E-01
       -2   -1    0    0    0  501  0.00000000000E+00  0.00000000000E+00  0.20921556842E+04  0.20921556842E+04  0.25500000920E-02 0.  1.
        2   -1    0    0  501    0  0.00000000000E+00  0.00000000000E+00 -0.91750009595E+03  0.91750009595E+03  0.25500000920E-02 0. -1.
    10030    2    1    2    0    0  0.00000000000E+00  0.00000000000E+00  0.11746555882E+04  0.30096557802E+04  0.27709587085E+04 0.  0.
        2    1    3    3  502    0 -0.13493161353E+04 -0.84053376724E+02  0.91647381807E+03  0.16332921546E+04  0.25500000920E-02 0.  1.
       -2    1    3    3    0  502  0.13493161353E+04  0.84053376724E+02  0.25818177018E+03  0.13763636255E+04  0.25500000920E-02 0. -1.
</event>
<event>
 5   0  0.5059249E-06  0.2833117E+04  0.7818609E-02  0.8293060E-01
       -1   -1    0    0    0  501  0.00000000000E+00  0.00000000000E+00  0.93504104075E+03  0.93504104076E+03  0.50400001928E-02 0. -1.
        1   -1    0    0  501    0  0.00000000000E+00  0.00000000000E+00 -0.21460421099E+04  0.21460421099E+04  0.50400001928E-02 0.  1.
    10030    2    1    2    0    0  0.00000000000E+00  0.00000000000E+00 -0.12110010692E+04  0.30810831507E+04  0.28331166216E+04 0.  0.
        1    1    3    3  502    0 -0.61383346595E+03  0.11953650939E+04 -0.11799332264E+03  0.13489298187E+04  0.50400001928E-02 0. -1.
       -1    1    3    3    0  502  0.61383346595E+03 -0.11953650939E+04 -0.10930077465E+04  0.17321533320E+04  0.50400001928E-02 0.  1.
</event>
<event>
 5   0  0.5059249E-06  0.2842241E+04  0.7818609E-02  0.8290273E-01
       -1   -1    0    0    0  501  0.00000000000E+00  0.00000000000E+00  0.94573078665E+03  0.94573078666E+03  0.50400001928E-02 0. -1.
        1   -1    0    0  501    0  0.00000000000E+00  0.00000000000E+00 -0.21354734056E+04  0.21354734056E+04  0.50400001928E-02 0.  1.
    10030    2    1    2    0    0  0.00000000000E+00  0.00000000000E+00 -0.11897426190E+04  0.30812041923E+04  0.28422406258E+04 0.  0.
        1    1    3    3  502    0 -0.11950727876E+04  0.64227595866E+03 -0.10533540714E+04  0.17176356349E+04  0.50400001928E-02 0. -1.
       -1    1    3    3    0  502  0.11950727876E+04 -0.64227595866E+03 -0.13638854761E+03  0.13635685574E+04  0.50400001928E-02 0.  1.
</event>
<event>
 5   0  0.5002240E-06  0.2839995E+04  0.7818609E-02  0.8290958E-01
       -1   -1    0    0    0  501  0.00000000000E+00  0.00000000000E+00  0.12750624559E+04  0.12750624559E+04  0.50400001928E-02 0.  1.
        1   -1    0    0  501    0  0.00000000000E+00  0.00000000000E+00 -0.15814072571E+04  0.15814072571E+04  0.50400001928E-02 0. -1.
    10030    2    1    2    0    0  0.00000000000E+00  0.00000000000E+00 -0.30634480120E+03  0.28564697131E+04  0.28399950853E+04 0.  0.
        4    1    3    3  502    0  0.67834344319E+03  0.76325477849E+03 -0.11456506333E+04  0.15346741251E+04  0.12699999809E+01 0. -1.
       -4    1    3    3    0  502 -0.67834344319E+03 -0.76325477849E+03  0.83930583207E+03  0.13217955880E+04  0.12699999809E+01 0.  1.
</event>
<event>
 5   0  0.1307832E-05  0.2951596E+04  0.7818609E-02  0.8257690E-01
        2   -1    0    0  501    0  0.00000000000E+00  0.00000000000E+00  0.18784309693E+04  0.18784309693E+04  0.25500000920E-02 0. -1.
       -2   -1    0    0    0  501  0.00000000000E+00  0.00000000000E+00 -0.11594676237E+04  0.11594676237E+04  0.25500000920E-02 0.  1.
    10030    2    1    2    0    0  0.00000000000E+00  0.00000000000E+00  0.71896334560E+03  0.30378985930E+04  0.29515961053E+04 0.  0.
        4    1    3    3  502    0  0.46647331173E+03 -0.12514420800E+04  0.10057534941E+04  0.16718990203E+04  0.12699999809E+01 0. -1.
       -4    1    3    3    0  502 -0.46647331173E+03  0.12514420800E+04 -0.28679014853E+03  0.13659995726E+04  0.12699999809E+01 0.  1.
</event>
<event>
 5   0  0.5154476E-06  0.3045569E+04  0.7818609E-02  0.8230837E-01
       -1   -1    0    0    0  501  0.00000000000E+00  0.00000000000E+00  0.15575346783E+04  0.15575346783E+04  0.50400001928E-02 0. -1.
        1   -1    0    0  501    0  0.00000000000E+00  0.00000000000E+00 -0.14888093935E+04  0.14888093935E+04  0.50400001928E-02 0.  1.
    10030    2    1    2    0    0  0.00000000000E+00  0.00000000000E+00  0.68725284811E+02  0.30463440718E+04  0.30455687546E+04 0.  0.
        3    1    3    3  502    0  0.45039947065E+02 -0.12813703125E+04  0.85611531653E+03  0.15417107122E+04  0.10100000352E+00 0. -1.
       -3    1    3    3    0  502 -0.45039947065E+02  0.12813703125E+04 -0.78739003172E+03  0.15046333596E+04  0.10100000352E+00 0.  1.
</event>
<event>
 5   0  0.5261878E-06  0.2920305E+04  0.7818609E-02  0.8266862E-01
       -1   -1    0    0    0  501  0.00000000000E+00  0.00000000000E+00  0.17392865718E+04  0.17392865718E+04  0.50400001928E-02 0.  1.
        1   -1    0    0  501    0  0.00000000000E+00  0.00000000000E+00 -0.12258162144E+04  0.12258162144E+04  0.50400001928E-02 0. -1.
    10030    2    1    2    0    0  0.00000000000E+00  0.00000000000E+00  0.51347035746E+03  0.29651027862E+04  0.29203052452E+04 0.  0.
        5    1    3    3  502    0 -0.14789083633E+03  0.12624921970E+04 -0.47280294322E+03  0.13562164134E+04  0.46999998093E+01 0. -1.
       -5    1    3    3    0  502  0.14789083633E+03 -0.12624921970E+04  0.98627330068E+03  0.16088863728E+04  0.46999998093E+01 0.  1.
</event>
<event>
 5   0  0.5002240E-06  0.2771792E+04  0.7818609E-02  0.8312080E-01
       -1   -1    0    0    0  501  0.00000000000E+00  0.00000000000E+00  0.14040962805E+04  0.14040962805E+04  0.50400001928E-02 0. -1.
        1   -1    0    0  501    0  0.00000000000E+00  0.00000000000E+00 -0.13679312945E+04  0.13679312945E+04  0.50400001928E-02 0.  1.
    10030    2    1    2    0    0  0.00000000000E+00  0.00000000000E+00  0.36164985981E+02  0.27720275750E+04  0.27717916535E+04 0.  0.
        4    1    3    3  502    0 -0.78793310208E+03  0.74707542575E+03  0.87940219991E+03  0.13972509106E+04  0.12699999809E+01 0. -1.
       -4    1    3    3    0  502  0.78793310208E+03 -0.74707542575E+03 -0.84323721393E+03  0.13747766644E+04  0.12699999809E+01 0.  1.
</event>
<event>
 5   0  0.1382803E-05  0.2895081E+04  0.7818609E-02  0.8274342E-01
        2   -1    0    0  501    0  0.00000000000E+00  0.00000000000E+00  0.23560127422E+04  0.23560127422E+04  0.25500000920E-02 0. -1.
       -2   -1    0    0    0  501  0.00000000000E+00  0.00000000000E+00 -0.88937292907E+03  0.88937292907E+03  0.25500000920E-02 0.  1.
    10030    2    1    2    0    0  0.00000000000E+00  0.00000000000E+00  0.14666398131E+04  0.32453856712E+04  0.28950813138E+04 0.  0.
        2    1    3    3  502    0  0.13461101091E+02 -0.13106403082E+03  0.23492772196E+04  0.23529688557E+04  0.25500000920E-02 0. -1.
       -2    1    3    3    0  502 -0.13461101091E+02  0.13106403082E+03 -0.88263740646E+03  0.89241681556E+03  0.25500000920E-02 0.  1.
</event>
<event>
 5   0  0.4590125E-06  0.2215944E+04  0.7818609E-02  0.8511821E-01
       -3   -1    0    0    0  501  0.00000000000E+00  0.00000000000E+00  0.85944322184E+03  0.85944322778E+03  0.10100000352E+00 0.  1.
        3   -1    0    0  501    0  0.00000000000E+00  0.00000000000E+00 -0.14283683577E+04  0.14283683612E+04  0.10100000352E+00 0. -1.
    10030    2    1    2    0    0  0.00000000000E+00  0.00000000000E+00 -0.56892513581E+03  0.22878115890E+04  0.22159436041E+04 0.  0.
        5    1    3    3  502    0 -0.31631261523E+03 -0.70166207358E+03 -0.11073026894E+04  0.13485268525E+04  0.46999998093E+01 0. -1.
       -5    1    3    3    0  502  0.31631261523E+03  0.70166207358E+03  0.53837755355E+03  0.93928473650E+03  0.46999998093E+01 0.  1.
</event>
<event>
 5   0  0.1307832E-05  0.2207110E+04  0.7818609E-02  0.8515475E-01
        2   -1    0    0  501    0  0.00000000000E+00  0.00000000000E+00  0.74424405778E+03  0.74424405779E+03  0.25500000920E-02 0. -1.
       -2   -1    0    0    0  501  0.00000000000E+00  0.00000000000E+00 -0.16363365751E+04  0.16363365751E+04  0.25500000920E-02 0.  1.
    10030    2    1    2    0    0  0.00000000000E+00  0.00000000000E+00 -0.89209251727E+03  0.23805806328E+04  0.22071101219E+04 0.  0.
        4    1    3    3  502    0  0.65715568393E+03  0.18718653866E+03  0.48863050313E+03  0.84003200812E+03  0.12699999809E+01 0. -1.
       -4    1    3    3    0  502 -0.65715568393E+03 -0.18718653866E+03 -0.13807230204E+04  0.15405486247E+04  0.12699999809E+01 0.  1.
</event>
<event>
 5   0  0.1307832E-05  0.2929106E+04  0.7818609E-02  0.8264270E-01
        2   -1    0    0  501    0  0.00000000000E+00  0.00000000000E+00  0.19252791718E+04  0.19252791718E+04  0.25500000920E-02 0. -1.
       -2   -1    0    0    0  501  0.00000000000E+00  0.00000000000E+00 -0.11140803927E+04  0.11140803927E+04  0.25500000920E-02 0.  1.
    10030    2    1    2    0    0  0.00000000000E+00  0.00000000000E+00  0.81119877907E+03  0.30393595644E+04  0.29291061952E+04 0.  0.
        4    1    3    3  502    0 -0.90667782333E+03 -0.10980856977E+04  0.76061397258E+03  0.16144324399E+04  0.12699999809E+01 0. -1.
       -4    1    3    3    0  502  0.90667782333E+03  0.10980856977E+04  0.50584806491E+02  0.14249271246E+04  0.12699999809E+01 0.  1.
</event>
<event>
 5   0  0.5002240E-06  0.2897849E+04  0.7818609E-02  0.8273518E-01
       -1   -1    0    0    0  501  0.00000000000E+00  0.00000000000E+00  0.21182513442E+04  0.21182513442E+04  0.50400001928E-02 0.  1.
        1   -1    0    0  501    0  0.00000000000E+00  0.00000000000E+00 -0.99109197794E+03  0.99109197795E+03  0.50400001928E-02 0. -1.
    10030    2    1    2    0    0  0.00000000000E+00  0.00000000000E+00  0.11271593663E+04  0.31093433222E+04  0.28978487983E+04 0.  0.
        4    1    3    3  502    0  0.17103979828E+02 -0.14141149463E+04  0.90181062373E+03  0.16772828150E+04  0.12699999809E+01 0.  1.
       -4    1    3    3    0  502 -0.17103979828E+02  0.14141149463E+04  0.22534874253E+03  0.14320605072E+04  0.12699999809E+01 0. -1.
</event>
<event>
 5   0  0.1382803E-05  0.2940785E+04  0.7818609E-02  0.8260845E-01
       -2   -1    0    0    0  501  0.00000000000E+00  0.00000000000E+00  0.15789822242E+04  0.15789822242E+04  0.25500000920E-02 0.  1.
        2   -1    0    0  501    0  0.00000000000E+00  0.00000000000E+00 -0.13692706627E+04  0.13692706627E+04  0.25500000920E-02 0. -1.
    10030    2    1    2    0    0  0.00000000000E+00  0.00000000000E+00  0.20971156149E+03  0.29482528869E+04  0.29407849541E+04 0.  0.
        2    1    3    3  502    0 -0.57331106078E+03  0.51835559633E+03  0.13589023574E+04  0.15633277691E+04  0.25500000920E-02 0.  1.
       -2    1    3    3    0  502  0.57331106078E+03 -0.51835559633E+03 -0.11491907959E+04  0.13849251178E+04  0.25500000920E-02 0. -1.
</event>
<event>
 5   0  0.1307832E-05  0.2815059E+04  0.7818609E-02  0.8298608E-01
        2   -1    0    0  501    0  0.00000000000E+00  0.00000000000E+00  0.11926892866E+04  0.11926892866E+04  0.25500000920E-02 0.  1.
       -2   -1    0    0    0  501  0.00000000000E+00  0.00000000000E+00 -0.16610688568E+04  0.16610688568E+04  0.25500000920E-02 0. -1.
    10030    2    1    2    0    0  0.00000000000E+00  0.00000000000E+00 -0.46837957025E+03  0.28537581434E+04  0.28150588127E+04 0.  0.
        4    1    3    3  502    0 -0.44837218511E+03 -0.16867858601E+01 -0.15867341515E+04  0.16488685036E+04  0.12699999809E+01 0. -1.
       -4    1    3    3    0  502  0.44837218511E+03  0.16867858601E+01  0.11183545813E+04  0.12048896398E+04  0.12699999809E+01 0.  1.
</event>
<event>
 5   0  0.1339837E-05  0.2550486E+04  0.7818609E-02  0.8385217E-01
       -2   -1    0    0    0  501  0.00000000000E+00  0.00000000000E+00  0.11621744648E+04  0.11621744648E+04  0.25500000920E-02 0.  1.
        2   -1    0    0  501    0  0.00000000000E+00  0.00000000000E+00 -0.13993116790E+04  0.13993116790E+04  0.25500000920E-02 0. -1.
    10030    2    1    2    0    0  0.00000000000E+00  0.00000000000E+00 -0.23713721423E+03  0.25614861438E+04  0.25504856805E+04 0.  0.
        5    1    3    3  502    0  0.12699434886E+04 -0.42579511085E+02 -0.22698201862E+03  0.12907797666E+04  0.46999998093E+01 0. -1.
       -5    1    3    3    0  502 -0.12699434886E+04  0.42579511085E+02 -0.10155195608E+02  0.12707063772E+04  0.46999998093E+01 0.  1.
</event>
<event>
 5   0  0.1339837E-05  0.2927597E+04  0.7818609E-02  0.8264714E-01
        2   -1    0    0  501    0  0.00000000000E+00  0.00000000000E+00  0.16723619489E+04  0.16723619489E+04  0.25500000920E-02 0. -1.
       -2   -1    0    0    0  501  0.00000000000E+00  0.00000000000E+00 -0.12812449866E+04  0.12812449866E+04  0.25500000920E-02 0.  1.
    10030    2    1    2    0    0  0.00000000000E+00  0.00000000000E+00  0.39111696233E+03  0.29536069355E+04  0.29275965315E+04 0.  0.
        5    1    3    3  502    0  0.13459145413E+04 -0.16274473866E+03 -0.36135262201E+03  0.14030572369E+04  0.46999998093E+01 0.  1.
       -5    1    3    3    0  502 -0.13459145413E+04  0.16274473866E+03  0.75246958434E+03  0.15505496986E+04  0.46999998093E+01 0. -1.
</event>
<event>
 5   0  0.1385669E-05  0.2815623E+04  0.7818609E-02  0.8298434E-01
        2   -1    0    0  501    0  0.00000000000E+00  0.00000000000E+00  0.21780330124E+04  0.21780330124E+04  0.25500000920E-02 0.  1.
       -2   -1    0    0    0  501  0.00000000000E+00  0.00000000000E+00 -0.90996475342E+03  0.90996475342E+03  0.25500000920E-02 0. -1.
    10030    2    1    2    0    0  0.00000000000E+00  0.00000000000E+00  0.12680682590E+04  0.30879977658E+04  0.28156230380E+04 0.  0.
        3    1    3    3  502    0 -0.17437245349E+03  0.88416207622E+03 -0.55215920450E+03  0.10568955137E+04  0.10100000352E+00 0. -1.
       -3    1    3    3    0  502  0.17437245349E+03 -0.88416207622E+03  0.18202274635E+04  0.20311022521E+04  0.10100000352E+00 0.  1.
</event>
<event>
 5   0  0.5261878E-06  0.2676536E+04  0.7818609E-02  0.8342658E-01
        1   -1    0    0  501    0  0.00000000000E+00  0.00000000000E+00  0.16171680792E+04  0.16171680793E+04  0.50400001928E-02 0. -1.
       -1   -1    0    0    0  501  0.00000000000E+00  0.00000000000E+00 -0.11074677954E+04  0.11074677954E+04  0.50400001928E-02 0.  1.
    10030    2    1    2    0    0  0.00000000000E+00  0.00000000000E+00  0.50970028389E+03  0.27246358746E+04  0.26765362448E+04 0.  0.
        5    1    3    3  502    0  0.20486513245E+03 -0.15982140668E+03 -0.10815354109E+04  0.11123189918E+04  0.46999998093E+01 0.  1.
       -5    1    3    3    0  502 -0.20486513245E+03  0.15982140668E+03  0.15912356947E+04  0.16123168829E+04  0.46999998093E+01 0. -1.
</event>
<event>
 5   0  0.5352212E-06  0.2928586E+04  0.7818609E-02  0.8264423E-01
        1   -1    0    0  501    0  0.00000000000E+00  0.00000000000E+00  0.14375801682E+04  0.14375801682E+04  0.50400001928E-02 0.  1.
       -1   -1    0    0    0  501  0.00000000000E+00  0.00000000000E+00 -0.14915026667E+04  0.14915026667E+04  0.50400001928E-02 0. -1.
    10030    2    1    2    0    0  0.00000000000E+00  0.00000000000E+00 -0.53922498580E+02  0.29290828349E+04  0.29285864539E+04 0.  0.
        2    1    3    3  502    0  0.12832585964E+04 -0.38325965079E+03  0.56518138570E+03  0.14536404590E+04  0.25500000920E-02 0.  1.
       -2    1    3    3    0  502 -0.12832585964E+04  0.38325965079E+03 -0.61910388428E+03  0.14754423759E+04  0.25500000920E-02 0. -1.
</event>
<event>
 5   0  0.1336899E-05  0.3010231E+04  0.7818609E-02  0.8240815E-01
        2   -1    0    0  501    0  0.00000000000E+00  0.00000000000E+00  0.24734746488E+04  0.24734746488E+04  0.25500000920E-02 0.  1.
       -2   -1    0    0    0  501  0.00000000000E+00  0.00000000000E+00 -0.91586672836E+03  0.91586672836E+03  0.25500000920E-02 0. -1.
    10030    2    1    2    0    0  0.00000000000E+00  0.00000000000E+00  0.15576079205E+04  0.33893413772E+04  0.30102313096E+04 0.  0.
        1    1    3    3  502    0 -0.11800634495E+04  0.34789225865E+03 -0.19745487727E+03  0.12460205444E+04  0.50400001928E-02 0. -1.
       -1    1    3    3    0  502  0.11800634495E+04 -0.34789225865E+03  0.17550627977E+04  0.21433208328E+04  0.50400001928E-02 0.  1.
</event>
<event>
 5   0  0.5002240E-06  0.2324303E+04  0.7818609E-02  0.8468400E-01
        1   -1    0    0  501    0  0.00000000000E+00  0.00000000000E+00  0.19181828722E+04  0.19181828722E+04  0.50400001928E-02 0.  1.
       -1   -1    0    0    0  501  0.00000000000E+00  0.00000000000E+00 -0.70410175324E+03  0.70410175326E+03  0.50400001928E-02 0. -1.
    10030    2    1    2    0    0  0.00000000000E+00  0.00000000000E+00  0.12140811190E+04  0.26222846255E+04  0.23243028403E+04 0.  0.
        4    1    3    3  502    0 -0.10265485851E+04 -0.11366402345E+03  0.12081437161E+04  0.15894446701E+04  0.12699999809E+01 0.  1.
       -4    1    3    3    0  502  0.10265485851E+04  0.11366402345E+03  0.59374028905E+01  0.10328399554E+04  0.12699999809E+01 0. -1.
</event>
<event>
 5   0  0.1385669E-05  0.2869233E+04  0.7818609E-02  0.8282091E-01
        2   -1    0    0  501    0  0.00000000000E+00  0.00000000000E+00  0.85192677499E+03  0.85192677500E+03  0.25500000920E-02 0. -1.
       -2   -1    0    0    0  501  0.00000000000E+00  0.00000000000E+00 -0.24158460143E+04  0.24158460143E+04  0.25500000920E-02 0.  1.
    10030    2    1    2    0    0  0.00000000000E+00  0.00000000000E+00 -0.15639192393E+04  0.32677727893E+04  0.28692325830E+04 0.  0.
        3    1    3    3  502    0 -0.22781255591E+03  0.12399934513E+04 -0.15616218652E+04  0.20070239610E+04  0.10100000352E+00 0.  1.
       -3    1    3    3    0  502  0.22781255591E+03 -0.12399934513E+04 -0.22973740696E+01  0.12607488283E+04  0.10100000352E+00 0. -1.
</event>
<event>
 5   0  0.5154476E-06  0.2797643E+04  0.7818609E-02  0.8304000E-01
       -1   -1    0    0    0  501  0.00000000000E+00  0.00000000000E+00  0.11229138573E+04  0.11229138573E+04  0.50400001928E-02 0. -1.
        1   -1    0    0  501    0  0.00000000000E+00  0.00000000000E+00 -0.17425220466E+04  0.17425220466E+04  0.50400001928E-02 0.  1.
    10030    2    1    2    0    0  0.00000000000E+00  0.00000000000E+00 -0.61960818934E+03  0.28654359040E+04  0.27976434032E+04 0.  0.
        3    1    3    3  502    0 -0.11307914127E+03 -0.13939501003E+04 -0.28050374758E+03  0.14263821847E+04  0.10100000352E+00 0. -1.
       -3    1    3    3    0  502  0.11307914127E+03  0.13939501003E+04 -0.33910444176E+03  0.14390537192E+04  0.10100000352E+00 0.  1.
</event>
<event>
 5   0  0.5154476E-06  0.2856292E+04  0.7818609E-02  0.8286002E-01
       -1   -1    0    0    0  501  0.00000000000E+00  0.00000000000E+00  0.11872110924E+04  0.11872110924E+04  0.50400001928E-02 0.  1.
        1   -1    0    0  501    0  0.00000000000E+00  0.00000000000E+00 -0.17179768893E+04  0.17179768893E+04  0.50400001928E-02 0. -1.
    10030    2    1    2    0    0  0.00000000000E+00  0.00000000000E+00 -0.53076579690E+03  0.29051879817E+04  0.28562921555E+04 0.  0.
        3    1    3    3  502    0  0.58194894301E+03  0.12799559301E+04 -0.51996640070E+03  0.14991053410E+04  0.10100000352E+00 0. -1.
       -3    1    3    3    0  502 -0.58194894301E+03 -0.12799559301E+04 -0.10799396201E+02  0.14060826407E+04  0.10100000352E+00 0.  1.
</event>
<event>
 5   0  0.5261878E-06  0.3046133E+04  0.7818609E-02  0.8230679E-01
       -1   -1    0    0    0  501  0.00000000000E+00  0.00000000000E+00  0.96577560362E+03  0.96577560364E+03  0.50400001928E-02 0. -1.
        1   -1    0    0  501    0  0.00000000000E+00  0.00000000000E+00 -0.24019370724E+04  0.24019370724E+04  0.50400001928E-02 0.  1.
    10030    2    1    2    0    0  0.00000000000E+00  0.00000000000E+00 -0.14361614687E+04  0.33677126760E+04  0.30461334350E+04 0.  0.
        5    1    3    3  502    0  0.99194361809E+03  0.76618611289E+03  0.23855127220E+03  0.12759005057E+04  0.46999998093E+01 0.  1.
       -5    1    3    3    0  502 -0.99194361809E+03 -0.76618611289E+03 -0.16747127409E+04  0.20918121703E+04  0.46999998093E+01 0. -1.
</event>
<event>
 5   0  0.1382803E-05  0.2930032E+04  0.7818609E-02  0.8263998E-01
        2   -1    0    0  501    0  0.00000000000E+00  0.00000000000E+00  0.18047425372E+04  0.18047425372E+04  0.25500000920E-02 0.  1.
       -2   -1    0    0    0  501  0.00000000000E+00  0.00000000000E+00 -0.11892401144E+04  0.11892401144E+04  0.25500000920E-02 0. -1.
    10030    2    1    2    0    0  0.00000000000E+00  0.00000000000E+00  0.61550242282E+03  0.29939826516E+04  0.29300322328E+04 0.  0.
        2    1    3    3  502    0  0.10320431155E+04  0.62076742347E+03  0.11601077347E+04  0.16722186288E+04  0.25500000920E-02 0.  1.
       -2    1    3    3    0  502 -0.10320431155E+04 -0.62076742347E+03 -0.54460531188E+03  0.13217640228E+04  0.25500000920E-02 0. -1.
</event>
<event>
 5   0  0.1339837E-05  0.2912788E+04  0.7818609E-02  0.8269083E-01
        2   -1    0    0  501    0  0.00000000000E+00  0.00000000000E+00  0.22861821709E+04  0.22861821709E+04  0.25500000920E-02 0. -1.
       -2   -1    0    0    0  501  0.00000000000E+00  0.00000000000E+00 -0.92778436039E+03  0.92778436039E+03  0.25500000920E-02 0.  1.
    10030    2    1    2    0    0  0.00000000000E+00  0.00000000000E+00  0.13583978106E+04  0.32139665313E+04  0.29127883982E+04 0.  0.
        5    1    3    3  502    0 -0.83313512669E+03  0.64707137250E+03  0.17871376998E+04  0.20752587185E+04  0.46999998093E+01 0. -1.
       -5    1    3    3    0  502  0.83313512669E+03 -0.64707137250E+03 -0.42873988927E+03  0.11387078129E+04  0.46999998093E+01 0.  1.
</event>
<event>
 5   0  0.5002240E-06  0.2873751E+04  0.7818609E-02  0.8280730E-01
       -1   -1    0    0    0  501  0.00000000000E+00  0.00000000000E+00  0.10239269990E+04  0.10239269990E+04  0.50400001928E-02 0.  1.
        1   -1    0    0  501    0  0.00000000000E+00  0.00000000000E+00 -0.20163653849E+04  0.20163653850E+04  0.50400001928E-02 0. -1.
    10030    2    1    2    0    0  0.00000000000E+00  0.00000000000E+00 -0.99243838593E+03  0.30402923840E+04  0.28737508295E+04 0.  0.
        4    1    3    3  502    0  0.38729718955E+03  0.99876313197E+03 -0.15093614515E+04  0.18508648009E+04  0.12699999809E+01 0. -1.
       -4    1    3    3    0  502 -0.38729718955E+03 -0.99876313197E+03  0.51692306561E+03  0.11894275831E+04  0.12699999809E+01 0.  1.
</event>
<event>
 5   0  0.1307832E-05  0.2343956E+04  0.7818609E-02  0.8460789E-01
        2   -1    0    0  501    0  0.00000000000E+00  0.00000000000E+00  0.94392639135E+03  0.94392639136E+03  0.25500000920E-02 0. -1.
       -2   -1    0    0    0  501  0.00000000000E+00  0.00000000000E+00 -0.14551261118E+04  0.14551261118E+04  0.25500000920E-02 0.  1.
    10030    2    1    2    0    0  0.00000000000E+00  0.00000000000E+00 -0.51119972049E+03  0.23990525032E+04  0.23439555796E+04 0.  0.
        4    1    3    3  502    0  0.87671705718E+03  0.10954691379E+03  0.53249773574E+03  0.10315952579E+04  0.12699999809E+01 0. -1.
       -4    1    3    3    0  502 -0.87671705718E+03 -0.10954691379E+03 -0.10436974562E+04  0.13674572453E+04  0.12699999809E+01 0.  1.
</event>
<event>
 5   0  0.5261878E-06  0.2882100E+04  0.7818609E-02  0.8278223E-01
       -1   -1    0    0    0  501  0.00000000000E+00  0.00000000000E+00  0.29550186547E+04  0.29550186547E+04  0.50400001928E-02 0.  1.
        1   -1    0    0  501    0  0.00000000000E+00  0.00000000000E+00 -0.70274513899E+03  0.70274513901E+03  0.50400001928E-02 0. -1.
    10030    2    1    2    0    0  0.00000000000E+00  0.00000000000E+00  0.22522735157E+04  0.36577637938E+04  0.28820999256E+04 0.  0.
        5    1    3    3  502    0  0.12317392902E+04 -0.12847493700E+03  0.19100520809E+03  0.12530732493E+04  0.46999998093E+01 0. -1.
       -5    1    3    3    0  502 -0.12317392902E+04  0.12847493700E+03  0.20612683077E+04  0.24046905445E+04  0.46999998093E+01 0.  1.
</event>
<event>
 5   0  0.1382803E-05  0.2911056E+04  0.7818609E-02  0.8269596E-01
        2   -1    0    0  501    0  0.00000000000E+00  0.00000000000E+00  0.12110707414E+04  0.12110707414E+04  0.25500000920E-02 0.  1.
       -2   -1    0    0    0  501  0.00000000000E+00  0.00000000000E+00 -0.17493291030E+04  0.17493291030E+04  0.25500000920E-02 0. -1.
    10030    2    1    2    0    0  0.00000000000E+00  0.00000000000E+00 -0.53825836162E+03  0.29603998445E+04  0.29110556805E+04 0.  0.
        2    1    3    3  502    0 -0.75070547716E+03 -0.10421417420E+04  0.42727275191E+03  0.13535804846E+04  0.25500000920E-02 0. -1.
       -2    1    3    3    0  502  0.75070547716E+03  0.10421417420E+04 -0.96553111353E+03  0.16068193598E+04  0.25500000920E-02 0.  1.
</event>
<event>
 5   0  0.1385669E-05  0.2066212E+04  0.7818609E-02  0.8576275E-01
        2   -1    0    0  501    0  0.00000000000E+00  0.00000000000E+00  0.21086868294E+04  0.21086868294E+04  0.25500000920E-02 0.  1.
       -2   -1    0    0    0  501  0.00000000000E+00  0.00000000000E+00 -0.50614817423E+03  0.50614817424E+03  0.25500000920E-02 0. -1.
    10030    2    1    2    0    0  0.00000000000E+00  0.00000000000E+00  0.16025386551E+04  0.26148350036E+04  0.20662119821E+04 0.  0.
        3    1    3    3  502    0  0.36069126586E+03  0.94151541605E+03  0.10863868112E+04  0.14821557886E+04  0.10100000352E+00 0. -1.
       -3    1    3    3    0  502 -0.36069126586E+03 -0.94151541605E+03  0.51615184395E+03  0.11326792150E+04  0.10100000352E+00 0.  1.
</event>
<event>
 5   0  0.5352212E-06  0.2907018E+04  0.7818609E-02  0.8270792E-01
        1   -1    0    0  501    0  0.00000000000E+00  0.00000000000E+00  0.70597906955E+03  0.70597906957E+03  0.50400001928E-02 0.  1.
       -1   -1    0    0    0  501  0.00000000000E+00  0.00000000000E+00 -0.29925658983E+04  0.29925658983E+04  0.50400001928E-02 0. -1.
    10030    2    1    2    0    0  0.00000000000E+00  0.00000000000E+00 -0.22865868287E+04  0.36985449678E+04  0.29070183271E+04 0.  0.
        2    1    3    3  502    0 -0.80463228806E+02  0.48240059961E+03  0.59815442686E+03  0.77264052966E+03  0.25500000920E-02 0.  1.
       -2    1    3    3    0  502  0.80463228806E+02 -0.48240059961E+03 -0.28847412556E+04  0.29259044382E+04  0.25500000920E-02 0. -1.
</event>
<event>
 5   0  0.5261878E-06  0.2912933E+04  0.7818609E-02  0.8269040E-01
       -1   -1    0    0    0  501  0.00000000000E+00  0.00000000000E+00  0.10533391760E+04  0.10533391761E+04  0.50400001928E-02 0.  1.
        1   -1    0    0  501    0  0.00000000000E+00  0.00000000000E+00 -0.20138757634E+04  0.20138757634E+04  0.50400001928E-02 0. -1.
    10030    2    1    2    0    0  0.00000000000E+00  0.00000000000E+00 -0.96053658735E+03  0.30672149394E+04  0.29129327059E+04 0.  0.
        5    1    3    3  502    0 -0.14405725210E+04 -0.69335982718E+02 -0.69403690847E+03  0.16005517758E+04  0.46999998093E+01 0. -1.
       -5    1    3    3    0  502  0.14405725210E+04  0.69335982718E+02 -0.26649967888E+03  0.14666631636E+04  0.46999998093E+01 0.  1.
</event>
<event>
 5   0  0.1385669E-05  0.2938352E+04  0.7818609E-02  0.8261557E-01
        2   -1    0    0  501    0  0.00000000000E+00  0.00000000000E+00  0.11121486088E+04  0.11121486088E+04  0.25500000920E-02 0.  1.
       -2   -1    0    0    0  501  0.00000000000E+00  0.00000000000E+00 -0.19408177752E+04  0.19408177752E+04  0.25500000920E-02 0. -1.
    10030    2    1    2    0    0  0.00000000000E+00  0.00000000000E+00 -0.82866916642E+03  0.30529663840E+04  0.29383517751E+04 0.  0.
        3    1    3    3  502    0 -0.80152073215E+03 -0.11043302994E+04  0.15142028741E+03  0.13729198840E+04  0.10100000352E+00 0.  1.
       -3    1    3    3    0  502  0.80152073215E+03  0.11043302994E+04 -0.98008945383E+03  0.16800465000E+04  0.10100000352E+00 0. -1.
</event>
<event>
 5   0  0.1385669E-05  0.2875623E+04  0.7818609E-02  0.8280167E-01
       -2   -1    0    0    0  501  0.00000000000E+00  0.00000000000E+00  0.79616938964E+03  0.79616938964E+03  0.25500000920E-02 0.  1.
        2   -1    0    0  501    0  0.00000000000E+00  0.00000000000E+00 -0.25965605327E+04  0.25965605327E+04  0.25500000920E-02 0. -1.
    10030    2    1    2    0    0  0.00000000000E+00  0.00000000000E+00 -0.18003911431E+04  0.33927299224E+04  0.28756230730E+04 0.  0.
        3    1    3    3  502    0 -0.63006185391E+02 -0.86246470988E+03  0.45505582214E+03  0.97718522638E+03  0.10100000352E+00 0.  1.
       -3    1    3    3    0  502  0.63006185391E+02  0.86246470988E+03 -0.22554469652E+04  0.24155446960E+04  0.10100000352E+00 0. -1.
</event>
<event>
 5   0  0.1382803E-05  0.2847290E+04  0.7818609E-02  0.8288735E-01
        2   -1    0    0  501    0  0.00000000000E+00  0.00000000000E+00  0.14878746619E+04  0.14878746619E+04  0.25500000920E-02 0. -1.
       -2   -1    0    0    0  501  0.00000000000E+00  0.00000000000E+00 -0.13621881148E+04  0.13621881148E+04  0.25500000920E-02 0.  1.
    10030    2    1    2    0    0  0.00000000000E+00  0.00000000000E+00  0.12568654712E+03  0.28500627767E+04  0.28472900665E+04 0.  0.
        2    1    3    3  502    0 -0.38202274255E+03 -0.88776635830E+03  0.11091815941E+04  0.14711744599E+04  0.25500000920E-02 0. -1.
       -2    1    3    3    0  502  0.38202274255E+03  0.88776635830E+03 -0.98349504695E+03  0.13788883168E+04  0.25500000920E-02 0.  1.
</event>
<event>
 5   0  0.5059249E-06  0.2917433E+04  0.7818609E-02  0.8267709E-01
       -1   -1    0    0    0  501  0.00000000000E+00  0.00000000000E+00  0.95493165121E+03  0.95493165123E+03  0.50400001928E-02 0. -1.
        1   -1    0    0  501    0  0.00000000000E+00  0.00000000000E+00 -0.22282787150E+04  0.22282787150E+04  0.50400001928E-02 0.  1.
    10030    2    1    2    0    0  0.00000000000E+00  0.00000000000E+00 -0.12733470638E+04  0.31832103662E+04  0.29174330311E+04 0.  0.
        1    1    3    3  502    0 -0.77178011187E+03 -0.12225388932E+04 -0.84826808523E+03  0.16762471867E+04  0.50400001928E-02 0. -1.
       -1    1    3    3    0  502  0.77178011187E+03  0.12225388932E+04 -0.42507897852E+03  0.15069631795E+04  0.50400001928E-02 0.  1.
</event>
<event>
 5   0  0.1307832E-05  0.2256612E+04  0.7818609E-02  0.8495228E-01
        2   -1    0    0  501    0  0.00000000000E+00  0.00000000000E+00  0.20403955203E+04  0.20403955203E+04  0.25500000920E-02 0. -1.
       -2   -1    0    0    0  501  0.00000000000E+00  0.00000000000E+00 -0.62393511997E+03  0.62393511997E+03  0.25500000920E-02 0.  1.
    10030    2    1    2    0    0  0.00000000000E+00  0.00000000000E+00  0.14164604003E+04  0.26643306403E+04  0.22566119948E+04 0.  0.
        4    1    3    3  502    0  0.36186594945E+03 -0.40190164416E+03 -0.46093902095E+03  0.71059010047E+03  0.12699999809E+01 0.  1.
       -4    1    3    3    0  502 -0.36186594945E+03  0.40190164416E+03  0.18773994213E+04  0.19537405398E+04  0.12699999809E+01 0. -1.
</event>
<event>
 5   0  0.1385669E-05  0.2871943E+04  0.7818609E-02  0.8281275E-01
        2   -1    0    0  501    0  0.00000000000E+00  0.00000000000E+00  0.20760114534E+04  0.20760114534E+04  0.25500000920E-02 0.  1.
       -2   -1    0    0    0  501  0.00000000000E+00  0.00000000000E+00 -0.99325726094E+03  0.99325726094E+03  0.25500000920E-02 0. -1.
    10030    2    1    2    0    0  0.00000000000E+00  0.00000000000E+00  0.10827541924E+04  0.30692687143E+04  0.28719425132E+04 0.  0.
        3    1    3    3  502    0  0.17374340822E+03 -0.10209032902E+04 -0.52175030945E+03  0.11595920384E+04  0.10100000352E+00 0. -1.
       -3    1    3    3    0  502 -0.17374340822E+03  0.10209032902E+04  0.16045045019E+04  0.19096766759E+04  0.10100000352E+00 0.  1.
</event>
<event>
 5   0  0.5352212E-06  0.2903486E+04  0.7818609E-02  0.8271841E-01
        1   -1    0    0  501    0  0.00000000000E+00  0.00000000000E+00  0.15727686694E+04  0.15727686694E+04  0.50400001928E-02 0. -1.
       -1   -1    0    0    0  501  0.00000000000E+00  0.00000000000E+00 -0.13400300459E+04  0.13400300459E+04  0.50400001928E-02 0.  1.
    10030    2    1    2    0    0  0.00000000000E+00  0.00000000000E+00  0.23273862357E+03  0.29127987153E+04  0.29034856791E+04 0.  0.
        2    1    3    3  502    0 -0.84611065644E+03 -0.50707115646E+03  0.11849303325E+04  0.15417795866E+04  0.25500000920E-02 0. -1.
       -2    1    3    3    0  502  0.84611065644E+03  0.50707115646E+03 -0.95219170897E+03  0.13710191287E+04  0.25500000920E-02 0.  1.
</event>
<event>
 5   0  0.5059249E-06  0.2917965E+04  0.7818609E-02  0.8267552E-01
       -1   -1    0    0    0  501  0.00000000000E+00  0.00000000000E+00  0.15827555832E+04  0.15827555832E+04  0.50400001928E-02 0.  1.
        1   -1    0    0  501    0  0.00000000000E+00  0.00000000000E+00 -0.13448889843E+04  0.13448889843E+04  0.50400001928E-02 0. -1.
    10030    2    1    2    0    0  0.00000000000E+00  0.00000000000E+00  0.23786659894E+03  0.29276445676E+04  0.29179654205E+04 0.  0.
        1    1    3    3  502    0  0.64078491529E+03  0.19302739851E+03 -0.11818105847E+04  0.13581388524E+04  0.50400001928E-02 0. -1.
       -1    1    3    3    0  502 -0.64078491529E+03 -0.19302739851E+03  0.14196771836E+04  0.15695057152E+04  0.50400001928E-02 0.  1.
</event>
<event>
 5   0  0.1336899E-05  0.2891326E+04  0.7818609E-02  0.8275463E-01
        2   -1    0    0  501    0  0.00000000000E+00  0.00000000000E+00  0.23823977492E+04  0.23823977492E+04  0.25500000920E-02 0.  1.
       -2   -1    0    0    0  501  0.00000000000E+00  0.00000000000E+00 -0.87724289370E+03  0.87724289371E+03  0.25500000920E-02 0. -1.
    10030    2    1    2    0    0  0.00000000000E+00  0.00000000000E+00  0.15051548555E+04  0.32596406429E+04  0.28913259902E+04 0.  0.
        1    1    3    3  502    0  0.84909431395E+03 -0.71262899050E+03 -0.29361027727E+03  0.11467380813E+04  0.50400001928E-02 0.  1.
       -1    1    3    3    0  502 -0.84909431395E+03  0.71262899050E+03  0.17987651328E+04  0.21129025616E+04  0.50400001928E-02 0. -1.
</event>
<event>
 5   0  0.5261878E-06  0.2876045E+04  0.7818609E-02  0.8280041E-01
        1   -1    0    0  501    0  0.00000000000E+00  0.00000000000E+00  0.86510469964E+03  0.86510469966E+03  0.50400001928E-02 0.  1.
       -1   -1    0    0    0  501  0.00000000000E+00  0.00000000000E+00 -0.23903567792E+04  0.23903567792E+04  0.50400001928E-02 0. -1.
    10030    2    1    2    0    0  0.00000000000E+00  0.00000000000E+00 -0.15252520795E+04  0.32554614788E+04  0.28760451203E+04 0.  0.
        5    1    3    3  502    0  0.89417094259E+03 -0.78467905180E+03 -0.16770515942E+04  0.20561583180E+04  0.46999998093E+01 0. -1.
       -5    1    3    3    0  502 -0.89417094259E+03  0.78467905180E+03  0.15179951473E+03  0.11993031608E+04  0.46999998093E+01 0.  1.
</event>
<event>
 5   0  0.5002240E-06  0.2308013E+04  0.7818609E-02  0.8474768E-01
       -1   -1    0    0    0  501  0.00000000000E+00  0.00000000000E+00  0.67143476665E+03  0.67143476667E+03  0.50400001928E-02 0. -1.
        1   -1    0    0  501    0  0.00000000000E+00  0.00000000000E+00 -0.19834107953E+04  0.19834107953E+04  0.50400001928E-02 0.  1.
    10030    2    1    2    0    0  0.00000000000E+00  0.00000000000E+00 -0.13119760287E+04  0.26548455620E+04  0.23080129675E+04 0.  0.
        4    1    3    3  502    0 -0.53342618786E+03 -0.30475113332E+03  0.46770154803E+03  0.77211599005E+03  0.12699999809E+01 0. -1.
       -4    1    3    3    0  502  0.53342618786E+03  0.30475113332E+03 -0.17796775767E+04  0.18827295719E+04  0.12699999809E+01 0.  1.
</event>
<event>
 5   0  0.1385669E-05  0.2152925E+04  0.7818609E-02  0.8538281E-01
        2   -1    0    0  501    0  0.00000000000E+00  0.00000000000E+00  0.76114894241E+03  0.76114894242E+03  0.25500000920E-02 0. -1.
       -2   -1    0    0    0  501  0.00000000000E+00  0.00000000000E+00 -0.15223976996E+04  0.15223976996E+04  0.25500000920E-02 0.  1.
    10030    2    1    2    0    0  0.00000000000E+00  0.00000000000E+00 -0.76124875714E+03  0.22835466420E+04  0.21529248932E+04 0.  0.
        3    1    3    3  502    0 -0.35653651958E+03 -0.49500374864E+02  0.69542323659E+03  0.78305942629E+03  0.10100000352E+00 0. -1.
       -3    1    3    3    0  502  0.35653651958E+03  0.49500374864E+02 -0.14566719937E+04  0.15004872157E+04  0.10100000352E+00 0.  1.
</event>
<event>
 5   0  0.5002240E-06  0.2753039E+04  0.7818609E-02  0.8317998E-01
       -1   -1    0    0    0  501  0.00000000000E+00  0.00000000000E+00  0.70476464245E+03  0.70476464247E+03  0.50400001928E-02 0. -1.
        1   -1    0    0  501    0  0.00000000000E+00  0.00000000000E+00 -0.26885659656E+04  0.26885659657E+04  0.50400001928E-02 0.  1.
    10030    2    1    2    0    0  0.00000000000E+00  0.00000000000E+00 -0.19838013232E+04  0.33933306081E+04  0.27530392162E+04 0.  0.
        4    1    3    3  502    0  0.45751814538E+03  0.29239313377E+03  0.56719277106E+03  0.78519160112E+03  0.12699999809E+01 0. -1.
       -4    1    3    3    0  502 -0.45751814538E+03 -0.29239313377E+03 -0.25509940943E+04  0.26081390070E+04  0.12699999809E+01 0.  1.
</event>
<event>
 5   0  0.5059249E-06  0.2675352E+04  0.7818609E-02  0.8343047E-01
       -1   -1    0    0    0  501  0.00000000000E+00  0.00000000000E+00  0.92277659244E+03  0.92277659245E+03  0.50400001928E-02 0.  1.
        1   -1    0    0  501    0  0.00000000000E+00  0.00000000000E+00 -0.19391227535E+04  0.19391227535E+04  0.50400001928E-02 0. -1.
    10030    2    1    2    0    0  0.00000000000E+00  0.00000000000E+00 -0.10163461611E+04  0.28618993460E+04  0.26753520044E+04 0.  0.
        1    1    3    3  502    0  0.37838778918E+03 -0.45214961581E+03  0.77628514479E+03  0.97480009239E+03  0.50400001928E-02 0.  1.
       -1    1    3    3    0  502 -0.37838778918E+03  0.45214961581E+03 -0.17926313059E+04  0.18870992536E+04  0.50400001928E-02 0. -1.
</event>
<event>
 5   0  0.5352212E-06  0.2898488E+04  0.7818609E-02  0.8273327E-01
        1   -1    0    0  501    0  0.00000000000E+00  0.00000000000E+00  0.13912850085E+04  0.13912850085E+04  0.50400001928E-02 0.  1.
       -1   -1    0    0    0  501  0.00000000000E+00  0.00000000000E+00 -0.15096174939E+04  0.15096174939E+04  0.50400001928E-02 0. -1.
    10030    2    1    2    0    0  0.00000000000E+00  0.00000000000E+00 -0.11833248542E+03  0.29009025024E+04  0.28984880112E+04 0.  0.
        2    1    3    3  502    0  0.31683718962E+03 -0.95302173444E+03 -0.11048676714E+04  0.14931070967E+04  0.25500000920E-02 0. -1.
       -2    1    3    3    0  502 -0.31683718962E+03  0.95302173444E+03  0.98653518594E+03  0.14077954056E+04  0.25500000920E-02 0.  1.
</event>
<event>
 5   0  0.1336899E-05  0.2862252E+04  0.7818609E-02  0.8284198E-01
        2   -1    0    0  501    0  0.00000000000E+00  0.00000000000E+00  0.24910794385E+04  0.24910794385E+04  0.25500000920E-02 0.  1.
       -2   -1    0    0    0  501  0.00000000000E+00  0.00000000000E+00 -0.82218255929E+03  0.82218255929E+03  0.25500000920E-02 0. -1.
    10030    2    1    2    0    0  0.00000000000E+00  0.00000000000E+00  0.16688968793E+04  0.33132619978E+04  0.28622523077E+04 0.  0.
        1    1    3    3  502    0  0.92073622057E+03  0.94408306119E+03  0.14779937640E+04  0.19807861017E+04  0.50400001928E-02 0.  1.
       -1    1    3    3    0  502 -0.92073622057E+03 -0.94408306119E+03  0.19090311524E+03  0.13324758961E+04  0.50400001928E-02 0. -1.
</event>
<event>
 5   0  0.5261878E-06  0.2888576E+04  0.7818609E-02  0.8276285E-01
        1   -1    0    0  501    0  0.00000000000E+00  0.00000000000E+00  0.14374658726E+04  0.14374658726E+04  0.50400001928E-02 0.  1.
       -1   -1    0    0    0  501  0.00000000000E+00  0.00000000000E+00 -0.14511425209E+04  0.14511425210E+04  0.50400001928E-02 0. -1.
    10030    2    1    2    0    0  0.00000000000E+00  0.00000000000E+00 -0.13676648360E+02  0.28886083935E+04  0.28885760161E+04 0.  0.
        5    1    3    3  502    0  0.39791216964E+02 -0.28441556581E+02 -0.14503064415E+04  0.14511385624E+04  0.46999998093E+01 0. -1.
       -5    1    3    3    0  502 -0.39791216964E+02  0.28441556581E+02  0.14366297931E+04  0.14374698312E+04  0.46999998093E+01 0.  1.
</event>
<event>
 5   0  0.1385669E-05  0.2914697E+04  0.7818609E-02  0.8268518E-01
       -2   -1    0    0    0  501  0.00000000000E+00  0.00000000000E+00  0.11437862002E+04  0.11437862003E+04  0.25500000920E-02 0. -1.
        2   -1    0    0  501    0  0.00000000000E+00  0.00000000000E+00 -0.18568725612E+04  0.18568725612E+04  0.25500000920E-02 0.  1.
    10030    2    1    2    0    0  0.00000000000E+00  0.00000000000E+00 -0.71308636095E+03  0.30006587614E+04  0.29146973847E+04 0.  0.
        3    1    3    3  502    0 -0.10254385088E+04 -0.94033090884E+03  0.89975150986E+02  0.13942173042E+04  0.10100000352E+00 0. -1.
       -3    1    3    3    0  502  0.10254385088E+04  0.94033090884E+03 -0.80306151193E+03  0.16064414572E+04  0.10100000352E+00 0.  1.
</event>
<event>
 5   0  0.1382803E-05  0.2869478E+04  0.7818609E-02  0.8282017E-01
       -2   -1    0    0    0  501  0.00000000000E+00  0.00000000000E+00  0.76979196875E+03  0.76979196875E+03  0.25500000920E-02 0.  1.
        2   -1    0    0  501    0  0.00000000000E+00  0.00000000000E+00 -0.26740677829E+04  0.26740677829E+04  0.25500000920E-02 0. -1.
    10030    2    1    2    0    0  0.00000000000E+00  0.00000000000E+00 -0.19042758142E+04  0.34438597517E+04  0.28694779338E+04 0.  0.
        2    1    3    3  502    0  0.24451518379E+03 -0.12657667883E+04 -0.19639065611E+03  0.13040408457E+04  0.25500000920E-02 0.  1.
       -2    1    3    3    0  502 -0.24451518379E+03  0.12657667883E+04 -0.17078851581E+04  0.21398189060E+04  0.25500000920E-02 0. -1.
</event>
<event>
 5   0  0.1307832E-05  0.2898138E+04  0.7818609E-02  0.8273432E-01
       -2   -1    0    0    0  501  0.00000000000E+00  0.00000000000E+00  0.91234554213E+03  0.91234554213E+03  0.25500000920E-02 0.  1.
        2   -1    0    0  501    0  0.00000000000E+00  0.00000000000E+00 -0.23015417985E+04  0.23015417985E+04  0.25500000920E-02 0. -1.
    10030    2    1    2    0    0  0.00000000000E+00  0.00000000000E+00 -0.13891962564E+04  0.32138873406E+04  0.28981382989E+04 0.  0.
        4    1    3    3  502    0 -0.57659711674E+01  0.11536657868E+04  0.27775582790E+03  0.11866456535E+04  0.12699999809E+01 0.  1.
       -4    1    3    3    0  502  0.57659711674E+01 -0.11536657868E+04 -0.16669520843E+04  0.20272416872E+04  0.12699999809E+01 0. -1.
</event>
<event>
 5   0  0.1385669E-05  0.2114083E+04  0.7818609E-02  0.8555065E-01
       -2   -1    0    0    0  501  0.00000000000E+00  0.00000000000E+00  0.92862527607E+03  0.92862527607E+03  0.25500000920E-02 0. -1.
        2   -1    0    0  501    0  0.00000000000E+00  0.00000000000E+00 -0.12032164394E+04  0.12032164394E+04  0.25500000920E-02 0.  1.
    10030    2    1    2    0    0  0.00000000000E+00  0.00000000000E+00 -0.27459116331E+03  0.21318417155E+04  0.21140834404E+04 0.  0.
        3    1    3    3  502    0 -0.43677291976E+02 -0.81823570090E+03  0.53608597885E+03  0.97918616973E+03  0.10100000352E+00 0. -1.
       -3    1    3    3    0  502  0.43677291976E+02  0.81823570090E+03 -0.81067714217E+03  0.11526555457E+04  0.10100000352E+00 0.  1.
</event>
<event>
 5   0  0.5059249E-06  0.2879540E+04  0.7818609E-02  0.8278991E-01
        1   -1    0    0  501    0  0.00000000000E+00  0.00000000000E+00  0.17428425601E+04  0.17428425601E+04  0.50400001928E-02 0.  1.
       -1   -1    0    0    0  501  0.00000000000E+00  0.00000000000E+00 -0.11894007277E+04  0.11894007277E+04  0.50400001928E-02 0. -1.
    10030    2    1    2    0    0  0.00000000000E+00  0.00000000000E+00  0.55344183245E+03  0.29322432878E+04  0.28795403864E+04 0.  0.
        1    1    3    3  502    0 -0.11604869747E+04 -0.44426221222E+02  0.11433164210E+04  0.16296859041E+04  0.50400001928E-02 0.  1.
       -1    1    3    3    0  502  0.11604869747E+04  0.44426221222E+02 -0.58987458853E+03  0.13025573837E+04  0.50400001928E-02 0. -1.
</event>
<event>
 5   0  0.5261878E-06  0.2201834E+04  0.7818609E-02  0.8517665E-01
       -1   -1    0    0    0  501  0.00000000000E+00  0.00000000000E+00  0.13815534543E+04  0.13815534543E+04  0.50400001928E-02 0. -1.
        1   -1    0    0  501    0  0.00000000000E+00  0.00000000000E+00 -0.87728674885E+03  0.87728674886E+03  0.50400001928E-02 0.  1.
    10030    2    1    2    0    0  0.00000000000E+00  0.00000000000E+00  0.50426670542E+03  0.22588402031E+04  0.22018342701E+04 0.  0.
        5    1    3    3  502    0  0.60906523187E+03  0.70248127719E+03  0.85693547465E+03  0.12644369890E+04  0.46999998093E+01 0. -1.
       -5    1    3    3    0  502 -0.60906523187E+03 -0.70248127719E+03 -0.35266876923E+03  0.99440321413E+03  0.46999998093E+01 0.  1.
</event>
<event>
 5   0  0.4590125E-06  0.2891854E+04  0.7818609E-02  0.8275305E-01
        3   -1    0    0  501    0  0.00000000000E+00  0.00000000000E+00  0.17818103524E+04  0.17818103553E+04  0.10100000352E+00 0.  1.
       -3   -1    0    0    0  501  0.00000000000E+00  0.00000000000E+00 -0.11733598731E+04  0.11733598775E+04  0.10100000352E+00 0. -1.
    10030    2    1    2    0    0  0.00000000000E+00  0.00000000000E+00  0.60845047933E+03  0.29551702328E+04  0.28918539242E+04 0.  0.
        2    1    3    3  502    0 -0.71643225608E+03 -0.21714293146E+03  0.15683542473E+04  0.17378611208E+04  0.25500000920E-02 0.  1.
       -2    1    3    3    0  502  0.71643225608E+03  0.21714293146E+03 -0.95990376797E+03  0.12173091119E+04  0.25500000920E-02 0. -1.
</event>
<event>
 5   0  0.1307832E-05  0.2828480E+04  0.7818609E-02  0.8294481E-01
       -2   -1    0    0    0  501  0.00000000000E+00  0.00000000000E+00  0.10325862472E+04  0.10325862472E+04  0.25500000920E-02 0.  1.
        2   -1    0    0  501    0  0.00000000000E+00  0.00000000000E+00 -0.19369561603E+04  0.19369561603E+04  0.25500000920E-02 0. -1.
    10030    2    1    2    0    0  0.00000000000E+00  0.00000000000E+00 -0.90436991310E+03  0.29695424075E+04  0.28284796571E+04 0.  0.
        4    1    3    3  502    0 -0.11743176497E+04  0.66288198300E+03 -0.89963039357E+03  0.16210400747E+04  0.12699999809E+01 0.  1.
       -4    1    3    3    0  502  0.11743176497E+04 -0.66288198300E+03 -0.47395195264E+01  0.13485023329E+04  0.12699999809E+01 0. -1.
</event>
<event>
 5   0  0.1382803E-05  0.2938686E+04  0.7818609E-02  0.8261460E-01
       -2   -1    0    0    0  501  0.00000000000E+00  0.00000000000E+00  0.11284487811E+04  0.11284487811E+04  0.25500000920E-02 0. -1.
        2   -1    0    0  501    0  0.00000000000E+00  0.00000000000E+00 -0.19132179210E+04  0.19132179210E+04  0.25500000920E-02 0.  1.
    10030    2    1    2    0    0  0.00000000000E+00  0.00000000000E+00 -0.78476913992E+03  0.30416667021E+04  0.29386857136E+04 0.  0.
        2    1    3    3  502    0 -0.76224090009E+03 -0.44763905278E+03 -0.16072169182E+04  0.18342677376E+04  0.25500000920E-02 0.  1.
       -2    1    3    3    0  502  0.76224090009E+03  0.44763905278E+03  0.82244777824E+03  0.12073989644E+04  0.25500000920E-02 0. -1.
</event>
<event>
 5   0  0.5352212E-06  0.2927149E+04  0.7818609E-02  0.8264845E-01
        1   -1    0    0  501    0  0.00000000000E+00  0.00000000000E+00  0.26184878844E+04  0.26184878844E+04  0.50400001928E-02 0.  1.
       -1   -1    0    0    0  501  0.00000000000E+00  0.00000000000E+00 -0.81804861971E+03  0.81804861972E+03  0.50400001928E-02 0. -1.
    10030    2    1    2    0    0  0.00000000000E+00  0.00000000000E+00  0.18004392647E+04  0.34365365041E+04  0.29271490564E+04 0.  0.
        2    1    3    3  502    0  0.23307960894E+03 -0.66363240207E+03  0.24070509060E+04  0.25077137263E+04  0.25500000920E-02 0.  1.
       -2    1    3    3    0  502 -0.23307960894E+03  0.66363240207E+03 -0.60661164130E+03  0.92882277779E+03  0.25500000920E-02 0. -1.
</event>
<event>
 5   0  0.4590125E-06  0.2861059E+04  0.7818609E-02  0.8284559E-01
       -4   -1    0    0    0  501  0.00000000000E+00  0.00000000000E+00  0.14490446222E+04  0.14490451788E+04  0.12699999809E+01 0. -1.
        4   -1    0    0  501    0  0.00000000000E+00  0.00000000000E+00 -0.14122500073E+04  0.14122505784E+04  0.12699999809E+01 0.  1.
    10030    2    1    2    0    0  0.00000000000E+00  0.00000000000E+00  0.36794614897E+02  0.28612957571E+04  0.28610591686E+04 0.  0.
        4    1    3    3  502    0  0.11496632887E+04 -0.59394157781E+03  0.62830100156E+03  0.14384908887E+04  0.12699999809E+01 0. -1.
       -4    1    3    3    0  502 -0.11496632887E+04  0.59394157781E+03 -0.59150638666E+03  0.14228048685E+04  0.12699999809E+01 0.  1.
</event>
<event>
 5   0  0.1336899E-05  0.2765026E+04  0.7818609E-02  0.8314209E-01
       -2   -1    0    0    0  501  0.00000000000E+00  0.00000000000E+00  0.12708516346E+04  0.12708516346E+04  0.25500000920E-02 0. -1.
        2   -1    0    0  501    0  0.00000000000E+00  0.00000000000E+00 -0.15039848191E+04  0.15039848191E+04  0.25500000920E-02 0.  1.
    10030    2    1    2    0    0  0.00000000000E+00  0.00000000000E+00 -0.23313318449E+03  0.27748364536E+04  0.27650255447E+04 0.  0.
        1    1    3    3  502    0 -0.13079193057E+04  0.11775233214E+03 -0.55033055227E+03  0.14238617344E+04  0.50400001928E-02 0.  1.
       -1    1    3    3    0  502  0.13079193057E+04 -0.11775233214E+03  0.31719736778E+03  0.13509747192E+04  0.50400001928E-02 0. -1.
</event>
<event>
 5   0  0.5002240E-06  0.1772671E+04  0.7818609E-02  0.8720969E-01
        1   -1    0    0  501    0  0.00000000000E+00  0.00000000000E+00  0.15488540463E+04  0.15488540463E+04  0.50400001928E-02 0.  1.
       -1   -1    0    0    0  501  0.00000000000E+00  0.00000000000E+00 -0.50720753564E+03  0.50720753566E+03  0.50400001928E-02 0. -1.
    10030    2    1    2    0    0  0.00000000000E+00  0.00000000000E+00  0.10416465107E+04  0.20560615820E+04  0.17726708030E+04 0.  0.
        4    1    3    3  502    0 -0.21700809383E+03  0.72575230294E+03  0.10545886444E+04  0.12984482045E+04  0.12699999809E+01 0.  1.
       -4    1    3    3    0  502  0.21700809383E+03 -0.72575230294E+03 -0.12942133710E+02  0.75761337748E+03  0.12699999809E+01 0. -1.
</event>
<event>
 5   0  0.5261878E-06  0.2848888E+04  0.7818609E-02  0.8288249E-01
        1   -1    0    0  501    0  0.00000000000E+00  0.00000000000E+00  0.13721060760E+04  0.13721060760E+04  0.50400001928E-02 0.  1.
       -1   -1    0    0    0  501  0.00000000000E+00  0.00000000000E+00 -0.14787779333E+04  0.14787779333E+04  0.50400001928E-02 0. -1.
    10030    2    1    2    0    0  0.00000000000E+00  0.00000000000E+00 -0.10667185723E+03  0.28508840093E+04  0.28488876337E+04 0.  0.
        5    1    3    3  502    0  0.89981728974E+03 -0.82339489717E+02 -0.11552738462E+04  0.14666733434E+04  0.46999998093E+01 0. -1.
       -5    1    3    3    0  502 -0.89981728974E+03  0.82339489717E+02  0.10486019889E+04  0.13842106659E+04  0.46999998093E+01 0.  1.
</event>
<event>
 5   0  0.5059249E-06  0.1808637E+04  0.7818609E-02  0.8701720E-01
       -1   -1    0    0    0  501  0.00000000000E+00  0.00000000000E+00  0.93445349816E+03  0.93445349817E+03  0.50400001928E-02 0.  1.
        1   -1    0    0  501    0  0.00000000000E+00  0.00000000000E+00 -0.87515510603E+03  0.87515510604E+03  0.50400001928E-02 0. -1.
    10030    2    1    2    0    0  0.00000000000E+00  0.00000000000E+00  0.59298392132E+02  0.18096086042E+04  0.18086367798E+04 0.  0.
        1    1    3    3  502    0  0.40215432273E+03  0.48568198579E+03  0.67820784661E+03  0.92605667961E+03  0.50400001928E-02 0.  1.
       -1    1    3    3    0  502 -0.40215432273E+03 -0.48568198579E+03 -0.61890945448E+03  0.88355192461E+03  0.50400001928E-02 0. -1.
</event>
<event>
 5   0  0.5154476E-06  0.2916275E+04  0.7818609E-02  0.8268052E-01
       -1   -1    0    0    0  501  0.00000000000E+00  0.00000000000E+00  0.92837708363E+03  0.92837708364E+03  0.50400001928E-02 0.  1.
        1   -1    0    0  501    0  0.00000000000E+00  0.00000000000E+00 -0.22901955938E+04  0.22901955938E+04  0.50400001928E-02 0. -1.
    10030    2    1    2    0    0  0.00000000000E+00  0.00000000000E+00 -0.13618185101E+04  0.32185726774E+04  0.29162750942E+04 0.  0.
        3    1    3    3  502    0  0.26793449110E+03 -0.47702726063E+03 -0.21726139357E+04  0.22404453180E+04  0.10100000352E+00 0. -1.
       -3    1    3    3    0  502 -0.26793449110E+03  0.47702726063E+03  0.81079542560E+03  0.97812735944E+03  0.10100000352E+00 0.  1.
</event>
<event>
 5   0  0.1336899E-05  0.2961006E+04  0.7818609E-02  0.8254954E-01
        2   -1    0    0  501    0  0.00000000000E+00  0.00000000000E+00  0.22317227846E+04  0.22317227846E+04  0.25500000920E-02 0. -1.
       -2   -1    0    0    0  501  0.00000000000E+00  0.00000000000E+00 -0.98215117410E+03  0.98215117410E+03  0.25500000920E-02 0.  1.
    10030    2    1    2    0    0  0.00000000000E+00  0.00000000000E+00  0.12495716105E+04  0.32138739587E+04  0.29610060136E+04 0.  0.
        1    1    3    3  502    0 -0.81567304923E+03  0.10845260411E+04 -0.17684328203E+02  0.13571411101E+04  0.50400001928E-02 0.  1.
       -1    1    3    3    0  502  0.81567304923E+03 -0.10845260411E+04  0.12672559387E+04  0.18567328487E+04  0.50400001928E-02 0. -1.
</event>
<event>
 5   0  0.1336899E-05  0.3101306E+04  0.7818609E-02  0.8215380E-01
        2   -1    0    0  501    0  0.00000000000E+00  0.00000000000E+00  0.14906982370E+04  0.14906982370E+04  0.25500000920E-02 0.  1.
       -2   -1    0    0    0  501  0.00000000000E+00  0.00000000000E+00 -0.16130189310E+04  0.16130189310E+04  0.25500000920E-02 0. -1.
    10030    2    1    2    0    0  0.00000000000E+00  0.00000000000E+00 -0.12232069396E+03  0.31037171680E+04  0.31013058390E+04 0.  0.
        1    1    3    3  502    0 -0.11816101282E+04  0.12738904864E+03 -0.10579739498E+04  0.15911440360E+04  0.50400001928E-02 0. -1.
       -1    1    3    3    0  502  0.11816101282E+04 -0.12738904864E+03  0.93565325582E+03  0.15125731321E+04  0.50400001928E-02 0.  1.
</event>
<event>
 5   0  0.5261878E-06  0.2972324E+04  0.7818609E-02  0.8251678E-01
        1   -1    0    0  501    0  0.00000000000E+00  0.00000000000E+00  0.26007065309E+04  0.26007065309E+04  0.50400001928E-02 0. -1.
       -1   -1    0    0    0  501  0.00000000000E+00  0.00000000000E+00 -0.84926069011E+03  0.84926069012E+03  0.50400001928E-02 0.  1.
    10030    2    1    2    0    0  0.00000000000E+00  0.00000000000E+00  0.17514458408E+04  0.34499672210E+04  0.29723242240E+04 0.  0.
        5    1    3    3  502    0 -0.10872008369E+04  0.98214751155E+03  0.58662706307E+03  0.15782182344E+04  0.46999998093E+01 0.  1.
       -5    1    3    3    0  502  0.10872008369E+04 -0.98214751155E+03  0.11648187777E+04  0.18717489866E+04  0.46999998093E+01 0. -1.
</event>
<event>
 5   0  0.1307832E-05  0.2928770E+04  0.7818609E-02  0.8264369E-01
        2   -1    0    0  501    0  0.00000000000E+00  0.00000000000E+00  0.26096352201E+04  0.26096352201E+04  0.25500000920E-02 0.  1.
       -2   -1    0    0    0  501  0.00000000000E+00  0.00000000000E+00 -0.82173319296E+03  0.82173319296E+03  0.25500000920E-02 0. -1.
    10030    2    1    2    0    0  0.00000000000E+00  0.00000000000E+00  0.17879020271E+04  0.34313684130E+04  0.29287703098E+04 0.  0.
        4    1    3    3  502    0  0.51239200179E+03  0.12707625133E+04  0.14993889902E+04  0.20311454615E+04  0.12699999809E+01 0.  1.
       -4    1    3    3    0  502 -0.51239200179E+03 -0.12707625133E+04  0.28851303687E+03  0.14002229516E+04  0.12699999809E+01 0. -1.
</event>
<event>
 5   0  0.5352212E-06  0.2965687E+04  0.7818609E-02  0.8253598E-01
        1   -1    0    0  501    0  0.00000000000E+00  0.00000000000E+00  0.20219191226E+04  0.20219191226E+04  0.50400001928E-02 0. -1.
       -1   -1    0    0    0  501  0.00000000000E+00  0.00000000000E+00 -0.10874936115E+04  0.10874936115E+04  0.50400001928E-02 0.  1.
    10030    2    1    2    0    0  0.00000000000E+00  0.00000000000E+00  0.93442551116E+03  0.31094127341E+04  0.29656865167E+04 0.  0.
        2    1    3    3  502    0 -0.57901900976E+03 -0.13639730705E+04  0.52595081464E+03  0.15723580414E+04  0.25500000920E-02 0. -1.
       -2    1    3    3    0  502  0.57901900976E+03  0.13639730705E+04  0.40847469652E+03  0.15370546928E+04  0.25500000920E-02 0.  1.
</event>
<event>
 5   0  0.1339837E-05  0.2843776E+04  0.7818609E-02  0.8289805E-01
       -2   -1    0    0    0  501  0.00000000000E+00  0.00000000000E+00  0.73645155784E+03  0.73645155784E+03  0.25500000920E-02 0.  1.
        2   -1    0    0  501    0  0.00000000000E+00  0.00000000000E+00 -0.27452788102E+04  0.27452788102E+04  0.25500000920E-02 0. -1.
    10030    2    1    2    0    0  0.00000000000E+00  0.00000000000E+00 -0.20088272524E+04  0.34817303681E+04  0.28437755583E+04 0.  0.
        5    1    3    3  502    0  0.13849172629E+04  0.31921601392E+03 -0.10570468494E+04  0.17712325709E+04  0.46999998093E+01 0. -1.
       -5    1    3    3    0  502 -0.13849172629E+04 -0.31921601392E+03 -0.95178040297E+03  0.17104977971E+04  0.46999998093E+01 0.  1.
</event>
<event>
 5   0  0.1339837E-05  0.2833320E+04  0.7818609E-02  0.8292998E-01
       -2   -1    0    0    0  501  0.00000000000E+00  0.00000000000E+00  0.10161004088E+04  0.10161004088E+04  0.25500000920E-02 0.  1.
        2   -1    0    0  501    0  0.00000000000E+00  0.00000000000E+00 -0.19751256085E+04  0.19751256085E+04  0.25500000920E-02 0. -1.
    10030    2    1    2    0    0  0.00000000000E+00  0.00000000000E+00 -0.95902519961E+03  0.29912260173E+04  0.28333202701E+04 0.  0.
        5    1    3    3  502    0  0.56535780443E+02  0.10723856051E+04 -0.14549633658E+04  0.18083549613E+04  0.46999998093E+01 0. -1.
       -5    1    3    3    0  502 -0.56535780443E+02 -0.10723856051E+04  0.49593816614E+03  0.11828710560E+04  0.46999998093E+01 0.  1.
</event>
<event>
 5   0  0.1385669E-05  0.2917743E+04  0.7818609E-02  0.8267618E-01
        2   -1    0    0  501    0  0.00000000000E+00  0.00000000000E+00  0.14038952597E+04  0.14038952597E+04  0.25500000920E-02 0. -1.
       -2   -1    0    0    0  501  0.00000000000E+00  0.00000000000E+00 -0.15160008623E+04  0.15160008623E+04  0.25500000920E-02 0.  1.
    10030    2    1    2    0    0  0.00000000000E+00  0.00000000000E+00 -0.11210560260E+03  0.29198961219E+04  0.29177432541E+04 0.  0.
        3    1    3    3  502    0  0.67576448672E+02 -0.12449768926E+04  0.70198374606E+03  0.14308442366E+04  0.10100000352E+00 0. -1.
       -3    1    3    3    0  502 -0.67576448672E+02  0.12449768926E+04 -0.81408934866E+03  0.14890518853E+04  0.10100000352E+00 0.  1.
</event>
<event>
 5   0  0.1339837E-05  0.2714696E+04  0.7818609E-02  0.8330252E-01
        2   -1    0    0  501    0  0.00000000000E+00  0.00000000000E+00  0.74897758725E+03  0.74897758725E+03  0.25500000920E-02 0.  1.
       -2   -1    0    0    0  501  0.00000000000E+00  0.00000000000E+00 -0.24598784478E+04  0.24598784478E+04  0.25500000920E-02 0. -1.
    10030    2    1    2    0    0  0.00000000000E+00  0.00000000000E+00 -0.17109008606E+04  0.32088560351E+04  0.27146961707E+04 0.  0.
        5    1    3    3  502    0 -0.10044553950E+04  0.17056600923E+03  0.20465994522E+03  0.10391973765E+04  0.46999998093E+01 0.  1.
       -5    1    3    3    0  502  0.10044553950E+04 -0.17056600923E+03 -0.19155608058E+04  0.21696586586E+04  0.46999998093E+01 0. -1.
</event>
<event>
 5   0  0.1382803E-05  0.2886967E+04  0.7818609E-02  0.8276766E-01
        2   -1    0    0  501    0  0.00000000000E+00  0.00000000000E+00  0.16784592702E+04  0.16784592702E+04  0.25500000920E-02 0.  1.
       -2   -1    0    0    0  501  0.00000000000E+00  0.00000000000E+00 -0.12414031579E+04  0.12414031579E+04  0.25500000920E-02 0. -1.
    10030    2    1    2    0    0  0.00000000000E+00  0.00000000000E+00  0.43705611229E+03  0.29198624281E+04  0.28869670164E+04 0.  0.
        2    1    3    3  502    0 -0.11359768193E+03  0.85118922285E+03 -0.95495850663E+03  0.12842792826E+04  0.25500000920E-02 0. -1.
       -2    1    3    3    0  502  0.11359768193E+03 -0.85118922285E+03  0.13920146189E+04  0.16355831455E+04  0.25500000920E-02 0.  1.
</event>
<event>
 5   0  0.1339837E-05  0.2688621E+04  0.7818609E-02  0.8338706E-01
       -2   -1    0    0    0  501  0.00000000000E+00  0.00000000000E+00  0.13201455057E+04  0.13201455057E+04  0.25500000920E-02 0. -1.
        2   -1    0    0  501    0  0.00000000000E+00  0.00000000000E+00 -0.13689180335E+04  0.13689180336E+04  0.25500000920E-02 0.  1.
    10030    2    1    2    0    0  0.00000000000E+00  0.00000000000E+00 -0.48772527834E+02  0.26890635393E+04  0.26886212003E+04 0.  0.
        5    1    3    3  502    0  0.23197154657E+03  0.47776691032E+03 -0.12595294707E+04  0.13669340132E+04  0.46999998093E+01 0.  1.
       -5    1    3    3    0  502 -0.23197154657E+03 -0.47776691032E+03  0.12107569428E+04  0.13221295260E+04  0.46999998093E+01 0. -1.
</event>
<event>
 5   0  0.1382803E-05  0.2881748E+04  0.7818609E-02  0.8278329E-01
       -2   -1    0    0    0  501  0.00000000000E+00  0.00000000000E+00  0.11478705365E+04  0.11478705365E+04  0.25500000920E-02 0. -1.
        2   -1    0    0  501    0  0.00000000000E+00  0.00000000000E+00 -0.18086691149E+04  0.18086691149E+04  0.25500000920E-02 0.  1.
    10030    2    1    2    0    0  0.00000000000E+00  0.00000000000E+00 -0.66079857844E+03  0.29565396515E+04  0.28817480718E+04 0.  0.
        2    1    3    3  502    0  0.57708888987E+03 -0.96831766084E+03  0.59036032836E+03  0.12724763245E+04  0.25500000920E-02 0. -1.
       -2    1    3    3    0  502 -0.57708888987E+03  0.96831766084E+03 -0.12511589068E+04  0.16840633270E+04  0.25500000920E-02 0.  1.
</event>
<event>
 5   0  0.1307832E-05  0.2866923E+04  0.7818609E-02  0.8282787E-01
        2   -1    0    0  501    0  0.00000000000E+00  0.00000000000E+00  0.16558403693E+04  0.16558403693E+04  0.25500000920E-02 0.  1.
       -2   -1    0    0    0  501  0.00000000000E+00  0.00000000000E+00 -0.12409478775E+04  0.12409478775E+04  0.25500000920E-02 0. -1.
    10030    2    1    2    0    0  0.00000000000E+00  0.00000000000E+00  0.41489249177E+03  0.28967882469E+04  0.28669228046E+04 0.  0.
        4    1    3    3  502    0  0.50507627267E+03  0.50644456753E+03  0.14626520266E+04  0.16281709693E+04  0.12699999809E+01 0.  1.
       -4    1    3    3    0  502 -0.50507627267E+03 -0.50644456753E+03 -0.10477595349E+04  0.12686172776E+04  0.12699999809E+01 0. -1.
</event>
<event>
 5   0  0.1336899E-05  0.2900900E+04  0.7818609E-02  0.8272610E-01
        2   -1    0    0  501    0  0.00000000000E+00  0.00000000000E+00  0.11044336538E+04  0.11044336538E+04  0.25500000920E-02 0.  1.
       -2   -1    0    0    0  501  0.00000000000E+00  0.00000000000E+00 -0.19048730394E+04  0.19048730394E+04  0.25500000920E-02 0. -1.
    10030    2    1    2    0    0  0.00000000000E+00  0.00000000000E+00 -0.80043938562E+03  0.30093066932E+04  0.29009004746E+04 0.  0.
        1    1    3    3  502    0  0.18124739309E+03  0.47810901638E+03 -0.18082814393E+04  0.18791808355E+04  0.50400001928E-02 0. -1.
       -1    1    3    3    0  502 -0.18124739309E+03 -0.47810901638E+03  0.10078420537E+04  0.11301258577E+04  0.50400001928E-02 0.  1.
</event>
<event>
 5   0  0.5059249E-06  0.2778363E+04  0.7818609E-02  0.8310017E-01
        1   -1    0    0  501    0  0.00000000000E+00  0.00000000000E+00  0.21380649270E+04  0.21380649270E+04  0.50400001928E-02 0. -1.
       -1   -1    0    0    0  501  0.00000000000E+00  0.00000000000E+00 -0.90260382706E+03  0.90260382708E+03  0.50400001928E-02 0.  1.
    10030    2    1    2    0    0  0.00000000000E+00  0.00000000000E+00  0.12354611000E+04  0.30406687541E+04  0.27783632489E+04 0.  0.
        1    1    3    3  502    0  0.55354843661E+02 -0.12363167114E+04 -0.72947496682E+02  0.12397033948E+04  0.50400001928E-02 0.  1.
       -1    1    3    3    0  502 -0.55354843661E+02  0.12363167114E+04  0.13084085966E+04  0.18009653593E+04  0.50400001928E-02 0. -1.
</event>
<event>
 5   0  0.5261878E-06  0.2389344E+04  0.7818609E-02  0.8443504E-01
        1   -1    0    0  501    0  0.00000000000E+00  0.00000000000E+00  0.82574522496E+03  0.82574522497E+03  0.50400001928E-02 0.  1.
       -1   -1    0    0    0  501  0.00000000000E+00  0.00000000000E+00 -0.17284284004E+04  0.17284284004E+04  0.50400001928E-02 0. -1.
    10030    2    1    2    0    0  0.00000000000E+00  0.00000000000E+00 -0.90268317545E+03  0.25541736254E+04  0.23893442601E+04 0.  0.
        5    1    3    3  502    0 -0.22562808423E+03 -0.92789691312E+02 -0.17015066034E+04  0.17189138345E+04  0.46999998093E+01 0. -1.
       -5    1    3    3    0  502  0.22562808423E+03  0.92789691312E+02  0.79882342793E+03  0.83525979085E+03  0.46999998093E+01 0.  1.
</event>
<event>
 5   0  0.5352212E-06  0.2799246E+04  0.7818609E-02  0.8303502E-01
        1   -1    0    0  501    0  0.00000000000E+00  0.00000000000E+00  0.18633021706E+04  0.18633021707E+04  0.50400001928E-02 0.  1.
       -1   -1    0    0    0  501  0.00000000000E+00  0.00000000000E+00 -0.10513295022E+04  0.10513295022E+04  0.50400001928E-02 0. -1.
    10030    2    1    2    0    0  0.00000000000E+00  0.00000000000E+00  0.81197266843E+03  0.29146316729E+04  0.27992460010E+04 0.  0.
        2    1    3    3  502    0 -0.50979050555E+03 -0.48316545257E+03 -0.85453942195E+03  0.11061522670E+04  0.25500000920E-02 0. -1.
       -2    1    3    3    0  502  0.50979050555E+03  0.48316545257E+03  0.16665120904E+04  0.18084794059E+04  0.25500000920E-02 0.  1.
</event>
<event>
 5   0  0.5261878E-06  0.2977447E+04  0.7818609E-02  0.8250201E-01
        1   -1    0    0  501    0  0.00000000000E+00  0.00000000000E+00  0.11815979727E+04  0.11815979727E+04  0.50400001928E-02 0. -1.
       -1   -1    0    0    0  501  0.00000000000E+00  0.00000000000E+00 -0.18756781059E+04  0.18756781059E+04  0.50400001928E-02 0.  1.
    10030    2    1    2    0    0  0.00000000000E+00  0.00000000000E+00 -0.69408013325E+03  0.30572760786E+04  0.29774468576E+04 0.  0.
        5    1    3    3  502    0  0.46231475100E+03  0.88830614746E+03 -0.14781427969E+04  0.17854273883E+04  0.46999998093E+01 0.  1.
       -5    1    3    3    0  502 -0.46231475100E+03 -0.88830614746E+03  0.78406266369E+03  0.12718486904E+04  0.46999998093E+01 0. -1.
</event>
<event>
 5   0  0.1336899E-05  0.2883032E+04  0.7818609E-02  0.8277944E-01
        2   -1    0    0  501    0  0.00000000000E+00  0.00000000000E+00  0.17606904601E+04  0.17606904601E+04  0.25500000920E-02 0. -1.
       -2   -1    0    0    0  501  0.00000000000E+00  0.00000000000E+00 -0.11802010021E+04  0.11802010021E+04  0.25500000920E-02 0.  1.
    10030    2    1    2    0    0  0.00000000000E+00  0.00000000000E+00  0.58048945803E+03  0.29408914622E+04  0.28830321853E+04 0.  0.
        1    1    3    3  502    0  0.46907785030E+01 -0.11809674025E+03 -0.11752502385E+04  0.11811782112E+04  0.50400001928E-02 0.  1.
       -1    1    3    3    0  502 -0.46907785030E+01  0.11809674025E+03  0.17557396966E+04  0.17597132509E+04  0.50400001928E-02 0. -1.
</event>
<event>
 5   0  0.1307832E-05  0.2860217E+04  0.7818609E-02  0.8284813E-01
        2   -1    0    0  501    0  0.00000000000E+00  0.00000000000E+00  0.10315330787E+04  0.10315330787E+04  0.25500000920E-02 0. -1.
       -2   -1    0    0    0  501  0.00000000000E+00  0.00000000000E+00 -0.19826903056E+04  0.19826903056E+04  0.25500000920E-02 0.  1.
    10030    2    1    2    0    0  0.00000000000E+00  0.00000000000E+00 -0.95115722688E+03  0.30142233842E+04  0.28602172190E+04 0.  0.
        4    1    3    3  502    0  0.80756051219E+03 -0.85241923570E+03 -0.13358902583E+04  0.17785884654E+04  0.12699999809E+01 0.  1.
       -4    1    3    3    0  502 -0.80756051219E+03  0.85241923570E+03  0.38473303141E+03  0.12356349188E+04  0.12699999809E+01 0. -1.
</event>
<event>
 5   0  0.5002240E-06  0.3044140E+04  0.7818609E-02  0.8231238E-01
       -1   -1    0    0    0  501  0.00000000000E+00  0.00000000000E+00  0.10050283376E+04  0.10050283376E+04  0.50400001928E-02 0.  1.
        1   -1    0    0  501    0  0.00000000000E+00  0.00000000000E+00 -0.23051060605E+04  0.23051060605E+04  0.50400001928E-02 0. -1.
    10030    2    1    2    0    0  0.00000000000E+00  0.00000000000E+00 -0.13000777229E+04  0.33101343981E+04  0.30441398864E+04 0.  0.
        4    1    3    3  502    0  0.91402598879E+03 -0.74639201678E+03  0.39528877282E+03  0.12445076849E+04  0.12699999809E+01 0.  1.
       -4    1    3    3    0  502 -0.91402598879E+03  0.74639201678E+03 -0.16953664957E+04  0.20656267133E+04  0.12699999809E+01 0. -1.
</event>
<event>
 5   0  0.5352212E-06  0.2804989E+04  0.7818609E-02  0.8301721E-01
       -1   -1    0    0    0  501  0.00000000000E+00  0.00000000000E+00  0.13876990033E+04  0.13876990033E+04  0.50400001928E-02 0.  1.
        1   -1    0    0  501    0  0.00000000000E+00  0.00000000000E+00 -0.14174475366E+04  0.14174475366E+04  0.50400001928E-02 0. -1.
    10030    2    1    2    0    0  0.00000000000E+00  0.00000000000E+00 -0.29748533321E+02  0.28051465399E+04  0.28049887941E+04 0.  0.
        2    1    3    3  502    0  0.10721343639E+04  0.39745110569E+03  0.79729889426E+03  0.13939601868E+04  0.25500000920E-02 0.  1.
       -2    1    3    3    0  502 -0.10721343639E+04 -0.39745110569E+03 -0.82704742758E+03  0.14111863531E+04  0.25500000920E-02 0. -1.
</event>
<event>
 5   0  0.5352212E-06  0.2831705E+04  0.7818609E-02  0.8293492E-01
       -1   -1    0    0    0  501  0.00000000000E+00  0.00000000000E+00  0.13430197595E+04  0.13430197595E+04  0.50400001928E-02 0. -1.
        1   -1    0    0  501    0  0.00000000000E+00  0.00000000000E+00 -0.14926349383E+04  0.14926349383E+04  0.50400001928E-02 0.  1.
    10030    2    1    2    0    0  0.00000000000E+00  0.00000000000E+00 -0.14961517881E+03  0.28356546979E+04  0.28317049394E+04 0.  0.
        2    1    3    3  502    0  0.83865197679E+03 -0.11195353189E+04 -0.29406903679E+03  0.14293960497E+04  0.25500000920E-02 0.  1.
       -2    1    3    3    0  502 -0.83865197679E+03  0.11195353189E+04  0.14445385797E+03  0.14062586482E+04  0.25500000920E-02 0. -1.
</event>
<event>
 5   0  0.1382803E-05  0.2858022E+04  0.7818609E-02  0.8285478E-01
        2   -1    0    0  501    0  0.00000000000E+00  0.00000000000E+00  0.15765961964E+04  0.15765961964E+04  0.25500000920E-02 0.  1.
       -2   -1    0    0    0  501  0.00000000000E+00  0.00000000000E+00 -0.12952412757E+04  0.12952412757E+04  0.25500000920E-02 0. -1.
    10030    2    1    2    0    0  0.00000000000E+00  0.00000000000E+00  0.28135492071E+03  0.28718374721E+04  0.28580220214E+04 0.  0.
        2    1    3    3  502    0  0.12625965682E+04 -0.14849066483E+03 -0.51506648339E+03  0.13716752727E+04  0.25500000920E-02 0. -1.
       -2    1    3    3    0  502 -0.12625965682E+04  0.14849066483E+03  0.79642140410E+03  0.15001621994E+04  0.25500000920E-02 0.  1.
</event>
<event>
 5   0  0.5059249E-06  0.2522704E+04  0.7818609E-02  0.8394941E-01
        1   -1    0    0  501    0  0.00000000000E+00  0.00000000000E+00  0.13392811564E+04  0.13392811564E+04  0.50400001928E-02 0.  1.
       -1   -1    0    0    0  501  0.00000000000E+00  0.00000000000E+00 -0.11879577668E+04  0.11879577668E+04  0.50400001928E-02 0. -1.
    10030    2    1    2    0    0  0.00000000000E+00  0.00000000000E+00  0.15132338958E+03  0.25272389232E+04  0.25227044629E+04 0.  0.
        1    1    3    3  502    0 -0.21041250284E+03  0.11662110464E+04  0.50851219627E+03  0.12895372348E+04  0.50400001928E-02 0.  1.
       -1    1    3    3    0  502  0.21041250284E+03 -0.11662110464E+04 -0.35718880669E+03  0.12377016885E+04  0.50400001928E-02 0. -1.
</event>
<event>
 5   0  0.5352212E-06  0.2664288E+04  0.7818609E-02  0.8346686E-01
        1   -1    0    0  501    0  0.00000000000E+00  0.00000000000E+00  0.12337651073E+04  0.12337651074E+04  0.50400001928E-02 0.  1.
       -1   -1    0    0    0  501  0.00000000000E+00  0.00000000000E+00 -0.14383670075E+04  0.14383670075E+04  0.50400001928E-02 0. -1.
    10030    2    1    2    0    0  0.00000000000E+00  0.00000000000E+00 -0.20460190012E+03  0.26721321148E+04  0.26642875411E+04 0.  0.
        2    1    3    3  502    0 -0.22906867537E+03  0.66746022078E+03  0.10309069600E+04  0.12492977085E+04  0.25500000920E-02 0.  1.
       -2    1    3    3    0  502  0.22906867537E+03 -0.66746022078E+03 -0.12355088601E+04  0.14228344063E+04  0.25500000920E-02 0. -1.
</event>
<event>
 5   0  0.5154476E-06  0.2856982E+04  0.7818609E-02  0.8285793E-01
        1   -1    0    0  501    0  0.00000000000E+00  0.00000000000E+00  0.12761889683E+04  0.12761889683E+04  0.50400001928E-02 0.  1.
       -1   -1    0    0    0  501  0.00000000000E+00  0.00000000000E+00 -0.15989693024E+04  0.15989693024E+04  0.50400001928E-02 0. -1.
    10030    2    1    2    0    0  0.00000000000E+00  0.00000000000E+00 -0.32278033412E+03  0.28751582707E+04  0.28569823131E+04 0.  0.
        3    1    3    3  502    0 -0.62584212440E+03 -0.12829407276E+04 -0.21625026797E+03  0.14437380177E+04  0.10100000352E+00 0. -1.
       -3    1    3    3    0  502  0.62584212440E+03  0.12829407276E+04 -0.10653006615E+03  0.14314202529E+04  0.10100000352E+00 0.  1.
</event>
<event>
 5   0  0.5002240E-06  0.2932463E+04  0.7818609E-02  0.8263284E-01
        1   -1    0    0  501    0  0.00000000000E+00  0.00000000000E+00  0.22605468035E+04  0.22605468036E+04  0.50400001928E-02 0.  1.
       -1   -1    0    0    0  501  0.00000000000E+00  0.00000000000E+00 -0.95102400067E+03  0.95102400068E+03  0.50400001928E-02 0. -1.
    10030    2    1    2    0    0  0.00000000000E+00  0.00000000000E+00  0.13095228029E+04  0.32115708042E+04  0.29324626271E+04 0.  0.
        4    1    3    3  502    0  0.60833825730E+03 -0.63529270920E+03 -0.62999130721E+03  0.10819255620E+04  0.12699999809E+01 0. -1.
       -4    1    3    3    0  502 -0.60833825730E+03  0.63529270920E+03  0.19395141101E+04  0.21296452422E+04  0.12699999809E+01 0.  1.
</event>
<event>
 5   0  0.1307832E-05  0.2911249E+04  0.7818609E-02  0.8269538E-01
        2   -1    0    0  501    0  0.00000000000E+00  0.00000000000E+00  0.21635126800E+04  0.21635126800E+04  0.25500000920E-02 0. -1.
       -2   -1    0    0    0  501  0.00000000000E+00  0.00000000000E+00 -0.97935334155E+03  0.97935334155E+03  0.25500000920E-02 0.  1.
    10030    2    1    2    0    0  0.00000000000E+00  0.00000000000E+00  0.11841593384E+04  0.31428660215E+04  0.29112494724E+04 0.  0.
        4    1    3    3  502    0  0.13828267612E+04 -0.42289033871E+03  0.77206413225E+03  0.16392470000E+04  0.12699999809E+01 0. -1.
       -4    1    3    3    0  502 -0.13828267612E+04  0.42289033871E+03  0.41209520619E+03  0.15036190215E+04  0.12699999809E+01 0.  1.
</event>
<event>
 5   0  0.1382803E-05  0.2904869E+04  0.7818609E-02  0.8271430E-01
       -2   -1    0    0    0  501  0.00000000000E+00  0.00000000000E+00  0.10341857737E+04  0.10341857737E+04  0.25500000920E-02 0.  1.
        2   -1    0    0  501    0  0.00000000000E+00  0.00000000000E+00 -0.20398330667E+04  0.20398330667E+04  0.25500000920E-02 0. -1.
    10030    2    1    2    0    0  0.00000000000E+00  0.00000000000E+00 -0.10056472930E+04  0.30740188404E+04  0.29048692489E+04 0.  0.
        2    1    3    3  502    0 -0.12842090544E+04  0.11647606810E+03 -0.12101825227E+04  0.17684177414E+04  0.25500000920E-02 0. -1.
       -2    1    3    3    0  502  0.12842090544E+04 -0.11647606810E+03  0.20453522962E+03  0.13056010991E+04  0.25500000920E-02 0.  1.
</event>
<event>
 5   0  0.1339837E-05  0.2339934E+04  0.7818609E-02  0.8462340E-01
        2   -1    0    0  501    0  0.00000000000E+00  0.00000000000E+00  0.89591668941E+03  0.89591668942E+03  0.25500000920E-02 0.  1.
       -2   -1    0    0    0  501  0.00000000000E+00  0.00000000000E+00 -0.15278462177E+04  0.15278462177E+04  0.25500000920E-02 0. -1.
    10030    2    1    2    0    0  0.00000000000E+00  0.00000000000E+00 -0.63192952833E+03  0.24237629072E+04  0.23399341233E+04 0.  0.
        5    1    3    3  502    0 -0.93406990920E+03  0.37597967235E+03  0.30115897284E+03  0.10509834091E+04  0.46999998093E+01 0.  1.
       -5    1    3    3    0  502  0.93406990920E+03 -0.37597967235E+03 -0.93308850116E+03  0.13727794981E+04  0.46999998093E+01 0. -1.
</event>
<event>
 5   0  0.1385669E-05  0.3182498E+04  0.7818609E-02  0.8193455E-01
       -2   -1    0    0    0  501  0.00000000000E+00  0.00000000000E+00  0.28587385797E+04  0.28587385797E+04  0.25500000920E-02 0.  1.
        2   -1    0    0  501    0  0.00000000000E+00  0.00000000000E+00 -0.88573086019E+03  0.88573086020E+03  0.25500000920E-02 0. -1.
    10030    2    1    2    0    0  0.00000000000E+00  0.00000000000E+00  0.19730077195E+04  0.37444694399E+04  0.31824977494E+04 0.  0.
        3    1    3    3  502    0 -0.10211997469E+04  0.80712366805E+03  0.20634301906E+04  0.24396806554E+04  0.10100000352E+00 0.  1.
       -3    1    3    3    0  502  0.10211997469E+04 -0.80712366805E+03 -0.90422471150E+02  0.13047887845E+04  0.10100000352E+00 0. -1.
</event>
<event>
 5   0  0.1336899E-05  0.2796093E+04  0.7818609E-02  0.8304482E-01
        2   -1    0    0  501    0  0.00000000000E+00  0.00000000000E+00  0.15285835306E+04  0.15285835306E+04  0.25500000920E-02 0. -1.
       -2   -1    0    0    0  501  0.00000000000E+00  0.00000000000E+00 -0.12786566509E+04  0.12786566509E+04  0.25500000920E-02 0.  1.
    10030    2    1    2    0    0  0.00000000000E+00  0.00000000000E+00  0.24992687969E+03  0.28072401815E+04  0.27960926293E+04 0.  0.
        1    1    3    3  502    0  0.82026890990E+03  0.15858072175E+02 -0.10115571641E+04  0.13024363552E+04  0.50400001928E-02 0.  1.
       -1    1    3    3    0  502 -0.82026890990E+03 -0.15858072175E+02  0.12614840438E+04  0.15048038264E+04  0.50400001928E-02 0. -1.
</event>
<event>
 5   0  0.5154476E-06  0.3007941E+04  0.7818609E-02  0.8241467E-01
       -1   -1    0    0    0  501  0.00000000000E+00  0.00000000000E+00  0.15029100560E+04  0.15029100560E+04  0.50400001928E-02 0. -1.
        1   -1    0    0  501    0  0.00000000000E+00  0.00000000000E+00 -0.15050321511E+04  0.15050321511E+04  0.50400001928E-02 0.  1.
    10030    2    1    2    0    0  0.00000000000E+00  0.00000000000E+00 -0.21220950723E+01  0.30079422071E+04  0.30079414586E+04 0.  0.
        3    1    3    3  502    0 -0.76541089381E+03  0.55997971812E+03  0.11661996352E+04  0.15031476043E+04  0.10100000352E+00 0. -1.
       -3    1    3    3    0  502  0.76541089381E+03 -0.55997971812E+03 -0.11683217302E+04  0.15047946028E+04  0.10100000352E+00 0.  1.
</event>
<event>
 5   0  0.5154476E-06  0.2866846E+04  0.7818609E-02  0.8282811E-01
        1   -1    0    0  501    0  0.00000000000E+00  0.00000000000E+00  0.15929123435E+04  0.15929123435E+04  0.50400001928E-02 0.  1.
       -1   -1    0    0    0  501  0.00000000000E+00  0.00000000000E+00 -0.12899027908E+04  0.12899027908E+04  0.50400001928E-02 0. -1.
    10030    2    1    2    0    0  0.00000000000E+00  0.00000000000E+00  0.30300955275E+03  0.28828151343E+04  0.28668464049E+04 0.  0.
        3    1    3    3  502    0  0.40179430694E+03  0.13689791094E+04  0.12315560273E+02  0.14267775405E+04  0.10100000352E+00 0.  1.
       -3    1    3    3    0  502 -0.40179430694E+03 -0.13689791094E+04  0.29069399247E+03  0.14560375938E+04  0.10100000352E+00 0. -1.
</event>
<event>
 5   0  0.1385669E-05  0.2909778E+04  0.7818609E-02  0.8269974E-01
       -2   -1    0    0    0  501  0.00000000000E+00  0.00000000000E+00  0.21493503308E+04  0.21493503309E+04  0.25500000920E-02 0.  1.
        2   -1    0    0  501    0  0.00000000000E+00  0.00000000000E+00 -0.98481021833E+03  0.98481021834E+03  0.25500000920E-02 0. -1.
    10030    2    1    2    0    0  0.00000000000E+00  0.00000000000E+00  0.11645401125E+04  0.31341605492E+04  0.29097781143E+04 0.  0.
        3    1    3    3  502    0  0.35238463679E+03 -0.11027474774E+04 -0.36685878137E+03  0.12144185057E+04  0.10100000352E+00 0. -1.
       -3    1    3    3    0  502 -0.35238463679E+03  0.11027474774E+04  0.15313988939E+04  0.19197420435E+04  0.10100000352E+00 0.  1.
</event>
<event>
 5   0  0.5002240E-06  0.2872658E+04  0.7818609E-02  0.8281059E-01
        1   -1    0    0  501    0  0.00000000000E+00  0.00000000000E+00  0.23860803927E+04  0.23860803928E+04  0.50400001928E-02 0. -1.
       -1   -1    0    0    0  501  0.00000000000E+00  0.00000000000E+00 -0.86461522748E+03  0.86461522750E+03  0.50400001928E-02 0.  1.
    10030    2    1    2    0    0  0.00000000000E+00  0.00000000000E+00  0.15214651653E+04  0.32506956203E+04  0.28726583101E+04 0.  0.
        4    1    3    3  502    0  0.33164299145E+03  0.18655375578E+03  0.23280067990E+04  0.23588994567E+04  0.12699999809E+01 0. -1.
       -4    1    3    3    0  502 -0.33164299145E+03 -0.18655375578E+03 -0.80654163373E+03  0.89179616360E+03  0.12699999809E+01 0.  1.
</event>
<event>
 5   0  0.1336899E-05  0.2530304E+04  0.7818609E-02  0.8392269E-01
        2   -1    0    0  501    0  0.00000000000E+00  0.00000000000E+00  0.14891242783E+04  0.14891242783E+04  0.25500000920E-02 0. -1.
       -2   -1    0    0    0  501  0.00000000000E+00  0.00000000000E+00 -0.10748661418E+04  0.10748661418E+04  0.25500000920E-02 0.  1.
    10030    2    1    2    0    0  0.00000000000E+00  0.00000000000E+00  0.41425813652E+03  0.25639904201E+04  0.25303037506E+04 0.  0.
        1    1    3    3  502    0 -0.10925196637E+04 -0.10255499101E+03  0.84518865968E+03  0.13850850560E+04  0.50400001928E-02 0.  1.
       -1    1    3    3    0  502  0.10925196637E+04  0.10255499101E+03 -0.43093052315E+03  0.11789053641E+04  0.50400001928E-02 0. -1.
</event>
<event>
 5   0  0.1385669E-05  0.2887608E+04  0.7818609E-02  0.8276574E-01
        2   -1    0    0  501    0  0.00000000000E+00  0.00000000000E+00  0.24104464614E+04  0.24104464614E+04  0.25500000920E-02 0. -1.
       -2   -1    0    0    0  501  0.00000000000E+00  0.00000000000E+00 -0.86480664170E+03  0.86480664171E+03  0.25500000920E-02 0.  1.
    10030    2    1    2    0    0  0.00000000000E+00  0.00000000000E+00  0.15456398197E+04  0.32752531031E+04  0.28876080823E+04 0.  0.
        3    1    3    3  502    0  0.41053728089E+03 -0.64530114966E+03 -0.61616204143E+03  0.98214566346E+03  0.10100000352E+00 0.  1.
       -3    1    3    3    0  502 -0.41053728089E+03  0.64530114966E+03  0.21618018611E+04  0.22931074396E+04  0.10100000352E+00 0. -1.
</event>
<event>
 5   0  0.5059249E-06  0.2895381E+04  0.7818609E-02  0.8274253E-01
        1   -1    0    0  501    0  0.00000000000E+00  0.00000000000E+00  0.20685855211E+04  0.20685855211E+04  0.50400001928E-02 0.  1.
       -1   -1    0    0    0  501  0.00000000000E+00  0.00000000000E+00 -0.10131600658E+04  0.10131600658E+04  0.50400001928E-02 0. -1.
    10030    2    1    2    0    0  0.00000000000E+00  0.00000000000E+00  0.10554254553E+04  0.30817455869E+04  0.28953813170E+04 0.  0.
        1    1    3    3  502    0  0.60404177902E+03  0.53013548243E+03 -0.75390870553E+03  0.11019475654E+04  0.50400001928E-02 0. -1.
       -1    1    3    3    0  502 -0.60404177902E+03 -0.53013548243E+03  0.18093341608E+04  0.19797980215E+04  0.50400001928E-02 0.  1.
</event>
<event>
 5   0  0.1385669E-05  0.2896781E+04  0.7818609E-02  0.8273836E-01
        2   -1    0    0  501    0  0.00000000000E+00  0.00000000000E+00  0.21412882295E+04  0.21412882295E+04  0.25500000920E-02 0.  1.
       -2   -1    0    0    0  501  0.00000000000E+00  0.00000000000E+00 -0.97970707513E+03  0.97970707513E+03  0.25500000920E-02 0. -1.
    10030    2    1    2    0    0  0.00000000000E+00  0.00000000000E+00  0.11615811544E+04  0.31209953046E+04  0.28967811297E+04 0.  0.
        3    1    3    3  502    0 -0.30531826327E+03 -0.13682139159E+04  0.18845282905E+03  0.14144762425E+04  0.10100000352E+00 0. -1.
       -3    1    3    3    0  502  0.30531826327E+03  0.13682139159E+04  0.97312832531E+03  0.17065190621E+04  0.10100000352E+00 0.  1.
</event>
<event>
 5   0  0.1336899E-05  0.2617637E+04  0.7818609E-02  0.8362235E-01
       -2   -1    0    0    0  501  0.00000000000E+00  0.00000000000E+00  0.18600164599E+04  0.18600164599E+04  0.25500000920E-02 0. -1.
        2   -1    0    0  501    0  0.00000000000E+00  0.00000000000E+00 -0.92096256901E+03  0.92096256901E+03  0.25500000920E-02 0.  1.
    10030    2    1    2    0    0  0.00000000000E+00  0.00000000000E+00  0.93905389088E+03  0.27809790289E+04  0.26176367489E+04 0.  0.
        1    1    3    3  502    0  0.61048937321E+03 -0.79410827357E+03 -0.42547882008E+03  0.10882726916E+04  0.50400001928E-02 0.  1.
       -1    1    3    3    0  502 -0.61048937321E+03  0.79410827357E+03  0.13645327110E+04  0.16927063373E+04  0.50400001928E-02 0. -1.
</event>
<event>
 5   0  0.5352212E-06  0.2402527E+04  0.7818609E-02  0.8438558E-01
       -1   -1    0    0    0  501  0.00000000000E+00  0.00000000000E+00  0.70438392864E+03  0.70438392866E+03  0.50400001928E-02 0. -1.
        1   -1    0    0  501    0  0.00000000000E+00  0.00000000000E+00 -0.20486474982E+04  0.20486474983E+04  0.50400001928E-02 0.  1.
    10030    2    1    2    0    0  0.00000000000E+00  0.00000000000E+00 -0.13442635696E+04  0.27530314269E+04  0.24025273137E+04 0.  0.
        2    1    3    3  502    0 -0.66825528041E+03 -0.45977259280E+03  0.34317982953E+03  0.88075442224E+03  0.25500000920E-02 0. -1.
       -2    1    3    3    0  502  0.66825528041E+03  0.45977259280E+03 -0.16874433991E+04  0.18722770047E+04  0.25500000920E-02 0.  1.
</event>
<event>
 5   0  0.1307832E-05  0.2878518E+04  0.7818609E-02  0.8279298E-01
        2   -1    0    0  501    0  0.00000000000E+00  0.00000000000E+00  0.20879668098E+04  0.20879668098E+04  0.25500000920E-02 0. -1.
       -2   -1    0    0    0  501  0.00000000000E+00  0.00000000000E+00 -0.99209712410E+03  0.99209712410E+03  0.25500000920E-02 0.  1.
    10030    2    1    2    0    0  0.00000000000E+00  0.00000000000E+00  0.10958696857E+04  0.30800639339E+04  0.28785175818E+04 0.  0.
        4    1    3    3  502    0  0.49290301330E+03 -0.89320719874E+03 -0.53837884023E+03  0.11535275761E+04  0.12699999809E+01 0.  1.
       -4    1    3    3    0  502 -0.49290301330E+03  0.89320719874E+03  0.16342485259E+04  0.19265363578E+04  0.12699999809E+01 0. -1.
</event>
<event>
 5   0  0.1382803E-05  0.2975588E+04  0.7818609E-02  0.8250736E-01
        2   -1    0    0  501    0  0.00000000000E+00  0.00000000000E+00  0.15425142612E+04  0.15425142612E+04  0.25500000920E-02 0.  1.
       -2   -1    0    0    0  501  0.00000000000E+00  0.00000000000E+00 -0.14350151636E+04  0.14350151636E+04  0.25500000920E-02 0. -1.
    10030    2    1    2    0    0  0.00000000000E+00  0.00000000000E+00  0.10749909761E+03  0.29775294248E+04  0.29755882476E+04 0.  0.
        2    1    3    3  502    0 -0.42175028742E+03 -0.57414653975E+03  0.13607462676E+04  0.15359518087E+04  0.25500000920E-02 0.  1.
       -2    1    3    3    0  502  0.42175028742E+03  0.57414653975E+03 -0.12532471700E+04  0.14415776160E+04  0.25500000920E-02 0. -1.
</event>
<event>
 5   0  0.5154476E-06  0.2986094E+04  0.7818609E-02  0.8247713E-01
        1   -1    0    0  501    0  0.00000000000E+00  0.00000000000E+00  0.14112686338E+04  0.14112686338E+04  0.50400001928E-02 0. -1.
       -1   -1    0    0    0  501  0.00000000000E+00  0.00000000000E+00 -0.15795639901E+04  0.15795639901E+04  0.50400001928E-02 0.  1.
    10030    2    1    2    0    0  0.00000000000E+00  0.00000000000E+00 -0.16829535631E+03  0.29908326239E+04  0.29860938460E+04 0.  0.
        3    1    3    3  502    0 -0.10514221762E+04  0.66242824747E+03  0.74474605554E+03  0.14487741277E+04  0.10100000352E+00 0. -1.
       -3    1    3    3    0  502  0.10514221762E+04 -0.66242824747E+03 -0.91304141186E+03  0.15420584962E+04  0.10100000352E+00 0.  1.
</event>
<event>
 5   0  0.5002240E-06  0.2376297E+04  0.7818609E-02  0.8448431E-01
       -1   -1    0    0    0  501  0.00000000000E+00  0.00000000000E+00  0.61975595998E+03  0.61975596000E+03  0.50400001928E-02 0. -1.
        1   -1    0    0  501    0  0.00000000000E+00  0.00000000000E+00 -0.22778279302E+04  0.22778279302E+04  0.50400001928E-02 0.  1.
    10030    2    1    2    0    0  0.00000000000E+00  0.00000000000E+00 -0.16580719702E+04  0.28975838902E+04  0.23762974861E+04 0.  0.
        4    1    3    3  502    0  0.28202255840E+03  0.41225603549E+03 -0.21435838498E+04  0.22010100173E+04  0.12699999809E+01 0.  1.
       -4    1    3    3    0  502 -0.28202255840E+03 -0.41225603549E+03  0.48551187960E+03  0.69657387288E+03  0.12699999809E+01 0. -1.
</event>
<event>
 5   0  0.5261878E-06  0.2870673E+04  0.7818609E-02  0.8281657E-01
        1   -1    0    0  501    0  0.00000000000E+00  0.00000000000E+00  0.17540572813E+04  0.17540572813E+04  0.50400001928E-02 0.  1.
       -1   -1    0    0    0  501  0.00000000000E+00  0.00000000000E+00 -0.11745286137E+04  0.11745286137E+04  0.50400001928E-02 0. -1.
    10030    2    1    2    0    0  0.00000000000E+00  0.00000000000E+00  0.57952866759E+03  0.29285858950E+04  0.28706727204E+04 0.  0.
        5    1    3    3  502    0  0.10901660976E+04  0.47943632205E+03 -0.52755178782E+03  0.13025568264E+04  0.46999998093E+01 0. -1.
       -5    1    3    3    0  502 -0.10901660976E+04 -0.47943632205E+03  0.11070804554E+04  0.16260290686E+04  0.46999998093E+01 0.  1.
</event>
<event>
 5   0  0.5002240E-06  0.2925485E+04  0.7818609E-02  0.8265335E-01
       -1   -1    0    0    0  501  0.00000000000E+00  0.00000000000E+00  0.11386747068E+04  0.11386747069E+04  0.50400001928E-02 0.  1.
        1   -1    0    0  501    0  0.00000000000E+00  0.00000000000E+00 -0.18790404543E+04  0.18790404543E+04  0.50400001928E-02 0. -1.
    10030    2    1    2    0    0  0.00000000000E+00  0.00000000000E+00 -0.74036574745E+03  0.30177151612E+04  0.29254851485E+04 0.  0.
        4    1    3    3  502    0 -0.11223621455E+04 -0.87470171650E+03 -0.71970802083E+03  0.15946100234E+04  0.12699999809E+01 0.  1.
       -4    1    3    3    0  502  0.11223621455E+04  0.87470171650E+03 -0.20657726619E+02  0.14231051378E+04  0.12699999809E+01 0. -1.
</event>
<event>
 5   0  0.5059249E-06  0.2914322E+04  0.7818609E-02  0.8268629E-01
        1   -1    0    0  501    0  0.00000000000E+00  0.00000000000E+00  0.18888140644E+04  0.18888140644E+04  0.50400001928E-02 0.  1.
       -1   -1    0    0    0  501  0.00000000000E+00  0.00000000000E+00 -0.11241538947E+04  0.11241538947E+04  0.50400001928E-02 0. -1.
    10030    2    1    2    0    0  0.00000000000E+00  0.00000000000E+00  0.76466016965E+03  0.30129679591E+04  0.29143216617E+04 0.  0.
        1    1    3    3  502    0 -0.15344452302E+03 -0.14300795528E+04  0.62400523490E+03  0.15678186382E+04  0.50400001928E-02 0. -1.
       -1    1    3    3    0  502  0.15344452302E+03  0.14300795528E+04  0.14065493474E+03  0.14451493209E+04  0.50400001928E-02 0.  1.
</event>
<event>
 5   0  0.1339837E-05  0.2712626E+04  0.7818609E-02  0.8330920E-01
       -2   -1    0    0    0  501  0.00000000000E+00  0.00000000000E+00  0.11407655850E+04  0.11407655850E+04  0.25500000920E-02 0.  1.
        2   -1    0    0  501    0  0.00000000000E+00  0.00000000000E+00 -0.16125883981E+04  0.16125883981E+04  0.25500000920E-02 0. -1.
    10030    2    1    2    0    0  0.00000000000E+00  0.00000000000E+00 -0.47182281311E+03  0.27533539831E+04  0.27126262900E+04 0.  0.
        5    1    3    3  502    0 -0.96339741624E+03  0.92847718919E+03 -0.10407373865E+02  0.13380339592E+04  0.46999998093E+01 0.  1.
       -5    1    3    3    0  502  0.96339741624E+03 -0.92847718919E+03 -0.46141543925E+03  0.14153200239E+04  0.46999998093E+01 0. -1.
</event>
<event>
 5   0  0.5002240E-06  0.1989422E+04  0.7818609E-02  0.8611582E-01
        1   -1    0    0  501    0  0.00000000000E+00  0.00000000000E+00  0.83753562275E+03  0.83753562277E+03  0.50400001928E-02 0. -1.
       -1   -1    0    0    0  501  0.00000000000E+00  0.00000000000E+00 -0.11813829555E+04  0.11813829556E+04  0.50400001928E-02 0.  1.
    10030    2    1    2    0    0  0.00000000000E+00  0.00000000000E+00 -0.34384733280E+03  0.20189185783E+04  0.19894223377E+04 0.  0.
        4    1    3    3  502    0  0.32532739798E+03  0.74593642649E+03  0.40856210456E+03  0.91059523084E+03  0.12699999809E+01 0. -1.
       -4    1    3    3    0  502 -0.32532739798E+03 -0.74593642649E+03 -0.75240943736E+03  0.11083233475E+04  0.12699999809E+01 0.  1.
</event>
<event>
 5   0  0.1339837E-05  0.2924706E+04  0.7818609E-02  0.8265564E-01
       -2   -1    0    0    0  501  0.00000000000E+00  0.00000000000E+00  0.13310092018E+04  0.13310092018E+04  0.25500000920E-02 0.  1.
        2   -1    0    0  501    0  0.00000000000E+00  0.00000000000E+00 -0.16066576999E+04  0.16066576999E+04  0.25500000920E-02 0. -1.
    10030    2    1    2    0    0  0.00000000000E+00  0.00000000000E+00 -0.27564849810E+03  0.29376669017E+04  0.29247059221E+04 0.  0.
        5    1    3    3  502    0 -0.57206120924E+03  0.26486831552E+03  0.11875097036E+04  0.13444741120E+04  0.46999998093E+01 0.  1.
       -5    1    3    3    0  502  0.57206120924E+03 -0.26486831552E+03 -0.14631582017E+04  0.15931927896E+04  0.46999998093E+01 0. -1.
</event>
<event>
 5   0  0.1385669E-05  0.2946508E+04  0.7818609E-02  0.8259173E-01
       -2   -1    0    0    0  501  0.00000000000E+00  0.00000000000E+00  0.99569889491E+03  0.99569889491E+03  0.25500000920E-02 0. -1.
        2   -1    0    0  501    0  0.00000000000E+00  0.00000000000E+00 -0.21798537278E+04  0.21798537278E+04  0.25500000920E-02 0.  1.
    10030    2    1    2    0    0  0.00000000000E+00  0.00000000000E+00 -0.11841548329E+04  0.31755526227E+04  0.29465084068E+04 0.  0.
        3    1    3    3  502    0 -0.29411992874E+03 -0.13350805003E+04 -0.27334765762E+00  0.13670942029E+04  0.10100000352E+00 0. -1.
       -3    1    3    3    0  502  0.29411992874E+03  0.13350805003E+04 -0.11838814852E+04  0.18084584198E+04  0.10100000352E+00 0.  1.
</event>
<event>
 5   0  0.1385669E-05  0.2738373E+04  0.7818609E-02  0.8322661E-01
        2   -1    0    0  501    0  0.00000000000E+00  0.00000000000E+00  0.11351161655E+04  0.11351161655E+04  0.25500000920E-02 0.  1.
       -2   -1    0    0    0  501  0.00000000000E+00  0.00000000000E+00 -0.16515242326E+04  0.16515242326E+04  0.25500000920E-02 0. -1.
    10030    2    1    2    0    0  0.00000000000E+00  0.00000000000E+00 -0.51640806708E+03  0.27866403981E+04  0.27383731332E+04 0.  0.
        3    1    3    3  502    0  0.55547977847E+03 -0.21203297654E+03 -0.15132949659E+04  0.16259081867E+04  0.10100000352E+00 0. -1.
       -3    1    3    3    0  502 -0.55547977847E+03  0.21203297654E+03  0.99688689882E+03  0.11607322114E+04  0.10100000352E+00 0.  1.
</event>
<event>
 5   0  0.5261878E-06  0.2078458E+04  0.7818609E-02  0.8570792E-01
        1   -1    0    0  501    0  0.00000000000E+00  0.00000000000E+00  0.85620215547E+03  0.85620215549E+03  0.50400001928E-02 0.  1.
       -1   -1    0    0    0  501  0.00000000000E+00  0.00000000000E+00 -0.12613813323E+04  0.12613813323E+04  0.50400001928E-02 0. -1.
    10030    2    1    2    0    0  0.00000000000E+00  0.00000000000E+00 -0.40517917682E+03  0.21175834878E+04  0.20784584822E+04 0.  0.
        5    1    3    3  502    0 -0.30776028392E+03 -0.61965623112E+03  0.58743281089E+03  0.90762857736E+03  0.46999998093E+01 0.  1.
       -5    1    3    3    0  502  0.30776028392E+03  0.61965623112E+03 -0.99261198771E+03  0.12099549104E+04  0.46999998093E+01 0. -1.
</event>
<event>
 5   0  0.1339837E-05  0.2944905E+04  0.7818609E-02  0.8259641E-01
       -2   -1    0    0    0  501  0.00000000000E+00  0.00000000000E+00  0.14853843007E+04  0.14853843007E+04  0.25500000920E-02 0. -1.
        2   -1    0    0  501    0  0.00000000000E+00  0.00000000000E+00 -0.14596331903E+04  0.14596331903E+04  0.25500000920E-02 0.  1.
    10030    2    1    2    0    0  0.00000000000E+00  0.00000000000E+00  0.25751110426E+02  0.29450174910E+04  0.29449049056E+04 0.  0.
        5    1    3    3  502    0 -0.11391491212E+04  0.19860549285E+03 -0.89874542584E+03  0.14645375696E+04  0.46999998093E+01 0.  1.
       -5    1    3    3    0  502  0.11391491212E+04 -0.19860549285E+03  0.92449653627E+03  0.14804799214E+04  0.46999998093E+01 0. -1.
</event>
<event>
 5   0  0.1385669E-05  0.2895385E+04  0.7818609E-02  0.8274252E-01
       -2   -1    0    0    0  501  0.00000000000E+00  0.00000000000E+00  0.10881715626E+04  0.10881715626E+04  0.25500000920E-02 0. -1.
        2   -1    0    0  501    0  0.00000000000E+00  0.00000000000E+00 -0.19259951852E+04  0.19259951852E+04  0.25500000920E-02 0.  1.
    10030    2    1    2    0    0  0.00000000000E+00  0.00000000000E+00 -0.83782362251E+03  0.30141667478E+04  0.28953847346E+04 0.  0.
        3    1    3    3  502    0  0.10081046784E+04  0.31997146511E+03 -0.14479773487E+04  0.17931244222E+04  0.10100000352E+00 0. -1.
       -3    1    3    3    0  502 -0.10081046784E+04 -0.31997146511E+03  0.61015372620E+03  0.12210423256E+04  0.10100000352E+00 0.  1.
</event>
<event>
 5   0  0.5059249E-06  0.2897790E+04  0.7818609E-02  0.8273535E-01
       -1   -1    0    0    0  501  0.00000000000E+00  0.00000000000E+00  0.13486232599E+04  0.13486232599E+04  0.50400001928E-02 0.  1.
        1   -1    0    0  501    0  0.00000000000E+00  0.00000000000E+00 -0.15566217265E+04  0.15566217265E+04  0.50400001928E-02 0. -1.
    10030    2    1    2    0    0  0.00000000000E+00  0.00000000000E+00 -0.20799846663E+03  0.29052449864E+04  0.28977896868E+04 0.  0.
        1    1    3    3  502    0 -0.32121426274E+03  0.11328086492E+04 -0.95048312883E+03  0.15132257653E+04  0.50400001928E-02 0. -1.
       -1    1    3    3    0  502  0.32121426274E+03 -0.11328086492E+04  0.74248466220E+03  0.13920192211E+04  0.50400001928E-02 0.  1.
</event>
<event>
 5   0  0.5154476E-06  0.2404149E+04  0.7818609E-02  0.8437952E-01
        1   -1    0    0  501    0  0.00000000000E+00  0.00000000000E+00  0.15921549257E+04  0.15921549257E+04  0.50400001928E-02 0.  1.
       -1   -1    0    0    0  501  0.00000000000E+00  0.00000000000E+00 -0.90756425066E+03  0.90756425067E+03  0.50400001928E-02 0. -1.
    10030    2    1    2    0    0  0.00000000000E+00  0.00000000000E+00  0.68459067502E+03  0.24997191764E+04  0.24041488241E+04 0.  0.
        3    1    3    3  502    0 -0.95343412529E+03  0.15007252356E+03 -0.40272505968E+03  0.10458230622E+04  0.10100000352E+00 0. -1.
       -3    1    3    3    0  502  0.95343412529E+03 -0.15007252356E+03  0.10873157347E+04  0.14538961141E+04  0.10100000352E+00 0.  1.
</event>
<event>
 5   0  0.5002240E-06  0.2825515E+04  0.7818609E-02  0.8295391E-01
       -1   -1    0    0    0  501  0.00000000000E+00  0.00000000000E+00  0.11795391561E+04  0.11795391561E+04  0.50400001928E-02 0.  1.
        1   -1    0    0  501    0  0.00000000000E+00  0.00000000000E+00 -0.16920873197E+04  0.16920873197E+04  0.50400001928E-02 0. -1.
    10030    2    1    2    0    0  0.00000000000E+00  0.00000000000E+00 -0.51254816363E+03  0.28716264758E+04  0.28255146428E+04 0.  0.
        4    1    3    3  502    0 -0.23302322109E+03 -0.99885212893E+03  0.73111407368E+03  0.12595772301E+04  0.12699999809E+01 0.  1.
       -4    1    3    3    0  502  0.23302322109E+03  0.99885212893E+03 -0.12436622373E+04  0.16120492457E+04  0.12699999809E+01 0. -1.
</event>
<event>
 5   0  0.1336899E-05  0.2883927E+04  0.7818609E-02  0.8277676E-01
        2   -1    0    0  501    0  0.00000000000E+00  0.00000000000E+00  0.13396973453E+04  0.13396973453E+04  0.25500000920E-02 0. -1.
       -2   -1    0    0    0  501  0.00000000000E+00  0.00000000000E+00 -0.15520361000E+04  0.15520361000E+04  0.25500000920E-02 0.  1.
    10030    2    1    2    0    0  0.00000000000E+00  0.00000000000E+00 -0.21233875469E+03  0.28917334453E+04  0.28839269359E+04 0.  0.
        1    1    3    3  502    0 -0.44398168458E+03  0.13518047230E+04  0.12847881548E+03  0.14286366058E+04  0.50400001928E-02 0. -1.
       -1    1    3    3    0  502  0.44398168458E+03 -0.13518047230E+04 -0.34081757017E+03  0.14630968394E+04  0.50400001928E-02 0.  1.
</event>
<event>
 5   0  0.1339837E-05  0.2907839E+04  0.7818609E-02  0.8270549E-01
       -2   -1    0    0    0  501  0.00000000000E+00  0.00000000000E+00  0.78737952746E+03  0.78737952746E+03  0.25500000920E-02 0.  1.
        2   -1    0    0  501    0  0.00000000000E+00  0.00000000000E+00 -0.26847046432E+04  0.26847046432E+04  0.25500000920E-02 0. -1.
    10030    2    1    2    0    0  0.00000000000E+00  0.00000000000E+00 -0.18973251158E+04  0.34720841707E+04  0.29078386980E+04 0.  0.
        5    1    3    3  502    0 -0.54984701912E+03  0.23543728548E+03  0.63365691936E+03  0.87138145566E+03  0.46999998093E+01 0.  1.
       -5    1    3    3    0  502  0.54984701912E+03 -0.23543728548E+03 -0.25309820351E+04  0.26007027150E+04  0.46999998093E+01 0. -1.
</event>
<event>
 5   0  0.1382803E-05  0.2922511E+04  0.7818609E-02  0.8266211E-01
        2   -1    0    0  501    0  0.00000000000E+00  0.00000000000E+00  0.17171120512E+04  0.17171120512E+04  0.25500000920E-02 0.  1.
       -2   -1    0    0    0  501  0.00000000000E+00  0.00000000000E+00 -0.12435224796E+04  0.12435224796E+04  0.25500000920E-02 0. -1.
    10030    2    1    2    0    0  0.00000000000E+00  0.00000000000E+00  0.47358957160E+03  0.29606345308E+04  0.29225108627E+04 0.  0.
        2    1    3    3  502    0  0.25308597387E+03  0.18633529648E+03 -0.12088787878E+04  0.12490641603E+04  0.25500000920E-02 0. -1.
       -2    1    3    3    0  502 -0.25308597387E+03 -0.18633529648E+03  0.16824683594E+04  0.17115703705E+04  0.25500000920E-02 0.  1.
</event>
<event>
 5   0  0.1385669E-05  0.2898118E+04  0.7818609E-02  0.8273438E-01
        2   -1    0    0  501    0  0.00000000000E+00  0.00000000000E+00  0.19688441640E+04  0.19688441640E+04  0.25500000920E-02 0. -1.
       -2   -1    0    0    0  501  0.00000000000E+00  0.00000000000E+00 -0.10664995022E+04  0.10664995022E+04  0.25500000920E-02 0.  1.
    10030    2    1    2    0    0  0.00000000000E+00  0.00000000000E+00  0.90234466184E+03  0.30353436662E+04  0.28981175413E+04 0.  0.
        3    1    3    3  502    0  0.42243729936E+02  0.22756368480E+03 -0.10470148561E+04  0.10722918830E+04  0.10100000352E+00 0.  1.
       -3    1    3    3    0  502 -0.42243729936E+02 -0.22756368480E+03  0.19493595179E+04  0.19630517832E+04  0.10100000352E+00 0. -1.
</event>
<event>
 5   0  0.5352212E-06  0.2869590E+04  0.7818609E-02  0.8281983E-01
        1   -1    0    0  501    0  0.00000000000E+00  0.00000000000E+00  0.12211352028E+04  0.12211352028E+04  0.50400001928E-02 0.  1.
       -1   -1    0    0    0  501  0.00000000000E+00  0.00000000000E+00 -0.16858389199E+04  0.16858389199E+04  0.50400001928E-02 0. -1.
    10030    2    1    2    0    0  0.00000000000E+00  0.00000000000E+00 -0.46470371714E+03  0.29069741227E+04  0.28695903898E+04 0.  0.
        2    1    3    3  502    0 -0.39815934020E+03 -0.80979290714E+03  0.89768109506E+03  0.12728420016E+04  0.25500000920E-02 0.  1.
       -2    1    3    3    0  502  0.39815934020E+03  0.80979290714E+03 -0.13623848122E+04  0.16341321211E+04  0.25500000920E-02 0. -1.
</event>
<event>
 5   0  0.5059249E-06  0.1777089E+04  0.7818609E-02  0.8718579E-01
        1   -1    0    0  501    0  0.00000000000E+00  0.00000000000E+00  0.76984274839E+03  0.76984274840E+03  0.50400001928E-02 0.  1.
       -1   -1    0    0    0  501  0.00000000000E+00  0.00000000000E+00 -0.10255486178E+04  0.10255486178E+04  0.50400001928E-02 0. -1.
    10030    2    1    2    0    0  0.00000000000E+00  0.00000000000E+00 -0.25570586944E+03  0.17953913662E+04  0.17770888178E+04 0.  0.
        1    1    3    3  502    0  0.17438475524E+03  0.86807523496E+03 -0.52611008718E+02  0.88697946688E+03  0.50400001928E-02 0.  1.
       -1    1    3    3    0  502 -0.17438475524E+03 -0.86807523496E+03 -0.20309486072E+03  0.90841189935E+03  0.50400001928E-02 0. -1.
</event>
<event>
 5   0  0.1385669E-05  0.2902037E+04  0.7818609E-02  0.8272272E-01
        2   -1    0    0  501    0  0.00000000000E+00  0.00000000000E+00  0.15629475275E+04  0.15629475275E+04  0.25500000920E-02 0.  1.
       -2   -1    0    0    0  501  0.00000000000E+00  0.00000000000E+00 -0.13471053749E+04  0.13471053749E+04  0.25500000920E-02 0. -1.
    10030    2    1    2    0    0  0.00000000000E+00  0.00000000000E+00  0.21584215265E+03  0.29100529024E+04  0.29020372258E+04 0.  0.
        3    1    3    3  502    0 -0.10165358204E+04  0.69527020768E+03 -0.66147212066E+03  0.13979596248E+04  0.10100000352E+00 0. -1.
       -3    1    3    3    0  502  0.10165358204E+04 -0.69527020768E+03  0.87731427331E+03  0.15120932776E+04  0.10100000352E+00 0.  1.
</event>
<event>
 5   0  0.1339837E-05  0.1911150E+04  0.7818609E-02  0.8649326E-01
        2   -1    0    0  501    0  0.00000000000E+00  0.00000000000E+00  0.15936992952E+04  0.15936992952E+04  0.25500000920E-02 0. -1.
       -2   -1    0    0    0  501  0.00000000000E+00  0.00000000000E+00 -0.57295847310E+03  0.57295847311E+03  0.25500000920E-02 0.  1.
    10030    2    1    2    0    0  0.00000000000E+00  0.00000000000E+00  0.10207408221E+04  0.21666577683E+04  0.19111499311E+04 0.  0.
        5    1    3    3  502    0  0.50278343244E+03  0.31669245826E+03 -0.33802014972E+03  0.68364099107E+03  0.46999998093E+01 0.  1.
       -5    1    3    3    0  502 -0.50278343244E+03 -0.31669245826E+03  0.13587609718E+04  0.14830167772E+04  0.46999998093E+01 0. -1.
</event>
<event>
 5   0  0.5154476E-06  0.2935868E+04  0.7818609E-02  0.8262285E-01
        1   -1    0    0  501    0  0.00000000000E+00  0.00000000000E+00  0.17396972612E+04  0.17396972612E+04  0.50400001928E-02 0. -1.
       -1   -1    0    0    0  501  0.00000000000E+00  0.00000000000E+00 -0.12386233888E+04  0.12386233888E+04  0.50400001928E-02 0.  1.
    10030    2    1    2    0    0  0.00000000000E+00  0.00000000000E+00  0.50107387242E+03  0.29783206499E+04  0.29358676517E+04 0.  0.
        3    1    3    3  502    0  0.67529723817E+03  0.11196061254E+04 -0.42640939877E+03  0.13752705994E+04  0.10100000352E+00 0.  1.
       -3    1    3    3    0  502 -0.67529723817E+03 -0.11196061254E+04  0.92748327119E+03  0.16030500505E+04  0.10100000352E+00 0. -1.
</event>
<event>
 5   0  0.5352212E-06  0.2766203E+04  0.7818609E-02  0.8313838E-01
        1   -1    0    0  501    0  0.00000000000E+00  0.00000000000E+00  0.11615752471E+04  0.11615752471E+04  0.50400001928E-02 0. -1.
       -1   -1    0    0    0  501  0.00000000000E+00  0.00000000000E+00 -0.16468753459E+04  0.16468753459E+04  0.50400001928E-02 0.  1.
    10030    2    1    2    0    0  0.00000000000E+00  0.00000000000E+00 -0.48530009883E+03  0.28084505930E+04  0.27662029114E+04 0.  0.
        2    1    3    3  502    0  0.10399978584E+04 -0.91059733710E+03 -0.29012511191E+03  0.14124289845E+04  0.25500000920E-02 0. -1.
       -2    1    3    3    0  502 -0.10399978584E+04  0.91059733710E+03 -0.19517498692E+03  0.13960216085E+04  0.25500000920E-02 0.  1.
</event>
<event>
 5   0  0.5352212E-06  0.2804756E+04  0.7818609E-02  0.8301793E-01
        1   -1    0    0  501    0  0.00000000000E+00  0.00000000000E+00  0.23098860129E+04  0.23098860129E+04  0.50400001928E-02 0.  1.
       -1   -1    0    0    0  501  0.00000000000E+00  0.00000000000E+00 -0.85141201962E+03  0.85141201963E+03  0.50400001928E-02 0. -1.
    10030    2    1    2    0    0  0.00000000000E+00  0.00000000000E+00  0.14584739933E+04  0.31612980325E+04  0.28047564710E+04 0.  0.
        2    1    3    3  502    0 -0.55809032431E+03 -0.12411546237E+03 -0.71409119781E+03  0.91476537806E+03  0.25500000920E-02 0. -1.
       -2    1    3    3    0  502  0.55809032431E+03  0.12411546237E+03  0.21725651911E+04  0.22465326545E+04  0.25500000920E-02 0.  1.
</event>
<event>
 5   0  0.1307832E-05  0.2775565E+04  0.7818609E-02  0.8310895E-01
        2   -1    0    0  501    0  0.00000000000E+00  0.00000000000E+00  0.15361939367E+04  0.15361939367E+04  0.25500000920E-02 0. -1.
       -2   -1    0    0    0  501  0.00000000000E+00  0.00000000000E+00 -0.12537091245E+04  0.12537091245E+04  0.25500000920E-02 0.  1.
    10030    2    1    2    0    0  0.00000000000E+00  0.00000000000E+00  0.28248481219E+03  0.27899030611E+04  0.27755650634E+04 0.  0.
        4    1    3    3  502    0  0.62553095330E+03 -0.84918573273E+03  0.10478625920E+04  0.14867491405E+04  0.12699999809E+01 0. -1.
       -4    1    3    3    0  502 -0.62553095330E+03  0.84918573273E+03 -0.76537777978E+03  0.13031539206E+04  0.12699999809E+01 0.  1.
</event>
<event>
 5   0  0.5261878E-06  0.2954479E+04  0.7818609E-02  0.8256850E-01
       -1   -1    0    0    0  501  0.00000000000E+00  0.00000000000E+00  0.73468256556E+03  0.73468256558E+03  0.50400001928E-02 0.  1.
        1   -1    0    0  501    0  0.00000000000E+00  0.00000000000E+00 -0.29703129370E+04  0.29703129370E+04  0.50400001928E-02 0. -1.
    10030    2    1    2    0    0  0.00000000000E+00  0.00000000000E+00 -0.22356303714E+04  0.37049955026E+04  0.29544793985E+04 0.  0.
        5    1    3    3  502    0 -0.13495648277E+04 -0.46032894713E+03 -0.63377544822E+03  0.15604234593E+04  0.46999998093E+01 0. -1.
       -5    1    3    3    0  502  0.13495648277E+04  0.46032894713E+03 -0.16018549232E+04  0.21445720432E+04  0.46999998093E+01 0.  1.
</event>
<event>
 5   0  0.1339837E-05  0.2878865E+04  0.7818609E-02  0.8279194E-01
       -2   -1    0    0    0  501  0.00000000000E+00  0.00000000000E+00  0.96281883565E+03  0.96281883565E+03  0.25500000920E-02 0.  1.
        2   -1    0    0  501    0  0.00000000000E+00  0.00000000000E+00 -0.21519795386E+04  0.21519795386E+04  0.25500000920E-02 0. -1.
    10030    2    1    2    0    0  0.00000000000E+00  0.00000000000E+00 -0.11891607029E+04  0.31147983742E+04  0.28788653554E+04 0.  0.
        5    1    3    3  502    0  0.13618398582E+04 -0.45410372652E+03 -0.70870644203E+03  0.16009699887E+04  0.46999998093E+01 0.  1.
       -5    1    3    3    0  502 -0.13618398582E+04  0.45410372652E+03 -0.48045426090E+03  0.15138283855E+04  0.46999998093E+01 0. -1.
</event>
<event>
 5   0  0.5352212E-06  0.2739705E+04  0.7818609E-02  0.8322236E-01
        1   -1    0    0  501    0  0.00000000000E+00  0.00000000000E+00  0.17675806515E+04  0.17675806516E+04  0.50400001928E-02 0.  1.
       -1   -1    0    0    0  501  0.00000000000E+00  0.00000000000E+00 -0.10616179916E+04  0.10616179916E+04  0.50400001928E-02 0. -1.
    10030    2    1    2    0    0  0.00000000000E+00  0.00000000000E+00  0.70596265995E+03  0.28291986432E+04  0.27397046712E+04 0.  0.
        2    1    3    3  502    0 -0.67783184450E+03  0.85736773831E+03 -0.49980284666E+03  0.12018062796E+04  0.25500000920E-02 0.  1.
       -2    1    3    3    0  502  0.67783184450E+03 -0.85736773831E+03  0.12057655066E+04  0.16273923636E+04  0.25500000920E-02 0. -1.
</event>
<event>
 5   0  0.1336899E-05  0.2951162E+04  0.7818609E-02  0.8257816E-01
       -2   -1    0    0    0  501  0.00000000000E+00  0.00000000000E+00  0.85879973388E+03  0.85879973389E+03  0.25500000920E-02 0. -1.
        2   -1    0    0  501    0  0.00000000000E+00  0.00000000000E+00 -0.25353277255E+04  0.25353277255E+04  0.25500000920E-02 0.  1.
    10030    2    1    2    0    0  0.00000000000E+00  0.00000000000E+00 -0.16765279916E+04  0.33941274594E+04  0.29511616533E+04 0.  0.
        1    1    3    3  502    0 -0.63475730144E+02  0.14708247625E+04 -0.95318255306E+03  0.17538277082E+04  0.50400001928E-02 0. -1.
       -1    1    3    3    0  502  0.63475730144E+02 -0.14708247625E+04 -0.72334543855E+03  0.16402997512E+04  0.50400001928E-02 0.  1.
</event>
<event>
 5   0  0.5154476E-06  0.2722277E+04  0.7818609E-02  0.8327813E-01
       -1   -1    0    0    0  501  0.00000000000E+00  0.00000000000E+00  0.17039043827E+04  0.17039043827E+04  0.50400001928E-02 0. -1.
        1   -1    0    0  501    0  0.00000000000E+00  0.00000000000E+00 -0.10873248950E+04  0.10873248950E+04  0.50400001928E-02 0.  1.
    10030    2    1    2    0    0  0.00000000000E+00  0.00000000000E+00  0.61657948777E+03  0.27912292777E+04  0.27222767339E+04 0.  0.
        3    1    3    3  502    0  0.95646475935E+03  0.60920062237E+03 -0.46360487316E+03  0.12251039641E+04  0.10100000352E+00 0.  1.
       -3    1    3    3    0  502 -0.95646475935E+03 -0.60920062237E+03  0.10801843609E+04  0.15661253136E+04  0.10100000352E+00 0. -1.
</event>
<event>
 5   0  0.4590125E-06  0.2570712E+04  0.7818609E-02  0.8378218E-01
        4   -1    0    0  501    0  0.00000000000E+00  0.00000000000E+00  0.11525820421E+04  0.11525827418E+04  0.12699999809E+01 0. -1.
       -4   -1    0    0    0  501  0.00000000000E+00  0.00000000000E+00 -0.14334237471E+04  0.14334243097E+04  0.12699999809E+01 0.  1.
    10030    2    1    2    0    0  0.00000000000E+00  0.00000000000E+00 -0.28084170506E+03  0.25860070515E+04  0.25707120428E+04 0.  0.
        5    1    3    3  502    0  0.34531810653E+03 -0.99724943395E+03  0.59767961724E+03  0.12128454325E+04  0.46999998093E+01 0. -1.
       -5    1    3    3    0  502 -0.34531810653E+03  0.99724943395E+03 -0.87852132229E+03  0.13731616190E+04  0.46999998093E+01 0.  1.
</event>
<event>
 5   0  0.1382803E-05  0.2902306E+04  0.7818609E-02  0.8272192E-01
        2   -1    0    0  501    0  0.00000000000E+00  0.00000000000E+00  0.20484212814E+04  0.20484212814E+04  0.25500000920E-02 0. -1.
       -2   -1    0    0    0  501  0.00000000000E+00  0.00000000000E+00 -0.10280330144E+04  0.10280330144E+04  0.25500000920E-02 0.  1.
    10030    2    1    2    0    0  0.00000000000E+00  0.00000000000E+00  0.10203882670E+04  0.30764542958E+04  0.29023057763E+04 0.  0.
        2    1    3    3  502    0 -0.95656835252E+03 -0.70220365478E+03 -0.37523036588E+03  0.12445524550E+04  0.25500000920E-02 0. -1.
       -2    1    3    3    0  502  0.95656835252E+03  0.70220365478E+03  0.13956186329E+04  0.18319018408E+04  0.25500000920E-02 0.  1.
</event>
<event>
 5   0  0.1382803E-05  0.2795844E+04  0.7818609E-02  0.8304560E-01
        2   -1    0    0  501    0  0.00000000000E+00  0.00000000000E+00  0.12282137979E+04  0.12282137979E+04  0.25500000920E-02 0. -1.
       -2   -1    0    0    0  501  0.00000000000E+00  0.00000000000E+00 -0.15910794444E+04  0.15910794444E+04  0.25500000920E-02 0.  1.
    10030    2    1    2    0    0  0.00000000000E+00  0.00000000000E+00 -0.36286564654E+03  0.28192932423E+04  0.27958438634E+04 0.  0.
        2    1    3    3  502    0 -0.59193524639E+03 -0.15809139131E+03 -0.14484766929E+04  0.15727253268E+04  0.25500000920E-02 0.  1.
       -2    1    3    3    0  502  0.59193524639E+03  0.15809139131E+03  0.10856110463E+04  0.12465679154E+04  0.25500000920E-02 0. -1.
</event>
<event>
 5   0  0.1307832E-05  0.2925451E+04  0.7818609E-02  0.8265345E-01
        2   -1    0    0  501    0  0.00000000000E+00  0.00000000000E+00  0.15125855236E+04  0.15125855236E+04  0.25500000920E-02 0. -1.
       -2   -1    0    0    0  501  0.00000000000E+00  0.00000000000E+00 -0.14145093074E+04  0.14145093074E+04  0.25500000920E-02 0.  1.
    10030    2    1    2    0    0  0.00000000000E+00  0.00000000000E+00  0.98076216265E+02  0.29270948310E+04  0.29254512824E+04 0.  0.
        4    1    3    3  502    0 -0.43074492011E+03 -0.12724917710E+04 -0.52989580486E+03  0.14441494626E+04  0.12699999809E+01 0. -1.
       -4    1    3    3    0  502  0.43074492011E+03  0.12724917710E+04  0.62797202112E+03  0.14829453684E+04  0.12699999809E+01 0.  1.
</event>
<event>
 5   0  0.1382803E-05  0.2926238E+04  0.7818609E-02  0.8265113E-01
        2   -1    0    0  501    0  0.00000000000E+00  0.00000000000E+00  0.14974146034E+04  0.14974146034E+04  0.25500000920E-02 0. -1.
       -2   -1    0    0    0  501  0.00000000000E+00  0.00000000000E+00 -0.14296088307E+04  0.14296088307E+04  0.25500000920E-02 0.  1.
    10030    2    1    2    0    0  0.00000000000E+00  0.00000000000E+00  0.67805772733E+02  0.29270234341E+04  0.29262379536E+04 0.  0.
        2    1    3    3  502    0 -0.36017288053E+03  0.72882862251E+03 -0.11828945572E+04  0.14353240743E+04  0.25500000920E-02 0.  1.
       -2    1    3    3    0  502  0.36017288053E+03 -0.72882862251E+03  0.12507003299E+04  0.14916993598E+04  0.25500000920E-02 0. -1.
</event>
<event>
 5   0  0.1382803E-05  0.2890747E+04  0.7818609E-02  0.8275636E-01
       -2   -1    0    0    0  501  0.00000000000E+00  0.00000000000E+00  0.99729066157E+03  0.99729066157E+03  0.25500000920E-02 0. -1.
        2   -1    0    0  501    0  0.00000000000E+00  0.00000000000E+00 -0.20947804034E+04  0.20947804034E+04  0.25500000920E-02 0.  1.
    10030    2    1    2    0    0  0.00000000000E+00  0.00000000000E+00 -0.10974897419E+04  0.30920710650E+04  0.28907472628E+04 0.  0.
        2    1    3    3  502    0  0.10522841472E+04  0.82099339951E+03 -0.11421543696E+04  0.17566583881E+04  0.25500000920E-02 0.  1.
       -2    1    3    3    0  502 -0.10522841472E+04 -0.82099339951E+03  0.44664627769E+02  0.13354126769E+04  0.25500000920E-02 0. -1.
</event>
<event>
 5   0  0.1385669E-05  0.2882663E+04  0.7818609E-02  0.8278054E-01
        2   -1    0    0  501    0  0.00000000000E+00  0.00000000000E+00  0.24719892775E+04  0.24719892775E+04  0.25500000920E-02 0. -1.
       -2   -1    0    0    0  501  0.00000000000E+00  0.00000000000E+00 -0.84039073071E+03  0.84039073071E+03  0.25500000920E-02 0.  1.
    10030    2    1    2    0    0  0.00000000000E+00  0.00000000000E+00  0.16315985468E+04  0.33123800083E+04  0.28826632653E+04 0.  0.
        3    1    3    3  502    0  0.88768534198E+03  0.95290113469E+03  0.10613286413E+03  0.13066254375E+04  0.10100000352E+00 0.  1.
       -3    1    3    3    0  502 -0.88768534198E+03 -0.95290113469E+03  0.15254656827E+04  0.20057545708E+04  0.10100000352E+00 0. -1.
</event>
<event>
 5   0  0.5002240E-06  0.2446905E+04  0.7818609E-02  0.8422149E-01
       -1   -1    0    0    0  501  0.00000000000E+00  0.00000000000E+00  0.96566379125E+03  0.96566379126E+03  0.50400001928E-02 0. -1.
        1   -1    0    0  501    0  0.00000000000E+00  0.00000000000E+00 -0.15500587073E+04  0.15500587073E+04  0.50400001928E-02 0.  1.
    10030    2    1    2    0    0  0.00000000000E+00  0.00000000000E+00 -0.58439491604E+03  0.25157224986E+04  0.24469046307E+04 0.  0.
        4    1    3    3  502    0  0.30382000614E+03 -0.25006530132E+03 -0.14832230458E+04  0.15345329803E+04  0.12699999809E+01 0.  1.
       -4    1    3    3    0  502 -0.30382000614E+03  0.25006530132E+03  0.89882812976E+03  0.98118951829E+03  0.12699999809E+01 0. -1.
</event>
<event>
 5   0  0.5059249E-06  0.2907928E+04  0.7818609E-02  0.8270523E-01
       -1   -1    0    0    0  501  0.00000000000E+00  0.00000000000E+00  0.16321234732E+04  0.16321234732E+04  0.50400001928E-02 0.  1.
        1   -1    0    0  501    0  0.00000000000E+00  0.00000000000E+00 -0.12952517718E+04  0.12952517718E+04  0.50400001928E-02 0. -1.
    10030    2    1    2    0    0  0.00000000000E+00  0.00000000000E+00  0.33687170140E+03  0.29273752450E+04  0.29079276610E+04 0.  0.
        1    1    3    3  502    0  0.67111433624E+03 -0.15541441626E+03  0.14574140470E+04  0.16120185475E+04  0.50400001928E-02 0.  1.
       -1    1    3    3    0  502 -0.67111433624E+03  0.15541441626E+03 -0.11205423456E+04  0.13153566974E+04  0.50400001928E-02 0. -1.
</event>
<event>
 5   0  0.5154476E-06  0.2851508E+04  0.7818609E-02  0.8287453E-01
       -1   -1    0    0    0  501  0.00000000000E+00  0.00000000000E+00  0.12088066455E+04  0.12088066455E+04  0.50400001928E-02 0.  1.
        1   -1    0    0  501    0  0.00000000000E+00  0.00000000000E+00 -0.16816373564E+04  0.16816373564E+04  0.50400001928E-02 0. -1.
    10030    2    1    2    0    0  0.00000000000E+00  0.00000000000E+00 -0.47283071090E+03  0.28904440020E+04  0.28515079603E+04 0.  0.
        3    1    3    3  502    0 -0.15016987485E+03 -0.16688437945E+03  0.11907774911E+04  0.12117559287E+04  0.10100000352E+00 0.  1.
       -3    1    3    3    0  502  0.15016987485E+03  0.16688437945E+03 -0.16636082020E+04  0.16786880732E+04  0.10100000352E+00 0. -1.
</event>
<event>
 5   0  0.5352212E-06  0.2893081E+04  0.7818609E-02  0.8274939E-01
        1   -1    0    0  501    0  0.00000000000E+00  0.00000000000E+00  0.17852735650E+04  0.17852735650E+04  0.50400001928E-02 0.  1.
       -1   -1    0    0    0  501  0.00000000000E+00  0.00000000000E+00 -0.11720773671E+04  0.11720773671E+04  0.50400001928E-02 0. -1.
    10030    2    1    2    0    0  0.00000000000E+00  0.00000000000E+00  0.61319619789E+03  0.29573509322E+04  0.28930805310E+04 0.  0.
        2    1    3    3  502    0 -0.14384587173E+04 -0.15149476455E+03  0.28707954782E+03  0.14746283639E+04  0.25500000920E-02 0.  1.
       -2    1    3    3    0  502  0.14384587173E+04  0.15149476455E+03  0.32611665007E+03  0.14827225682E+04  0.25500000920E-02 0. -1.
</event>
<event>
 5   0  0.5059249E-06  0.2823257E+04  0.7818609E-02  0.8296084E-01
       -1   -1    0    0    0  501  0.00000000000E+00  0.00000000000E+00  0.17189063172E+04  0.17189063172E+04  0.50400001928E-02 0.  1.
        1   -1    0    0  501    0  0.00000000000E+00  0.00000000000E+00 -0.11592804400E+04  0.11592804400E+04  0.50400001928E-02 0. -1.
    10030    2    1    2    0    0  0.00000000000E+00  0.00000000000E+00  0.55962587725E+03  0.28781867572E+04  0.28232566102E+04 0.  0.
        1    1    3    3  502    0  0.81681323797E+03 -0.61217338528E+03 -0.71422458345E+03  0.12458157468E+04  0.50400001928E-02 0. -1.
       -1    1    3    3    0  502 -0.81681323797E+03  0.61217338528E+03  0.12738504607E+04  0.16323710104E+04  0.50400001928E-02 0.  1.
</event>
<event>
 5   0  0.1307832E-05  0.2956388E+04  0.7818609E-02  0.8256295E-01
        2   -1    0    0  501    0  0.00000000000E+00  0.00000000000E+00  0.20052828718E+04  0.20052828718E+04  0.25500000920E-02 0.  1.
       -2   -1    0    0    0  501  0.00000000000E+00  0.00000000000E+00 -0.10896504503E+04  0.10896504503E+04  0.25500000920E-02 0. -1.
    10030    2    1    2    0    0  0.00000000000E+00  0.00000000000E+00  0.91563242148E+03  0.30949333221E+04  0.29563879206E+04 0.  0.
        4    1    3    3  502    0  0.31763966582E+03 -0.79184749556E+03 -0.80587298727E+03  0.11736056825E+04  0.12699999809E+01 0. -1.
       -4    1    3    3    0  502 -0.31763966582E+03  0.79184749556E+03  0.17215054087E+04  0.19213276396E+04  0.12699999809E+01 0.  1.
</event>
<event>
 5   0  0.1307832E-05  0.2915669E+04  0.7818609E-02  0.8268231E-01
       -2   -1    0    0    0  501  0.00000000000E+00  0.00000000000E+00  0.17414368189E+04  0.17414368190E+04  0.25500000920E-02 0. -1.
        2   -1    0    0  501    0  0.00000000000E+00  0.00000000000E+00 -0.12204184437E+04  0.12204184437E+04  0.25500000920E-02 0.  1.
    10030    2    1    2    0    0  0.00000000000E+00  0.00000000000E+00  0.52101837526E+03  0.29618552626E+04  0.29156691255E+04 0.  0.
        4    1    3    3  502    0 -0.11613406089E+04 -0.45782310560E+02 -0.63347213600E+03  0.13236678548E+04  0.12699999809E+01 0.  1.
       -4    1    3    3    0  502  0.11613406089E+04  0.45782310560E+02  0.11544905113E+04  0.16381874079E+04  0.12699999809E+01 0. -1.
</event>
<event>
 5   0  0.1382803E-05  0.2893365E+04  0.7818609E-02  0.8274854E-01
        2   -1    0    0  501    0  0.00000000000E+00  0.00000000000E+00  0.16287076917E+04  0.16287076917E+04  0.25500000920E-02 0.  1.
       -2   -1    0    0    0  501  0.00000000000E+00  0.00000000000E+00 -0.12850003794E+04  0.12850003794E+04  0.25500000920E-02 0. -1.
    10030    2    1    2    0    0  0.00000000000E+00  0.00000000000E+00  0.34370731222E+03  0.29137080711E+04  0.28933648244E+04 0.  0.
        2    1    3    3  502    0  0.71855722958E+03 -0.12513239824E+04  0.27628330759E+03  0.14691727833E+04  0.25500000920E-02 0. -1.
       -2    1    3    3    0  502 -0.71855722958E+03  0.12513239824E+04  0.67424004633E+02  0.14445352878E+04  0.25500000920E-02 0.  1.
</event>
<event>
 5   0  0.5261878E-06  0.2893848E+04  0.7818609E-02  0.8274710E-01
       -1   -1    0    0    0  501  0.00000000000E+00  0.00000000000E+00  0.17853548421E+04  0.17853548421E+04  0.50400001928E-02 0. -1.
        1   -1    0    0  501    0  0.00000000000E+00  0.00000000000E+00 -0.11726459007E+04  0.11726459007E+04  0.50400001928E-02 0.  1.
    10030    2    1    2    0    0  0.00000000000E+00  0.00000000000E+00  0.61270894144E+03  0.29580007428E+04  0.28938479828E+04 0.  0.
        5    1    3    3  502    0 -0.22334451165E+03 -0.13272445886E+04 -0.23655661554E+03  0.13665438490E+04  0.46999998093E+01 0.  1.
       -5    1    3    3    0  502  0.22334451165E+03  0.13272445886E+04  0.84926555699E+03  0.15914568939E+04  0.46999998093E+01 0. -1.
</event>
<event>
 5   0  0.5002240E-06  0.2875450E+04  0.7818609E-02  0.8280220E-01
        1   -1    0    0  501    0  0.00000000000E+00  0.00000000000E+00  0.12185039416E+04  0.12185039416E+04  0.50400001928E-02 0.  1.
       -1   -1    0    0    0  501  0.00000000000E+00  0.00000000000E+00 -0.16963858627E+04  0.16963858628E+04  0.50400001928E-02 0. -1.
    10030    2    1    2    0    0  0.00000000000E+00  0.00000000000E+00 -0.47788192112E+03  0.29148898044E+04  0.28754497807E+04 0.  0.
        4    1    3    3  502    0 -0.10458488459E+04 -0.10948203345E+03 -0.12328301042E+04  0.16203881643E+04  0.12699999809E+01 0. -1.
       -4    1    3    3    0  502  0.10458488459E+04  0.10948203345E+03  0.75494818309E+03  0.12945016401E+04  0.12699999809E+01 0.  1.
</event>
<event>
 5   0  0.5154476E-06  0.2952292E+04  0.7818609E-02  0.8257487E-01
       -1   -1    0    0    0  501  0.00000000000E+00  0.00000000000E+00  0.19469927874E+04  0.19469927874E+04  0.50400001928E-02 0. -1.
        1   -1    0    0  501    0  0.00000000000E+00  0.00000000000E+00 -0.11191654351E+04  0.11191654351E+04  0.50400001928E-02 0.  1.
    10030    2    1    2    0    0  0.00000000000E+00  0.00000000000E+00  0.82782735223E+03  0.30661582225E+04  0.29522920113E+04 0.  0.
        3    1    3    3  502    0 -0.74971969593E+03  0.73342782461E+03 -0.66490434212E+03  0.12418106904E+04  0.10100000352E+00 0.  1.
       -3    1    3    3    0  502  0.74971969593E+03 -0.73342782461E+03  0.14927316944E+04  0.18243475321E+04  0.10100000352E+00 0. -1.
</event>
<event>
 5   0  0.5002240E-06  0.2898865E+04  0.7818609E-02  0.8273215E-01
       -1   -1    0    0    0  501  0.00000000000E+00  0.00000000000E+00  0.11940630836E+04  0.11940630836E+04  0.50400001928E-02 0. -1.
        1   -1    0    0  501    0  0.00000000000E+00  0.00000000000E+00 -0.17594172348E+04  0.17594172348E+04  0.50400001928E-02 0.  1.
    10030    2    1    2    0    0  0.00000000000E+00  0.00000000000E+00 -0.56535415118E+03  0.29534803184E+04  0.28988654117E+04 0.  0.
        4    1    3    3  502    0 -0.28015666990E+03  0.14175914289E+04 -0.39794719152E+03  0.14988051238E+04  0.12699999809E+01 0.  1.
       -4    1    3    3    0  502  0.28015666990E+03 -0.14175914289E+04 -0.16740695965E+03  0.14546751946E+04  0.12699999809E+01 0. -1.
</event>
<event>
 5   0  0.5002240E-06  0.2875291E+04  0.7818609E-02  0.8280267E-01
        1   -1    0    0  501    0  0.00000000000E+00  0.00000000000E+00  0.16305502231E+04  0.16305502231E+04  0.50400001928E-02 0. -1.
       -1   -1    0    0    0  501  0.00000000000E+00  0.00000000000E+00 -0.12675629859E+04  0.12675629859E+04  0.50400001928E-02 0.  1.
    10030    2    1    2    0    0  0.00000000000E+00  0.00000000000E+00  0.36298723722E+03  0.28981132090E+04  0.28752913657E+04 0.  0.
        4    1    3    3  502    0 -0.86535069905E+03  0.69182373798E+03 -0.74195049292E+03  0.13333956891E+04  0.12699999809E+01 0.  1.
       -4    1    3    3    0  502  0.86535069905E+03 -0.69182373798E+03  0.11049377301E+04  0.15647175199E+04  0.12699999809E+01 0. -1.
</event>
<event>
 5   0  0.1336899E-05  0.2049397E+04  0.7818609E-02  0.8583868E-01
       -2   -1    0    0    0  501  0.00000000000E+00  0.00000000000E+00  0.10355334785E+04  0.10355334785E+04  0.25500000920E-02 0.  1.
        2   -1    0    0  501    0  0.00000000000E+00  0.00000000000E+00 -0.10139773064E+04  0.10139773064E+04  0.25500000920E-02 0. -1.
    10030    2    1    2    0    0  0.00000000000E+00  0.00000000000E+00  0.21556172107E+02  0.20495107849E+04  0.20493974210E+04 0.  0.
        1    1    3    3  502    0 -0.91090487388E+03  0.44775525817E+03  0.15140942872E+03  0.10262345130E+04  0.50400001928E-02 0.  1.
       -1    1    3    3    0  502  0.91090487388E+03 -0.44775525817E+03 -0.12985325662E+03  0.10232762720E+04  0.50400001928E-02 0. -1.
</event>
<event>
 5   0  0.1382803E-05  0.2525524E+04  0.7818609E-02  0.8393949E-01
       -2   -1    0    0    0  501  0.00000000000E+00  0.00000000000E+00  0.82567941624E+03  0.82567941625E+03  0.25500000920E-02 0.  1.
        2   -1    0    0  501    0  0.00000000000E+00  0.00000000000E+00 -0.19312183948E+04  0.19312183948E+04  0.25500000920E-02 0. -1.
    10030    2    1    2    0    0  0.00000000000E+00  0.00000000000E+00 -0.11055389785E+04  0.27568978110E+04  0.25255235314E+04 0.  0.
        2    1    3    3  502    0 -0.12098665276E+02  0.63521617321E+03  0.63850209585E+03  0.90073908032E+03  0.25500000920E-02 0.  1.
       -2    1    3    3    0  502  0.12098665276E+02 -0.63521617321E+03 -0.17440410744E+04  0.18561587307E+04  0.25500000920E-02 0. -1.
</event>
<event>
 5   0  0.1385669E-05  0.2911152E+04  0.7818609E-02  0.8269567E-01
        2   -1    0    0  501    0  0.00000000000E+00  0.00000000000E+00  0.21038374719E+04  0.21038374719E+04  0.25500000920E-02 0. -1.
       -2   -1    0    0    0  501  0.00000000000E+00  0.00000000000E+00 -0.10070651333E+04  0.10070651333E+04  0.25500000920E-02 0.  1.
    10030    2    1    2    0    0  0.00000000000E+00  0.00000000000E+00  0.10967723386E+04  0.31109026052E+04  0.29111519123E+04 0.  0.
        3    1    3    3  502    0  0.13997199726E+04  0.28811969441E+03  0.84389733061E+03  0.16596360067E+04  0.10100000352E+00 0.  1.
       -3    1    3    3    0  502 -0.13997199726E+04 -0.28811969441E+03  0.25287500798E+03  0.14512665985E+04  0.10100000352E+00 0. -1.
</event>
<event>
 5   0  0.1339837E-05  0.2774292E+04  0.7818609E-02  0.8311295E-01
        2   -1    0    0  501    0  0.00000000000E+00  0.00000000000E+00  0.20513593318E+04  0.20513593318E+04  0.25500000920E-02 0. -1.
       -2   -1    0    0    0  501  0.00000000000E+00  0.00000000000E+00 -0.93799920854E+03  0.93799920854E+03  0.25500000920E-02 0.  1.
    10030    2    1    2    0    0  0.00000000000E+00  0.00000000000E+00  0.11133601233E+04  0.29893585404E+04  0.27742915706E+04 0.  0.
        5    1    3    3  502    0  0.94290208099E+03  0.14880043653E+03 -0.52779340435E+03  0.10907767287E+04  0.46999998093E+01 0.  1.
       -5    1    3    3    0  502 -0.94290208099E+03 -0.14880043653E+03  0.16411535276E+04  0.18985818116E+04  0.46999998093E+01 0. -1.
</event>
<event>
 5   0  0.5261878E-06  0.3049910E+04  0.7818609E-02  0.8229621E-01
        1   -1    0    0  501    0  0.00000000000E+00  0.00000000000E+00  0.18432241725E+04  0.18432241725E+04  0.50400001928E-02 0. -1.
       -1   -1    0    0    0  501  0.00000000000E+00  0.00000000000E+00 -0.12616416208E+04  0.12616416208E+04  0.50400001928E-02 0.  1.
    10030    2    1    2    0    0  0.00000000000E+00  0.00000000000E+00  0.58158255172E+03  0.31048657933E+04  0.30499103806E+04 0.  0.
        5    1    3    3  502    0 -0.73984375722E+03  0.61340484895E+03  0.14961150739E+04  0.17782060336E+04  0.46999998093E+01 0. -1.
       -5    1    3    3    0  502  0.73984375722E+03 -0.61340484895E+03 -0.91453252216E+03  0.13266597597E+04  0.46999998093E+01 0.  1.
</event>
<event>
 5   0  0.5352212E-06  0.2880327E+04  0.7818609E-02  0.8278755E-01
        1   -1    0    0  501    0  0.00000000000E+00  0.00000000000E+00  0.17758923124E+04  0.17758923124E+04  0.50400001928E-02 0. -1.
       -1   -1    0    0    0  501  0.00000000000E+00  0.00000000000E+00 -0.11679037534E+04  0.11679037534E+04  0.50400001928E-02 0.  1.
    10030    2    1    2    0    0  0.00000000000E+00  0.00000000000E+00  0.60798855893E+03  0.29437960658E+04  0.28803272712E+04 0.  0.
        2    1    3    3  502    0  0.53754553654E+03  0.88878376265E+03 -0.71557466464E+03  0.12613242570E+04  0.25500000920E-02 0.  1.
       -2    1    3    3    0  502 -0.53754553654E+03 -0.88878376265E+03  0.13235632236E+04  0.16824718088E+04  0.25500000920E-02 0. -1.
</event>
<event>
 5   0  0.5154476E-06  0.2963007E+04  0.7818609E-02  0.8254374E-01
        1   -1    0    0  501    0  0.00000000000E+00  0.00000000000E+00  0.68912924154E+03  0.68912924156E+03  0.50400001928E-02 0.  1.
       -1   -1    0    0    0  501  0.00000000000E+00  0.00000000000E+00 -0.31849647804E+04  0.31849647804E+04  0.50400001928E-02 0. -1.
    10030    2    1    2    0    0  0.00000000000E+00  0.00000000000E+00 -0.24958355388E+04  0.38740940219E+04  0.29630068265E+04 0.  0.
        3    1    3    3  502    0 -0.13975257600E+04  0.27808762544E+02 -0.18897872482E+04  0.23505632156E+04  0.10100000352E+00 0. -1.
       -3    1    3    3    0  502  0.13975257600E+04 -0.27808762544E+02 -0.60604829066E+03  0.15235308063E+04  0.10100000352E+00 0.  1.
</event>
<event>
 5   0  0.1382803E-05  0.3151227E+04  0.7818609E-02  0.8201818E-01
       -2   -1    0    0    0  501  0.00000000000E+00  0.00000000000E+00  0.24226151889E+04  0.24226151889E+04  0.25500000920E-02 0.  1.
        2   -1    0    0  501    0  0.00000000000E+00  0.00000000000E+00 -0.10247431759E+04  0.10247431759E+04  0.25500000920E-02 0. -1.
    10030    2    1    2    0    0  0.00000000000E+00  0.00000000000E+00  0.13978720130E+04  0.34473583647E+04  0.31512273054E+04 0.  0.
        2    1    3    3  502    0 -0.99514819499E+03  0.17990299374E+03  0.20207315819E+04  0.22596550939E+04  0.25500000920E-02 0.  1.
       -2    1    3    3    0  502  0.99514819499E+03 -0.17990299374E+03 -0.62285956887E+03  0.11877032709E+04  0.25500000920E-02 0. -1.
</event>
<event>
 5   0  0.1336899E-05  0.2860378E+04  0.7818609E-02  0.8284765E-01
       -2   -1    0    0    0  501  0.00000000000E+00  0.00000000000E+00  0.61831159329E+03  0.61831159329E+03  0.25500000920E-02 0.  1.
        2   -1    0    0  501    0  0.00000000000E+00  0.00000000000E+00 -0.33081075948E+04  0.33081075948E+04  0.25500000920E-02 0. -1.
    10030    2    1    2    0    0  0.00000000000E+00  0.00000000000E+00 -0.26897960015E+04  0.39264191881E+04  0.28603784909E+04 0.  0.
        1    1    3    3  502    0  0.48077263214E+03  0.51587019020E+03 -0.30528806380E+04  0.31332642031E+04  0.50400001928E-02 0. -1.
       -1    1    3    3    0  502 -0.48077263214E+03 -0.51587019020E+03  0.36308463644E+03  0.79315498498E+03  0.50400001928E-02 0.  1.
</event>
<event>
 5   0  0.1336899E-05  0.2968042E+04  0.7818609E-02  0.8252916E-01
       -2   -1    0    0    0  501  0.00000000000E+00  0.00000000000E+00  0.11648147399E+04  0.11648147399E+04  0.25500000920E-02 0.  1.
        2   -1    0    0  501    0  0.00000000000E+00  0.00000000000E+00 -0.18907027452E+04  0.18907027452E+04  0.25500000920E-02 0. -1.
    10030    2    1    2    0    0  0.00000000000E+00  0.00000000000E+00 -0.72588800531E+03  0.30555174852E+04  0.29680420661E+04 0.  0.
        1    1    3    3  502    0  0.91638179461E+03 -0.10216211181E+04 -0.94425703518E+03  0.16658591330E+04  0.50400001928E-02 0. -1.
       -1    1    3    3    0  502 -0.91638179461E+03  0.10216211181E+04  0.21836902987E+03  0.13896583522E+04  0.50400001928E-02 0.  1.
</event>
<event>
 5   0  0.1385669E-05  0.2871154E+04  0.7818609E-02  0.8281512E-01
       -2   -1    0    0    0  501  0.00000000000E+00  0.00000000000E+00  0.22629380862E+04  0.22629380862E+04  0.25500000920E-02 0.  1.
        2   -1    0    0  501    0  0.00000000000E+00  0.00000000000E+00 -0.91071014807E+03  0.91071014807E+03  0.25500000920E-02 0. -1.
    10030    2    1    2    0    0  0.00000000000E+00  0.00000000000E+00  0.13522279382E+04  0.31736482343E+04  0.28711535519E+04 0.  0.
        3    1    3    3  502    0  0.39222136451E+02  0.14115993469E+04  0.39057751963E+03  0.14651627559E+04  0.10100000352E+00 0. -1.
       -3    1    3    3    0  502 -0.39222136451E+02 -0.14115993469E+04  0.96165041854E+03  0.17084854784E+04  0.10100000352E+00 0.  1.
</event>
<event>
 5   0  0.5002240E-06  0.2430082E+04  0.7818609E-02  0.8428327E-01
       -1   -1    0    0    0  501  0.00000000000E+00  0.00000000000E+00  0.90384888276E+03  0.90384888277E+03  0.50400001928E-02 0. -1.
        1   -1    0    0  501    0  0.00000000000E+00  0.00000000000E+00 -0.16333749282E+04  0.16333749282E+04  0.50400001928E-02 0.  1.
    10030    2    1    2    0    0  0.00000000000E+00  0.00000000000E+00 -0.72952604547E+03  0.25372238110E+04  0.24300815657E+04 0.  0.
        4    1    3    3  502    0 -0.89295830975E+03 -0.79406750028E+03 -0.59447409683E+03  0.13346605571E+04  0.12699999809E+01 0.  1.
       -4    1    3    3    0  502  0.89295830975E+03  0.79406750028E+03 -0.13505194865E+03  0.12025632539E+04  0.12699999809E+01 0. -1.
</event>
<event>
 5   0  0.1336899E-05  0.2769153E+04  0.7818609E-02  0.8312910E-01
        2   -1    0    0  501    0  0.00000000000E+00  0.00000000000E+00  0.24157536818E+04  0.24157536818E+04  0.25500000920E-02 0.  1.
       -2   -1    0    0    0  501  0.00000000000E+00  0.00000000000E+00 -0.79356254660E+03  0.79356254660E+03  0.25500000920E-02 0. -1.
    10030    2    1    2    0    0  0.00000000000E+00  0.00000000000E+00  0.16221911352E+04  0.32093162284E+04  0.27691526818E+04 0.  0.
        1    1    3    3  502    0 -0.35821600057E+03 -0.10530764494E+04  0.17666256178E+04  0.20876433567E+04  0.50400001928E-02 0.  1.
       -1    1    3    3    0  502  0.35821600057E+03  0.10530764494E+04 -0.14443448258E+03  0.11216728717E+04  0.50400001928E-02 0. -1.
</event>
<event>
 5   0  0.5352212E-06  0.2885431E+04  0.7818609E-02  0.8277225E-01
        1   -1    0    0  501    0  0.00000000000E+00  0.00000000000E+00  0.15396495655E+04  0.15396495655E+04  0.50400001928E-02 0.  1.
       -1   -1    0    0    0  501  0.00000000000E+00  0.00000000000E+00 -0.13518839574E+04  0.13518839574E+04  0.50400001928E-02 0. -1.
    10030    2    1    2    0    0  0.00000000000E+00  0.00000000000E+00  0.18776560812E+03  0.28915335229E+04  0.28854306768E+04 0.  0.
        2    1    3    3  502    0  0.74715435752E+03 -0.36932754187E+03  0.12739919258E+04  0.15223987303E+04  0.25500000920E-02 0.  1.
       -2    1    3    3    0  502 -0.74715435752E+03  0.36932754187E+03 -0.10862263177E+04  0.13691347926E+04  0.25500000920E-02 0. -1.
</event>
<event>
 5   0  0.1339837E-05  0.2845111E+04  0.7818609E-02  0.8289399E-01
       -2   -1    0    0    0  501  0.00000000000E+00  0.00000000000E+00  0.16954613365E+04  0.16954613365E+04  0.25500000920E-02 0.  1.
        2   -1    0    0  501    0  0.00000000000E+00  0.00000000000E+00 -0.11935771804E+04  0.11935771804E+04  0.25500000920E-02 0. -1.
    10030    2    1    2    0    0  0.00000000000E+00  0.00000000000E+00  0.50188415609E+03  0.28890385169E+04  0.28451108671E+04 0.  0.
        5    1    3    3  502    0  0.11685609359E+04  0.45007086769E+03 -0.43441835554E+03  0.13254583526E+04  0.46999998093E+01 0. -1.
       -5    1    3    3    0  502 -0.11685609359E+04 -0.45007086769E+03  0.93630251163E+03  0.15635801643E+04  0.46999998093E+01 0.  1.
</event>
<event>
 5   0  0.1385669E-05  0.2883334E+04  0.7818609E-02  0.8277853E-01
        2   -1    0    0  501    0  0.00000000000E+00  0.00000000000E+00  0.18615285876E+04  0.18615285876E+04  0.25500000920E-02 0.  1.
       -2   -1    0    0    0  501  0.00000000000E+00  0.00000000000E+00 -0.11165040914E+04  0.11165040914E+04  0.25500000920E-02 0. -1.
    10030    2    1    2    0    0  0.00000000000E+00  0.00000000000E+00  0.74502449620E+03  0.29780326790E+04  0.28833343783E+04 0.  0.
        3    1    3    3  502    0 -0.43462274597E+03 -0.12201794824E+04  0.10262860635E+04  0.16525731436E+04  0.10100000352E+00 0.  1.
       -3    1    3    3    0  502  0.43462274597E+03  0.12201794824E+04 -0.28126156732E+03  0.13254595354E+04  0.10100000352E+00 0. -1.
</event>
<event>
 5   0  0.5352212E-06  0.2918766E+04  0.7818609E-02  0.8267316E-01
       -1   -1    0    0    0  501  0.00000000000E+00  0.00000000000E+00  0.26537782113E+04  0.26537782113E+04  0.50400001928E-02 0.  1.
        1   -1    0    0  501    0  0.00000000000E+00  0.00000000000E+00 -0.80255316346E+03  0.80255316347E+03  0.50400001928E-02 0. -1.
    10030    2    1    2    0    0  0.00000000000E+00  0.00000000000E+00  0.18512250478E+04  0.34563313748E+04  0.29187655600E+04 0.  0.
        2    1    3    3  502    0  0.76336645416E+03  0.26994032142E+03  0.23633998641E+04  0.24982503954E+04  0.25500000920E-02 0.  1.
       -2    1    3    3    0  502 -0.76336645416E+03 -0.26994032142E+03 -0.51217481632E+03  0.95808097932E+03  0.25500000920E-02 0. -1.
</event>
<event>
 5   0  0.5352212E-06  0.2873786E+04  0.7818609E-02  0.8280720E-01
        1   -1    0    0  501    0  0.00000000000E+00  0.00000000000E+00  0.11202962893E+04  0.11202962894E+04  0.50400001928E-02 0.  1.
       -1   -1    0    0    0  501  0.00000000000E+00  0.00000000000E+00 -0.18429605880E+04  0.18429605880E+04  0.50400001928E-02 0. -1.
    10030    2    1    2    0    0  0.00000000000E+00  0.00000000000E+00 -0.72266429868E+03  0.29632568774E+04  0.28737862886E+04 0.  0.
        2    1    3    3  502    0  0.20793324613E+03  0.37062043010E+03  0.10540147846E+04  0.11364606919E+04  0.25500000920E-02 0.  1.
       -2    1    3    3    0  502 -0.20793324613E+03 -0.37062043010E+03 -0.17766790833E+04  0.18267961855E+04  0.25500000920E-02 0. -1.
</event>
<event>
 5   0  0.5261878E-06  0.2889955E+04  0.7818609E-02  0.8275873E-01
       -1   -1    0    0    0  501  0.00000000000E+00  0.00000000000E+00  0.12621723552E+04  0.12621723552E+04  0.50400001928E-02 0.  1.
        1   -1    0    0  501    0  0.00000000000E+00  0.00000000000E+00 -0.16542586723E+04  0.16542586723E+04  0.50400001928E-02 0. -1.
    10030    2    1    2    0    0  0.00000000000E+00  0.00000000000E+00 -0.39208631709E+03  0.29164310276E+04  0.28899547157E+04 0.  0.
        5    1    3    3  502    0  0.57265978845E+03 -0.16290771469E+03  0.11326279737E+04  0.12795883610E+04  0.46999998093E+01 0.  1.
       -5    1    3    3    0  502 -0.57265978845E+03  0.16290771469E+03 -0.15247142908E+04  0.16368426666E+04  0.46999998093E+01 0. -1.
</event>
<event>
 5   0  0.1382803E-05  0.2891618E+04  0.7818609E-02  0.8275376E-01
       -2   -1    0    0    0  501  0.00000000000E+00  0.00000000000E+00  0.11534693003E+04  0.11534693003E+04  0.25500000920E-02 0. -1.
        2   -1    0    0  501    0  0.00000000000E+00  0.00000000000E+00 -0.18122408864E+04  0.18122408864E+04  0.25500000920E-02 0.  1.
    10030    2    1    2    0    0  0.00000000000E+00  0.00000000000E+00 -0.65877158610E+03  0.29657101868E+04  0.28916183893E+04 0.  0.
        2    1    3    3  502    0  0.73958320717E+03 -0.12385217171E+04 -0.22971094827E+03  0.14607143745E+04  0.25500000920E-02 0. -1.
       -2    1    3    3    0  502 -0.73958320717E+03  0.12385217171E+04 -0.42906063783E+03  0.15049958123E+04  0.25500000920E-02 0.  1.
</event>
<event>
 5   0  0.1382803E-05  0.2866477E+04  0.7818609E-02  0.8282922E-01
        2   -1    0    0  501    0  0.00000000000E+00  0.00000000000E+00  0.18767201728E+04  0.18767201728E+04  0.25500000920E-02 0.  1.
       -2   -1    0    0    0  501  0.00000000000E+00  0.00000000000E+00 -0.10945547474E+04  0.10945547474E+04  0.25500000920E-02 0. -1.
    10030    2    1    2    0    0  0.00000000000E+00  0.00000000000E+00  0.78216542538E+03  0.29712749202E+04  0.28664772629E+04 0.  0.
        2    1    3    3  502    0 -0.88291049568E+03 -0.59830675505E+03 -0.60135005638E+03  0.12243871148E+04  0.25500000920E-02 0. -1.
       -2    1    3    3    0  502  0.88291049568E+03  0.59830675505E+03  0.13835154818E+04  0.17468878054E+04  0.25500000920E-02 0.  1.
</event>
<event>
 5   0  0.5154476E-06  0.2894339E+04  0.7818609E-02  0.8274564E-01
        1   -1    0    0  501    0  0.00000000000E+00  0.00000000000E+00  0.12287855264E+04  0.12287855264E+04  0.50400001928E-02 0. -1.
       -1   -1    0    0    0  501  0.00000000000E+00  0.00000000000E+00 -0.17043655643E+04  0.17043655644E+04  0.50400001928E-02 0.  1.
    10030    2    1    2    0    0  0.00000000000E+00  0.00000000000E+00 -0.47558003798E+03  0.29331510907E+04  0.28943391212E+04 0.  0.
        3    1    3    3  502    0 -0.89733282990E+03 -0.73871349089E+03  0.63597589766E+03  0.13249034613E+04  0.10100000352E+00 0. -1.
       -3    1    3    3    0  502  0.89733282990E+03  0.73871349089E+03 -0.11115559356E+04  0.16082476294E+04  0.10100000352E+00 0.  1.
</event>
<event>
 5   0  0.1307832E-05  0.2992047E+04  0.7818609E-02  0.8246006E-01
       -2   -1    0    0    0  501  0.00000000000E+00  0.00000000000E+00  0.14757081481E+04  0.14757081481E+04  0.25500000920E-02 0. -1.
        2   -1    0    0  501    0  0.00000000000E+00  0.00000000000E+00 -0.15166185246E+04  0.15166185246E+04  0.25500000920E-02 0.  1.
    10030    2    1    2    0    0  0.00000000000E+00  0.00000000000E+00 -0.40910376464E+02  0.29923266726E+04  0.29920470011E+04 0.  0.
        4    1    3    3  502    0  0.14888017223E+04  0.86013557698E+02 -0.13944446204E+03  0.14977901293E+04  0.12699999809E+01 0.  1.
       -4    1    3    3    0  502 -0.14888017223E+04 -0.86013557698E+02  0.98534085574E+02  0.14945365434E+04  0.12699999809E+01 0. -1.
</event>
<event>
 5   0  0.5059249E-06  0.2933453E+04  0.7818609E-02  0.8262993E-01
        1   -1    0    0  501    0  0.00000000000E+00  0.00000000000E+00  0.24100257728E+04  0.24100257728E+04  0.50400001928E-02 0. -1.
       -1   -1    0    0    0  501  0.00000000000E+00  0.00000000000E+00 -0.89264046489E+03  0.89264046490E+03  0.50400001928E-02 0.  1.
    10030    2    1    2    0    0  0.00000000000E+00  0.00000000000E+00  0.15173853079E+04  0.33026662377E+04  0.29334529321E+04 0.  0.
        1    1    3    3  502    0 -0.53577445051E+03 -0.12639874554E+03 -0.77192451469E+03  0.94810250559E+03  0.50400001928E-02 0.  1.
       -1    1    3    3    0  502  0.53577445051E+03  0.12639874554E+03  0.22893098226E+04  0.23545637321E+04  0.50400001928E-02 0. -1.
</event>
<event>
 5   0  0.1382803E-05  0.2901417E+04  0.7818609E-02  0.8272456E-01
        2   -1    0    0  501    0  0.00000000000E+00  0.00000000000E+00  0.23687744759E+04  0.23687744759E+04  0.25500000920E-02 0.  1.
       -2   -1    0    0    0  501  0.00000000000E+00  0.00000000000E+00 -0.88845747906E+03  0.88845747906E+03  0.25500000920E-02 0. -1.
    10030    2    1    2    0    0  0.00000000000E+00  0.00000000000E+00  0.14803169969E+04  0.32572319550E+04  0.29014171705E+04 0.  0.
        2    1    3    3  502    0  0.13393939075E+04  0.45090671516E+03  0.11078321051E+04  0.17957129165E+04  0.25500000920E-02 0.  1.
       -2    1    3    3    0  502 -0.13393939075E+04 -0.45090671516E+03  0.37248489175E+03  0.14615190385E+04  0.25500000920E-02 0. -1.
</event>
<event>
 5   0  0.5154476E-06  0.2887645E+04  0.7818609E-02  0.8276563E-01
        1   -1    0    0  501    0  0.00000000000E+00  0.00000000000E+00  0.23091900984E+04  0.23091900984E+04  0.50400001928E-02 0. -1.
       -1   -1    0    0    0  501  0.00000000000E+00  0.00000000000E+00 -0.90275083947E+03  0.90275083948E+03  0.50400001928E-02 0.  1.
    10030    2    1    2    0    0  0.00000000000E+00  0.00000000000E+00  0.14064392589E+04  0.32119409379E+04  0.28876449227E+04 0.  0.
        3    1    3    3  502    0  0.59537782982E+03 -0.16426417072E+03 -0.74839797569E+03  0.97033861010E+03  0.10100000352E+00 0.  1.
       -3    1    3    3    0  502 -0.59537782982E+03  0.16426417072E+03  0.21548372346E+04  0.22416023278E+04  0.10100000352E+00 0. -1.
</event>
<event>
 5   0  0.1336899E-05  0.2914838E+04  0.7818609E-02  0.8268476E-01
       -2   -1    0    0    0  501  0.00000000000E+00  0.00000000000E+00  0.91002042811E+03  0.91002042811E+03  0.25500000920E-02 0. -1.
        2   -1    0    0  501    0  0.00000000000E+00  0.00000000000E+00 -0.23340904292E+04  0.23340904292E+04  0.25500000920E-02 0.  1.
    10030    2    1    2    0    0  0.00000000000E+00  0.00000000000E+00 -0.14240700011E+04  0.32441108573E+04  0.29148378834E+04 0.  0.
        1    1    3    3  502    0 -0.14101835519E+04  0.25519176732E+03 -0.10071898988E+04  0.17516198162E+04  0.50400001928E-02 0. -1.
       -1    1    3    3    0  502  0.14101835519E+04 -0.25519176732E+03 -0.41688010232E+03  0.14924910412E+04  0.50400001928E-02 0.  1.
</event>
<event>
 5   0  0.1339837E-05  0.2909834E+04  0.7818609E-02  0.8269958E-01
       -2   -1    0    0    0  501  0.00000000000E+00  0.00000000000E+00  0.21117942412E+04  0.21117942412E+04  0.25500000920E-02 0.  1.
        2   -1    0    0  501    0  0.00000000000E+00  0.00000000000E+00 -0.10023625766E+04  0.10023625766E+04  0.25500000920E-02 0. -1.
    10030    2    1    2    0    0  0.00000000000E+00  0.00000000000E+00  0.11094316646E+04  0.31141568178E+04  0.29098340275E+04 0.  0.
        5    1    3    3  502    0  0.13749928089E+03 -0.52946399127E+02 -0.99434926600E+03  0.10052173527E+04  0.46999998093E+01 0. -1.
       -5    1    3    3    0  502 -0.13749928089E+03  0.52946399127E+02  0.21037809306E+04  0.21089394651E+04  0.46999998093E+01 0.  1.
</event>
<event>
 5   0  0.5059249E-06  0.2904907E+04  0.7818609E-02  0.8271419E-01
       -1   -1    0    0    0  501  0.00000000000E+00  0.00000000000E+00  0.15416585023E+04  0.15416585023E+04  0.50400001928E-02 0.  1.
        1   -1    0    0  501    0  0.00000000000E+00  0.00000000000E+00 -0.13684103779E+04  0.13684103779E+04  0.50400001928E-02 0. -1.
    10030    2    1    2    0    0  0.00000000000E+00  0.00000000000E+00  0.17324812442E+03  0.29100688803E+04  0.29049072232E+04 0.  0.
        1    1    3    3  502    0 -0.14011341553E+04 -0.12572024971E+03  0.44870645945E+03  0.14765906640E+04  0.50400001928E-02 0. -1.
       -1    1    3    3    0  502  0.14011341553E+04  0.12572024971E+03 -0.27545833503E+03  0.14334782163E+04  0.50400001928E-02 0.  1.
</event>
<event>
 5   0  0.5002240E-06  0.2208505E+04  0.7818609E-02  0.8514896E-01
        1   -1    0    0  501    0  0.00000000000E+00  0.00000000000E+00  0.69812781045E+03  0.69812781046E+03  0.50400001928E-02 0. -1.
       -1   -1    0    0    0  501  0.00000000000E+00  0.00000000000E+00 -0.17466342564E+04  0.17466342564E+04  0.50400001928E-02 0.  1.
    10030    2    1    2    0    0  0.00000000000E+00  0.00000000000E+00 -0.10485064459E+04  0.24447620669E+04  0.22085053308E+04 0.  0.
        4    1    3    3  502    0  0.50617445005E+03  0.19863482299E+03  0.53965594533E+03  0.76609302243E+03  0.12699999809E+01 0. -1.
       -4    1    3    3    0  502 -0.50617445005E+03 -0.19863482299E+03 -0.15881623913E+04  0.16786690444E+04  0.12699999809E+01 0.  1.
</event>
<event>
 5   0  0.5002240E-06  0.2857458E+04  0.7818609E-02  0.8285649E-01
       -1   -1    0    0    0  501  0.00000000000E+00  0.00000000000E+00  0.76560160271E+03  0.76560160273E+03  0.50400001928E-02 0. -1.
        1   -1    0    0  501    0  0.00000000000E+00  0.00000000000E+00 -0.26662262707E+04  0.26662262708E+04  0.50400001928E-02 0.  1.
    10030    2    1    2    0    0  0.00000000000E+00  0.00000000000E+00 -0.19006246680E+04  0.34318278735E+04  0.28574583854E+04 0.  0.
        4    1    3    3  502    0  0.13464849368E+04  0.17882979395E+03 -0.14823784328E+04  0.20105842960E+04  0.12699999809E+01 0. -1.
       -4    1    3    3    0  502 -0.13464849368E+04 -0.17882979395E+03 -0.41824623525E+03  0.14212435775E+04  0.12699999809E+01 0.  1.
</event>
<event>
 5   0  0.1382803E-05  0.3008195E+04  0.7818609E-02  0.8241395E-01
       -2   -1    0    0    0  501  0.00000000000E+00  0.00000000000E+00  0.12988446291E+04  0.12988446291E+04  0.25500000920E-02 0.  1.
        2   -1    0    0  501    0  0.00000000000E+00  0.00000000000E+00 -0.17417858181E+04  0.17417858181E+04  0.25500000920E-02 0. -1.
    10030    2    1    2    0    0  0.00000000000E+00  0.00000000000E+00 -0.44294118904E+03  0.30406304473E+04  0.30081949106E+04 0.  0.
        2    1    3    3  502    0  0.98321353790E+03 -0.39926330071E+03 -0.12988854991E+04  0.16772667004E+04  0.25500000920E-02 0. -1.
       -2    1    3    3    0  502 -0.98321353790E+03  0.39926330071E+03  0.85594431006E+03  0.13633637469E+04  0.25500000920E-02 0.  1.
</event>
<event>
 5   0  0.1382803E-05  0.2630942E+04  0.7818609E-02  0.8357766E-01
       -2   -1    0    0    0  501  0.00000000000E+00  0.00000000000E+00  0.86020071930E+03  0.86020071930E+03  0.25500000920E-02 0.  1.
        2   -1    0    0  501    0  0.00000000000E+00  0.00000000000E+00 -0.20116985034E+04  0.20116985034E+04  0.25500000920E-02 0. -1.
    10030    2    1    2    0    0  0.00000000000E+00  0.00000000000E+00 -0.11514977841E+04  0.28718992227E+04  0.26309424165E+04 0.  0.
        2    1    3    3  502    0 -0.18102465200E+03 -0.58248625297E+03 -0.18479986695E+04  0.19460624969E+04  0.25500000920E-02 0. -1.
       -2    1    3    3    0  502  0.18102465200E+03  0.58248625297E+03  0.69650088536E+03  0.92583672580E+03  0.25500000920E-02 0.  1.
</event>
<event>
 5   0  0.1307832E-05  0.2903694E+04  0.7818609E-02  0.8271779E-01
        2   -1    0    0  501    0  0.00000000000E+00  0.00000000000E+00  0.19270061247E+04  0.19270061247E+04  0.25500000920E-02 0.  1.
       -2   -1    0    0    0  501  0.00000000000E+00  0.00000000000E+00 -0.10938521471E+04  0.10938521471E+04  0.25500000920E-02 0. -1.
    10030    2    1    2    0    0  0.00000000000E+00  0.00000000000E+00  0.83315397759E+03  0.30208582718E+04  0.29036940521E+04 0.  0.
        4    1    3    3  502    0 -0.10473205673E+04 -0.39270122858E+03  0.13795408428E+04  0.17760149705E+04  0.12699999809E+01 0. -1.
       -4    1    3    3    0  502  0.10473205673E+04  0.39270122858E+03 -0.54638686519E+03  0.12448433013E+04  0.12699999809E+01 0.  1.
</event>
<event>
 5   0  0.1339837E-05  0.2898456E+04  0.7818609E-02  0.8273337E-01
       -2   -1    0    0    0  501  0.00000000000E+00  0.00000000000E+00  0.14843372739E+04  0.14843372739E+04  0.25500000920E-02 0. -1.
        2   -1    0    0  501    0  0.00000000000E+00  0.00000000000E+00 -0.14149492219E+04  0.14149492219E+04  0.25500000920E-02 0.  1.
    10030    2    1    2    0    0  0.00000000000E+00  0.00000000000E+00  0.69388051928E+02  0.28992864958E+04  0.28984560516E+04 0.  0.
        5    1    3    3  502    0 -0.10139350316E+04 -0.10053867733E+04  0.28250068828E+03  0.14555739559E+04  0.46999998093E+01 0. -1.
       -5    1    3    3    0  502  0.10139350316E+04  0.10053867733E+04 -0.21311263635E+03  0.14437125399E+04  0.46999998093E+01 0.  1.
</event>
<event>
 5   0  0.1382803E-05  0.2679737E+04  0.7818609E-02  0.8341610E-01
       -2   -1    0    0    0  501  0.00000000000E+00  0.00000000000E+00  0.13594739694E+04  0.13594739694E+04  0.25500000920E-02 0.  1.
        2   -1    0    0  501    0  0.00000000000E+00  0.00000000000E+00 -0.13205453765E+04  0.13205453765E+04  0.25500000920E-02 0. -1.
    10030    2    1    2    0    0  0.00000000000E+00  0.00000000000E+00  0.38928592929E+02  0.26800193458E+04  0.26797366025E+04 0.  0.
        2    1    3    3  502    0 -0.11032824659E+01  0.86054048904E+03 -0.10076376924E+04  0.13250905137E+04  0.25500000920E-02 0. -1.
       -2    1    3    3    0  502  0.11032824659E+01 -0.86054048904E+03  0.10465662853E+04  0.13549288321E+04  0.25500000920E-02 0.  1.
</event>
<event>
 5   0  0.1336899E-05  0.2909113E+04  0.7818609E-02  0.8270171E-01
       -2   -1    0    0    0  501  0.00000000000E+00  0.00000000000E+00  0.17557698620E+04  0.17557698620E+04  0.25500000920E-02 0.  1.
        2   -1    0    0  501    0  0.00000000000E+00  0.00000000000E+00 -0.12050185020E+04  0.12050185020E+04  0.25500000920E-02 0. -1.
    10030    2    1    2    0    0  0.00000000000E+00  0.00000000000E+00  0.55075135992E+03  0.29607883640E+04  0.29091133831E+04 0.  0.
        1    1    3    3  502    0 -0.19034790939E+03  0.71792213579E+03  0.15482269987E+04  0.17171637544E+04  0.50400001928E-02 0.  1.
       -1    1    3    3    0  502  0.19034790939E+03 -0.71792213579E+03 -0.99747563881E+03  0.12436246096E+04  0.50400001928E-02 0. -1.
</event>
<event>
 5   0  0.1307832E-05  0.2364436E+04  0.7818609E-02  0.8452939E-01
       -2   -1    0    0    0  501  0.00000000000E+00  0.00000000000E+00  0.74457097508E+03  0.74457097508E+03  0.25500000920E-02 0.  1.
        2   -1    0    0  501    0  0.00000000000E+00  0.00000000000E+00 -0.18771076940E+04  0.18771076940E+04  0.25500000920E-02 0. -1.
    10030    2    1    2    0    0  0.00000000000E+00  0.00000000000E+00 -0.11325367190E+04  0.26216786691E+04  0.23644364285E+04 0.  0.
        4    1    3    3  502    0  0.92721817311E+03 -0.21553232105E+03 -0.13435738597E+04  0.16466268707E+04  0.12699999809E+01 0. -1.
       -4    1    3    3    0  502 -0.92721817311E+03  0.21553232105E+03  0.21103714071E+03  0.97505179843E+03  0.12699999809E+01 0.  1.
</event>
<event>
 5   0  0.1307832E-05  0.2895558E+04  0.7818609E-02  0.8274200E-01
        2   -1    0    0  501    0  0.00000000000E+00  0.00000000000E+00  0.84359939471E+03  0.84359939472E+03  0.25500000920E-02 0. -1.
       -2   -1    0    0    0  501  0.00000000000E+00  0.00000000000E+00 -0.24846666968E+04  0.24846666968E+04  0.25500000920E-02 0.  1.
    10030    2    1    2    0    0  0.00000000000E+00  0.00000000000E+00 -0.16410673021E+04  0.33282660915E+04  0.28955575087E+04 0.  0.
        4    1    3    3  502    0 -0.10460294243E+04  0.98191179441E+03 -0.10438130736E+04  0.17742253730E+04  0.12699999809E+01 0.  1.
       -4    1    3    3    0  502  0.10460294243E+04 -0.98191179441E+03 -0.59725422845E+03  0.15540407185E+04  0.12699999809E+01 0. -1.
</event>
<event>
 5   0  0.1339837E-05  0.2865919E+04  0.7818609E-02  0.8283090E-01
       -2   -1    0    0    0  501  0.00000000000E+00  0.00000000000E+00  0.10229076398E+04  0.10229076398E+04  0.25500000920E-02 0. -1.
        2   -1    0    0  501    0  0.00000000000E+00  0.00000000000E+00 -0.20073890468E+04  0.20073890468E+04  0.25500000920E-02 0.  1.
    10030    2    1    2    0    0  0.00000000000E+00  0.00000000000E+00 -0.98448140701E+03  0.30302966866E+04  0.28659194630E+04 0.  0.
        5    1    3    3  502    0  0.34489863801E+03 -0.75492402682E+03 -0.17273509773E+04  0.19164104064E+04  0.46999998093E+01 0.  1.
       -5    1    3    3    0  502 -0.34489863801E+03  0.75492402682E+03  0.74286957033E+03  0.11138862802E+04  0.46999998093E+01 0. -1.
</event>
<event>
 5   0  0.5002240E-06  0.3073138E+04  0.7818609E-02  0.8223149E-01
        1   -1    0    0  501    0  0.00000000000E+00  0.00000000000E+00  0.86472343825E+03  0.86472343826E+03  0.50400001928E-02 0.  1.
       -1   -1    0    0    0  501  0.00000000000E+00  0.00000000000E+00 -0.27304036470E+04  0.27304036470E+04  0.50400001928E-02 0. -1.
    10030    2    1    2    0    0  0.00000000000E+00  0.00000000000E+00 -0.18656802087E+04  0.35951270852E+04  0.30731378293E+04 0.  0.
        4    1    3    3  502    0  0.98660583349E+03 -0.37539708543E+03 -0.22390655213E+04  0.24754252289E+04  0.12699999809E+01 0. -1.
       -4    1    3    3    0  502 -0.98660583349E+03  0.37539708543E+03  0.37338531259E+03  0.11197018563E+04  0.12699999809E+01 0.  1.
</event>
<event>
 5   0  0.1339837E-05  0.2773699E+04  0.7818609E-02  0.8311481E-01
        2   -1    0    0  501    0  0.00000000000E+00  0.00000000000E+00  0.11309148340E+04  0.11309148340E+04  0.25500000920E-02 0. -1.
       -2   -1    0    0    0  501  0.00000000000E+00  0.00000000000E+00 -0.17007035970E+04  0.17007035970E+04  0.25500000920E-02 0.  1.
    10030    2    1    2    0    0  0.00000000000E+00  0.00000000000E+00 -0.56978876298E+03  0.28316184309E+04  0.27736985604E+04 0.  0.
        5    1    3    3  502    0 -0.74891896920E+03  0.16580963660E+03  0.89463566066E+03  0.11784598056E+04  0.46999998093E+01 0. -1.
       -5    1    3    3    0  502  0.74891896920E+03 -0.16580963660E+03 -0.14644244236E+04  0.16531586254E+04  0.46999998093E+01 0.  1.
</event>
<event>
 5   0  0.1385669E-05  0.2830164E+04  0.7818609E-02  0.8293964E-01
       -2   -1    0    0    0  501  0.00000000000E+00  0.00000000000E+00  0.91104327868E+03  0.91104327868E+03  0.25500000920E-02 0.  1.
        2   -1    0    0  501    0  0.00000000000E+00  0.00000000000E+00 -0.21979818191E+04  0.21979818191E+04  0.25500000920E-02 0. -1.
    10030    2    1    2    0    0  0.00000000000E+00  0.00000000000E+00 -0.12869385404E+04  0.31090250978E+04  0.28301636440E+04 0.  0.
        3    1    3    3  502    0  0.13682558439E+04  0.14037551035E+03 -0.10088483423E+04  0.17057562330E+04  0.10100000352E+00 0.  1.
       -3    1    3    3    0  502 -0.13682558439E+04 -0.14037551035E+03 -0.27809019812E+03  0.14032688648E+04  0.10100000352E+00 0. -1.
</event>
<event>
 5   0  0.1339837E-05  0.2895564E+04  0.7818609E-02  0.8274198E-01
       -2   -1    0    0    0  501  0.00000000000E+00  0.00000000000E+00  0.10115558739E+04  0.10115558739E+04  0.25500000920E-02 0.  1.
        2   -1    0    0  501    0  0.00000000000E+00  0.00000000000E+00 -0.20721279946E+04  0.20721279946E+04  0.25500000920E-02 0. -1.
    10030    2    1    2    0    0  0.00000000000E+00  0.00000000000E+00 -0.10605721207E+04  0.30836838685E+04  0.28955643626E+04 0.  0.
        5    1    3    3  502    0 -0.11684530126E+04 -0.76907490806E+03 -0.13281959844E+03  0.14051412002E+04  0.46999998093E+01 0.  1.
       -5    1    3    3    0  502  0.11684530126E+04  0.76907490806E+03 -0.92775252229E+03  0.16785426683E+04  0.46999998093E+01 0. -1.
</event>
<event>
 5   0  0.5059249E-06  0.1929124E+04  0.7818609E-02  0.8640494E-01
       -1   -1    0    0    0  501  0.00000000000E+00  0.00000000000E+00  0.10559893502E+04  0.10559893502E+04  0.50400001928E-02 0. -1.
        1   -1    0    0  501    0  0.00000000000E+00  0.00000000000E+00 -0.88105019269E+03  0.88105019271E+03  0.50400001928E-02 0.  1.
    10030    2    1    2    0    0  0.00000000000E+00  0.00000000000E+00  0.17493915746E+03  0.19370395429E+04  0.19291237601E+04 0.  0.
        1    1    3    3  502    0  0.29413221211E+03 -0.89838098096E+03 -0.10509187354E+03  0.95112903806E+03  0.50400001928E-02 0. -1.
       -1    1    3    3    0  502 -0.29413221211E+03  0.89838098096E+03  0.28003103100E+03  0.98591050481E+03  0.50400001928E-02 0.  1.
</event>
<event>
 5   0  0.5261878E-06  0.2914407E+04  0.7818609E-02  0.8268604E-01
       -1   -1    0    0    0  501  0.00000000000E+00  0.00000000000E+00  0.14083334247E+04  0.14083334247E+04  0.50400001928E-02 0. -1.
        1   -1    0    0  501    0  0.00000000000E+00  0.00000000000E+00 -0.15077691376E+04  0.15077691376E+04  0.50400001928E-02 0.  1.
    10030    2    1    2    0    0  0.00000000000E+00  0.00000000000E+00 -0.99435712965E+02  0.29161025623E+04  0.29144067480E+04 0.  0.
        5    1    3    3  502    0  0.47262872734E+03 -0.12159837831E+04 -0.69926822633E+03  0.14802001949E+04  0.46999998093E+01 0.  1.
       -5    1    3    3    0  502 -0.47262872734E+03  0.12159837831E+04  0.59983251337E+03  0.14359023674E+04  0.46999998093E+01 0. -1.
</event>
<event>
 5   0  0.5261878E-06  0.2888174E+04  0.7818609E-02  0.8276405E-01
        1   -1    0    0  501    0  0.00000000000E+00  0.00000000000E+00  0.12906498763E+04  0.12906498763E+04  0.50400001928E-02 0.  1.
       -1   -1    0    0    0  501  0.00000000000E+00  0.00000000000E+00 -0.16157650948E+04  0.16157650948E+04  0.50400001928E-02 0. -1.
    10030    2    1    2    0    0  0.00000000000E+00  0.00000000000E+00 -0.32511521849E+03  0.29064149711E+04  0.28881738311E+04 0.  0.
        5    1    3    3  502    0  0.17660471722E+03 -0.92164823749E+03  0.94198125049E+03  0.13296523854E+04  0.46999998093E+01 0.  1.
       -5    1    3    3    0  502 -0.17660471722E+03  0.92164823749E+03 -0.12670964690E+04  0.15767625857E+04  0.46999998093E+01 0. -1.
</event>
<event>
 5   0  0.1336899E-05  0.1878246E+04  0.7818609E-02  0.8665761E-01
        2   -1    0    0  501    0  0.00000000000E+00  0.00000000000E+00  0.84939655914E+03  0.84939655915E+03  0.25500000920E-02 0. -1.
       -2   -1    0    0    0  501  0.00000000000E+00  0.00000000000E+00 -0.10383275940E+04  0.10383275940E+04  0.25500000920E-02 0.  1.
    10030    2    1    2    0    0  0.00000000000E+00  0.00000000000E+00 -0.18893103482E+03  0.18877241531E+04  0.18782458684E+04 0.  0.
        1    1    3    3  502    0  0.35007905275E+03 -0.84278570390E+03 -0.31718886729E+03  0.96615312629E+03  0.50400001928E-02 0. -1.
       -1    1    3    3    0  502 -0.35007905275E+03  0.84278570390E+03  0.12825783247E+03  0.92157102683E+03  0.50400001928E-02 0.  1.
</event>
<event>
 5   0  0.1336899E-05  0.2548298E+04  0.7818609E-02  0.8385978E-01
        2   -1    0    0  501    0  0.00000000000E+00  0.00000000000E+00  0.15693739801E+04  0.15693739801E+04  0.25500000920E-02 0. -1.
       -2   -1    0    0    0  501  0.00000000000E+00  0.00000000000E+00 -0.10344604193E+04  0.10344604193E+04  0.25500000920E-02 0.  1.
    10030    2    1    2    0    0  0.00000000000E+00  0.00000000000E+00  0.53491356081E+03  0.26038343993E+04  0.25482976792E+04 0.  0.
        1    1    3    3  502    0  0.49832229750E+03 -0.82658187626E+03 -0.58247198945E+03  0.11273137668E+04  0.50400001928E-02 0. -1.
       -1    1    3    3    0  502 -0.49832229750E+03  0.82658187626E+03  0.11173855503E+04  0.14765206325E+04  0.50400001928E-02 0.  1.
</event>
<event>
 5   0  0.5002240E-06  0.2880359E+04  0.7818609E-02  0.8278745E-01
       -1   -1    0    0    0  501  0.00000000000E+00  0.00000000000E+00  0.12432985623E+04  0.12432985623E+04  0.50400001928E-02 0. -1.
        1   -1    0    0  501    0  0.00000000000E+00  0.00000000000E+00 -0.16682375801E+04  0.16682375802E+04  0.50400001928E-02 0.  1.
    10030    2    1    2    0    0  0.00000000000E+00  0.00000000000E+00 -0.42493901782E+03  0.29115361425E+04  0.28803592728E+04 0.  0.
        4    1    3    3  502    0 -0.62498021273E+02  0.36319600555E+03 -0.16197667822E+04  0.16611632619E+04  0.12699999809E+01 0.  1.
       -4    1    3    3    0  502  0.62498021273E+02 -0.36319600555E+03  0.11948277644E+04  0.12503728806E+04  0.12699999809E+01 0. -1.
</event>
<event>
 5   0  0.1382803E-05  0.2900194E+04  0.7818609E-02  0.8272820E-01
        2   -1    0    0  501    0  0.00000000000E+00  0.00000000000E+00  0.18375068374E+04  0.18375068374E+04  0.25500000920E-02 0. -1.
       -2   -1    0    0    0  501  0.00000000000E+00  0.00000000000E+00 -0.11443661773E+04  0.11443661773E+04  0.25500000920E-02 0.  1.
    10030    2    1    2    0    0  0.00000000000E+00  0.00000000000E+00  0.69314066007E+03  0.29818730146E+04  0.29001935626E+04 0.  0.
        2    1    3    3  502    0  0.10097674886E+04  0.32449271619E+03 -0.67014492560E+03  0.12545995876E+04  0.25500000920E-02 0.  1.
       -2    1    3    3    0  502 -0.10097674886E+04 -0.32449271619E+03  0.13632855857E+04  0.17272734271E+04  0.25500000920E-02 0. -1.
</event>
<event>
 5   0  0.5261878E-06  0.2891043E+04  0.7818609E-02  0.8275547E-01
       -1   -1    0    0    0  501  0.00000000000E+00  0.00000000000E+00  0.27466122346E+04  0.27466122346E+04  0.50400001928E-02 0. -1.
        1   -1    0    0  501    0  0.00000000000E+00  0.00000000000E+00 -0.76076721526E+03  0.76076721527E+03  0.50400001928E-02 0.  1.
    10030    2    1    2    0    0  0.00000000000E+00  0.00000000000E+00  0.19858450194E+04  0.35073794499E+04  0.28910430928E+04 0.  0.
        5    1    3    3  502    0 -0.43400947686E+03 -0.32136746591E+03 -0.63377660890E+03  0.83266809362E+03  0.46999998093E+01 0.  1.
       -5    1    3    3    0  502  0.43400947686E+03  0.32136746591E+03  0.26196216283E+04  0.26747113563E+04  0.46999998093E+01 0. -1.
</event>
<event>
 5   0  0.1339837E-05  0.2946274E+04  0.7818609E-02  0.8259241E-01
        2   -1    0    0  501    0  0.00000000000E+00  0.00000000000E+00  0.11990837351E+04  0.11990837351E+04  0.25500000920E-02 0. -1.
       -2   -1    0    0    0  501  0.00000000000E+00  0.00000000000E+00 -0.18098257015E+04  0.18098257015E+04  0.25500000920E-02 0.  1.
    10030    2    1    2    0    0  0.00000000000E+00  0.00000000000E+00 -0.61074196632E+03  0.30089094366E+04  0.29462739601E+04 0.  0.
        5    1    3    3  502    0 -0.51438725625E+03 -0.11767004317E+04 -0.10424430702E+04  0.16540640253E+04  0.46999998093E+01 0.  1.
       -5    1    3    3    0  502  0.51438725625E+03  0.11767004317E+04  0.43170110385E+03  0.13548454113E+04  0.46999998093E+01 0. -1.
</event>
<event>
 5   0  0.1339837E-05  0.2871088E+04  0.7818609E-02  0.8281532E-01
        2   -1    0    0  501    0  0.00000000000E+00  0.00000000000E+00  0.20405448407E+04  0.20405448407E+04  0.25500000920E-02 0. -1.
       -2   -1    0    0    0  501  0.00000000000E+00  0.00000000000E+00 -0.10099198727E+04  0.10099198727E+04  0.25500000920E-02 0.  1.
    10030    2    1    2    0    0  0.00000000000E+00  0.00000000000E+00  0.10306249680E+04  0.30504647134E+04  0.28710881461E+04 0.  0.
        5    1    3    3  502    0  0.51565362918E+03  0.13382755790E+04  0.44909276709E+03  0.15028594725E+04  0.46999998093E+01 0. -1.
       -5    1    3    3    0  502 -0.51565362918E+03 -0.13382755790E+04  0.58153220089E+03  0.15476052408E+04  0.46999998093E+01 0.  1.
</event>
<event>
 5   0  0.5059249E-06  0.2923143E+04  0.7818609E-02  0.8266025E-01
        1   -1    0    0  501    0  0.00000000000E+00  0.00000000000E+00  0.12533211017E+04  0.12533211017E+04  0.50400001928E-02 0.  1.
       -1   -1    0    0    0  501  0.00000000000E+00  0.00000000000E+00 -0.17044243512E+04  0.17044243512E+04  0.50400001928E-02 0. -1.
    10030    2    1    2    0    0  0.00000000000E+00  0.00000000000E+00 -0.45110324949E+03  0.29577454529E+04  0.29231428331E+04 0.  0.
        1    1    3    3  502    0  0.10348309267E+04  0.57783331629E+03 -0.10909090912E+04  0.16108535109E+04  0.50400001928E-02 0. -1.
       -1    1    3    3    0  502 -0.10348309267E+04 -0.57783331629E+03  0.63980584171E+03  0.13468919420E+04  0.50400001928E-02 0.  1.
</event>
<event>
 5   0  0.5002240E-06  0.2713332E+04  0.7818609E-02  0.8330692E-01
       -1   -1    0    0    0  501  0.00000000000E+00  0.00000000000E+00  0.10101059230E+04  0.10101059230E+04  0.50400001928E-02 0.  1.
        1   -1    0    0  501    0  0.00000000000E+00  0.00000000000E+00 -0.18221285548E+04  0.18221285548E+04  0.50400001928E-02 0. -1.
    10030    2    1    2    0    0  0.00000000000E+00  0.00000000000E+00 -0.81202263181E+03  0.28322344778E+04  0.27133321549E+04 0.  0.
        4    1    3    3  502    0 -0.12705947119E+04 -0.33994532823E+03 -0.75309960352E+03  0.15156300254E+04  0.12699999809E+01 0. -1.
       -4    1    3    3    0  502  0.12705947119E+04  0.33994532823E+03 -0.58923028293E+02  0.13166044525E+04  0.12699999809E+01 0.  1.
</event>
<event>
 5   0  0.1385669E-05  0.2906507E+04  0.7818609E-02  0.8270944E-01
        2   -1    0    0  501    0  0.00000000000E+00  0.00000000000E+00  0.25801750778E+04  0.25801750778E+04  0.25500000920E-02 0.  1.
       -2   -1    0    0    0  501  0.00000000000E+00  0.00000000000E+00 -0.81852815622E+03  0.81852815622E+03  0.25500000920E-02 0. -1.
    10030    2    1    2    0    0  0.00000000000E+00  0.00000000000E+00  0.17616469216E+04  0.33987032340E+04  0.29065071472E+04 0.  0.
        3    1    3    3  502    0 -0.47239886587E+02  0.57999982428E+03 -0.67634190818E+03  0.89222743177E+03  0.10100000352E+00 0. -1.
       -3    1    3    3    0  502  0.47239886587E+02 -0.57999982428E+03  0.24379888298E+04  0.25064758023E+04  0.10100000352E+00 0.  1.
</event>
<event>
 5   0  0.1336899E-05  0.2972503E+04  0.7818609E-02  0.8251627E-01
        2   -1    0    0  501    0  0.00000000000E+00  0.00000000000E+00  0.14453422216E+04  0.14453422216E+04  0.25500000920E-02 0. -1.
       -2   -1    0    0    0  501  0.00000000000E+00  0.00000000000E+00 -0.15283184370E+04  0.15283184370E+04  0.25500000920E-02 0.  1.
    10030    2    1    2    0    0  0.00000000000E+00  0.00000000000E+00 -0.82976215400E+02  0.29736606585E+04  0.29725027603E+04 0.  0.
        1    1    3    3  502    0 -0.80421681018E+03  0.72361640160E+03 -0.10609816390E+04  0.15152779985E+04  0.50400001928E-02 0.  1.
       -1    1    3    3    0  502  0.80421681018E+03 -0.72361640160E+03  0.97800542360E+03  0.14583826600E+04  0.50400001928E-02 0. -1.
</event>
<event>
 5   0  0.1339837E-05  0.2899817E+04  0.7818609E-02  0.8272932E-01
       -2   -1    0    0    0  501  0.00000000000E+00  0.00000000000E+00  0.22459525197E+04  0.22459525197E+04  0.25500000920E-02 0. -1.
        2   -1    0    0  501    0  0.00000000000E+00  0.00000000000E+00 -0.93601032570E+03  0.93601032571E+03  0.25500000920E-02 0.  1.
    10030    2    1    2    0    0  0.00000000000E+00  0.00000000000E+00  0.13099421940E+04  0.31819628454E+04  0.28998170628E+04 0.  0.
        5    1    3    3  502    0 -0.61966819305E+02  0.71358540905E+02 -0.93261848807E+03  0.93740666861E+03  0.46999998093E+01 0.  1.
       -5    1    3    3    0  502  0.61966819305E+02 -0.71358540905E+02  0.22425606820E+04  0.22445561768E+04  0.46999998093E+01 0. -1.
</event>
<event>
 5   0  0.1339837E-05  0.1800808E+04  0.7818609E-02  0.8705870E-01
        2   -1    0    0  501    0  0.00000000000E+00  0.00000000000E+00  0.18984209739E+04  0.18984209739E+04  0.25500000920E-02 0. -1.
       -2   -1    0    0    0  501  0.00000000000E+00  0.00000000000E+00 -0.42705356121E+03  0.42705356122E+03  0.25500000920E-02 0.  1.
    10030    2    1    2    0    0  0.00000000000E+00  0.00000000000E+00  0.14713674127E+04  0.23254745351E+04  0.18008080826E+04 0.  0.
        5    1    3    3  502    0  0.44599015839E+03 -0.59274444765E+03  0.76649241550E+02  0.74575491807E+03  0.46999998093E+01 0.  1.
       -5    1    3    3    0  502 -0.44599015839E+03  0.59274444765E+03  0.13947181711E+04  0.15797196171E+04  0.46999998093E+01 0. -1.
</event>
<event>
 5   0  0.1385669E-05  0.2874274E+04  0.7818609E-02  0.8280573E-01
        2   -1    0    0  501    0  0.00000000000E+00  0.00000000000E+00  0.17848842813E+04  0.17848842813E+04  0.25500000920E-02 0.  1.
       -2   -1    0    0    0  501  0.00000000000E+00  0.00000000000E+00 -0.11571413871E+04  0.11571413871E+04  0.25500000920E-02 0. -1.
    10030    2    1    2    0    0  0.00000000000E+00  0.00000000000E+00  0.62774289423E+03  0.29420256685E+04  0.28742744985E+04 0.  0.
        3    1    3    3  502    0  0.45690178717E+03 -0.11241361685E+04 -0.47429334891E+03  0.13028413409E+04  0.10100000352E+00 0. -1.
       -3    1    3    3    0  502 -0.45690178717E+03  0.11241361685E+04  0.11020362431E+04  0.16391843276E+04  0.10100000352E+00 0.  1.
</event>
<event>
 5   0  0.1307832E-05  0.2316751E+04  0.7818609E-02  0.8471346E-01
       -2   -1    0    0    0  501  0.00000000000E+00  0.00000000000E+00  0.56778977262E+03  0.56778977263E+03  0.25500000920E-02 0.  1.
        2   -1    0    0  501    0  0.00000000000E+00  0.00000000000E+00 -0.23632575350E+04  0.23632575350E+04  0.25500000920E-02 0. -1.
    10030    2    1    2    0    0  0.00000000000E+00  0.00000000000E+00 -0.17954677624E+04  0.29310473076E+04  0.23167507060E+04 0.  0.
        4    1    3    3  502    0  0.55142792764E+03  0.28826150994E+03 -0.21338773688E+04  0.22227464308E+04  0.12699999809E+01 0. -1.
       -4    1    3    3    0  502 -0.55142792764E+03 -0.28826150994E+03  0.33840960645E+03  0.70830087684E+03  0.12699999809E+01 0.  1.
</event>
<event>
 5   0  0.5261878E-06  0.2818143E+04  0.7818609E-02  0.8297658E-01
       -1   -1    0    0    0  501  0.00000000000E+00  0.00000000000E+00  0.18849221008E+04  0.18849221008E+04  0.50400001928E-02 0.  1.
        1   -1    0    0  501    0  0.00000000000E+00  0.00000000000E+00 -0.10533495966E+04  0.10533495966E+04  0.50400001928E-02 0. -1.
    10030    2    1    2    0    0  0.00000000000E+00  0.00000000000E+00  0.83157250421E+03  0.29382716974E+04  0.28181426043E+04 0.  0.
        5    1    3    3  502    0 -0.13593493444E+04 -0.25884465500E+03  0.69287534802E+03  0.15475559872E+04  0.46999998093E+01 0.  1.
       -5    1    3    3    0  502  0.13593493444E+04  0.25884465500E+03  0.13869715619E+03  0.13907157102E+04  0.46999998093E+01 0. -1.
</event>
<event>
 5   0  0.1385669E-05  0.2880080E+04  0.7818609E-02  0.8278829E-01
       -2   -1    0    0    0  501  0.00000000000E+00  0.00000000000E+00  0.92436870332E+03  0.92436870332E+03  0.25500000920E-02 0.  1.
        2   -1    0    0  501    0  0.00000000000E+00  0.00000000000E+00 -0.22433857628E+04  0.22433857628E+04  0.25500000920E-02 0. -1.
    10030    2    1    2    0    0  0.00000000000E+00  0.00000000000E+00 -0.13190170594E+04  0.31677544661E+04  0.28800802687E+04 0.  0.
        3    1    3    3  502    0 -0.19819149144E+03  0.50584886700E+03 -0.21263402100E+04  0.21946493211E+04  0.10100000352E+00 0. -1.
       -3    1    3    3    0  502  0.19819149144E+03 -0.50584886700E+03  0.80732315060E+03  0.97310514499E+03  0.10100000352E+00 0.  1.
</event>
<event>
 5   0  0.1307832E-05  0.2884179E+04  0.7818609E-02  0.8277600E-01
       -2   -1    0    0    0  501  0.00000000000E+00  0.00000000000E+00  0.95195438801E+03  0.95195438801E+03  0.25500000920E-02 0. -1.
        2   -1    0    0  501    0  0.00000000000E+00  0.00000000000E+00 -0.21845811768E+04  0.21845811768E+04  0.25500000920E-02 0.  1.
    10030    2    1    2    0    0  0.00000000000E+00  0.00000000000E+00 -0.12326267888E+04  0.31365355648E+04  0.28841786611E+04 0.  0.
        4    1    3    3  502    0  0.13996570626E+04  0.22902518719E+03 -0.90016384364E+03  0.16798181412E+04  0.12699999809E+01 0.  1.
       -4    1    3    3    0  502 -0.13996570626E+04 -0.22902518719E+03 -0.33246294515E+03  0.14567174236E+04  0.12699999809E+01 0. -1.
</event>
<event>
 5   0  0.1336899E-05  0.2910008E+04  0.7818609E-02  0.8269906E-01
        2   -1    0    0  501    0  0.00000000000E+00  0.00000000000E+00  0.27178416182E+04  0.27178416182E+04  0.25500000920E-02 0. -1.
       -2   -1    0    0    0  501  0.00000000000E+00  0.00000000000E+00 -0.77894038972E+03  0.77894038973E+03  0.25500000920E-02 0.  1.
    10030    2    1    2    0    0  0.00000000000E+00  0.00000000000E+00  0.19389012285E+04  0.34967820079E+04  0.29100079789E+04 0.  0.
        1    1    3    3  502    0 -0.83115609538E+03  0.43348241805E+03 -0.36772645279E+03  0.10069509451E+04  0.50400001928E-02 0.  1.
       -1    1    3    3    0  502  0.83115609538E+03 -0.43348241805E+03  0.23066276812E+04  0.24898310629E+04  0.50400001928E-02 0. -1.
</event>
<event>
 5   0  0.5002240E-06  0.2227893E+04  0.7818609E-02  0.8506907E-01
       -1   -1    0    0    0  501  0.00000000000E+00  0.00000000000E+00  0.11602375410E+04  0.11602375410E+04  0.50400001928E-02 0. -1.
        1   -1    0    0  501    0  0.00000000000E+00  0.00000000000E+00 -0.10695022769E+04  0.10695022769E+04  0.50400001928E-02 0.  1.
    10030    2    1    2    0    0  0.00000000000E+00  0.00000000000E+00  0.90735264102E+02  0.22297398180E+04  0.22278928986E+04 0.  0.
        4    1    3    3  502    0 -0.23696470909E+03 -0.79642290109E+03 -0.69715937969E+03  0.10846541035E+04  0.12699999809E+01 0.  1.
       -4    1    3    3    0  502  0.23696470909E+03  0.79642290109E+03  0.78789464379E+03  0.11450857144E+04  0.12699999809E+01 0. -1.
</event>
<event>
 5   0  0.1385669E-05  0.2121025E+04  0.7818609E-02  0.8552038E-01
       -2   -1    0    0    0  501  0.00000000000E+00  0.00000000000E+00  0.12951793305E+04  0.12951793305E+04  0.25500000920E-02 0.  1.
        2   -1    0    0  501    0  0.00000000000E+00  0.00000000000E+00 -0.86836356693E+03  0.86836356693E+03  0.25500000920E-02 0. -1.
    10030    2    1    2    0    0  0.00000000000E+00  0.00000000000E+00  0.42681576352E+03  0.21635428974E+04  0.21210247931E+04 0.  0.
        3    1    3    3  502    0 -0.20281571359E+03  0.10294829436E+04  0.56316859514E+02  0.10507811112E+04  0.10100000352E+00 0. -1.
       -3    1    3    3    0  502  0.20281571359E+03 -0.10294829436E+04  0.37049890401E+03  0.11127617862E+04  0.10100000352E+00 0.  1.
</event>
<event>
 5   0  0.1339837E-05  0.2654818E+04  0.7818609E-02  0.8349816E-01
        2   -1    0    0  501    0  0.00000000000E+00  0.00000000000E+00  0.19682911153E+04  0.19682911153E+04  0.25500000920E-02 0. -1.
       -2   -1    0    0    0  501  0.00000000000E+00  0.00000000000E+00 -0.89520035910E+03  0.89520035911E+03  0.25500000920E-02 0.  1.
    10030    2    1    2    0    0  0.00000000000E+00  0.00000000000E+00  0.10730907562E+04  0.28634914744E+04  0.26548181958E+04 0.  0.
        5    1    3    3  502    0 -0.95952590373E+03 -0.15187073674E+03 -0.43912016836E+03  0.10661159847E+04  0.46999998093E+01 0.  1.
       -5    1    3    3    0  502  0.95952590373E+03  0.15187073674E+03  0.15122109246E+04  0.17973754897E+04  0.46999998093E+01 0. -1.
</event>
<event>
 5   0  0.5154476E-06  0.2782513E+04  0.7818609E-02  0.8308718E-01
       -1   -1    0    0    0  501  0.00000000000E+00  0.00000000000E+00  0.17012654574E+04  0.17012654574E+04  0.50400001928E-02 0. -1.
        1   -1    0    0  501    0  0.00000000000E+00  0.00000000000E+00 -0.11377378518E+04  0.11377378518E+04  0.50400001928E-02 0.  1.
    10030    2    1    2    0    0  0.00000000000E+00  0.00000000000E+00  0.56352760566E+03  0.28390033092E+04  0.27825126104E+04 0.  0.
        3    1    3    3  502    0  0.61793039618E+03 -0.12307705857E+04  0.48315366498E+03  0.14594765100E+04  0.10100000352E+00 0. -1.
       -3    1    3    3    0  502 -0.61793039618E+03  0.12307705857E+04  0.80373940679E+02  0.13795267992E+04  0.10100000352E+00 0.  1.
</event>
<event>
 5   0  0.4590125E-06  0.2874643E+04  0.7818609E-02  0.8280462E-01
        3   -1    0    0  501    0  0.00000000000E+00  0.00000000000E+00  0.15392311148E+04  0.15392311181E+04  0.10100000352E+00 0. -1.
       -3   -1    0    0    0  501  0.00000000000E+00  0.00000000000E+00 -0.13421591861E+04  0.13421591899E+04  0.10100000352E+00 0.  1.
    10030    2    1    2    0    0  0.00000000000E+00  0.00000000000E+00  0.19707192866E+03  0.28813903080E+04  0.28746430669E+04 0.  0.
        3    1    3    3  502    0  0.84940082188E+03 -0.71814532525E+03 -0.81391861582E+03  0.13782880641E+04  0.10100000352E+00 0.  1.
       -3    1    3    3    0  502 -0.84940082188E+03  0.71814532525E+03  0.10109905445E+04  0.15031022439E+04  0.10100000352E+00 0. -1.
</event>
<event>
 5   0  0.5002240E-06  0.2872355E+04  0.7818609E-02  0.8281151E-01
       -1   -1    0    0    0  501  0.00000000000E+00  0.00000000000E+00  0.14213288009E+04  0.14213288009E+04  0.50400001928E-02 0. -1.
        1   -1    0    0  501    0  0.00000000000E+00  0.00000000000E+00 -0.14511809152E+04  0.14511809152E+04  0.50400001928E-02 0.  1.
    10030    2    1    2    0    0  0.00000000000E+00  0.00000000000E+00 -0.29852114325E+02  0.28725097161E+04  0.28723545952E+04 0.  0.
        4    1    3    3  502    0 -0.30144394892E+03  0.50953138004E+03 -0.13234740560E+04  0.14498537414E+04  0.12699999809E+01 0.  1.
       -4    1    3    3    0  502  0.30144394892E+03 -0.50953138004E+03  0.12936219417E+04  0.14226559747E+04  0.12699999809E+01 0. -1.
</event>
<event>
 5   0  0.1307832E-05  0.2908558E+04  0.7818609E-02  0.8270336E-01
       -2   -1    0    0    0  501  0.00000000000E+00  0.00000000000E+00  0.16813436707E+04  0.16813436707E+04  0.25500000920E-02 0. -1.
        2   -1    0    0  501    0  0.00000000000E+00  0.00000000000E+00 -0.12578789260E+04  0.12578789260E+04  0.25500000920E-02 0.  1.
    10030    2    1    2    0    0  0.00000000000E+00  0.00000000000E+00  0.42346474473E+03  0.29392225967E+04  0.29085575605E+04 0.  0.
        4    1    3    3  502    0  0.10463916595E+04  0.53617973060E+03 -0.65315371448E+03  0.13450039391E+04  0.12699999809E+01 0.  1.
       -4    1    3    3    0  502 -0.10463916595E+04 -0.53617973060E+03  0.10766184592E+04  0.15942186576E+04  0.12699999809E+01 0. -1.
</event>
<event>
 5   0  0.5154476E-06  0.2897402E+04  0.7818609E-02  0.8273651E-01
        1   -1    0    0  501    0  0.00000000000E+00  0.00000000000E+00  0.21024977640E+04  0.21024977640E+04  0.50400001928E-02 0. -1.
       -1   -1    0    0    0  501  0.00000000000E+00  0.00000000000E+00 -0.99821013844E+03  0.99821013846E+03  0.50400001928E-02 0.  1.
    10030    2    1    2    0    0  0.00000000000E+00  0.00000000000E+00  0.11042876256E+04  0.31007079025E+04  0.28974019977E+04 0.  0.
        3    1    3    3  502    0  0.38673064800E+03  0.56312697783E+03 -0.81501959397E+03  0.10634517084E+04  0.10100000352E+00 0.  1.
       -3    1    3    3    0  502 -0.38673064800E+03 -0.56312697783E+03  0.19193072195E+04  0.20372561941E+04  0.10100000352E+00 0. -1.
</event>
<event>
 5   0  0.1339837E-05  0.2795403E+04  0.7818609E-02  0.8304697E-01
       -2   -1    0    0    0  501  0.00000000000E+00  0.00000000000E+00  0.11957938564E+04  0.11957938564E+04  0.25500000920E-02 0. -1.
        2   -1    0    0  501    0  0.00000000000E+00  0.00000000000E+00 -0.16337014327E+04  0.16337014327E+04  0.25500000920E-02 0.  1.
    10030    2    1    2    0    0  0.00000000000E+00  0.00000000000E+00 -0.43790757622E+03  0.28294952891E+04  0.27954034674E+04 0.  0.
        5    1    3    3  502    0  0.47182953785E+03 -0.11909273322E+04 -0.78489430510E+03  0.15023355762E+04  0.46999998093E+01 0.  1.
       -5    1    3    3    0  502 -0.47182953785E+03  0.11909273322E+04  0.34698672888E+03  0.13271597129E+04  0.46999998093E+01 0. -1.
</event>
<event>
 5   0  0.1382803E-05  0.2796073E+04  0.7818609E-02  0.8304489E-01
       -2   -1    0    0    0  501  0.00000000000E+00  0.00000000000E+00  0.28202405863E+04  0.28202405863E+04  0.25500000920E-02 0. -1.
        2   -1    0    0  501    0  0.00000000000E+00  0.00000000000E+00 -0.69302820161E+03  0.69302820161E+03  0.25500000920E-02 0.  1.
    10030    2    1    2    0    0  0.00000000000E+00  0.00000000000E+00  0.21272123847E+04  0.35132687879E+04  0.27960731476E+04 0.  0.
        2    1    3    3  502    0  0.16885443331E+03  0.47244912226E+03 -0.57601271739E+03  0.76387868367E+03  0.25500000920E-02 0.  1.
       -2    1    3    3    0  502 -0.16885443331E+03 -0.47244912226E+03  0.27032251021E+04  0.27493901042E+04  0.25500000920E-02 0. -1.
</event>
<event>
 5   0  0.1339837E-05  0.2887155E+04  0.7818609E-02  0.8276709E-01
       -2   -1    0    0    0  501  0.00000000000E+00  0.00000000000E+00  0.12965442333E+04  0.12965442333E+04  0.25500000920E-02 0. -1.
        2   -1    0    0  501    0  0.00000000000E+00  0.00000000000E+00 -0.16072852566E+04  0.16072852566E+04  0.25500000920E-02 0.  1.
    10030    2    1    2    0    0  0.00000000000E+00  0.00000000000E+00 -0.31074102328E+03  0.29038294899E+04  0.28871552994E+04 0.  0.
        5    1    3    3  502    0  0.39122083146E+03  0.12834920136E+03  0.12362267821E+04  0.13029988501E+04  0.46999998093E+01 0. -1.
       -5    1    3    3    0  502 -0.39122083146E+03 -0.12834920136E+03 -0.15469678054E+04  0.16008306398E+04  0.46999998093E+01 0.  1.
</event>
<event>
 5   0  0.5154476E-06  0.2829027E+04  0.7818609E-02  0.8294313E-01
       -1   -1    0    0    0  501  0.00000000000E+00  0.00000000000E+00  0.74342064906E+03  0.74342064908E+03  0.50400001928E-02 0.  1.
        1   -1    0    0  501    0  0.00000000000E+00  0.00000000000E+00 -0.26914081377E+04  0.26914081377E+04  0.50400001928E-02 0. -1.
    10030    2    1    2    0    0  0.00000000000E+00  0.00000000000E+00 -0.19479874887E+04  0.34348287868E+04  0.28290269597E+04 0.  0.
        3    1    3    3  502    0  0.36193862446E+03 -0.11836432060E+03 -0.26280037050E+04  0.26554497103E+04  0.10100000352E+00 0. -1.
       -3    1    3    3    0  502 -0.36193862446E+03  0.11836432060E+03  0.68001621632E+03  0.77937907652E+03  0.10100000352E+00 0.  1.
</event>
<event>
 5   0  0.5002240E-06  0.2927200E+04  0.7818609E-02  0.8264830E-01
       -1   -1    0    0    0  501  0.00000000000E+00  0.00000000000E+00  0.13143512472E+04  0.13143512472E+04  0.50400001928E-02 0.  1.
        1   -1    0    0  501    0  0.00000000000E+00  0.00000000000E+00 -0.16297963600E+04  0.16297963600E+04  0.50400001928E-02 0. -1.
    10030    2    1    2    0    0  0.00000000000E+00  0.00000000000E+00 -0.31544511282E+03  0.29441476072E+04  0.29271999443E+04 0.  0.
        4    1    3    3  502    0  0.77001462698E+03  0.39308500039E+03  0.10300827049E+04  0.13448086611E+04  0.12699999809E+01 0.  1.
       -4    1    3    3    0  502 -0.77001462698E+03 -0.39308500039E+03 -0.13455278177E+04  0.15993389461E+04  0.12699999809E+01 0. -1.
</event>
<event>
 5   0  0.1385669E-05  0.2921011E+04  0.7818609E-02  0.8266654E-01
        2   -1    0    0  501    0  0.00000000000E+00  0.00000000000E+00  0.30684878629E+04  0.30684878629E+04  0.25500000920E-02 0.  1.
       -2   -1    0    0    0  501  0.00000000000E+00  0.00000000000E+00 -0.69515535200E+03  0.69515535200E+03  0.25500000920E-02 0. -1.
    10030    2    1    2    0    0  0.00000000000E+00  0.00000000000E+00  0.23733325109E+04  0.37636432150E+04  0.29210106200E+04 0.  0.
        3    1    3    3  502    0  0.30462269597E+03 -0.88281876172E+03  0.26334967864E+04  0.27941849057E+04  0.10100000352E+00 0.  1.
       -3    1    3    3    0  502 -0.30462269597E+03  0.88281876172E+03 -0.26016427547E+03  0.96945830925E+03  0.10100000352E+00 0. -1.
</event>
<event>
 5   0  0.5352212E-06  0.2899265E+04  0.7818609E-02  0.8273096E-01
        1   -1    0    0  501    0  0.00000000000E+00  0.00000000000E+00  0.14573738913E+04  0.14573738913E+04  0.50400001928E-02 0. -1.
       -1   -1    0    0    0  501  0.00000000000E+00  0.00000000000E+00 -0.14419326573E+04  0.14419326573E+04  0.50400001928E-02 0.  1.
    10030    2    1    2    0    0  0.00000000000E+00  0.00000000000E+00  0.15441234015E+02  0.28993065487E+04  0.28992654296E+04 0.  0.
        2    1    3    3  502    0  0.87314592162E+03  0.11565261759E+04  0.46430489846E+02  0.14498594368E+04  0.25500000920E-02 0. -1.
       -2    1    3    3    0  502 -0.87314592162E+03 -0.11565261759E+04 -0.30989255831E+02  0.14494471119E+04  0.25500000920E-02 0.  1.
</event>
<event>
 5   0  0.1307832E-05  0.2898841E+04  0.7818609E-02  0.8273222E-01
       -2   -1    0    0    0  501  0.00000000000E+00  0.00000000000E+00  0.20428338941E+04  0.20428338941E+04  0.25500000920E-02 0.  1.
        2   -1    0    0  501    0  0.00000000000E+00  0.00000000000E+00 -0.10283847911E+04  0.10283847911E+04  0.25500000920E-02 0. -1.
    10030    2    1    2    0    0  0.00000000000E+00  0.00000000000E+00  0.10144491030E+04  0.30712186852E+04  0.28988406700E+04 0.  0.
        4    1    3    3  502    0  0.12553804866E+04 -0.63631531420E+03  0.14030652363E+03  0.14144132630E+04  0.12699999809E+01 0. -1.
       -4    1    3    3    0  502 -0.12553804866E+04  0.63631531420E+03  0.87414257938E+03  0.16568054222E+04  0.12699999809E+01 0.  1.
</event>
<event>
 5   0  0.5002240E-06  0.2828142E+04  0.7818609E-02  0.8294584E-01
       -1   -1    0    0    0  501  0.00000000000E+00  0.00000000000E+00  0.13050634099E+04  0.13050634099E+04  0.50400001928E-02 0. -1.
        1   -1    0    0  501    0  0.00000000000E+00  0.00000000000E+00 -0.15321838765E+04  0.15321838765E+04  0.50400001928E-02 0.  1.
    10030    2    1    2    0    0  0.00000000000E+00  0.00000000000E+00 -0.22712046660E+03  0.28372472863E+04  0.28281422272E+04 0.  0.
        4    1    3    3  502    0  0.10881149496E+04  0.88171173154E+03  0.82480707451E+02  0.14029306473E+04  0.12699999809E+01 0.  1.
       -4    1    3    3    0  502 -0.10881149496E+04 -0.88171173154E+03 -0.30960117405E+03  0.14343166390E+04  0.12699999809E+01 0. -1.
</event>
<event>
 5   0  0.5059249E-06  0.2892679E+04  0.7818609E-02  0.8275059E-01
       -1   -1    0    0    0  501  0.00000000000E+00  0.00000000000E+00  0.80568382231E+03  0.80568382232E+03  0.50400001928E-02 0.  1.
        1   -1    0    0  501    0  0.00000000000E+00  0.00000000000E+00 -0.25964255612E+04  0.25964255612E+04  0.50400001928E-02 0. -1.
    10030    2    1    2    0    0  0.00000000000E+00  0.00000000000E+00 -0.17907417389E+04  0.34021093835E+04  0.28926790838E+04 0.  0.
        1    1    3    3  502    0 -0.89701539396E+03  0.10775006268E+04 -0.47747282644E+03  0.14810889635E+04  0.50400001928E-02 0.  1.
       -1    1    3    3    0  502  0.89701539396E+03 -0.10775006268E+04 -0.13132689125E+04  0.19210204200E+04  0.50400001928E-02 0. -1.
</event>
<event>
 5   0  0.5261878E-06  0.2793673E+04  0.7818609E-02  0.8305235E-01
        1   -1    0    0  501    0  0.00000000000E+00  0.00000000000E+00  0.16392119426E+04  0.16392119426E+04  0.50400001928E-02 0. -1.
       -1   -1    0    0    0  501  0.00000000000E+00  0.00000000000E+00 -0.11902988007E+04  0.11902988007E+04  0.50400001928E-02 0.  1.
    10030    2    1    2    0    0  0.00000000000E+00  0.00000000000E+00  0.44891314191E+03  0.28295107433E+04  0.27936728580E+04 0.  0.
        5    1    3    3  502    0  0.10588621857E+04  0.60140434716E+03 -0.46861225103E+03  0.13047972444E+04  0.46999998093E+01 0.  1.
       -5    1    3    3    0  502 -0.10588621857E+04 -0.60140434716E+03  0.91752539294E+03  0.15247134989E+04  0.46999998093E+01 0. -1.
</event>
<event>
 5   0  0.5154476E-06  0.2856864E+04  0.7818609E-02  0.8285829E-01
       -1   -1    0    0    0  501  0.00000000000E+00  0.00000000000E+00  0.12950265579E+04  0.12950265579E+04  0.50400001928E-02 0. -1.
        1   -1    0    0  501    0  0.00000000000E+00  0.00000000000E+00 -0.15755795838E+04  0.15755795838E+04  0.50400001928E-02 0.  1.
    10030    2    1    2    0    0  0.00000000000E+00  0.00000000000E+00 -0.28055302588E+03  0.28706061417E+04  0.28568635985E+04 0.  0.
        3    1    3    3  502    0 -0.12061611425E+04 -0.56284505203E+03 -0.66122794296E+03  0.14862172307E+04  0.10100000352E+00 0.  1.
       -3    1    3    3    0  502  0.12061611425E+04  0.56284505203E+03  0.38067491708E+03  0.13843889110E+04  0.10100000352E+00 0. -1.
</event>
<event>
 5   0  0.1382803E-05  0.2912973E+04  0.7818609E-02  0.8269028E-01
        2   -1    0    0  501    0  0.00000000000E+00  0.00000000000E+00  0.25988043759E+04  0.25988043759E+04  0.25500000920E-02 0. -1.
       -2   -1    0    0    0  501  0.00000000000E+00  0.00000000000E+00 -0.81628020988E+03  0.81628020988E+03  0.25500000920E-02 0.  1.
    10030    2    1    2    0    0  0.00000000000E+00  0.00000000000E+00  0.17825241660E+04  0.34150845857E+04  0.29129727643E+04 0.  0.
        2    1    3    3  502    0  0.94020199845E+03  0.27151379898E+03  0.21559308558E+04  0.23676438490E+04  0.25500000920E-02 0. -1.
       -2    1    3    3    0  502 -0.94020199845E+03 -0.27151379898E+03 -0.37340668980E+03  0.10474407367E+04  0.25500000920E-02 0.  1.
</event>
<event>
 5   0  0.5002240E-06  0.2884604E+04  0.7818609E-02  0.8277473E-01
       -1   -1    0    0    0  501  0.00000000000E+00  0.00000000000E+00  0.14075554557E+04  0.14075554557E+04  0.50400001928E-02 0.  1.
        1   -1    0    0  501    0  0.00000000000E+00  0.00000000000E+00 -0.14779060060E+04  0.14779060060E+04  0.50400001928E-02 0. -1.
    10030    2    1    2    0    0  0.00000000000E+00  0.00000000000E+00 -0.70350550286E+02  0.28854614618E+04  0.28846037245E+04 0.  0.
        4    1    3    3  502    0 -0.34592597448E+03 -0.10132430063E+03  0.13617719939E+04  0.14086717041E+04  0.12699999809E+01 0.  1.
       -4    1    3    3    0  502  0.34592597448E+03  0.10132430063E+03 -0.14321225442E+04  0.14767897576E+04  0.12699999809E+01 0. -1.
</event>
<event>
 5   0  0.1385669E-05  0.2841275E+04  0.7818609E-02  0.8290567E-01
       -2   -1    0    0    0  501  0.00000000000E+00  0.00000000000E+00  0.29360871510E+04  0.29360871510E+04  0.25500000920E-02 0.  1.
        2   -1    0    0  501    0  0.00000000000E+00  0.00000000000E+00 -0.68738113461E+03  0.68738113461E+03  0.25500000920E-02 0. -1.
    10030    2    1    2    0    0  0.00000000000E+00  0.00000000000E+00  0.22487060164E+04  0.36234682857E+04  0.28412750076E+04 0.  0.
        3    1    3    3  502    0 -0.61696156383E+03  0.18078593398E+03  0.27399508267E+04  0.28143659442E+04  0.10100000352E+00 0.  1.
       -3    1    3    3    0  502  0.61696156383E+03 -0.18078593398E+03 -0.49124481023E+03  0.80910234146E+03  0.10100000352E+00 0. -1.
</event>
<event>
 5   0  0.4590125E-06  0.2493252E+04  0.7818609E-02  0.8405394E-01
       -3   -1    0    0    0  501  0.00000000000E+00  0.00000000000E+00  0.11982821876E+04  0.11982821919E+04  0.10100000352E+00 0.  1.
        3   -1    0    0  501    0  0.00000000000E+00  0.00000000000E+00 -0.12969200389E+04  0.12969200428E+04  0.10100000352E+00 0. -1.
    10030    2    1    2    0    0  0.00000000000E+00  0.00000000000E+00 -0.98637851269E+02  0.24952022347E+04  0.24932518458E+04 0.  0.
        3    1    3    3  502    0  0.11042973202E+04 -0.39771872317E+03  0.37103753700E+03  0.12309840040E+04  0.10100000352E+00 0.  1.
       -3    1    3    3    0  502 -0.11042973202E+04  0.39771872317E+03 -0.46967538827E+03  0.12642182307E+04  0.10100000352E+00 0. -1.
</event>
<event>
 5   0  0.1307832E-05  0.2694235E+04  0.7818609E-02  0.8336878E-01
        2   -1    0    0  501    0  0.00000000000E+00  0.00000000000E+00  0.10208048233E+04  0.10208048233E+04  0.25500000920E-02 0.  1.
       -2   -1    0    0    0  501  0.00000000000E+00  0.00000000000E+00 -0.17777404125E+04  0.17777404125E+04  0.25500000920E-02 0. -1.
    10030    2    1    2    0    0  0.00000000000E+00  0.00000000000E+00 -0.75693558918E+03  0.27985452358E+04  0.26942353183E+04 0.  0.
        4    1    3    3  502    0 -0.73569511393E+03 -0.71197221876E+03 -0.12879065590E+04  0.16452527643E+04  0.12699999809E+01 0. -1.
       -4    1    3    3    0  502  0.73569511393E+03  0.71197221876E+03  0.53097096982E+03  0.11532924714E+04  0.12699999809E+01 0.  1.
</event>
<event>
 5   0  0.5059249E-06  0.2909009E+04  0.7818609E-02  0.8270202E-01
        1   -1    0    0  501    0  0.00000000000E+00  0.00000000000E+00  0.21451305878E+04  0.21451305878E+04  0.50400001928E-02 0.  1.
       -1   -1    0    0    0  501  0.00000000000E+00  0.00000000000E+00 -0.98622568825E+03  0.98622568826E+03  0.50400001928E-02 0. -1.
    10030    2    1    2    0    0  0.00000000000E+00  0.00000000000E+00  0.11589048996E+04  0.31313562761E+04  0.29090086905E+04 0.  0.
        1    1    3    3  502    0 -0.58496046322E+03  0.42839120014E+03  0.19367352251E+04  0.20680041335E+04  0.50400001928E-02 0.  1.
       -1    1    3    3    0  502  0.58496046322E+03 -0.42839120014E+03 -0.77783032552E+03  0.10633521426E+04  0.50400001928E-02 0. -1.
</event>
<event>
 5   0  0.1339837E-05  0.2939364E+04  0.7818609E-02  0.8261261E-01
       -2   -1    0    0    0  501  0.00000000000E+00  0.00000000000E+00  0.15815282441E+04  0.15815282441E+04  0.25500000920E-02 0. -1.
        2   -1    0    0  501    0  0.00000000000E+00  0.00000000000E+00 -0.13657457491E+04  0.13657457491E+04  0.25500000920E-02 0.  1.
    10030    2    1    2    0    0  0.00000000000E+00  0.00000000000E+00  0.21578249494E+03  0.29472739932E+04  0.29393642010E+04 0.  0.
        5    1    3    3  502    0 -0.51394327039E+03  0.22296681759E+03  0.14702570156E+04  0.15733816030E+04  0.46999998093E+01 0. -1.
       -5    1    3    3    0  502  0.51394327039E+03 -0.22296681759E+03 -0.12544745206E+04  0.13738923902E+04  0.46999998093E+01 0.  1.
</event>
<event>
 5   0  0.4590125E-06  0.2836134E+04  0.7818609E-02  0.8292137E-01
        3   -1    0    0  501    0  0.00000000000E+00  0.00000000000E+00  0.15133349601E+04  0.15133349635E+04  0.10100000352E+00 0. -1.
       -3   -1    0    0    0  501  0.00000000000E+00  0.00000000000E+00 -0.13287961886E+04  0.13287961924E+04  0.10100000352E+00 0.  1.
    10030    2    1    2    0    0  0.00000000000E+00  0.00000000000E+00  0.18453877150E+03  0.28421311559E+04  0.28361338031E+04 0.  0.
        4    1    3    3  502    0 -0.30585655142E+03 -0.62758576951E+03  0.13291808878E+04  0.15013778917E+04  0.12699999809E+01 0. -1.
       -4    1    3    3    0  502  0.30585655142E+03  0.62758576951E+03 -0.11446421163E+04  0.13407532642E+04  0.12699999809E+01 0.  1.
</event>
<event>
 5   0  0.1336899E-05  0.2899798E+04  0.7818609E-02  0.8272938E-01
        2   -1    0    0  501    0  0.00000000000E+00  0.00000000000E+00  0.10664671262E+04  0.10664671262E+04  0.25500000920E-02 0.  1.
       -2   -1    0    0    0  501  0.00000000000E+00  0.00000000000E+00 -0.19711876814E+04  0.19711876814E+04  0.25500000920E-02 0. -1.
    10030    2    1    2    0    0  0.00000000000E+00  0.00000000000E+00 -0.90472055518E+03  0.30376548075E+04  0.28997978286E+04 0.  0.
        1    1    3    3  502    0 -0.49742878801E+03 -0.39902789484E+03  0.91167552621E+03  0.11125695147E+04  0.50400001928E-02 0.  1.
       -1    1    3    3    0  502  0.49742878801E+03  0.39902789484E+03 -0.18163960814E+04  0.19250852928E+04  0.50400001928E-02 0. -1.
</event>
<event>
 5   0  0.1385669E-05  0.2883632E+04  0.7818609E-02  0.8277764E-01
        2   -1    0    0  501    0  0.00000000000E+00  0.00000000000E+00  0.10222418800E+04  0.10222418800E+04  0.25500000920E-02 0.  1.
       -2   -1    0    0    0  501  0.00000000000E+00  0.00000000000E+00 -0.20336024213E+04  0.20336024213E+04  0.25500000920E-02 0. -1.
    10030    2    1    2    0    0  0.00000000000E+00  0.00000000000E+00 -0.10113605413E+04  0.30558443013E+04  0.28836321279E+04 0.  0.
        3    1    3    3  502    0 -0.11430329063E+04  0.10971213893E+02  0.42554158680E+03  0.12197254793E+04  0.10100000352E+00 0.  1.
       -3    1    3    3    0  502  0.11430329063E+04 -0.10971213893E+02 -0.14369021281E+04  0.18361188220E+04  0.10100000352E+00 0. -1.
</event>
<event>
 5   0  0.5059249E-06  0.2857115E+04  0.7818609E-02  0.8285753E-01
       -1   -1    0    0    0  501  0.00000000000E+00  0.00000000000E+00  0.98123355283E+03  0.98123355285E+03  0.50400001928E-02 0. -1.
        1   -1    0    0  501    0  0.00000000000E+00  0.00000000000E+00 -0.20798067921E+04  0.20798067921E+04  0.50400001928E-02 0.  1.
    10030    2    1    2    0    0  0.00000000000E+00  0.00000000000E+00 -0.10985732393E+04  0.30610403449E+04  0.28571147739E+04 0.  0.
        1    1    3    3  502    0  0.10171661597E+04  0.41021801976E+03 -0.15299721955E+04  0.18824772878E+04  0.50400001928E-02 0.  1.
       -1    1    3    3    0  502 -0.10171661597E+04 -0.41021801976E+03  0.43139895622E+03  0.11785630571E+04  0.50400001928E-02 0. -1.
</event>
<event>
 5   0  0.5352212E-06  0.2875075E+04  0.7818609E-02  0.8280332E-01
       -1   -1    0    0    0  501  0.00000000000E+00  0.00000000000E+00  0.95036623958E+03  0.95036623959E+03  0.50400001928E-02 0.  1.
        1   -1    0    0  501    0  0.00000000000E+00  0.00000000000E+00 -0.21744395752E+04  0.21744395752E+04  0.50400001928E-02 0. -1.
    10030    2    1    2    0    0  0.00000000000E+00  0.00000000000E+00 -0.12240733357E+04  0.31248058148E+04  0.28750749293E+04 0.  0.
        2    1    3    3  502    0  0.74593086154E+03  0.64176042510E+03  0.52696253042E+03  0.11162252469E+04  0.25500000920E-02 0.  1.
       -2    1    3    3    0  502 -0.74593086154E+03 -0.64176042510E+03 -0.17510358661E+04  0.20085805679E+04  0.25500000920E-02 0. -1.
</event>
<event>
 5   0  0.1336899E-05  0.2867468E+04  0.7818609E-02  0.8282623E-01
       -2   -1    0    0    0  501  0.00000000000E+00  0.00000000000E+00  0.10269813601E+04  0.10269813601E+04  0.25500000920E-02 0.  1.
        2   -1    0    0  501    0  0.00000000000E+00  0.00000000000E+00 -0.20015880480E+04  0.20015880480E+04  0.25500000920E-02 0. -1.
    10030    2    1    2    0    0  0.00000000000E+00  0.00000000000E+00 -0.97460668794E+03  0.30285694081E+04  0.28674683020E+04 0.  0.
        1    1    3    3  502    0  0.11490765465E+04  0.15912861063E+03  0.40258578270E+03  0.12279145479E+04  0.50400001928E-02 0.  1.
       -1    1    3    3    0  502 -0.11490765465E+04 -0.15912861063E+03 -0.13771924706E+04  0.18006548602E+04  0.50400001928E-02 0. -1.
</event>
<event>
 5   0  0.1385669E-05  0.2897347E+04  0.7818609E-02  0.8273667E-01
        2   -1    0    0  501    0  0.00000000000E+00  0.00000000000E+00  0.19667742086E+04  0.19667742086E+04  0.25500000920E-02 0. -1.
       -2   -1    0    0    0  501  0.00000000000E+00  0.00000000000E+00 -0.10670543763E+04  0.10670543763E+04  0.25500000920E-02 0.  1.
    10030    2    1    2    0    0  0.00000000000E+00  0.00000000000E+00  0.89971983227E+03  0.30338285849E+04  0.28973470807E+04 0.  0.
        3    1    3    3  502    0  0.23495861407E+03 -0.14212581788E+04  0.28942823799E+03  0.14693362707E+04  0.10100000352E+00 0.  1.
       -3    1    3    3    0  502 -0.23495861407E+03  0.14212581788E+04  0.61029159428E+03  0.15644923143E+04  0.10100000352E+00 0. -1.
</event>
<event>
 5   0  0.5261878E-06  0.2889910E+04  0.7818609E-02  0.8275886E-01
       -1   -1    0    0    0  501  0.00000000000E+00  0.00000000000E+00  0.13828465651E+04  0.13828465651E+04  0.50400001928E-02 0. -1.
        1   -1    0    0  501    0  0.00000000000E+00  0.00000000000E+00 -0.15098528748E+04  0.15098528748E+04  0.50400001928E-02 0.  1.
    10030    2    1    2    0    0  0.00000000000E+00  0.00000000000E+00 -0.12700630967E+03  0.28926994399E+04  0.28899099375E+04 0.  0.
        5    1    3    3  502    0 -0.63686476474E+03 -0.51209898693E+03  0.11292974905E+04  0.13939788424E+04  0.46999998093E+01 0. -1.
       -5    1    3    3    0  502  0.63686476474E+03  0.51209898693E+03 -0.12563038002E+04  0.14987205975E+04  0.46999998093E+01 0.  1.
</event>
<event>
 5   0  0.1385669E-05  0.3152680E+04  0.7818609E-02  0.8201427E-01
        2   -1    0    0  501    0  0.00000000000E+00  0.00000000000E+00  0.16760925807E+04  0.16760925807E+04  0.25500000920E-02 0.  1.
       -2   -1    0    0    0  501  0.00000000000E+00  0.00000000000E+00 -0.14825240253E+04  0.14825240253E+04  0.25500000920E-02 0. -1.
    10030    2    1    2    0    0  0.00000000000E+00  0.00000000000E+00  0.19356855543E+03  0.31586166060E+04  0.31526798248E+04 0.  0.
        3    1    3    3  502    0  0.12554982044E+04  0.77442558374E+02  0.10486124541E+04  0.16376389040E+04  0.10100000352E+00 0.  1.
       -3    1    3    3    0  502 -0.12554982044E+04 -0.77442558374E+02 -0.85504389862E+03  0.15209777019E+04  0.10100000352E+00 0. -1.
</event>
<event>
 5   0  0.5002240E-06  0.3102215E+04  0.7818609E-02  0.8215130E-01
        1   -1    0    0  501    0  0.00000000000E+00  0.00000000000E+00  0.15784000621E+04  0.15784000621E+04  0.50400001928E-02 0.  1.
       -1   -1    0    0    0  501  0.00000000000E+00  0.00000000000E+00 -0.15242864213E+04  0.15242864213E+04  0.50400001928E-02 0. -1.
    10030    2    1    2    0    0  0.00000000000E+00  0.00000000000E+00  0.54113640776E+02  0.31026864833E+04  0.31022145522E+04 0.  0.
        4    1    3    3  502    0  0.21875103626E+03 -0.15244487544E+04 -0.15773099101E+03  0.15481203762E+04  0.12699999809E+01 0. -1.
       -4    1    3    3    0  502 -0.21875103626E+03  0.15244487544E+04  0.21184463178E+03  0.15545661072E+04  0.12699999809E+01 0.  1.
</event>
<event>
 5   0  0.5002240E-06  0.2889802E+04  0.7818609E-02  0.8275918E-01
       -1   -1    0    0    0  501  0.00000000000E+00  0.00000000000E+00  0.12735932775E+04  0.12735932775E+04  0.50400001928E-02 0. -1.
        1   -1    0    0  501    0  0.00000000000E+00  0.00000000000E+00 -0.16392512652E+04  0.16392512652E+04  0.50400001928E-02 0.  1.
    10030    2    1    2    0    0  0.00000000000E+00  0.00000000000E+00 -0.36565798772E+03  0.29128445427E+04  0.28898023403E+04 0.  0.
        4    1    3    3  502    0 -0.40915057547E+03  0.13587924731E+04 -0.45705821799E+03  0.14908470767E+04  0.12699999809E+01 0.  1.
       -4    1    3    3    0  502  0.40915057547E+03 -0.13587924731E+04  0.91400230265E+02  0.14219974660E+04  0.12699999809E+01 0. -1.
</event>
<event>
 5   0  0.1385669E-05  0.2744371E+04  0.7818609E-02  0.8320750E-01
        2   -1    0    0  501    0  0.00000000000E+00  0.00000000000E+00  0.14067141065E+04  0.14067141065E+04  0.25500000920E-02 0.  1.
       -2   -1    0    0    0  501  0.00000000000E+00  0.00000000000E+00 -0.13385044240E+04  0.13385044240E+04  0.25500000920E-02 0. -1.
    10030    2    1    2    0    0  0.00000000000E+00  0.00000000000E+00  0.68209682460E+02  0.27452185305E+04  0.27443710062E+04 0.  0.
        3    1    3    3  502    0  0.13616426918E+04  0.16852823889E+03  0.54616231239E+02  0.13731189061E+04  0.10100000352E+00 0. -1.
       -3    1    3    3    0  502 -0.13616426918E+04 -0.16852823889E+03  0.13593451221E+02  0.13720996245E+04  0.10100000352E+00 0.  1.
</event>
<event>
 5   0  0.5154476E-06  0.2895728E+04  0.7818609E-02  0.8274150E-01
       -1   -1    0    0    0  501  0.00000000000E+00  0.00000000000E+00  0.12096564141E+04  0.12096564141E+04  0.50400001928E-02 0. -1.
        1   -1    0    0  501    0  0.00000000000E+00  0.00000000000E+00 -0.17329795488E+04  0.17329795488E+04  0.50400001928E-02 0.  1.
    10030    2    1    2    0    0  0.00000000000E+00  0.00000000000E+00 -0.52332313470E+03  0.29426359629E+04  0.28957277680E+04 0.  0.
        3    1    3    3  502    0  0.33517217492E+02 -0.45081857913E+02  0.12085485348E+04  0.12098534411E+04  0.10100000352E+00 0. -1.
       -3    1    3    3    0  502 -0.33517217492E+02  0.45081857913E+02 -0.17318716695E+04  0.17327825217E+04  0.10100000352E+00 0.  1.
</event>
<event>
 5   0  0.5059249E-06  0.2891558E+04  0.7818609E-02  0.8275394E-01
       -1   -1    0    0    0  501  0.00000000000E+00  0.00000000000E+00  0.12390097751E+04  0.12390097751E+04  0.50400001928E-02 0.  1.
        1   -1    0    0  501    0  0.00000000000E+00  0.00000000000E+00 -0.16870545276E+04  0.16870545276E+04  0.50400001928E-02 0. -1.
    10030    2    1    2    0    0  0.00000000000E+00  0.00000000000E+00 -0.44804475253E+03  0.29260643027E+04  0.28915580926E+04 0.  0.
        1    1    3    3  502    0  0.51562729089E+02  0.68336210822E+03 -0.15122555915E+04  0.16602889688E+04  0.50400001928E-02 0. -1.
       -1    1    3    3    0  502 -0.51562729089E+02 -0.68336210822E+03  0.10642108390E+04  0.12657753338E+04  0.50400001928E-02 0.  1.
</event>
<event>
 5   0  0.5002240E-06  0.2838719E+04  0.7818609E-02  0.8291348E-01
       -1   -1    0    0    0  501  0.00000000000E+00  0.00000000000E+00  0.17408015059E+04  0.17408015059E+04  0.50400001928E-02 0.  1.
        1   -1    0    0  501    0  0.00000000000E+00  0.00000000000E+00 -0.11572719664E+04  0.11572719665E+04  0.50400001928E-02 0. -1.
    10030    2    1    2    0    0  0.00000000000E+00  0.00000000000E+00  0.58352953943E+03  0.28980734723E+04  0.28387185714E+04 0.  0.
        4    1    3    3  502    0  0.56778126711E+03  0.93175011784E+03 -0.63498524390E+03  0.12624348388E+04  0.12699999809E+01 0. -1.
       -4    1    3    3    0  502 -0.56778126711E+03 -0.93175011784E+03  0.12185147833E+04  0.16356386335E+04  0.12699999809E+01 0.  1.
</event>
<event>
 5   0  0.1382803E-05  0.2261985E+04  0.7818609E-02  0.8493062E-01
       -2   -1    0    0    0  501  0.00000000000E+00  0.00000000000E+00  0.98932218761E+03  0.98932218762E+03  0.25500000920E-02 0. -1.
        2   -1    0    0  501    0  0.00000000000E+00  0.00000000000E+00 -0.12929499380E+04  0.12929499380E+04  0.25500000920E-02 0.  1.
    10030    2    1    2    0    0  0.00000000000E+00  0.00000000000E+00 -0.30362775035E+03  0.22822721256E+04  0.22619850230E+04 0.  0.
        2    1    3    3  502    0  0.34562738826E+03  0.10372912503E+04  0.14011240827E+03  0.11022989234E+04  0.25500000920E-02 0. -1.
       -2    1    3    3    0  502 -0.34562738826E+03 -0.10372912503E+04 -0.44374015863E+03  0.11799732022E+04  0.25500000920E-02 0.  1.
</event>
<event>
 5   0  0.1382803E-05  0.2896373E+04  0.7818609E-02  0.8273957E-01
       -2   -1    0    0    0  501  0.00000000000E+00  0.00000000000E+00  0.10483668380E+04  0.10483668380E+04  0.25500000920E-02 0. -1.
        2   -1    0    0  501    0  0.00000000000E+00  0.00000000000E+00 -0.20004871819E+04  0.20004871819E+04  0.25500000920E-02 0.  1.
    10030    2    1    2    0    0  0.00000000000E+00  0.00000000000E+00 -0.95212034395E+03  0.30488540199E+04  0.28963731951E+04 0.  0.
        2    1    3    3  502    0 -0.11273012902E+04  0.45389643356E+03  0.35307052294E+03  0.12654994925E+04  0.25500000920E-02 0. -1.
       -2    1    3    3    0  502  0.11273012902E+04 -0.45389643356E+03 -0.13051908669E+04  0.17833545274E+04  0.25500000920E-02 0.  1.
</event>
<event>
 5   0  0.1382803E-05  0.2935222E+04  0.7818609E-02  0.8262474E-01
        2   -1    0    0  501    0  0.00000000000E+00  0.00000000000E+00  0.19107378523E+04  0.19107378523E+04  0.25500000920E-02 0.  1.
       -2   -1    0    0    0  501  0.00000000000E+00  0.00000000000E+00 -0.11272516608E+04  0.11272516608E+04  0.25500000920E-02 0. -1.
    10030    2    1    2    0    0  0.00000000000E+00  0.00000000000E+00  0.78348619152E+03  0.30379895130E+04  0.29352222521E+04 0.  0.
        2    1    3    3  502    0  0.93126675916E+03 -0.11340425519E+04  0.41649981287E+03  0.15253794218E+04  0.25500000920E-02 0.  1.
       -2    1    3    3    0  502 -0.93126675916E+03  0.11340425519E+04  0.36698637865E+03  0.15126100913E+04  0.25500000920E-02 0. -1.
</event>
<event>
 5   0  0.5352212E-06  0.2866861E+04  0.7818609E-02  0.8282806E-01
        1   -1    0    0  501    0  0.00000000000E+00  0.00000000000E+00  0.14073159130E+04  0.14073159130E+04  0.50400001928E-02 0. -1.
       -1   -1    0    0    0  501  0.00000000000E+00  0.00000000000E+00 -0.14600299286E+04  0.14600299286E+04  0.50400001928E-02 0.  1.
    10030    2    1    2    0    0  0.00000000000E+00  0.00000000000E+00 -0.52714015636E+02  0.28673458416E+04  0.28668612468E+04 0.  0.
        2    1    3    3  502    0  0.56340515522E+02  0.98533665665E+03 -0.10660810758E+04  0.14527874727E+04  0.25500000920E-02 0.  1.
       -2    1    3    3    0  502 -0.56340515522E+02 -0.98533665665E+03  0.10133670601E+04  0.14145583690E+04  0.25500000920E-02 0. -1.
</event>
<event>
 5   0  0.5002240E-06  0.2570344E+04  0.7818609E-02  0.8378345E-01
        1   -1    0    0  501    0  0.00000000000E+00  0.00000000000E+00  0.19126599346E+04  0.19126599346E+04  0.50400001928E-02 0. -1.
       -1   -1    0    0    0  501  0.00000000000E+00  0.00000000000E+00 -0.86354422050E+03  0.86354422051E+03  0.50400001928E-02 0.  1.
    10030    2    1    2    0    0  0.00000000000E+00  0.00000000000E+00  0.10491157141E+04  0.27762041552E+04  0.25703435042E+04 0.  0.
        4    1    3    3  502    0  0.10793732022E+04  0.66842461680E+03  0.74010792586E+03  0.14695575296E+04  0.12699999809E+01 0. -1.
       -4    1    3    3    0  502 -0.10793732022E+04 -0.66842461680E+03  0.30900778828E+03  0.13066466256E+04  0.12699999809E+01 0.  1.
</event>
<event>
 5   0  0.5154476E-06  0.2887713E+04  0.7818609E-02  0.8276543E-01
        1   -1    0    0  501    0  0.00000000000E+00  0.00000000000E+00  0.19971150374E+04  0.19971150374E+04  0.50400001928E-02 0. -1.
       -1   -1    0    0    0  501  0.00000000000E+00  0.00000000000E+00 -0.10438664741E+04  0.10438664741E+04  0.50400001928E-02 0.  1.
    10030    2    1    2    0    0  0.00000000000E+00  0.00000000000E+00  0.95324856336E+03  0.30409815115E+04  0.28877128891E+04 0.  0.
        3    1    3    3  502    0  0.95231924200E+03  0.38134649987E+02  0.16187897154E+04  0.18785223830E+04  0.10100000352E+00 0. -1.
       -3    1    3    3    0  502 -0.95231924200E+03 -0.38134649987E+02 -0.66554115208E+03  0.11624591285E+04  0.10100000352E+00 0.  1.
</event>
<event>
 5   0  0.1339837E-05  0.2825165E+04  0.7818609E-02  0.8295498E-01
        2   -1    0    0  501    0  0.00000000000E+00  0.00000000000E+00  0.12205056778E+04  0.12205056778E+04  0.25500000920E-02 0. -1.
       -2   -1    0    0    0  501  0.00000000000E+00  0.00000000000E+00 -0.16348876621E+04  0.16348876621E+04  0.25500000920E-02 0.  1.
    10030    2    1    2    0    0  0.00000000000E+00  0.00000000000E+00 -0.41438198436E+03  0.28553933399E+04  0.28251652512E+04 0.  0.
        5    1    3    3  502    0 -0.10345603235E+04  0.24761910018E+02 -0.11789561029E+04  0.15687217082E+04  0.46999998093E+01 0. -1.
       -5    1    3    3    0  502  0.10345603235E+04 -0.24761910018E+02  0.76457411853E+03  0.12866716317E+04  0.46999998093E+01 0.  1.
</event>
<event>
 5   0  0.5002240E-06  0.2494392E+04  0.7818609E-02  0.8404986E-01
        1   -1    0    0  501    0  0.00000000000E+00  0.00000000000E+00  0.20246796350E+04  0.20246796350E+04  0.50400001928E-02 0.  1.
       -1   -1    0    0    0  501  0.00000000000E+00  0.00000000000E+00 -0.76826872732E+03  0.76826872734E+03  0.50400001928E-02 0. -1.
    10030    2    1    2    0    0  0.00000000000E+00  0.00000000000E+00  0.12564109077E+04  0.27929483624E+04  0.24943921476E+04 0.  0.
        4    1    3    3  502    0  0.12302746700E+04  0.17233953341E+02  0.39976747320E+03  0.12937111031E+04  0.12699999809E+01 0. -1.
       -4    1    3    3    0  502 -0.12302746700E+04 -0.17233953341E+02  0.85664343449E+03  0.14992372593E+04  0.12699999809E+01 0.  1.
</event>
<event>
 5   0  0.1339837E-05  0.3018310E+04  0.7818609E-02  0.8238522E-01
       -2   -1    0    0    0  501  0.00000000000E+00  0.00000000000E+00  0.14518475628E+04  0.14518475628E+04  0.25500000920E-02 0. -1.
        2   -1    0    0  501    0  0.00000000000E+00  0.00000000000E+00 -0.15687247986E+04  0.15687247986E+04  0.25500000920E-02 0.  1.
    10030    2    1    2    0    0  0.00000000000E+00  0.00000000000E+00 -0.11687723577E+03  0.30205723614E+04  0.30183103059E+04 0.  0.
        5    1    3    3  502    0 -0.13459399680E+04  0.53841870798E+03 -0.47836968757E+03  0.15265348835E+04  0.46999998093E+01 0.  1.
       -5    1    3    3    0  502  0.13459399680E+04 -0.53841870798E+03  0.36149245181E+03  0.14940374779E+04  0.46999998093E+01 0. -1.
</event>
<event>
 5   0  0.5002240E-06  0.2500451E+04  0.7818609E-02  0.8402825E-01
        1   -1    0    0  501    0  0.00000000000E+00  0.00000000000E+00  0.15099968290E+04  0.15099968290E+04  0.50400001928E-02 0.  1.
       -1   -1    0    0    0  501  0.00000000000E+00  0.00000000000E+00 -0.10351434397E+04  0.10351434397E+04  0.50400001928E-02 0. -1.
    10030    2    1    2    0    0  0.00000000000E+00  0.00000000000E+00  0.47485338930E+03  0.25451402687E+04  0.25004506086E+04 0.  0.
        4    1    3    3  502    0 -0.11533143567E+04  0.35008602537E+02 -0.25253081487E+03  0.11811574972E+04  0.12699999809E+01 0.  1.
       -4    1    3    3    0  502  0.11533143567E+04 -0.35008602537E+02  0.72738420417E+03  0.13639827716E+04  0.12699999809E+01 0. -1.
</event>
<event>
 5   0  0.5261878E-06  0.2933221E+04  0.7818609E-02  0.8263061E-01
        1   -1    0    0  501    0  0.00000000000E+00  0.00000000000E+00  0.24724164218E+04  0.24724164218E+04  0.50400001928E-02 0. -1.
       -1   -1    0    0    0  501  0.00000000000E+00  0.00000000000E+00 -0.86997766694E+03  0.86997766696E+03  0.50400001928E-02 0.  1.
    10030    2    1    2    0    0  0.00000000000E+00  0.00000000000E+00  0.16024387549E+04  0.33423940888E+04  0.29332214853E+04 0.  0.
        5    1    3    3  502    0 -0.13534979400E+04 -0.56010483709E+03  0.88379061180E+03  0.17107840418E+04  0.46999998093E+01 0. -1.
       -5    1    3    3    0  502  0.13534979400E+04  0.56010483709E+03  0.71864814309E+03  0.16316100470E+04  0.46999998093E+01 0.  1.
</event>
<event>
 5   0  0.5154476E-06  0.2063909E+04  0.7818609E-02  0.8577311E-01
        1   -1    0    0  501    0  0.00000000000E+00  0.00000000000E+00  0.17709515044E+04  0.17709515044E+04  0.50400001928E-02 0.  1.
       -1   -1    0    0    0  501  0.00000000000E+00  0.00000000000E+00 -0.60133212057E+03  0.60133212059E+03  0.50400001928E-02 0. -1.
    10030    2    1    2    0    0  0.00000000000E+00  0.00000000000E+00  0.11696193838E+04  0.23722836250E+04  0.20639089356E+04 0.  0.
        3    1    3    3  502    0  0.62160690616E+03 -0.81433916531E+03  0.72738597573E+03  0.12564369422E+04  0.10100000352E+00 0.  1.
       -3    1    3    3    0  502 -0.62160690616E+03  0.81433916531E+03  0.44223340808E+03  0.11158466827E+04  0.10100000352E+00 0. -1.
</event>
<event>
 5   0  0.5059249E-06  0.2737050E+04  0.7818609E-02  0.8323083E-01
        1   -1    0    0  501    0  0.00000000000E+00  0.00000000000E+00  0.18883035344E+04  0.18883035344E+04  0.50400001928E-02 0. -1.
       -1   -1    0    0    0  501  0.00000000000E+00  0.00000000000E+00 -0.99182166364E+03  0.99182166365E+03  0.50400001928E-02 0.  1.
    10030    2    1    2    0    0  0.00000000000E+00  0.00000000000E+00  0.89648187072E+03  0.28801251980E+04  0.27370497642E+04 0.  0.
        1    1    3    3  502    0 -0.25516895953E+03  0.12831585348E+04  0.25686155862E+02  0.13085361294E+04  0.50400001928E-02 0.  1.
       -1    1    3    3    0  502  0.25516895953E+03 -0.12831585348E+04  0.87079571485E+03  0.15715890686E+04  0.50400001928E-02 0. -1.
</event>
<event>
 5   0  0.1307832E-05  0.2904800E+04  0.7818609E-02  0.8271451E-01
       -2   -1    0    0    0  501  0.00000000000E+00  0.00000000000E+00  0.95885602870E+03  0.95885602871E+03  0.25500000920E-02 0.  1.
        2   -1    0    0  501    0  0.00000000000E+00  0.00000000000E+00 -0.21999812269E+04  0.21999812269E+04  0.25500000920E-02 0. -1.
    10030    2    1    2    0    0  0.00000000000E+00  0.00000000000E+00 -0.12411251982E+04  0.31588372557E+04  0.29047996575E+04 0.  0.
        4    1    3    3  502    0  0.10725094684E+04  0.80933564669E+03 -0.12203042179E+04  0.18150605351E+04  0.12699999809E+01 0. -1.
       -4    1    3    3    0  502 -0.10725094684E+04 -0.80933564669E+03 -0.20820980307E+02  0.13437767206E+04  0.12699999809E+01 0.  1.
</event>
<event>
 5   0  0.1382803E-05  0.2893971E+04  0.7818609E-02  0.8274674E-01
        2   -1    0    0  501    0  0.00000000000E+00  0.00000000000E+00  0.14965529850E+04  0.14965529850E+04  0.25500000920E-02 0. -1.
       -2   -1    0    0    0  501  0.00000000000E+00  0.00000000000E+00 -0.13990597690E+04  0.13990597690E+04  0.25500000920E-02 0.  1.
    10030    2    1    2    0    0  0.00000000000E+00  0.00000000000E+00  0.97493216007E+02  0.28956127541E+04  0.28939710251E+04 0.  0.
        2    1    3    3  502    0  0.29210934191E+01 -0.62851916228E+03  0.13528363656E+04  0.14917141490E+04  0.25500000920E-02 0. -1.
       -2    1    3    3    0  502 -0.29210934191E+01  0.62851916228E+03 -0.12553431496E+04  0.14038986051E+04  0.25500000920E-02 0.  1.
</event>
<event>
 5   0  0.5154476E-06  0.2022892E+04  0.7818609E-02  0.8595992E-01
        1   -1    0    0  501    0  0.00000000000E+00  0.00000000000E+00  0.10192553352E+04  0.10192553353E+04  0.50400001928E-02 0. -1.
       -1   -1    0    0    0  501  0.00000000000E+00  0.00000000000E+00 -0.10036961625E+04  0.10036961625E+04  0.50400001928E-02 0.  1.
    10030    2    1    2    0    0  0.00000000000E+00  0.00000000000E+00  0.15559172783E+02  0.20229514977E+04  0.20228916615E+04 0.  0.
        3    1    3    3  502    0 -0.71284102984E+03  0.56159918705E+03  0.45443211271E+03  0.10149110976E+04  0.10100000352E+00 0. -1.
       -3    1    3    3    0  502  0.71284102984E+03 -0.56159918705E+03 -0.43887293993E+03  0.10080404001E+04  0.10100000352E+00 0.  1.
</event>
<event>
 5   0  0.1385669E-05  0.2913248E+04  0.7818609E-02  0.8268947E-01
        2   -1    0    0  501    0  0.00000000000E+00  0.00000000000E+00  0.18854306522E+04  0.18854306522E+04  0.25500000920E-02 0. -1.
       -2   -1    0    0    0  501  0.00000000000E+00  0.00000000000E+00 -0.11253415362E+04  0.11253415362E+04  0.25500000920E-02 0.  1.
    10030    2    1    2    0    0  0.00000000000E+00  0.00000000000E+00  0.76008911599E+03  0.30107721885E+04  0.29132479652E+04 0.  0.
        3    1    3    3  502    0  0.26677458600E+03  0.73441923904E+03  0.16505113018E+04  0.18261237269E+04  0.10100000352E+00 0. -1.
       -3    1    3    3    0  502 -0.26677458600E+03 -0.73441923904E+03 -0.89042218578E+03  0.11846484616E+04  0.10100000352E+00 0.  1.
</event>
<event>
 5   0  0.5059249E-06  0.2938170E+04  0.7818609E-02  0.8261610E-01
       -1   -1    0    0    0  501  0.00000000000E+00  0.00000000000E+00  0.12350283227E+04  0.12350283227E+04  0.50400001928E-02 0. -1.
        1   -1    0    0  501    0  0.00000000000E+00  0.00000000000E+00 -0.17474994451E+04  0.17474994451E+04  0.50400001928E-02 0.  1.
    10030    2    1    2    0    0  0.00000000000E+00  0.00000000000E+00 -0.51247112240E+03  0.29825277677E+04  0.29381703889E+04 0.  0.
        1    1    3    3  502    0  0.53696055677E+03 -0.99659121632E+03 -0.12066886737E+04  0.16545749446E+04  0.50400001928E-02 0.  1.
       -1    1    3    3    0  502 -0.53696055677E+03  0.99659121632E+03  0.69421755129E+03  0.13279528232E+04  0.50400001928E-02 0. -1.
</event>
<event>
 5   0  0.5002240E-06  0.2905158E+04  0.7818609E-02  0.8271345E-01
       -1   -1    0    0    0  501  0.00000000000E+00  0.00000000000E+00  0.20143347233E+04  0.20143347233E+04  0.50400001928E-02 0.  1.
        1   -1    0    0  501    0  0.00000000000E+00  0.00000000000E+00 -0.10474849174E+04  0.10474849174E+04  0.50400001928E-02 0. -1.
    10030    2    1    2    0    0  0.00000000000E+00  0.00000000000E+00  0.96684980593E+03  0.30618196407E+04  0.29051576489E+04 0.  0.
        4    1    3    3  502    0 -0.54618113342E+03 -0.87146594121E+03 -0.59766681147E+03  0.11895267747E+04  0.12699999809E+01 0. -1.
       -4    1    3    3    0  502  0.54618113342E+03  0.87146594121E+03  0.15645166174E+04  0.18722928660E+04  0.12699999809E+01 0.  1.
</event>
<event>
 5   0  0.5261878E-06  0.2814129E+04  0.7818609E-02  0.8298895E-01
       -1   -1    0    0    0  501  0.00000000000E+00  0.00000000000E+00  0.17215324321E+04  0.17215324321E+04  0.50400001928E-02 0. -1.
        1   -1    0    0  501    0  0.00000000000E+00  0.00000000000E+00 -0.11500393162E+04  0.11500393162E+04  0.50400001928E-02 0.  1.
    10030    2    1    2    0    0  0.00000000000E+00  0.00000000000E+00  0.57149311593E+03  0.28715717483E+04  0.28141286261E+04 0.  0.
        5    1    3    3  502    0  0.23530834841E+03  0.12294790524E+03  0.16957341163E+04  0.17163981150E+04  0.46999998093E+01 0. -1.
       -5    1    3    3    0  502 -0.23530834841E+03 -0.12294790524E+03 -0.11242410003E+04  0.11551736333E+04  0.46999998093E+01 0.  1.
</event>
<event>
 5   0  0.1385669E-05  0.2793844E+04  0.7818609E-02  0.8305182E-01
        2   -1    0    0  501    0  0.00000000000E+00  0.00000000000E+00  0.14096941272E+04  0.14096941272E+04  0.25500000920E-02 0.  1.
       -2   -1    0    0    0  501  0.00000000000E+00  0.00000000000E+00 -0.13842656371E+04  0.13842656371E+04  0.25500000920E-02 0. -1.
    10030    2    1    2    0    0  0.00000000000E+00  0.00000000000E+00  0.25428490055E+02  0.27939597643E+04  0.27938440466E+04 0.  0.
        3    1    3    3  502    0 -0.60342271044E+03 -0.74664862538E+01  0.12726142002E+04  0.14084465303E+04  0.10100000352E+00 0.  1.
       -3    1    3    3    0  502  0.60342271044E+03  0.74664862538E+01 -0.12471857101E+04  0.13855132340E+04  0.10100000352E+00 0. -1.
</event>
<event>
 5   0  0.5059249E-06  0.2902663E+04  0.7818609E-02  0.8272086E-01
        1   -1    0    0  501    0  0.00000000000E+00  0.00000000000E+00  0.15186486322E+04  0.15186486322E+04  0.50400001928E-02 0. -1.
       -1   -1    0    0    0  501  0.00000000000E+00  0.00000000000E+00 -0.13869983400E+04  0.13869983400E+04  0.50400001928E-02 0.  1.
    10030    2    1    2    0    0  0.00000000000E+00  0.00000000000E+00  0.13165029220E+03  0.29056469723E+04  0.29026630063E+04 0.  0.
        1    1    3    3  502    0 -0.90952012885E+03  0.31530116677E+03  0.11530915433E+04  0.15020858157E+04  0.50400001928E-02 0. -1.
       -1    1    3    3    0  502  0.90952012885E+03 -0.31530116677E+03 -0.10214412511E+04  0.14035611565E+04  0.50400001928E-02 0.  1.
</event>
<event>
 5   0  0.1336899E-05  0.2976170E+04  0.7818609E-02  0.8250569E-01
        2   -1    0    0  501    0  0.00000000000E+00  0.00000000000E+00  0.11762851316E+04  0.11762851316E+04  0.25500000920E-02 0. -1.
       -2   -1    0    0    0  501  0.00000000000E+00  0.00000000000E+00 -0.18825344116E+04  0.18825344116E+04  0.25500000920E-02 0.  1.
    10030    2    1    2    0    0  0.00000000000E+00  0.00000000000E+00 -0.70624928000E+03  0.30588195432E+04  0.29761701821E+04 0.  0.
        1    1    3    3  502    0  0.73923704551E+03 -0.11671805310E+04 -0.92130175656E+03  0.16605958955E+04  0.50400001928E-02 0.  1.
       -1    1    3    3    0  502 -0.73923704551E+03  0.11671805310E+04  0.21505247656E+03  0.13982236477E+04  0.50400001928E-02 0. -1.
</event>
<event>
 5   0  0.5002240E-06  0.2912887E+04  0.7818609E-02  0.8269054E-01
       -1   -1    0    0    0  501  0.00000000000E+00  0.00000000000E+00  0.18211134082E+04  0.18211134082E+04  0.50400001928E-02 0. -1.
        1   -1    0    0  501    0  0.00000000000E+00  0.00000000000E+00 -0.11647970732E+04  0.11647970732E+04  0.50400001928E-02 0.  1.
    10030    2    1    2    0    0  0.00000000000E+00  0.00000000000E+00  0.65631633503E+03  0.29859104814E+04  0.29128869307E+04 0.  0.
        4    1    3    3  502    0  0.95644552819E+03 -0.54307518277E+03 -0.65050494772E+03  0.12778407579E+04  0.12699999809E+01 0.  1.
       -4    1    3    3    0  502 -0.95644552819E+03  0.54307518277E+03  0.13068212827E+04  0.17080697235E+04  0.12699999809E+01 0. -1.
</event>
<event>
 5   0  0.5261878E-06  0.2919413E+04  0.7818609E-02  0.8267125E-01
       -1   -1    0    0    0  501  0.00000000000E+00  0.00000000000E+00  0.12001855495E+04  0.12001855495E+04  0.50400001928E-02 0.  1.
        1   -1    0    0  501    0  0.00000000000E+00  0.00000000000E+00 -0.17753449094E+04  0.17753449094E+04  0.50400001928E-02 0. -1.
    10030    2    1    2    0    0  0.00000000000E+00  0.00000000000E+00 -0.57515935993E+03  0.29755304589E+04  0.29194131641E+04 0.  0.
        5    1    3    3  502    0  0.14188899658E+04 -0.34261361314E+03 -0.27799721963E+03  0.14859129743E+04  0.46999998093E+01 0.  1.
       -5    1    3    3    0  502 -0.14188899658E+04  0.34261361314E+03 -0.29716214030E+03  0.14896174847E+04  0.46999998093E+01 0. -1.
</event>
<event>
 5   0  0.5352212E-06  0.2444804E+04  0.7818609E-02  0.8422918E-01
       -1   -1    0    0    0  501  0.00000000000E+00  0.00000000000E+00  0.68087118428E+03  0.68087118430E+03  0.50400001928E-02 0. -1.
        1   -1    0    0  501    0  0.00000000000E+00  0.00000000000E+00 -0.21946394549E+04  0.21946394549E+04  0.50400001928E-02 0.  1.
    10030    2    1    2    0    0  0.00000000000E+00  0.00000000000E+00 -0.15137682706E+04  0.28755106392E+04  0.24448040942E+04 0.  0.
        2    1    3    3  502    0  0.13286923458E+02 -0.29981822036E+03  0.63686716023E+03  0.70403642475E+03  0.25500000920E-02 0. -1.
       -2    1    3    3    0  502 -0.13286923458E+02  0.29981822036E+03 -0.21506354309E+04  0.21714742145E+04  0.25500000920E-02 0.  1.
</event>
<event>
 5   0  0.5352212E-06  0.2135162E+04  0.7818609E-02  0.8545910E-01
       -1   -1    0    0    0  501  0.00000000000E+00  0.00000000000E+00  0.38811440562E+03  0.38811440565E+03  0.50400001928E-02 0.  1.
        1   -1    0    0  501    0  0.00000000000E+00  0.00000000000E+00 -0.29365814034E+04  0.29365814034E+04  0.50400001928E-02 0. -1.
    10030    2    1    2    0    0  0.00000000000E+00  0.00000000000E+00 -0.25484669978E+04  0.33246958091E+04  0.21351623320E+04 0.  0.
        2    1    3    3  502    0 -0.93258210420E+03 -0.48882917446E+03 -0.99978231691E+03  0.14519738373E+04  0.25500000920E-02 0. -1.
       -2    1    3    3    0  502  0.93258210420E+03  0.48882917446E+03 -0.15486846809E+04  0.18727219718E+04  0.25500000920E-02 0.  1.
</event>
<event>
 5   0  0.5261878E-06  0.3055075E+04  0.7818609E-02  0.8228176E-01
        1   -1    0    0  501    0  0.00000000000E+00  0.00000000000E+00  0.21677935691E+04  0.21677935691E+04  0.50400001928E-02 0.  1.
       -1   -1    0    0    0  501  0.00000000000E+00  0.00000000000E+00 -0.10763806184E+04  0.10763806184E+04  0.50400001928E-02 0. -1.
    10030    2    1    2    0    0  0.00000000000E+00  0.00000000000E+00  0.10914129507E+04  0.32441741876E+04  0.30550751104E+04 0.  0.
        5    1    3    3  502    0  0.45063121185E+03  0.86953025497E+03  0.17905273306E+04  0.20408727459E+04  0.46999998093E+01 0.  1.
       -5    1    3    3    0  502 -0.45063121185E+03 -0.86953025497E+03 -0.69911437986E+03  0.12033014417E+04  0.46999998093E+01 0. -1.
</event>
<event>
 5   0  0.1382803E-05  0.2964191E+04  0.7818609E-02  0.8254031E-01
        2   -1    0    0  501    0  0.00000000000E+00  0.00000000000E+00  0.17589508464E+04  0.17589508464E+04  0.25500000920E-02 0. -1.
       -2   -1    0    0    0  501  0.00000000000E+00  0.00000000000E+00 -0.12488169257E+04  0.12488169257E+04  0.25500000920E-02 0.  1.
    10030    2    1    2    0    0  0.00000000000E+00  0.00000000000E+00  0.51013392078E+03  0.30077677721E+04  0.29641913490E+04 0.  0.
        2    1    3    3  502    0  0.60156071589E+03 -0.70881983607E+03 -0.91615761798E+03  0.13052377699E+04  0.25500000920E-02 0.  1.
       -2    1    3    3    0  502 -0.60156071589E+03  0.70881983607E+03  0.14262915388E+04  0.17025300022E+04  0.25500000920E-02 0. -1.
</event>
<event>
 5   0  0.5002240E-06  0.2891966E+04  0.7818609E-02  0.8275272E-01
        1   -1    0    0  501    0  0.00000000000E+00  0.00000000000E+00  0.14525138052E+04  0.14525138052E+04  0.50400001928E-02 0. -1.
       -1   -1    0    0    0  501  0.00000000000E+00  0.00000000000E+00 -0.14394814424E+04  0.14394814424E+04  0.50400001928E-02 0.  1.
    10030    2    1    2    0    0  0.00000000000E+00  0.00000000000E+00  0.13032362792E+02  0.28919952476E+04  0.28919658832E+04 0.  0.
        4    1    3    3  502    0  0.14357244943E+04  0.19425758360E+02  0.17734786325E+03  0.14467674523E+04  0.12699999809E+01 0. -1.
       -4    1    3    3    0  502 -0.14357244943E+04 -0.19425758360E+02 -0.16431550046E+03  0.14452277953E+04  0.12699999809E+01 0.  1.
</event>
<event>
 5   0  0.5059249E-06  0.2867450E+04  0.7818609E-02  0.8282628E-01
       -1   -1    0    0    0  501  0.00000000000E+00  0.00000000000E+00  0.10430386185E+04  0.10430386185E+04  0.50400001928E-02 0.  1.
        1   -1    0    0  501    0  0.00000000000E+00  0.00000000000E+00 -0.19707490294E+04  0.19707490294E+04  0.50400001928E-02 0. -1.
    10030    2    1    2    0    0  0.00000000000E+00  0.00000000000E+00 -0.92771041098E+03  0.30137876479E+04  0.28674499787E+04 0.  0.
        1    1    3    3  502    0  0.67873808728E+03 -0.17824738626E+03 -0.17779041574E+04  0.19113871180E+04  0.50400001928E-02 0. -1.
       -1    1    3    3    0  502 -0.67873808728E+03  0.17824738626E+03  0.85019374645E+03  0.11024005299E+04  0.50400001928E-02 0.  1.
</event>
<event>
 5   0  0.5059249E-06  0.2870883E+04  0.7818609E-02  0.8281594E-01
        1   -1    0    0  501    0  0.00000000000E+00  0.00000000000E+00  0.20746813649E+04  0.20746813649E+04  0.50400001928E-02 0. -1.
       -1   -1    0    0    0  501  0.00000000000E+00  0.00000000000E+00 -0.99316081517E+03  0.99316081518E+03  0.50400001928E-02 0.  1.
    10030    2    1    2    0    0  0.00000000000E+00  0.00000000000E+00  0.10815205497E+04  0.30678421800E+04  0.28708829552E+04 0.  0.
        1    1    3    3  502    0 -0.68257569796E+03  0.99094531217E+03 -0.29563117145E+03  0.12390641568E+04  0.50400001928E-02 0.  1.
       -1    1    3    3    0  502  0.68257569796E+03 -0.99094531217E+03  0.13771517211E+04  0.18287780232E+04  0.50400001928E-02 0. -1.
</event>
<event>
 5   0  0.4590125E-06  0.2497181E+04  0.7818609E-02  0.8403990E-01
        3   -1    0    0  501    0  0.00000000000E+00  0.00000000000E+00  0.10560852983E+04  0.10560853032E+04  0.10100000352E+00 0.  1.
       -3   -1    0    0    0  501  0.00000000000E+00  0.00000000000E+00 -0.14761862956E+04  0.14761862991E+04  0.10100000352E+00 0. -1.
    10030    2    1    2    0    0  0.00000000000E+00  0.00000000000E+00 -0.42010099730E+03  0.25322716022E+04  0.24971813349E+04 0.  0.
        5    1    3    3  502    0 -0.65829415192E+03  0.10586422991E+04 -0.28090259902E+03  0.12778900845E+04  0.46999998093E+01 0. -1.
       -5    1    3    3    0  502  0.65829415192E+03 -0.10586422991E+04 -0.13919839828E+03  0.12543815177E+04  0.46999998093E+01 0.  1.
</event>
<event>
 5   0  0.1307832E-05  0.2921157E+04  0.7818609E-02  0.8266610E-01
       -2   -1    0    0    0  501  0.00000000000E+00  0.00000000000E+00  0.11017291601E+04  0.11017291601E+04  0.25500000920E-02 0. -1.
        2   -1    0    0  501    0  0.00000000000E+00  0.00000000000E+00 -0.19363104810E+04  0.19363104810E+04  0.25500000920E-02 0.  1.
    10030    2    1    2    0    0  0.00000000000E+00  0.00000000000E+00 -0.83458132090E+03  0.30380396411E+04  0.29211571131E+04 0.  0.
        4    1    3    3  502    0 -0.12216188970E+04  0.73930393839E+03 -0.73677100212E+03  0.16067844178E+04  0.12699999809E+01 0.  1.
       -4    1    3    3    0  502  0.12216188970E+04 -0.73930393839E+03 -0.97810318782E+02  0.14312552233E+04  0.12699999809E+01 0. -1.
</event>
<event>
 5   0  0.5059249E-06  0.2777481E+04  0.7818609E-02  0.8310294E-01
       -1   -1    0    0    0  501  0.00000000000E+00  0.00000000000E+00  0.11322040465E+04  0.11322040465E+04  0.50400001928E-02 0.  1.
        1   -1    0    0  501    0  0.00000000000E+00  0.00000000000E+00 -0.17034027857E+04  0.17034027857E+04  0.50400001928E-02 0. -1.
    10030    2    1    2    0    0  0.00000000000E+00  0.00000000000E+00 -0.57119873921E+03  0.28356068323E+04  0.27774805324E+04 0.  0.
        1    1    3    3  502    0 -0.30608408804E+03 -0.12291000052E+02 -0.16684801453E+04  0.16963680417E+04  0.50400001928E-02 0. -1.
       -1    1    3    3    0  502  0.30608408804E+03  0.12291000052E+02  0.10972814061E+04  0.11392387906E+04  0.50400001928E-02 0.  1.
</event>
<event>
 5   0  0.1307832E-05  0.3137499E+04  0.7818609E-02  0.8205521E-01
        2   -1    0    0  501    0  0.00000000000E+00  0.00000000000E+00  0.10975786503E+04  0.10975786503E+04  0.25500000920E-02 0.  1.
       -2   -1    0    0    0  501  0.00000000000E+00  0.00000000000E+00 -0.22421857124E+04  0.22421857124E+04  0.25500000920E-02 0. -1.
    10030    2    1    2    0    0  0.00000000000E+00  0.00000000000E+00 -0.11446070621E+04  0.33397643627E+04  0.31374991110E+04 0.  0.
        4    1    3    3  502    0  0.11899359404E+04  0.95194136393E+02  0.51113572030E+03  0.12985649015E+04  0.12699999809E+01 0.  1.
       -4    1    3    3    0  502 -0.11899359404E+04 -0.95194136393E+02 -0.16557427824E+04  0.20411994612E+04  0.12699999809E+01 0. -1.
</event>
<event>
 5   0  0.1385669E-05  0.3757420E+04  0.7818609E-02  0.8055355E-01
       -2   -1    0    0    0  501  0.00000000000E+00  0.00000000000E+00  0.23476518796E+04  0.23476518796E+04  0.25500000920E-02 0.  1.
        2   -1    0    0  501    0  0.00000000000E+00  0.00000000000E+00 -0.15034387819E+04  0.15034387819E+04  0.25500000920E-02 0. -1.
    10030    2    1    2    0    0  0.00000000000E+00  0.00000000000E+00  0.84421309766E+03  0.38510906616E+04  0.37574197968E+04 0.  0.
        3    1    3    3  502    0  0.11843595619E+04 -0.17134830628E+03 -0.10622671630E+04  0.16001497898E+04  0.10100000352E+00 0. -1.
       -3    1    3    3    0  502 -0.11843595619E+04  0.17134830628E+03  0.19064802606E+04  0.22509408718E+04  0.10100000352E+00 0.  1.
</event>
<event>
 5   0  0.1336899E-05  0.1797621E+04  0.7818609E-02  0.8707566E-01
        2   -1    0    0  501    0  0.00000000000E+00  0.00000000000E+00  0.19567345661E+04  0.19567345661E+04  0.25500000920E-02 0.  1.
       -2   -1    0    0    0  501  0.00000000000E+00  0.00000000000E+00 -0.41286143664E+03  0.41286143665E+03  0.25500000920E-02 0. -1.
    10030    2    1    2    0    0  0.00000000000E+00  0.00000000000E+00  0.15438731294E+04  0.23695960027E+04  0.17976209212E+04 0.  0.
        1    1    3    3  502    0  0.10113256639E+03 -0.13216674920E+03  0.19362482570E+04  0.19433870325E+04  0.50400001928E-02 0.  1.
       -1    1    3    3    0  502 -0.10113256639E+03  0.13216674920E+03 -0.39237512751E+03  0.42620897022E+03  0.50400001928E-02 0. -1.
</event>
<event>
 5   0  0.1307832E-05  0.2707118E+04  0.7818609E-02  0.8332699E-01
        2   -1    0    0  501    0  0.00000000000E+00  0.00000000000E+00  0.23799452321E+04  0.23799452321E+04  0.25500000920E-02 0. -1.
       -2   -1    0    0    0  501  0.00000000000E+00  0.00000000000E+00 -0.76981705796E+03  0.76981705797E+03  0.25500000920E-02 0.  1.
    10030    2    1    2    0    0  0.00000000000E+00  0.00000000000E+00  0.16101281741E+04  0.31497622900E+04  0.27071183474E+04 0.  0.
        4    1    3    3  502    0  0.13306995092E+04 -0.21111554487E+03  0.95582687500E+03  0.16519496315E+04  0.12699999809E+01 0. -1.
       -4    1    3    3    0  502 -0.13306995092E+04  0.21111554487E+03  0.65430129909E+03  0.14978126585E+04  0.12699999809E+01 0.  1.
</event>
<event>
 5   0  0.5059249E-06  0.2034078E+04  0.7818609E-02  0.8590852E-01
        1   -1    0    0  501    0  0.00000000000E+00  0.00000000000E+00  0.12129451934E+04  0.12129451934E+04  0.50400001928E-02 0.  1.
       -1   -1    0    0    0  501  0.00000000000E+00  0.00000000000E+00 -0.85277403254E+03  0.85277403256E+03  0.50400001928E-02 0. -1.
    10030    2    1    2    0    0  0.00000000000E+00  0.00000000000E+00  0.36017116088E+03  0.20657192260E+04  0.20340778391E+04 0.  0.
        1    1    3    3  502    0  0.75787380596E+03 -0.66485345010E+03  0.31620545500E+03  0.10565929707E+04  0.50400001928E-02 0.  1.
       -1    1    3    3    0  502 -0.75787380596E+03  0.66485345010E+03  0.43965705885E+02  0.10091262553E+04  0.50400001928E-02 0. -1.
</event>
<event>
 5   0  0.1385669E-05  0.2105081E+04  0.7818609E-02  0.8559009E-01
       -2   -1    0    0    0  501  0.00000000000E+00  0.00000000000E+00  0.14811636984E+04  0.14811636984E+04  0.25500000920E-02 0. -1.
        2   -1    0    0  501    0  0.00000000000E+00  0.00000000000E+00 -0.74795329417E+03  0.74795329418E+03  0.25500000920E-02 0.  1.
    10030    2    1    2    0    0  0.00000000000E+00  0.00000000000E+00  0.73321040425E+03  0.22291169926E+04  0.21050807751E+04 0.  0.
        3    1    3    3  502    0 -0.27158307050E+03  0.35485230687E+03 -0.64252260802E+03  0.78263199263E+03  0.10100000352E+00 0.  1.
       -3    1    3    3    0  502  0.27158307050E+03 -0.35485230687E+03  0.13757330123E+04  0.14464850000E+04  0.10100000352E+00 0. -1.
</event>
<event>
 5   0  0.5059249E-06  0.2904243E+04  0.7818609E-02  0.8271616E-01
        1   -1    0    0  501    0  0.00000000000E+00  0.00000000000E+00  0.24101045427E+04  0.24101045427E+04  0.50400001928E-02 0.  1.
       -1   -1    0    0    0  501  0.00000000000E+00  0.00000000000E+00 -0.87492344152E+03  0.87492344154E+03  0.50400001928E-02 0. -1.
    10030    2    1    2    0    0  0.00000000000E+00  0.00000000000E+00  0.15351811012E+04  0.32850279843E+04  0.29042430759E+04 0.  0.
        1    1    3    3  502    0  0.89696760796E+02  0.13297597398E+04  0.11550546017E+03  0.13377772556E+04  0.50400001928E-02 0. -1.
       -1    1    3    3    0  502 -0.89696760796E+02 -0.13297597398E+04  0.14196756410E+04  0.19472507286E+04  0.50400001928E-02 0.  1.
</event>
<event>
 5   0  0.1307832E-05  0.2780794E+04  0.7818609E-02  0.8309256E-01
       -2   -1    0    0    0  501  0.00000000000E+00  0.00000000000E+00  0.19786800145E+04  0.19786800145E+04  0.25500000920E-02 0. -1.
        2   -1    0    0  501    0  0.00000000000E+00  0.00000000000E+00 -0.97701695325E+03  0.97701695325E+03  0.25500000920E-02 0.  1.
    10030    2    1    2    0    0  0.00000000000E+00  0.00000000000E+00  0.10016630612E+04  0.29556969677E+04  0.27807940731E+04 0.  0.
        4    1    3    3  502    0 -0.51335206120E+03 -0.42133191155E+03 -0.79753562434E+03  0.10378418008E+04  0.12699999809E+01 0.  1.
       -4    1    3    3    0  502  0.51335206120E+03  0.42133191155E+03  0.17991986856E+04  0.19178551670E+04  0.12699999809E+01 0. -1.
</event>
<event>
 5   0  0.1382803E-05  0.2891464E+04  0.7818609E-02  0.8275422E-01
       -2   -1    0    0    0  501  0.00000000000E+00  0.00000000000E+00  0.23937636560E+04  0.23937636560E+04  0.25500000920E-02 0. -1.
        2   -1    0    0  501    0  0.00000000000E+00  0.00000000000E+00 -0.87316094487E+03  0.87316094488E+03  0.25500000920E-02 0.  1.
    10030    2    1    2    0    0  0.00000000000E+00  0.00000000000E+00  0.15206027111E+04  0.32669246009E+04  0.28914639446E+04 0.  0.
        2    1    3    3  502    0  0.21918884482E+03 -0.13538875663E+04  0.12769358947E+04  0.18739318481E+04  0.25500000920E-02 0. -1.
       -2    1    3    3    0  502 -0.21918884482E+03  0.13538875663E+04  0.24366681637E+03  0.13929927528E+04  0.25500000920E-02 0.  1.
</event>
<event>
 5   0  0.1336899E-05  0.2887253E+04  0.7818609E-02  0.8276680E-01
       -2   -1    0    0    0  501  0.00000000000E+00  0.00000000000E+00  0.11772576474E+04  0.11772576474E+04  0.25500000920E-02 0.  1.
        2   -1    0    0  501    0  0.00000000000E+00  0.00000000000E+00 -0.17702639814E+04  0.17702639814E+04  0.25500000920E-02 0. -1.
    10030    2    1    2    0    0  0.00000000000E+00  0.00000000000E+00 -0.59300633408E+03  0.29475216288E+04  0.28872525418E+04 0.  0.
        1    1    3    3  502    0  0.14429368437E+04 -0.39492070155E+02 -0.27532275553E+03  0.14694995672E+04  0.50400001928E-02 0.  1.
       -1    1    3    3    0  502 -0.14429368437E+04  0.39492070155E+02 -0.31768357854E+03  0.14780220616E+04  0.50400001928E-02 0. -1.
</event>
<event>
 5   0  0.1336899E-05  0.2981030E+04  0.7818609E-02  0.8249169E-01
        2   -1    0    0  501    0  0.00000000000E+00  0.00000000000E+00  0.27585309912E+04  0.27585309912E+04  0.25500000920E-02 0. -1.
       -2   -1    0    0    0  501  0.00000000000E+00  0.00000000000E+00 -0.80536894171E+03  0.80536894172E+03  0.25500000920E-02 0.  1.
    10030    2    1    2    0    0  0.00000000000E+00  0.00000000000E+00  0.19531620494E+04  0.35638999329E+04  0.29810301475E+04 0.  0.
        1    1    3    3  502    0  0.67426487793E+03 -0.80261436948E+03  0.22433945781E+04  0.24762152946E+04  0.50400001928E-02 0. -1.
       -1    1    3    3    0  502 -0.67426487793E+03  0.80261436948E+03 -0.29023252870E+03  0.10876846383E+04  0.50400001928E-02 0.  1.
</event>
<event>
 5   0  0.1382803E-05  0.2238898E+04  0.7818609E-02  0.8502410E-01
       -2   -1    0    0    0  501  0.00000000000E+00  0.00000000000E+00  0.83496145473E+03  0.83496145473E+03  0.25500000920E-02 0.  1.
        2   -1    0    0  501    0  0.00000000000E+00  0.00000000000E+00 -0.15008672020E+04  0.15008672020E+04  0.25500000920E-02 0. -1.
    10030    2    1    2    0    0  0.00000000000E+00  0.00000000000E+00 -0.66590574731E+03  0.23358286568E+04  0.22388981776E+04 0.  0.
        2    1    3    3  502    0 -0.53925120040E+03 -0.63078410992E+03  0.45089747290E+03  0.94445168301E+03  0.25500000920E-02 0.  1.
       -2    1    3    3    0  502  0.53925120040E+03  0.63078410992E+03 -0.11168032202E+04  0.13913769738E+04  0.25500000920E-02 0. -1.
</event>
<event>
 5   0  0.5352212E-06  0.2852675E+04  0.7818609E-02  0.8287099E-01
        1   -1    0    0  501    0  0.00000000000E+00  0.00000000000E+00  0.20493371691E+04  0.20493371691E+04  0.50400001928E-02 0. -1.
       -1   -1    0    0    0  501  0.00000000000E+00  0.00000000000E+00 -0.99272973833E+03  0.99272973834E+03  0.50400001928E-02 0.  1.
    10030    2    1    2    0    0  0.00000000000E+00  0.00000000000E+00  0.10566074308E+04  0.30420669075E+04  0.28526745007E+04 0.  0.
        2    1    3    3  502    0 -0.57522122536E+03 -0.57513722219E+03  0.17777463702E+04  0.19550049716E+04  0.25500000920E-02 0. -1.
       -2    1    3    3    0  502  0.57522122536E+03  0.57513722219E+03 -0.72113893938E+03  0.10870619358E+04  0.25500000920E-02 0.  1.
</event>
<event>
 5   0  0.5352212E-06  0.2885072E+04  0.7818609E-02  0.8277333E-01
       -1   -1    0    0    0  501  0.00000000000E+00  0.00000000000E+00  0.23468672931E+04  0.23468672931E+04  0.50400001928E-02 0.  1.
        1   -1    0    0  501    0  0.00000000000E+00  0.00000000000E+00 -0.88667557832E+03  0.88667557834E+03  0.50400001928E-02 0. -1.
    10030    2    1    2    0    0  0.00000000000E+00  0.00000000000E+00  0.14601917148E+04  0.32335428715E+04  0.28850718635E+04 0.  0.
        2    1    3    3  502    0 -0.11501870242E+04  0.44015052289E+03  0.15719884920E+04  0.19969502979E+04  0.25500000920E-02 0.  1.
       -2    1    3    3    0  502  0.11501870242E+04 -0.44015052289E+03 -0.11179677716E+03  0.12365925735E+04  0.25500000920E-02 0. -1.
</event>
<event>
 5   0  0.5002240E-06  0.2066392E+04  0.7818609E-02  0.8576194E-01
       -1   -1    0    0    0  501  0.00000000000E+00  0.00000000000E+00  0.85852364544E+03  0.85852364546E+03  0.50400001928E-02 0. -1.
        1   -1    0    0  501    0  0.00000000000E+00  0.00000000000E+00 -0.12434060249E+04  0.12434060249E+04  0.50400001928E-02 0.  1.
    10030    2    1    2    0    0  0.00000000000E+00  0.00000000000E+00 -0.38488237942E+03  0.21019296703E+04  0.20663915149E+04 0.  0.
        4    1    3    3  502    0  0.37958207055E+02 -0.47246847059E+03  0.74140245377E+03  0.87996959751E+03  0.12699999809E+01 0. -1.
       -4    1    3    3    0  502 -0.37958207055E+02  0.47246847059E+03 -0.11262848332E+04  0.12219600728E+04  0.12699999809E+01 0.  1.
</event>
<event>
 5   0  0.5261878E-06  0.2903924E+04  0.7818609E-02  0.8271711E-01
        1   -1    0    0  501    0  0.00000000000E+00  0.00000000000E+00  0.18158255176E+04  0.18158255176E+04  0.50400001928E-02 0.  1.
       -1   -1    0    0    0  501  0.00000000000E+00  0.00000000000E+00 -0.11610112270E+04  0.11610112270E+04  0.50400001928E-02 0. -1.
    10030    2    1    2    0    0  0.00000000000E+00  0.00000000000E+00  0.65481429061E+03  0.29768367446E+04  0.29039241121E+04 0.  0.
        5    1    3    3  502    0 -0.50885546685E+03  0.66661427117E+03  0.15424365290E+04  0.17556881866E+04  0.46999998093E+01 0.  1.
       -5    1    3    3    0  502  0.50885546685E+03 -0.66661427117E+03 -0.88762223835E+03  0.12211485580E+04  0.46999998093E+01 0. -1.
</event>
<event>
 5   0  0.5261878E-06  0.2901862E+04  0.7818609E-02  0.8272324E-01
        1   -1    0    0  501    0  0.00000000000E+00  0.00000000000E+00  0.29588693429E+04  0.29588693429E+04  0.50400001928E-02 0.  1.
       -1   -1    0    0    0  501  0.00000000000E+00  0.00000000000E+00 -0.71148839997E+03  0.71148839999E+03  0.50400001928E-02 0. -1.
    10030    2    1    2    0    0  0.00000000000E+00  0.00000000000E+00  0.22473809429E+04  0.36703577429E+04  0.29018623086E+04 0.  0.
        5    1    3    3  502    0 -0.62880081056E+03 -0.85875702538E+02 -0.52661442911E+03  0.82468778492E+03  0.46999998093E+01 0. -1.
       -5    1    3    3    0  502  0.62880081056E+03  0.85875702538E+02  0.27739953720E+04  0.28456699579E+04  0.46999998093E+01 0.  1.
</event>
<event>
 5   0  0.1385669E-05  0.2905835E+04  0.7818609E-02  0.8271143E-01
        2   -1    0    0  501    0  0.00000000000E+00  0.00000000000E+00  0.31911212856E+04  0.31911212856E+04  0.25500000920E-02 0. -1.
       -2   -1    0    0    0  501  0.00000000000E+00  0.00000000000E+00 -0.66151346775E+03  0.66151346775E+03  0.25500000920E-02 0.  1.
    10030    2    1    2    0    0  0.00000000000E+00  0.00000000000E+00  0.25296078179E+04  0.38526347534E+04  0.29058353069E+04 0.  0.
        3    1    3    3  502    0 -0.10552660677E+04 -0.32633801578E+03  0.25162094829E+04  0.27479798300E+04  0.10100000352E+00 0. -1.
       -3    1    3    3    0  502  0.10552660677E+04  0.32633801578E+03  0.13398335006E+02  0.11046549234E+04  0.10100000352E+00 0.  1.
</event>
<event>
 5   0  0.1385669E-05  0.2090638E+04  0.7818609E-02  0.8565379E-01
        2   -1    0    0  501    0  0.00000000000E+00  0.00000000000E+00  0.17269869414E+04  0.17269869414E+04  0.25500000920E-02 0. -1.
       -2   -1    0    0    0  501  0.00000000000E+00  0.00000000000E+00 -0.63271584763E+03  0.63271584764E+03  0.25500000920E-02 0.  1.
    10030    2    1    2    0    0  0.00000000000E+00  0.00000000000E+00  0.10942710938E+04  0.23597027890E+04  0.20906381863E+04 0.  0.
        3    1    3    3  502    0 -0.34670221091E+03 -0.65727028570E+03 -0.28265864077E+03  0.79504878398E+03  0.10100000352E+00 0.  1.
       -3    1    3    3    0  502  0.34670221091E+03  0.65727028570E+03  0.13769297345E+04  0.15646540050E+04  0.10100000352E+00 0. -1.
</event>
<event>
 5   0  0.5261878E-06  0.2916918E+04  0.7818609E-02  0.8267861E-01
       -1   -1    0    0    0  501  0.00000000000E+00  0.00000000000E+00  0.11663798587E+04  0.11663798587E+04  0.50400001928E-02 0. -1.
        1   -1    0    0  501    0  0.00000000000E+00  0.00000000000E+00 -0.18236797609E+04  0.18236797609E+04  0.50400001928E-02 0.  1.
    10030    2    1    2    0    0  0.00000000000E+00  0.00000000000E+00 -0.65729990222E+03  0.29900596197E+04  0.29169184712E+04 0.  0.
        5    1    3    3  502    0 -0.11708706854E+04 -0.63547595099E+03  0.27979338887E+03  0.13612767083E+04  0.46999998093E+01 0. -1.
       -5    1    3    3    0  502  0.11708706854E+04  0.63547595099E+03 -0.93709329109E+03  0.16287829114E+04  0.46999998093E+01 0.  1.
</event>
<event>
 5   0  0.1336899E-05  0.2852004E+04  0.7818609E-02  0.8287303E-01
        2   -1    0    0  501    0  0.00000000000E+00  0.00000000000E+00  0.25209104885E+04  0.25209104885E+04  0.25500000920E-02 0.  1.
       -2   -1    0    0    0  501  0.00000000000E+00  0.00000000000E+00 -0.80664578958E+03  0.80664578959E+03  0.25500000920E-02 0. -1.
    10030    2    1    2    0    0  0.00000000000E+00  0.00000000000E+00  0.17142646989E+04  0.33275562781E+04  0.28520040894E+04 0.  0.
        1    1    3    3  502    0  0.13582753059E+04  0.43079706895E+03  0.79339879503E+03  0.16309443796E+04  0.50400001928E-02 0. -1.
       -1    1    3    3    0  502 -0.13582753059E+04 -0.43079706895E+03  0.92086590391E+03  0.16966118985E+04  0.50400001928E-02 0.  1.
</event>
<event>
 5   0  0.5352212E-06  0.2857731E+04  0.7818609E-02  0.8285566E-01
       -1   -1    0    0    0  501  0.00000000000E+00  0.00000000000E+00  0.15738534655E+04  0.15738534655E+04  0.50400001928E-02 0.  1.
        1   -1    0    0  501    0  0.00000000000E+00  0.00000000000E+00 -0.12972339774E+04  0.12972339774E+04  0.50400001928E-02 0. -1.
    10030    2    1    2    0    0  0.00000000000E+00  0.00000000000E+00  0.27661948807E+03  0.28710874429E+04  0.28577307018E+04 0.  0.
        2    1    3    3  502    0 -0.92117395113E+03  0.70992160830E+03  0.97231377821E+03  0.15158971672E+04  0.25500000920E-02 0.  1.
       -2    1    3    3    0  502  0.92117395113E+03 -0.70992160830E+03 -0.69569429014E+03  0.13551902758E+04  0.25500000920E-02 0. -1.
</event>
<event>
 5   0  0.1385669E-05  0.2928925E+04  0.7818609E-02  0.8264323E-01
        2   -1    0    0  501    0  0.00000000000E+00  0.00000000000E+00  0.24895758319E+04  0.24895758319E+04  0.25500000920E-02 0.  1.
       -2   -1    0    0    0  501  0.00000000000E+00  0.00000000000E+00 -0.86145211978E+03  0.86145211978E+03  0.25500000920E-02 0. -1.
    10030    2    1    2    0    0  0.00000000000E+00  0.00000000000E+00  0.16281237121E+04  0.33510279517E+04  0.29289249753E+04 0.  0.
        3    1    3    3  502    0  0.58687494204E+03  0.93031333161E+03 -0.29209430430E+03  0.11380791648E+04  0.10100000352E+00 0. -1.
       -3    1    3    3    0  502 -0.58687494204E+03 -0.93031333161E+03  0.19202180164E+04  0.22129487869E+04  0.10100000352E+00 0.  1.
</event>
<event>
 5   0  0.1307832E-05  0.2064983E+04  0.7818609E-02  0.8576827E-01
        2   -1    0    0  501    0  0.00000000000E+00  0.00000000000E+00  0.13150419740E+04  0.13150419740E+04  0.25500000920E-02 0.  1.
       -2   -1    0    0    0  501  0.00000000000E+00  0.00000000000E+00 -0.81065010448E+03  0.81065010449E+03  0.25500000920E-02 0. -1.
    10030    2    1    2    0    0  0.00000000000E+00  0.00000000000E+00  0.50439186948E+03  0.21256920785E+04  0.20649832092E+04 0.  0.
        4    1    3    3  502    0  0.41659002565E+03  0.26613714041E+03  0.11853002240E+04  0.12842563844E+04  0.12699999809E+01 0.  1.
       -4    1    3    3    0  502 -0.41659002565E+03 -0.26613714041E+03 -0.68090835455E+03  0.84143569402E+03  0.12699999809E+01 0. -1.
</event>
<event>
 5   0  0.1339837E-05  0.2965065E+04  0.7818609E-02  0.8253778E-01
        2   -1    0    0  501    0  0.00000000000E+00  0.00000000000E+00  0.14789565707E+04  0.14789565707E+04  0.25500000920E-02 0. -1.
       -2   -1    0    0    0  501  0.00000000000E+00  0.00000000000E+00 -0.14861167120E+04  0.14861167120E+04  0.25500000920E-02 0.  1.
    10030    2    1    2    0    0  0.00000000000E+00  0.00000000000E+00 -0.71601413792E+01  0.29650732827E+04  0.29650646374E+04 0.  0.
        5    1    3    3  502    0 -0.13662459914E+04  0.43609034315E+03 -0.37918346821E+03  0.14834436589E+04  0.46999998093E+01 0. -1.
       -5    1    3    3    0  502  0.13662459914E+04 -0.43609034315E+03  0.37202332683E+03  0.14816296238E+04  0.46999998093E+01 0.  1.
</event>
<event>
 5   0  0.5059249E-06  0.2909462E+04  0.7818609E-02  0.8270068E-01
       -1   -1    0    0    0  501  0.00000000000E+00  0.00000000000E+00  0.15625654687E+04  0.15625654687E+04  0.50400001928E-02 0. -1.
        1   -1    0    0  501    0  0.00000000000E+00  0.00000000000E+00 -0.13543387415E+04  0.13543387415E+04  0.50400001928E-02 0.  1.
    10030    2    1    2    0    0  0.00000000000E+00  0.00000000000E+00  0.20822672717E+03  0.29169042102E+04  0.29094624592E+04 0.  0.
        1    1    3    3  502    0 -0.43138614858E+03  0.10792320679E+04  0.98122656655E+03  0.15210658896E+04  0.50400001928E-02 0. -1.
       -1    1    3    3    0  502  0.43138614858E+03 -0.10792320679E+04 -0.77299983938E+03  0.13958383206E+04  0.50400001928E-02 0.  1.
</event>
<event>
 5   0  0.5154476E-06  0.2918411E+04  0.7818609E-02  0.8267421E-01
        1   -1    0    0  501    0  0.00000000000E+00  0.00000000000E+00  0.14273131604E+04  0.14273131604E+04  0.50400001928E-02 0. -1.
       -1   -1    0    0    0  501  0.00000000000E+00  0.00000000000E+00 -0.14918109306E+04  0.14918109306E+04  0.50400001928E-02 0.  1.
    10030    2    1    2    0    0  0.00000000000E+00  0.00000000000E+00 -0.64497770200E+02  0.29191240910E+04  0.29184114680E+04 0.  0.
        3    1    3    3  502    0 -0.69316331782E+03 -0.10620145054E+04 -0.75418074059E+03  0.14755130615E+04  0.10100000352E+00 0. -1.
       -3    1    3    3    0  502  0.69316331782E+03  0.10620145054E+04  0.68968297039E+03  0.14436110296E+04  0.10100000352E+00 0.  1.
</event>
<event>
 5   0  0.5002240E-06  0.2880052E+04  0.7818609E-02  0.8278837E-01
       -1   -1    0    0    0  501  0.00000000000E+00  0.00000000000E+00  0.14917644829E+04  0.14917644829E+04  0.50400001928E-02 0.  1.
        1   -1    0    0  501    0  0.00000000000E+00  0.00000000000E+00 -0.13900820155E+04  0.13900820155E+04  0.50400001928E-02 0. -1.
    10030    2    1    2    0    0  0.00000000000E+00  0.00000000000E+00  0.10168246739E+03  0.28818464985E+04  0.28800520684E+04 0.  0.
        4    1    3    3  502    0  0.20581597275E+03  0.12953044781E+04 -0.54408741478E+03  0.14199319116E+04  0.12699999809E+01 0. -1.
       -4    1    3    3    0  502 -0.20581597275E+03 -0.12953044781E+04  0.64576988217E+03  0.14619145869E+04  0.12699999809E+01 0.  1.
</event>
<event>
 5   0  0.5261878E-06  0.2924294E+04  0.7818609E-02  0.8265686E-01
       -1   -1    0    0    0  501  0.00000000000E+00  0.00000000000E+00  0.14405970033E+04  0.14405970033E+04  0.50400001928E-02 0. -1.
        1   -1    0    0  501    0  0.00000000000E+00  0.00000000000E+00 -0.14840198653E+04  0.14840198654E+04  0.50400001928E-02 0.  1.
    10030    2    1    2    0    0  0.00000000000E+00  0.00000000000E+00 -0.43422862083E+02  0.29246168686E+04  0.29242944933E+04 0.  0.
        5    1    3    3  502    0 -0.11532948042E+04  0.74500250008E+03 -0.52449426350E+03  0.14697734359E+04  0.46999998093E+01 0.  1.
       -5    1    3    3    0  502  0.11532948042E+04 -0.74500250008E+03  0.48107140142E+03  0.14548434327E+04  0.46999998093E+01 0. -1.
</event>
<event>
 5   0  0.1385669E-05  0.2877992E+04  0.7818609E-02  0.8279456E-01
        2   -1    0    0  501    0  0.00000000000E+00  0.00000000000E+00  0.19388199940E+04  0.19388199940E+04  0.25500000920E-02 0.  1.
       -2   -1    0    0    0  501  0.00000000000E+00  0.00000000000E+00 -0.10680256971E+04  0.10680256971E+04  0.25500000920E-02 0. -1.
    10030    2    1    2    0    0  0.00000000000E+00  0.00000000000E+00  0.87079429690E+03  0.30068456911E+04  0.28779920609E+04 0.  0.
        3    1    3    3  502    0 -0.11748281630E+04  0.20796157883E+03  0.12759293113E+04  0.17468442542E+04  0.10100000352E+00 0.  1.
       -3    1    3    3    0  502  0.11748281630E+04 -0.20796157883E+03 -0.40513501439E+03  0.12600014369E+04  0.10100000352E+00 0. -1.
</event>
<event>
 5   0  0.5352212E-06  0.2900652E+04  0.7818609E-02  0.8272684E-01
       -1   -1    0    0    0  501  0.00000000000E+00  0.00000000000E+00  0.90688800707E+03  0.90688800709E+03  0.50400001928E-02 0. -1.
        1   -1    0    0  501    0  0.00000000000E+00  0.00000000000E+00 -0.23194099654E+04  0.23194099654E+04  0.50400001928E-02 0.  1.
    10030    2    1    2    0    0  0.00000000000E+00  0.00000000000E+00 -0.14125219584E+04  0.32262979725E+04  0.29006517069E+04 0.  0.
        2    1    3    3  502    0 -0.14465488785E+03 -0.19612480372E+03  0.88395162250E+03  0.91692990252E+03  0.25500000920E-02 0. -1.
       -2    1    3    3    0  502  0.14465488785E+03  0.19612480372E+03 -0.22964735808E+04  0.23093680700E+04  0.25500000920E-02 0.  1.
</event>
<event>
 5   0  0.5002240E-06  0.2894250E+04  0.7818609E-02  0.8274590E-01
        1   -1    0    0  501    0  0.00000000000E+00  0.00000000000E+00  0.17419987159E+04  0.17419987159E+04  0.50400001928E-02 0.  1.
       -1   -1    0    0    0  501  0.00000000000E+00  0.00000000000E+00 -0.12021659045E+04  0.12021659045E+04  0.50400001928E-02 0. -1.
    10030    2    1    2    0    0  0.00000000000E+00  0.00000000000E+00  0.53983281146E+03  0.29441646204E+04  0.28942504812E+04 0.  0.
        4    1    3    3  502    0  0.10461880986E+04 -0.10283225698E+02  0.12869357868E+04  0.16585598013E+04  0.12699999809E+01 0.  1.
       -4    1    3    3    0  502 -0.10461880986E+04  0.10283225698E+02 -0.74710297534E+03  0.12856048191E+04  0.12699999809E+01 0. -1.
</event>
<event>
 5   0  0.5154476E-06  0.2948407E+04  0.7818609E-02  0.8258619E-01
       -1   -1    0    0    0  501  0.00000000000E+00  0.00000000000E+00  0.11898542871E+04  0.11898542871E+04  0.50400001928E-02 0. -1.
        1   -1    0    0  501    0  0.00000000000E+00  0.00000000000E+00 -0.18265061700E+04  0.18265061701E+04  0.50400001928E-02 0.  1.
    10030    2    1    2    0    0  0.00000000000E+00  0.00000000000E+00 -0.63665188295E+03  0.30163604572E+04  0.29484071611E+04 0.  0.
        3    1    3    3  502    0  0.10866503011E+04  0.63909766739E+03  0.46350020826E+03  0.13431631169E+04  0.10100000352E+00 0. -1.
       -3    1    3    3    0  502 -0.10866503011E+04 -0.63909766739E+03 -0.11001520912E+04  0.16731973402E+04  0.10100000352E+00 0.  1.
</event>
<event>
 5   0  0.5002240E-06  0.2804309E+04  0.7818609E-02  0.8301932E-01
        1   -1    0    0  501    0  0.00000000000E+00  0.00000000000E+00  0.17331236238E+04  0.17331236238E+04  0.50400001928E-02 0.  1.
       -1   -1    0    0    0  501  0.00000000000E+00  0.00000000000E+00 -0.11343894397E+04  0.11343894397E+04  0.50400001928E-02 0. -1.
    10030    2    1    2    0    0  0.00000000000E+00  0.00000000000E+00  0.59873418414E+03  0.28675130635E+04  0.28043089249E+04 0.  0.
        4    1    3    3  502    0 -0.46832362051E+03  0.11227097553E+04 -0.41365176198E+03  0.12848788275E+04  0.12699999809E+01 0.  1.
       -4    1    3    3    0  502  0.46832362051E+03 -0.11227097553E+04  0.10123859461E+04  0.15826342360E+04  0.12699999809E+01 0. -1.
</event>
<event>
 5   0  0.1382803E-05  0.2912946E+04  0.7818609E-02  0.8269036E-01
        2   -1    0    0  501    0  0.00000000000E+00  0.00000000000E+00  0.28059394599E+04  0.28059394599E+04  0.25500000920E-02 0. -1.
       -2   -1    0    0    0  501  0.00000000000E+00  0.00000000000E+00 -0.75600854649E+03  0.75600854649E+03  0.25500000920E-02 0.  1.
    10030    2    1    2    0    0  0.00000000000E+00  0.00000000000E+00  0.20499309134E+04  0.35619480064E+04  0.29129464208E+04 0.  0.
        2    1    3    3  502    0 -0.58998574036E+03  0.50611280759E+03  0.25310850021E+04  0.26477584172E+04  0.25500000920E-02 0. -1.
       -2    1    3    3    0  502  0.58998574036E+03 -0.50611280759E+03 -0.48115408874E+03  0.91418958918E+03  0.25500000920E-02 0.  1.
</event>
<event>
 5   0  0.1339837E-05  0.2460883E+04  0.7818609E-02  0.8417055E-01
       -2   -1    0    0    0  501  0.00000000000E+00  0.00000000000E+00  0.10928866663E+04  0.10928866663E+04  0.25500000920E-02 0. -1.
        2   -1    0    0  501    0  0.00000000000E+00  0.00000000000E+00 -0.13853093563E+04  0.13853093563E+04  0.25500000920E-02 0.  1.
    10030    2    1    2    0    0  0.00000000000E+00  0.00000000000E+00 -0.29242268998E+03  0.24781960226E+04  0.24608828694E+04 0.  0.
        5    1    3    3  502    0 -0.11147258680E+03  0.47494370755E+03  0.99132249924E+03  0.11048710560E+04  0.46999998093E+01 0. -1.
       -5    1    3    3    0  502  0.11147258680E+03 -0.47494370755E+03 -0.12837451892E+04  0.13733249666E+04  0.46999998093E+01 0.  1.
</event>
<event>
 5   0  0.1385669E-05  0.2897586E+04  0.7818609E-02  0.8273596E-01
       -2   -1    0    0    0  501  0.00000000000E+00  0.00000000000E+00  0.12672713815E+04  0.12672713815E+04  0.25500000920E-02 0.  1.
        2   -1    0    0  501    0  0.00000000000E+00  0.00000000000E+00 -0.16563159743E+04  0.16563159743E+04  0.25500000920E-02 0. -1.
    10030    2    1    2    0    0  0.00000000000E+00  0.00000000000E+00 -0.38904459277E+03  0.29235873558E+04  0.28975864667E+04 0.  0.
        3    1    3    3  502    0  0.99649010468E+03 -0.75322990371E+03 -0.93503858778E+03  0.15603348959E+04  0.10100000352E+00 0. -1.
       -3    1    3    3    0  502 -0.99649010468E+03  0.75322990371E+03  0.54599399502E+03  0.13632524599E+04  0.10100000352E+00 0.  1.
</event>
<event>
 5   0  0.1339837E-05  0.2863472E+04  0.7818609E-02  0.8283829E-01
       -2   -1    0    0    0  501  0.00000000000E+00  0.00000000000E+00  0.64248792185E+03  0.64248792185E+03  0.25500000920E-02 0. -1.
        2   -1    0    0  501    0  0.00000000000E+00  0.00000000000E+00 -0.31905155210E+04  0.31905155210E+04  0.25500000920E-02 0.  1.
    10030    2    1    2    0    0  0.00000000000E+00  0.00000000000E+00 -0.25480275992E+04  0.38330034429E+04  0.28634717996E+04 0.  0.
        5    1    3    3  502    0  0.50265030368E+03  0.11032695184E+04 -0.22934370734E+04  0.25941735983E+04  0.46999998093E+01 0.  1.
       -5    1    3    3    0  502 -0.50265030368E+03 -0.11032695184E+04 -0.25459052573E+03  0.12388298446E+04  0.46999998093E+01 0. -1.
</event>
<event>
 5   0  0.5002240E-06  0.2762293E+04  0.7818609E-02  0.8315071E-01
        1   -1    0    0  501    0  0.00000000000E+00  0.00000000000E+00  0.13191857963E+04  0.13191857963E+04  0.50400001928E-02 0. -1.
       -1   -1    0    0    0  501  0.00000000000E+00  0.00000000000E+00 -0.14460175675E+04  0.14460175675E+04  0.50400001928E-02 0.  1.
    10030    2    1    2    0    0  0.00000000000E+00  0.00000000000E+00 -0.12683177123E+03  0.27652033639E+04  0.27622931317E+04 0.  0.
        4    1    3    3  502    0 -0.68867731493E+03  0.48365403003E+03  0.10328938749E+04  0.13323171674E+04  0.12699999809E+01 0. -1.
       -4    1    3    3    0  502  0.68867731493E+03 -0.48365403003E+03 -0.11597256461E+04  0.14328861965E+04  0.12699999809E+01 0.  1.
</event>
<event>
 5   0  0.5154476E-06  0.2823268E+04  0.7818609E-02  0.8296081E-01
       -1   -1    0    0    0  501  0.00000000000E+00  0.00000000000E+00  0.93439642217E+03  0.93439642218E+03  0.50400001928E-02 0.  1.
        1   -1    0    0  501    0  0.00000000000E+00  0.00000000000E+00 -0.21326183705E+04  0.21326183705E+04  0.50400001928E-02 0. -1.
    10030    2    1    2    0    0  0.00000000000E+00  0.00000000000E+00 -0.11982219484E+04  0.30670147927E+04  0.28232683013E+04 0.  0.
        3    1    3    3  502    0 -0.52575853645E+03 -0.98471154312E+03  0.33956790995E+03  0.11667841435E+04  0.10100000352E+00 0.  1.
       -3    1    3    3    0  502  0.52575853645E+03  0.98471154312E+03 -0.15377898583E+04  0.19002306493E+04  0.10100000352E+00 0. -1.
</event>
<event>
 5   0  0.5154476E-06  0.2826255E+04  0.7818609E-02  0.8295163E-01
       -1   -1    0    0    0  501  0.00000000000E+00  0.00000000000E+00  0.23136402945E+04  0.23136402945E+04  0.50400001928E-02 0.  1.
        1   -1    0    0  501    0  0.00000000000E+00  0.00000000000E+00 -0.86311128476E+03  0.86311128477E+03  0.50400001928E-02 0. -1.
    10030    2    1    2    0    0  0.00000000000E+00  0.00000000000E+00  0.14505290098E+04  0.31767515793E+04  0.28262547989E+04 0.  0.
        3    1    3    3  502    0 -0.13236970736E+04  0.33215346645E+03  0.31314924252E+03  0.14002008164E+04  0.10100000352E+00 0. -1.
       -3    1    3    3    0  502  0.13236970736E+04 -0.33215346645E+03  0.11373797673E+04  0.17765507629E+04  0.10100000352E+00 0.  1.
</event>
<event>
 5   0  0.5261878E-06  0.2889935E+04  0.7818609E-02  0.8275879E-01
        1   -1    0    0  501    0  0.00000000000E+00  0.00000000000E+00  0.17777582330E+04  0.17777582330E+04  0.50400001928E-02 0. -1.
       -1   -1    0    0    0  501  0.00000000000E+00  0.00000000000E+00 -0.11744737631E+04  0.11744737631E+04  0.50400001928E-02 0.  1.
    10030    2    1    2    0    0  0.00000000000E+00  0.00000000000E+00  0.60328446997E+03  0.29522319961E+04  0.28899345334E+04 0.  0.
        5    1    3    3  502    0 -0.82799947192E+03 -0.26059957888E+03 -0.87842735183E+03  0.12349704322E+04  0.46999998093E+01 0.  1.
       -5    1    3    3    0  502  0.82799947192E+03  0.26059957888E+03  0.14817118218E+04  0.17172615639E+04  0.46999998093E+01 0. -1.
</event>
<event>
 5   0  0.1382803E-05  0.1915365E+04  0.7818609E-02  0.8647246E-01
        2   -1    0    0  501    0  0.00000000000E+00  0.00000000000E+00  0.75611059506E+03  0.75611059506E+03  0.25500000920E-02 0. -1.
       -2   -1    0    0    0  501  0.00000000000E+00  0.00000000000E+00 -0.12129910138E+04  0.12129910138E+04  0.25500000920E-02 0.  1.
    10030    2    1    2    0    0  0.00000000000E+00  0.00000000000E+00 -0.45688041878E+03  0.19691016089E+04  0.19153645682E+04 0.  0.
        2    1    3    3  502    0 -0.77425049441E+03 -0.53697506262E+03 -0.52317387562E+02  0.94368594089E+03  0.25500000920E-02 0. -1.
       -2    1    3    3    0  502  0.77425049441E+03  0.53697506262E+03 -0.40456303122E+03  0.10254156680E+04  0.25500000920E-02 0.  1.
</event>
<event>
 5   0  0.1385669E-05  0.2904328E+04  0.7818609E-02  0.8271591E-01
       -2   -1    0    0    0  501  0.00000000000E+00  0.00000000000E+00  0.18175673112E+04  0.18175673112E+04  0.25500000920E-02 0. -1.
        2   -1    0    0  501    0  0.00000000000E+00  0.00000000000E+00 -0.11602210478E+04  0.11602210478E+04  0.25500000920E-02 0.  1.
    10030    2    1    2    0    0  0.00000000000E+00  0.00000000000E+00  0.65734626336E+03  0.29777883590E+04  0.29043277021E+04 0.  0.
        3    1    3    3  502    0 -0.11838114814E+04  0.82654227899E+03  0.16918122727E+03  0.14536863693E+04  0.10100000352E+00 0.  1.
       -3    1    3    3    0  502  0.11838114814E+04 -0.82654227899E+03  0.48816503609E+03  0.15241019897E+04  0.10100000352E+00 0. -1.
</event>
<event>
 5   0  0.1385669E-05  0.2815418E+04  0.7818609E-02  0.8298498E-01
        2   -1    0    0  501    0  0.00000000000E+00  0.00000000000E+00  0.89913105880E+03  0.89913105880E+03  0.25500000920E-02 0.  1.
       -2   -1    0    0    0  501  0.00000000000E+00  0.00000000000E+00 -0.22039545731E+04  0.22039545731E+04  0.25500000920E-02 0. -1.
    10030    2    1    2    0    0  0.00000000000E+00  0.00000000000E+00 -0.13048235143E+04  0.31030856319E+04  0.28154175597E+04 0.  0.
        3    1    3    3  502    0 -0.75007714319E+03 -0.33848137501E+03 -0.19112389091E+04  0.20808698997E+04  0.10100000352E+00 0. -1.
       -3    1    3    3    0  502  0.75007714319E+03  0.33848137501E+03  0.60641539472E+03  0.10222157322E+04  0.10100000352E+00 0.  1.
</event>
<event>
 5   0  0.5352212E-06  0.2854132E+04  0.7818609E-02  0.8286657E-01
        1   -1    0    0  501    0  0.00000000000E+00  0.00000000000E+00  0.17851516667E+04  0.17851516667E+04  0.50400001928E-02 0. -1.
       -1   -1    0    0    0  501  0.00000000000E+00  0.00000000000E+00 -0.11408090599E+04  0.11408090599E+04  0.50400001928E-02 0.  1.
    10030    2    1    2    0    0  0.00000000000E+00  0.00000000000E+00  0.64434260678E+03  0.29259607265E+04  0.28541318782E+04 0.  0.
        2    1    3    3  502    0  0.79154138946E+02 -0.87540099867E+03  0.14747088769E+04  0.17167872780E+04  0.25500000920E-02 0. -1.
       -2    1    3    3    0  502 -0.79154138946E+02  0.87540099867E+03 -0.83036627011E+03  0.12091734486E+04  0.25500000920E-02 0.  1.
</event>
<event>
 5   0  0.1307832E-05  0.2835412E+04  0.7818609E-02  0.8292358E-01
       -2   -1    0    0    0  501  0.00000000000E+00  0.00000000000E+00  0.20387770125E+04  0.20387770125E+04  0.25500000920E-02 0. -1.
        2   -1    0    0  501    0  0.00000000000E+00  0.00000000000E+00 -0.98583129394E+03  0.98583129394E+03  0.25500000920E-02 0.  1.
    10030    2    1    2    0    0  0.00000000000E+00  0.00000000000E+00  0.10529457186E+04  0.30246083064E+04  0.28354119138E+04 0.  0.
        4    1    3    3  502    0 -0.12800246797E+04  0.59148613855E+03  0.36980735912E+03  0.14577647713E+04  0.12699999809E+01 0.  1.
       -4    1    3    3    0  502  0.12800246797E+04 -0.59148613855E+03  0.68313835945E+03  0.15668435352E+04  0.12699999809E+01 0. -1.
</event>
<event>
 5   0  0.1385669E-05  0.2853699E+04  0.7818609E-02  0.8286788E-01
       -2   -1    0    0    0  501  0.00000000000E+00  0.00000000000E+00  0.15766222859E+04  0.15766222859E+04  0.25500000920E-02 0. -1.
        2   -1    0    0  501    0  0.00000000000E+00  0.00000000000E+00 -0.12913043248E+04  0.12913043248E+04  0.25500000920E-02 0.  1.
    10030    2    1    2    0    0  0.00000000000E+00  0.00000000000E+00  0.28531796105E+03  0.28679266107E+04  0.28536987762E+04 0.  0.
        3    1    3    3  502    0  0.64597891715E+03  0.78071614547E+03  0.11522034128E+04  0.15343986365E+04  0.10100000352E+00 0. -1.
       -3    1    3    3    0  502 -0.64597891715E+03 -0.78071614547E+03 -0.86688545174E+03  0.13335279741E+04  0.10100000352E+00 0.  1.
</event>
<event>
 5   0  0.1385669E-05  0.2925910E+04  0.7818609E-02  0.8265210E-01
       -2   -1    0    0    0  501  0.00000000000E+00  0.00000000000E+00  0.13893724003E+04  0.13893724003E+04  0.25500000920E-02 0.  1.
        2   -1    0    0  501    0  0.00000000000E+00  0.00000000000E+00 -0.15404345890E+04  0.15404345890E+04  0.25500000920E-02 0. -1.
    10030    2    1    2    0    0  0.00000000000E+00  0.00000000000E+00 -0.15106218871E+03  0.29298069893E+04  0.29259099797E+04 0.  0.
        3    1    3    3  502    0  0.10544624147E+04 -0.28771956065E+03 -0.10492272616E+04  0.15151077145E+04  0.10100000352E+00 0. -1.
       -3    1    3    3    0  502 -0.10544624147E+04  0.28771956065E+03  0.89816507294E+03  0.14146992748E+04  0.10100000352E+00 0.  1.
</event>
<event>
 5   0  0.1385669E-05  0.2823706E+04  0.7818609E-02  0.8295946E-01
       -2   -1    0    0    0  501  0.00000000000E+00  0.00000000000E+00  0.86850266616E+03  0.86850266616E+03  0.25500000920E-02 0.  1.
        2   -1    0    0  501    0  0.00000000000E+00  0.00000000000E+00 -0.22951325380E+04  0.22951325380E+04  0.25500000920E-02 0. -1.
    10030    2    1    2    0    0  0.00000000000E+00  0.00000000000E+00 -0.14266298719E+04  0.31636352042E+04  0.28237058830E+04 0.  0.
        3    1    3    3  502    0  0.24579468572E+03 -0.13814981372E+04 -0.88824054563E+03  0.16606996742E+04  0.10100000352E+00 0.  1.
       -3    1    3    3    0  502 -0.24579468572E+03  0.13814981372E+04 -0.53838932624E+03  0.15029355300E+04  0.10100000352E+00 0. -1.
</event>
<event>
 5   0  0.1339837E-05  0.2832429E+04  0.7818609E-02  0.8293270E-01
       -2   -1    0    0    0  501  0.00000000000E+00  0.00000000000E+00  0.16538134726E+04  0.16538134726E+04  0.25500000920E-02 0.  1.
        2   -1    0    0  501    0  0.00000000000E+00  0.00000000000E+00 -0.12127510616E+04  0.12127510616E+04  0.25500000920E-02 0. -1.
    10030    2    1    2    0    0  0.00000000000E+00  0.00000000000E+00  0.44106241103E+03  0.28665645342E+04  0.28324293775E+04 0.  0.
        5    1    3    3  502    0 -0.50816247666E+03 -0.13127486614E+04  0.63406156177E+02  0.14091063059E+04  0.46999998093E+01 0. -1.
       -5    1    3    3    0  502  0.50816247666E+03  0.13127486614E+04  0.37765625486E+03  0.14574582284E+04  0.46999998093E+01 0.  1.
</event>
<event>
 5   0  0.5154476E-06  0.2931852E+04  0.7818609E-02  0.8263463E-01
        1   -1    0    0  501    0  0.00000000000E+00  0.00000000000E+00  0.30024248784E+04  0.30024248784E+04  0.50400001928E-02 0. -1.
       -1   -1    0    0    0  501  0.00000000000E+00  0.00000000000E+00 -0.71573436831E+03  0.71573436833E+03  0.50400001928E-02 0.  1.
    10030    2    1    2    0    0  0.00000000000E+00  0.00000000000E+00  0.22866905101E+04  0.37181592467E+04  0.29318517519E+04 0.  0.
        3    1    3    3  502    0  0.33240278119E+03  0.14016192217E+04  0.79856738752E+03  0.16470391417E+04  0.10100000352E+00 0. -1.
       -3    1    3    3    0  502 -0.33240278119E+03 -0.14016192217E+04  0.14881231226E+04  0.20711201051E+04  0.10100000352E+00 0.  1.
</event>
<event>
 5   0  0.4590125E-06  0.2848812E+04  0.7818609E-02  0.8288273E-01
       -3   -1    0    0    0  501  0.00000000000E+00  0.00000000000E+00  0.87477489970E+03  0.87477490553E+03  0.10100000352E+00 0.  1.
        3   -1    0    0  501    0  0.00000000000E+00  0.00000000000E+00 -0.23193759304E+04  0.23193759326E+04  0.10100000352E+00 0. -1.
    10030    2    1    2    0    0  0.00000000000E+00  0.00000000000E+00 -0.14446010307E+04  0.31941508381E+04  0.28488115836E+04 0.  0.
        5    1    3    3  502    0  0.55643710218E+03 -0.15055867308E+03 -0.21827412417E+04  0.22575809135E+04  0.46999998093E+01 0. -1.
       -5    1    3    3    0  502 -0.55643710218E+03  0.15055867308E+03  0.73814021098E+03  0.93656992467E+03  0.46999998093E+01 0.  1.
</event>
<event>
 5   0  0.5352212E-06  0.2948244E+04  0.7818609E-02  0.8258666E-01
       -1   -1    0    0    0  501  0.00000000000E+00  0.00000000000E+00  0.16512697635E+04  0.16512697635E+04  0.50400001928E-02 0. -1.
        1   -1    0    0  501    0  0.00000000000E+00  0.00000000000E+00 -0.13159787648E+04  0.13159787648E+04  0.50400001928E-02 0.  1.
    10030    2    1    2    0    0  0.00000000000E+00  0.00000000000E+00  0.33529099865E+03  0.29672485283E+04  0.29482441851E+04 0.  0.
        2    1    3    3  502    0 -0.11819207220E+04 -0.85251923986E+03  0.39113610801E+03  0.15088780940E+04  0.25500000920E-02 0.  1.
       -2    1    3    3    0  502  0.11819207220E+04  0.85251923986E+03 -0.55845109364E+02  0.14583704343E+04  0.25500000920E-02 0. -1.
</event>
<event>
 5   0  0.5002240E-06  0.2909255E+04  0.7818609E-02  0.8270129E-01
       -1   -1    0    0    0  501  0.00000000000E+00  0.00000000000E+00  0.14449981557E+04  0.14449981557E+04  0.50400001928E-02 0. -1.
        1   -1    0    0  501    0  0.00000000000E+00  0.00000000000E+00 -0.14643205557E+04  0.14643205557E+04  0.50400001928E-02 0.  1.
    10030    2    1    2    0    0  0.00000000000E+00  0.00000000000E+00 -0.19322400028E+02  0.29093187115E+04  0.29092545454E+04 0.  0.
        4    1    3    3  502    0  0.65031486195E+02  0.71205510991E+03 -0.12764516729E+04  0.14630728142E+04  0.12699999809E+01 0.  1.
       -4    1    3    3    0  502 -0.65031486195E+02 -0.71205510991E+03  0.12571292728E+04  0.14462458972E+04  0.12699999809E+01 0. -1.
</event>
<event>
 5   0  0.1385669E-05  0.2958813E+04  0.7818609E-02  0.8255591E-01
        2   -1    0    0  501    0  0.00000000000E+00  0.00000000000E+00  0.16910150813E+04  0.16910150813E+04  0.25500000920E-02 0.  1.
       -2   -1    0    0    0  501  0.00000000000E+00  0.00000000000E+00 -0.12942783553E+04  0.12942783553E+04  0.25500000920E-02 0. -1.
    10030    2    1    2    0    0  0.00000000000E+00  0.00000000000E+00  0.39673672596E+03  0.29852934366E+04  0.29588134231E+04 0.  0.
        3    1    3    3  502    0 -0.69612332783E+03  0.50615354994E+03 -0.10156730357E+04  0.13313041836E+04  0.10100000352E+00 0. -1.
       -3    1    3    3    0  502  0.69612332783E+03 -0.50615354994E+03  0.14124097617E+04  0.16539892529E+04  0.10100000352E+00 0.  1.
</event>
<event>
 5   0  0.1385669E-05  0.2681093E+04  0.7818609E-02  0.8341166E-01
       -2   -1    0    0    0  501  0.00000000000E+00  0.00000000000E+00  0.10620244430E+04  0.10620244430E+04  0.25500000920E-02 0. -1.
        2   -1    0    0  501    0  0.00000000000E+00  0.00000000000E+00 -0.16921124035E+04  0.16921124035E+04  0.25500000920E-02 0.  1.
    10030    2    1    2    0    0  0.00000000000E+00  0.00000000000E+00 -0.63008796046E+03  0.27541368465E+04  0.26810928613E+04 0.  0.
        3    1    3    3  502    0  0.23391891241E+03 -0.97570499809E+03  0.59819071966E+03  0.11681397383E+04  0.10100000352E+00 0. -1.
       -3    1    3    3    0  502 -0.23391891241E+03  0.97570499809E+03 -0.12282786801E+04  0.15859971082E+04  0.10100000352E+00 0.  1.
</event>
<event>
 5   0  0.1336899E-05  0.2879050E+04  0.7818609E-02  0.8279138E-01
       -2   -1    0    0    0  501  0.00000000000E+00  0.00000000000E+00  0.10378321384E+04  0.10378321384E+04  0.25500000920E-02 0. -1.
        2   -1    0    0  501    0  0.00000000000E+00  0.00000000000E+00 -0.19966930794E+04  0.19966930794E+04  0.25500000920E-02 0.  1.
    10030    2    1    2    0    0  0.00000000000E+00  0.00000000000E+00 -0.95886094105E+03  0.30345252178E+04  0.28790500157E+04 0.  0.
        1    1    3    3  502    0 -0.77005079818E+03 -0.46661705827E+03  0.70439873005E+03  0.11431917082E+04  0.50400001928E-02 0. -1.
       -1    1    3    3    0  502  0.77005079818E+03  0.46661705827E+03 -0.16632596711E+04  0.18913335096E+04  0.50400001928E-02 0.  1.
</event>
<event>
 5   0  0.5059249E-06  0.2887296E+04  0.7818609E-02  0.8276667E-01
        1   -1    0    0  501    0  0.00000000000E+00  0.00000000000E+00  0.13843905864E+04  0.13843905864E+04  0.50400001928E-02 0. -1.
       -1   -1    0    0    0  501  0.00000000000E+00  0.00000000000E+00 -0.15054419579E+04  0.15054419579E+04  0.50400001928E-02 0.  1.
    10030    2    1    2    0    0  0.00000000000E+00  0.00000000000E+00 -0.12105137150E+03  0.28898325443E+04  0.28872960880E+04 0.  0.
        1    1    3    3  502    0 -0.46000851546E+02  0.14257093230E+04  0.16183276163E+03  0.14356019626E+04  0.50400001928E-02 0.  1.
       -1    1    3    3    0  502  0.46000851546E+02 -0.14257093230E+04 -0.28288413313E+03  0.14542305818E+04  0.50400001928E-02 0. -1.
</event>
<event>
 5   0  0.1382803E-05  0.2588877E+04  0.7818609E-02  0.8371989E-01
       -2   -1    0    0    0  501  0.00000000000E+00  0.00000000000E+00  0.68263926730E+03  0.68263926731E+03  0.25500000920E-02 0.  1.
        2   -1    0    0  501    0  0.00000000000E+00  0.00000000000E+00 -0.24545488556E+04  0.24545488556E+04  0.25500000920E-02 0. -1.
    10030    2    1    2    0    0  0.00000000000E+00  0.00000000000E+00 -0.17719095883E+04  0.31371881229E+04  0.25888773106E+04 0.  0.
        2    1    3    3  502    0 -0.40679688207E+03 -0.93858742554E+03  0.75221864948E+02  0.10257135992E+04  0.25500000920E-02 0. -1.
       -2    1    3    3    0  502  0.40679688207E+03  0.93858742554E+03 -0.18471314532E+04  0.21114745237E+04  0.25500000920E-02 0.  1.
</event>
<event>
 5   0  0.1385669E-05  0.2899074E+04  0.7818609E-02  0.8273153E-01
       -2   -1    0    0    0  501  0.00000000000E+00  0.00000000000E+00  0.13483428841E+04  0.13483428841E+04  0.25500000920E-02 0.  1.
        2   -1    0    0  501    0  0.00000000000E+00  0.00000000000E+00 -0.15583255591E+04  0.15583255591E+04  0.25500000920E-02 0. -1.
    10030    2    1    2    0    0  0.00000000000E+00  0.00000000000E+00 -0.20998267496E+03  0.29066684432E+04  0.28990737684E+04 0.  0.
        3    1    3    3  502    0  0.13516104224E+04 -0.11242081124E+03  0.40788366637E+03  0.14162832585E+04  0.10100000352E+00 0.  1.
       -3    1    3    3    0  502 -0.13516104224E+04  0.11242081124E+03 -0.61786634133E+03  0.14903851847E+04  0.10100000352E+00 0. -1.
</event>
<event>
 5   0  0.5059249E-06  0.3040247E+04  0.7818609E-02  0.8232331E-01
       -1   -1    0    0    0  501  0.00000000000E+00  0.00000000000E+00  0.21157141641E+04  0.21157141641E+04  0.50400001928E-02 0.  1.
        1   -1    0    0  501    0  0.00000000000E+00  0.00000000000E+00 -0.10921965773E+04  0.10921965773E+04  0.50400001928E-02 0. -1.
    10030    2    1    2    0    0  0.00000000000E+00  0.00000000000E+00  0.10235175868E+04  0.32079107414E+04  0.30402472061E+04 0.  0.
        1    1    3    3  502    0  0.99815428975E+02  0.54307343536E+03 -0.98263919117E+03  0.11271520111E+04  0.50400001928E-02 0. -1.
       -1    1    3    3    0  502 -0.99815428975E+02 -0.54307343536E+03  0.20061567779E+04  0.20807587303E+04  0.50400001928E-02 0.  1.
</event>
<event>
 5   0  0.1307832E-05  0.2985065E+04  0.7818609E-02  0.8248009E-01
       -2   -1    0    0    0  501  0.00000000000E+00  0.00000000000E+00  0.10570097855E+04  0.10570097855E+04  0.25500000920E-02 0.  1.
        2   -1    0    0  501    0  0.00000000000E+00  0.00000000000E+00 -0.21075046522E+04  0.21075046522E+04  0.25500000920E-02 0. -1.
    10030    2    1    2    0    0  0.00000000000E+00  0.00000000000E+00 -0.10504948668E+04  0.31645144377E+04  0.29850648505E+04 0.  0.
        4    1    3    3  502    0 -0.62194493644E+02  0.28795065425E+03 -0.20763775318E+04  0.20971716673E+04  0.12699999809E+01 0. -1.
       -4    1    3    3    0  502  0.62194493644E+02 -0.28795065425E+03  0.10258826651E+04  0.10673427705E+04  0.12699999809E+01 0.  1.
</event>
<event>
 5   0  0.5261878E-06  0.2543720E+04  0.7818609E-02  0.8387573E-01
       -1   -1    0    0    0  501  0.00000000000E+00  0.00000000000E+00  0.11765849214E+04  0.11765849214E+04  0.50400001928E-02 0.  1.
        1   -1    0    0  501    0  0.00000000000E+00  0.00000000000E+00 -0.13748502484E+04  0.13748502484E+04  0.50400001928E-02 0. -1.
    10030    2    1    2    0    0  0.00000000000E+00  0.00000000000E+00 -0.19826532695E+03  0.25514351698E+04  0.25437201666E+04 0.  0.
        5    1    3    3  502    0  0.72053573173E+03  0.41926340643E+03  0.86432862857E+03  0.12008495380E+04  0.46999998093E+01 0.  1.
       -5    1    3    3    0  502 -0.72053573173E+03 -0.41926340643E+03 -0.10625939555E+04  0.13505856319E+04  0.46999998093E+01 0. -1.
</event>
<event>
 5   0  0.1339837E-05  0.2942532E+04  0.7818609E-02  0.8260334E-01
       -2   -1    0    0    0  501  0.00000000000E+00  0.00000000000E+00  0.12115043139E+04  0.12115043139E+04  0.25500000920E-02 0.  1.
        2   -1    0    0  501    0  0.00000000000E+00  0.00000000000E+00 -0.17867233684E+04  0.17867233684E+04  0.25500000920E-02 0. -1.
    10030    2    1    2    0    0  0.00000000000E+00  0.00000000000E+00 -0.57521905455E+03  0.29982276823E+04  0.29425316097E+04 0.  0.
        5    1    3    3  502    0  0.15628988614E+03  0.10412295686E+04 -0.13346864931E+04  0.16999987259E+04  0.46999998093E+01 0. -1.
       -5    1    3    3    0  502 -0.15628988614E+03 -0.10412295686E+04  0.75946743858E+03  0.12982289564E+04  0.46999998093E+01 0.  1.
</event>
<event>
 5   0  0.1307832E-05  0.2912974E+04  0.7818609E-02  0.8269028E-01
       -2   -1    0    0    0  501  0.00000000000E+00  0.00000000000E+00  0.11315203560E+04  0.11315203560E+04  0.25500000920E-02 0. -1.
        2   -1    0    0  501    0  0.00000000000E+00  0.00000000000E+00 -0.18747822011E+04  0.18747822011E+04  0.25500000920E-02 0.  1.
    10030    2    1    2    0    0  0.00000000000E+00  0.00000000000E+00 -0.74326184516E+03  0.30063025571E+04  0.29129738918E+04 0.  0.
        4    1    3    3  502    0 -0.89377329284E+03 -0.24317805817E+03 -0.15316474667E+04  0.17899474411E+04  0.12699999809E+01 0.  1.
       -4    1    3    3    0  502  0.89377329284E+03  0.24317805817E+03  0.78838562151E+03  0.12163551159E+04  0.12699999809E+01 0. -1.
</event>
<event>
 5   0  0.1385669E-05  0.2487593E+04  0.7818609E-02  0.8407419E-01
        2   -1    0    0  501    0  0.00000000000E+00  0.00000000000E+00  0.22135770550E+04  0.22135770550E+04  0.25500000920E-02 0. -1.
       -2   -1    0    0    0  501  0.00000000000E+00  0.00000000000E+00 -0.69888253033E+03  0.69888253033E+03  0.25500000920E-02 0.  1.
    10030    2    1    2    0    0  0.00000000000E+00  0.00000000000E+00  0.15146945247E+04  0.29124595854E+04  0.24875934823E+04 0.  0.
        3    1    3    3  502    0 -0.66864997136E+03 -0.90669750995E+03  0.14021867287E+03  0.11352772548E+04  0.10100000352E+00 0.  1.
       -3    1    3    3    0  502  0.66864997136E+03  0.90669750995E+03  0.13744758518E+04  0.17771823306E+04  0.10100000352E+00 0. -1.
</event>
<event>
 5   0  0.1385669E-05  0.2878113E+04  0.7818609E-02  0.8279419E-01
       -2   -1    0    0    0  501  0.00000000000E+00  0.00000000000E+00  0.12510233126E+04  0.12510233126E+04  0.25500000920E-02 0.  1.
        2   -1    0    0  501    0  0.00000000000E+00  0.00000000000E+00 -0.16553520918E+04  0.16553520918E+04  0.25500000920E-02 0. -1.
    10030    2    1    2    0    0  0.00000000000E+00  0.00000000000E+00 -0.40432877914E+03  0.29063754044E+04  0.28781133108E+04 0.  0.
        3    1    3    3  502    0 -0.11950508795E+04 -0.80132938687E+03 -0.22707760938E+03  0.14566535765E+04  0.10100000352E+00 0.  1.
       -3    1    3    3    0  502  0.11950508795E+04  0.80132938687E+03 -0.17725116976E+03  0.14497218279E+04  0.10100000352E+00 0. -1.
</event>
<event>
 5   0  0.1307832E-05  0.2741594E+04  0.7818609E-02  0.8321634E-01
        2   -1    0    0  501    0  0.00000000000E+00  0.00000000000E+00  0.24557830559E+04  0.24557830559E+04  0.25500000920E-02 0.  1.
       -2   -1    0    0    0  501  0.00000000000E+00  0.00000000000E+00 -0.76516707650E+03  0.76516707651E+03  0.25500000920E-02 0. -1.
    10030    2    1    2    0    0  0.00000000000E+00  0.00000000000E+00  0.16906159794E+04  0.32209501324E+04  0.27415939462E+04 0.  0.
        4    1    3    3  502    0 -0.81926318256E+03 -0.27002147642E+03 -0.40631858499E+03  0.95351988204E+03  0.12699999809E+01 0. -1.
       -4    1    3    3    0  502  0.81926318256E+03  0.27002147642E+03  0.20969345644E+04  0.22674302503E+04  0.12699999809E+01 0.  1.
</event>
<event>
 5   0  0.1385669E-05  0.2898521E+04  0.7818609E-02  0.8273318E-01
       -2   -1    0    0    0  501  0.00000000000E+00  0.00000000000E+00  0.87373639219E+03  0.87373639220E+03  0.25500000920E-02 0.  1.
        2   -1    0    0  501    0  0.00000000000E+00  0.00000000000E+00 -0.24038781702E+04  0.24038781702E+04  0.25500000920E-02 0. -1.
    10030    2    1    2    0    0  0.00000000000E+00  0.00000000000E+00 -0.15301417780E+04  0.32776145624E+04  0.28985208916E+04 0.  0.
        3    1    3    3  502    0  0.53590776871E+03  0.20331891744E+03  0.74011888429E+03  0.93611521290E+03  0.10100000352E+00 0.  1.
       -3    1    3    3    0  502 -0.53590776871E+03 -0.20331891744E+03 -0.22702606623E+04  0.23414993495E+04  0.10100000352E+00 0. -1.
</event>
<event>
 5   0  0.4590125E-06  0.2845519E+04  0.7818609E-02  0.8289274E-01
       -3   -1    0    0    0  501  0.00000000000E+00  0.00000000000E+00  0.14067278612E+04  0.14067278648E+04  0.10100000352E+00 0.  1.
        3   -1    0    0  501    0  0.00000000000E+00  0.00000000000E+00 -0.14389742819E+04  0.14389742854E+04  0.10100000352E+00 0. -1.
    10030    2    1    2    0    0  0.00000000000E+00  0.00000000000E+00 -0.32246420665E+02  0.28457021502E+04  0.28455194422E+04 0.  0.
        5    1    3    3  502    0  0.13181421579E+04  0.49965344220E+03 -0.20867342200E+03  0.14250329813E+04  0.46999998093E+01 0. -1.
       -5    1    3    3    0  502 -0.13181421579E+04 -0.49965344220E+03  0.17642700134E+03  0.14206691689E+04  0.46999998093E+01 0.  1.
</event>
<event>
 5   0  0.5261878E-06  0.2919469E+04  0.7818609E-02  0.8267108E-01
        1   -1    0    0  501    0  0.00000000000E+00  0.00000000000E+00  0.23793603103E+04  0.23793603103E+04  0.50400001928E-02 0. -1.
       -1   -1    0    0    0  501  0.00000000000E+00  0.00000000000E+00 -0.89554529301E+03  0.89554529302E+03  0.50400001928E-02 0.  1.
    10030    2    1    2    0    0  0.00000000000E+00  0.00000000000E+00  0.14838150173E+04  0.32749056034E+04  0.29194690793E+04 0.  0.
        5    1    3    3  502    0 -0.32075534520E+03  0.73104633299E+03  0.21127769043E+04  0.22585750087E+04  0.46999998093E+01 0. -1.
       -5    1    3    3    0  502  0.32075534520E+03 -0.73104633299E+03 -0.62896188697E+03  0.10163305947E+04  0.46999998093E+01 0.  1.
</event>
<event>
 5   0  0.1336899E-05  0.2989295E+04  0.7818609E-02  0.8246794E-01
        2   -1    0    0  501    0  0.00000000000E+00  0.00000000000E+00  0.25038995087E+04  0.25038995087E+04  0.25500000920E-02 0.  1.
       -2   -1    0    0    0  501  0.00000000000E+00  0.00000000000E+00 -0.89219690930E+03  0.89219690931E+03  0.25500000920E-02 0. -1.
    10030    2    1    2    0    0  0.00000000000E+00  0.00000000000E+00  0.16117025994E+04  0.33960964180E+04  0.29892951697E+04 0.  0.
        1    1    3    3  502    0  0.49086460493E+03 -0.53998613052E+03 -0.67605012799E+03  0.99477477707E+03  0.50400001928E-02 0. -1.
       -1    1    3    3    0  502 -0.49086460493E+03  0.53998613052E+03  0.22877527274E+04  0.24013216409E+04  0.50400001928E-02 0.  1.
</event>
<event>
 5   0  0.5059249E-06  0.2948049E+04  0.7818609E-02  0.8258723E-01
        1   -1    0    0  501    0  0.00000000000E+00  0.00000000000E+00  0.12522643047E+04  0.12522643048E+04  0.50400001928E-02 0.  1.
       -1   -1    0    0    0  501  0.00000000000E+00  0.00000000000E+00 -0.17350550386E+04  0.17350550386E+04  0.50400001928E-02 0. -1.
    10030    2    1    2    0    0  0.00000000000E+00  0.00000000000E+00 -0.48279073382E+03  0.29873193433E+04  0.29480485014E+04 0.  0.
        1    1    3    3  502    0  0.95214436632E+02  0.87644400231E+03 -0.14384562624E+04  0.16871207121E+04  0.50400001928E-02 0. -1.
       -1    1    3    3    0  502 -0.95214436632E+02 -0.87644400231E+03  0.95566552861E+03  0.13001986313E+04  0.50400001928E-02 0.  1.
</event>
<event>
 5   0  0.1307832E-05  0.2575250E+04  0.7818609E-02  0.8376657E-01
        2   -1    0    0  501    0  0.00000000000E+00  0.00000000000E+00  0.25885512712E+04  0.25885512712E+04  0.25500000920E-02 0.  1.
       -2   -1    0    0    0  501  0.00000000000E+00  0.00000000000E+00 -0.64050417799E+03  0.64050417799E+03  0.25500000920E-02 0. -1.
    10030    2    1    2    0    0  0.00000000000E+00  0.00000000000E+00  0.19480470933E+04  0.32290554492E+04  0.25752498164E+04 0.  0.
        4    1    3    3  502    0 -0.14457672431E+03  0.59371033277E+03  0.23951641164E+04  0.24718833197E+04  0.12699999809E+01 0.  1.
       -4    1    3    3    0  502  0.14457672431E+03 -0.59371033277E+03 -0.44711702319E+03  0.75717212956E+03  0.12699999809E+01 0. -1.
</event>
<event>
 5   0  0.1307832E-05  0.2919145E+04  0.7818609E-02  0.8267204E-01
        2   -1    0    0  501    0  0.00000000000E+00  0.00000000000E+00  0.14585227384E+04  0.14585227384E+04  0.25500000920E-02 0. -1.
       -2   -1    0    0    0  501  0.00000000000E+00  0.00000000000E+00 -0.14606229059E+04  0.14606229059E+04  0.25500000920E-02 0.  1.
    10030    2    1    2    0    0  0.00000000000E+00  0.00000000000E+00 -0.21001674479E+01  0.29191456443E+04  0.29191448888E+04 0.  0.
        4    1    3    3  502    0 -0.30789374471E+03 -0.12588130464E+03 -0.14222138646E+04  0.14605952727E+04  0.12699999809E+01 0.  1.
       -4    1    3    3    0  502  0.30789374471E+03  0.12588130464E+03  0.14201136972E+04  0.14585503717E+04  0.12699999809E+01 0. -1.
</event>
<event>
 5   0  0.5261878E-06  0.2914767E+04  0.7818609E-02  0.8268497E-01
       -1   -1    0    0    0  501  0.00000000000E+00  0.00000000000E+00  0.22321624979E+04  0.22321624980E+04  0.50400001928E-02 0. -1.
        1   -1    0    0  501    0  0.00000000000E+00  0.00000000000E+00 -0.95152898259E+03  0.95152898261E+03  0.50400001928E-02 0.  1.
    10030    2    1    2    0    0  0.00000000000E+00  0.00000000000E+00  0.12806335154E+04  0.31836914806E+04  0.29147674423E+04 0.  0.
        5    1    3    3  502    0  0.14444713833E+04  0.26667687406E+02  0.84966813528E+03  0.16760569122E+04  0.46999998093E+01 0.  1.
       -5    1    3    3    0  502 -0.14444713833E+04 -0.26667687406E+02  0.43096538007E+03  0.15076345683E+04  0.46999998093E+01 0. -1.
</event>
<event>
 5   0  0.1307832E-05  0.2969488E+04  0.7818609E-02  0.8252498E-01
       -2   -1    0    0    0  501  0.00000000000E+00  0.00000000000E+00  0.14061459799E+04  0.14061459799E+04  0.25500000920E-02 0. -1.
        2   -1    0    0  501    0  0.00000000000E+00  0.00000000000E+00 -0.15677354263E+04  0.15677354263E+04  0.25500000920E-02 0.  1.
    10030    2    1    2    0    0  0.00000000000E+00  0.00000000000E+00 -0.16158944645E+03  0.29738814062E+04  0.29694880819E+04 0.  0.
        4    1    3    3  502    0 -0.76244838786E+03  0.47621681880E+03  0.11026274694E+04  0.14226380256E+04  0.12699999809E+01 0. -1.
       -4    1    3    3    0  502  0.76244838786E+03 -0.47621681880E+03 -0.12642169158E+04  0.15512433806E+04  0.12699999809E+01 0.  1.
</event>
<event>
 5   0  0.1336899E-05  0.1883940E+04  0.7818609E-02  0.8662892E-01
        2   -1    0    0  501    0  0.00000000000E+00  0.00000000000E+00  0.90583070908E+03  0.90583070909E+03  0.25500000920E-02 0. -1.
       -2   -1    0    0    0  501  0.00000000000E+00  0.00000000000E+00 -0.97955138217E+03  0.97955138217E+03  0.25500000920E-02 0.  1.
    10030    2    1    2    0    0  0.00000000000E+00  0.00000000000E+00 -0.73720673083E+02  0.18853820913E+04  0.18839402571E+04 0.  0.
        1    1    3    3  502    0  0.62972873355E+03 -0.24718517317E+02 -0.73749502133E+03  0.97008669173E+03  0.50400001928E-02 0.  1.
       -1    1    3    3    0  502 -0.62972873355E+03  0.24718517317E+02  0.66377434825E+03  0.91529539952E+03  0.50400001928E-02 0. -1.
</event>
<event>
 5   0  0.5002240E-06  0.2933357E+04  0.7818609E-02  0.8263022E-01
       -1   -1    0    0    0  501  0.00000000000E+00  0.00000000000E+00  0.12657929248E+04  0.12657929248E+04  0.50400001928E-02 0. -1.
        1   -1    0    0  501    0  0.00000000000E+00  0.00000000000E+00 -0.16994447186E+04  0.16994447186E+04  0.50400001928E-02 0.  1.
    10030    2    1    2    0    0  0.00000000000E+00  0.00000000000E+00 -0.43365179384E+03  0.29652376434E+04  0.29333565081E+04 0.  0.
        4    1    3    3  502    0  0.92524324824E+03  0.14316175149E+03 -0.13580660307E+04  0.16495197216E+04  0.12699999809E+01 0.  1.
       -4    1    3    3    0  502 -0.92524324824E+03 -0.14316175149E+03  0.92441423682E+03  0.13157179218E+04  0.12699999809E+01 0. -1.
</event>
<event>
 5   0  0.4590125E-06  0.2888729E+04  0.7818609E-02  0.8276239E-01
       -3   -1    0    0    0  501  0.00000000000E+00  0.00000000000E+00  0.15227523802E+04  0.15227523836E+04  0.10100000352E+00 0.  1.
        3   -1    0    0  501    0  0.00000000000E+00  0.00000000000E+00 -0.13700120960E+04  0.13700120997E+04  0.10100000352E+00 0. -1.
    10030    2    1    2    0    0  0.00000000000E+00  0.00000000000E+00  0.15274028422E+03  0.28927644833E+04  0.28887292641E+04 0.  0.
        4    1    3    3  502    0 -0.22550980871E+01  0.58662966190E+03  0.13980805524E+04  0.15161696111E+04  0.12699999809E+01 0.  1.
       -4    1    3    3    0  502  0.22550980871E+01 -0.58662966190E+03 -0.12453402682E+04  0.13765948722E+04  0.12699999809E+01 0. -1.
</event>
<event>
 5   0  0.5154476E-06  0.2890601E+04  0.7818609E-02  0.8275679E-01
        1   -1    0    0  501    0  0.00000000000E+00  0.00000000000E+00  0.14176728795E+04  0.14176728796E+04  0.50400001928E-02 0.  1.
       -1   -1    0    0    0  501  0.00000000000E+00  0.00000000000E+00 -0.14734668562E+04  0.14734668562E+04  0.50400001928E-02 0. -1.
    10030    2    1    2    0    0  0.00000000000E+00  0.00000000000E+00 -0.55793976604E+02  0.28911397357E+04  0.28906013222E+04 0.  0.
        3    1    3    3  502    0  0.46011309726E+03 -0.53242626477E+03 -0.12905552783E+04  0.14699369803E+04  0.10100000352E+00 0. -1.
       -3    1    3    3    0  502 -0.46011309726E+03  0.53242626477E+03  0.12347613016E+04  0.14212027554E+04  0.10100000352E+00 0.  1.
</event>
<event>
 5   0  0.1307832E-05  0.2972511E+04  0.7818609E-02  0.8251624E-01
        2   -1    0    0  501    0  0.00000000000E+00  0.00000000000E+00  0.13876160337E+04  0.13876160337E+04  0.25500000920E-02 0. -1.
       -2   -1    0    0    0  501  0.00000000000E+00  0.00000000000E+00 -0.15919070255E+04  0.15919070255E+04  0.25500000920E-02 0.  1.
    10030    2    1    2    0    0  0.00000000000E+00  0.00000000000E+00 -0.20429099173E+03  0.29795230592E+04  0.29725112028E+04 0.  0.
        4    1    3    3  502    0 -0.69309229582E+03  0.30860150563E+03  0.11788920331E+04  0.14019271944E+04  0.12699999809E+01 0. -1.
       -4    1    3    3    0  502  0.69309229582E+03 -0.30860150563E+03 -0.13831830248E+04  0.15775958648E+04  0.12699999809E+01 0.  1.
</event>
<event>
 5   0  0.1336899E-05  0.2942865E+04  0.7818609E-02  0.8260237E-01
        2   -1    0    0  501    0  0.00000000000E+00  0.00000000000E+00  0.18849615021E+04  0.18849615021E+04  0.25500000920E-02 0. -1.
       -2   -1    0    0    0  501  0.00000000000E+00  0.00000000000E+00 -0.11486251968E+04  0.11486251969E+04  0.25500000920E-02 0.  1.
    10030    2    1    2    0    0  0.00000000000E+00  0.00000000000E+00  0.73633630522E+03  0.30335866989E+04  0.29428654583E+04 0.  0.
        1    1    3    3  502    0  0.14955318834E+03 -0.10078872051E+04 -0.72611801557E+03  0.12511795023E+04  0.50400001928E-02 0.  1.
       -1    1    3    3    0  502 -0.14955318834E+03  0.10078872051E+04  0.14624543208E+04  0.17824071967E+04  0.50400001928E-02 0. -1.
</event>
<event>
 5   0  0.1382803E-05  0.3065615E+04  0.7818609E-02  0.8225238E-01
        2   -1    0    0  501    0  0.00000000000E+00  0.00000000000E+00  0.24103755844E+04  0.24103755844E+04  0.25500000920E-02 0.  1.
       -2   -1    0    0    0  501  0.00000000000E+00  0.00000000000E+00 -0.97474410724E+03  0.97474410724E+03  0.25500000920E-02 0. -1.
    10030    2    1    2    0    0  0.00000000000E+00  0.00000000000E+00  0.14356314772E+04  0.33851196917E+04  0.30656153687E+04 0.  0.
        2    1    3    3  502    0  0.26810153302E+03 -0.37469850005E+03  0.23321043485E+04  0.23771807020E+04  0.25500000920E-02 0.  1.
       -2    1    3    3    0  502 -0.26810153302E+03  0.37469850005E+03 -0.89647287126E+03  0.10079389897E+04  0.25500000920E-02 0. -1.
</event>
<event>
 5   0  0.1339837E-05  0.2918121E+04  0.7818609E-02  0.8267506E-01
       -2   -1    0    0    0  501  0.00000000000E+00  0.00000000000E+00  0.95631088253E+03  0.95631088253E+03  0.25500000920E-02 0. -1.
        2   -1    0    0  501    0  0.00000000000E+00  0.00000000000E+00 -0.22261145136E+04  0.22261145136E+04  0.25500000920E-02 0.  1.
    10030    2    1    2    0    0  0.00000000000E+00  0.00000000000E+00 -0.12698036311E+04  0.31824253962E+04  0.29181209948E+04 0.  0.
        5    1    3    3  502    0  0.20665690392E+03  0.89407015521E+03 -0.18720020274E+04  0.20848218626E+04  0.46999998093E+01 0.  1.
       -5    1    3    3    0  502 -0.20665690392E+03 -0.89407015521E+03  0.60219839627E+03  0.10976035335E+04  0.46999998093E+01 0. -1.
</event>
<event>
 5   0  0.1382803E-05  0.2818887E+04  0.7818609E-02  0.8297429E-01
        2   -1    0    0  501    0  0.00000000000E+00  0.00000000000E+00  0.14532448052E+04  0.14532448052E+04  0.25500000920E-02 0. -1.
       -2   -1    0    0    0  501  0.00000000000E+00  0.00000000000E+00 -0.13669623619E+04  0.13669623619E+04  0.25500000920E-02 0.  1.
    10030    2    1    2    0    0  0.00000000000E+00  0.00000000000E+00  0.86282443312E+02  0.28202071671E+04  0.28188869798E+04 0.  0.
        2    1    3    3  502    0 -0.64198519397E+03  0.18220700128E+03 -0.11988855478E+04  0.13721045650E+04  0.25500000920E-02 0.  1.
       -2    1    3    3    0  502  0.64198519397E+03 -0.18220700128E+03  0.12851679911E+04  0.14481026020E+04  0.25500000920E-02 0. -1.
</event>
<event>
 5   0  0.5154476E-06  0.2344706E+04  0.7818609E-02  0.8460500E-01
        1   -1    0    0  501    0  0.00000000000E+00  0.00000000000E+00  0.11010801689E+04  0.11010801689E+04  0.50400001928E-02 0. -1.
       -1   -1    0    0    0  501  0.00000000000E+00  0.00000000000E+00 -0.12482398402E+04  0.12482398402E+04  0.50400001928E-02 0.  1.
    10030    2    1    2    0    0  0.00000000000E+00  0.00000000000E+00 -0.14715967133E+03  0.23493200091E+04  0.23447064926E+04 0.  0.
        3    1    3    3  502    0  0.74066897502E+02 -0.92142222597E+02 -0.12422521455E+04  0.12478647755E+04  0.10100000352E+00 0.  1.
       -3    1    3    3    0  502 -0.74066897502E+02  0.92142222597E+02  0.10950924742E+04  0.11014552337E+04  0.10100000352E+00 0. -1.
</event>
<event>
 5   0  0.1336899E-05  0.2877469E+04  0.7818609E-02  0.8279613E-01
       -2   -1    0    0    0  501  0.00000000000E+00  0.00000000000E+00  0.11239513452E+04  0.11239513452E+04  0.25500000920E-02 0.  1.
        2   -1    0    0  501    0  0.00000000000E+00  0.00000000000E+00 -0.18416783245E+04  0.18416783245E+04  0.25500000920E-02 0. -1.
    10030    2    1    2    0    0  0.00000000000E+00  0.00000000000E+00 -0.71772697931E+03  0.29656296698E+04  0.28774689088E+04 0.  0.
        1    1    3    3  502    0  0.59289816855E+03  0.53119810270E+03 -0.15940211118E+04  0.17817415546E+04  0.50400001928E-02 0. -1.
       -1    1    3    3    0  502 -0.59289816855E+03 -0.53119810270E+03  0.87629413247E+03  0.11838881152E+04  0.50400001928E-02 0.  1.
</event>
<event>
 5   0  0.5352212E-06  0.2883892E+04  0.7818609E-02  0.8277686E-01
        1   -1    0    0  501    0  0.00000000000E+00  0.00000000000E+00  0.18674545152E+04  0.18674545152E+04  0.50400001928E-02 0.  1.
       -1   -1    0    0    0  501  0.00000000000E+00  0.00000000000E+00 -0.11133918053E+04  0.11133918053E+04  0.50400001928E-02 0. -1.
    10030    2    1    2    0    0  0.00000000000E+00  0.00000000000E+00  0.75406270987E+03  0.29808463205E+04  0.28838921991E+04 0.  0.
        2    1    3    3  502    0 -0.89565909537E+03  0.44619338444E+03 -0.69609974705E+03  0.12189538996E+04  0.25500000920E-02 0. -1.
       -2    1    3    3    0  502  0.89565909537E+03 -0.44619338444E+03  0.14501624569E+04  0.17618924209E+04  0.25500000920E-02 0.  1.
</event>
<event>
 5   0  0.5002240E-06  0.2003134E+04  0.7818609E-02  0.8605157E-01
        1   -1    0    0  501    0  0.00000000000E+00  0.00000000000E+00  0.61262625639E+03  0.61262625641E+03  0.50400001928E-02 0.  1.
       -1   -1    0    0    0  501  0.00000000000E+00  0.00000000000E+00 -0.16374357079E+04  0.16374357079E+04  0.50400001928E-02 0. -1.
    10030    2    1    2    0    0  0.00000000000E+00  0.00000000000E+00 -0.10248094515E+04  0.22500619643E+04  0.20031336529E+04 0.  0.
        4    1    3    3  502    0 -0.28655615407E+03 -0.95497492531E+03 -0.40558786835E+03  0.10763803553E+04  0.12699999809E+01 0. -1.
       -4    1    3    3    0  502  0.28655615407E+03  0.95497492531E+03 -0.61922158314E+03  0.11736816090E+04  0.12699999809E+01 0.  1.
</event>
<event>
 5   0  0.1385669E-05  0.2997913E+04  0.7818609E-02  0.8244327E-01
        2   -1    0    0  501    0  0.00000000000E+00  0.00000000000E+00  0.20470800492E+04  0.20470800492E+04  0.25500000920E-02 0.  1.
       -2   -1    0    0    0  501  0.00000000000E+00  0.00000000000E+00 -0.10975979028E+04  0.10975979028E+04  0.25500000920E-02 0. -1.
    10030    2    1    2    0    0  0.00000000000E+00  0.00000000000E+00  0.94948214643E+03  0.31446779520E+04  0.29979131201E+04 0.  0.
        3    1    3    3  502    0 -0.20557152692E+03 -0.93172516790E+03 -0.73792577108E+03  0.12061947998E+04  0.10100000352E+00 0.  1.
       -3    1    3    3    0  502  0.20557152692E+03  0.93172516790E+03  0.16874079175E+04  0.19384831522E+04  0.10100000352E+00 0. -1.
</event>
<event>
 5   0  0.1339837E-05  0.2276512E+04  0.7818609E-02  0.8487240E-01
        2   -1    0    0  501    0  0.00000000000E+00  0.00000000000E+00  0.20391853053E+04  0.20391853053E+04  0.25500000920E-02 0.  1.
       -2   -1    0    0    0  501  0.00000000000E+00  0.00000000000E+00 -0.63536467218E+03  0.63536467219E+03  0.25500000920E-02 0. -1.
    10030    2    1    2    0    0  0.00000000000E+00  0.00000000000E+00  0.14038206331E+04  0.26745499775E+04  0.22765116323E+04 0.  0.
        5    1    3    3  502    0 -0.80121618642E+03 -0.79970418207E+03  0.84156412966E+03  0.14105766305E+04  0.46999998093E+01 0. -1.
       -5    1    3    3    0  502  0.80121618642E+03  0.79970418207E+03  0.56225650346E+03  0.12639733470E+04  0.46999998093E+01 0.  1.
</event>
<event>
 5   0  0.4590125E-06  0.2384412E+04  0.7818609E-02  0.8445362E-01
       -3   -1    0    0    0  501  0.00000000000E+00  0.00000000000E+00  0.12946981982E+04  0.12946982021E+04  0.10100000352E+00 0. -1.
        3   -1    0    0  501    0  0.00000000000E+00  0.00000000000E+00 -0.10978277019E+04  0.10978277065E+04  0.10100000352E+00 0.  1.
    10030    2    1    2    0    0  0.00000000000E+00  0.00000000000E+00  0.19687049629E+03  0.23925259087E+04  0.23844123451E+04 0.  0.
        2    1    3    3  502    0  0.51048217317E+03  0.26946070801E+03  0.11451312279E+04  0.12823909901E+04  0.25500000920E-02 0. -1.
       -2    1    3    3    0  502 -0.51048217317E+03 -0.26946070801E+03 -0.94826073164E+03  0.11101349186E+04  0.25500000920E-02 0.  1.
</event>
<event>
 5   0  0.1339837E-05  0.2531126E+04  0.7818609E-02  0.8391980E-01
       -2   -1    0    0    0  501  0.00000000000E+00  0.00000000000E+00  0.10832965116E+04  0.10832965116E+04  0.25500000920E-02 0.  1.
        2   -1    0    0  501    0  0.00000000000E+00  0.00000000000E+00 -0.14784958204E+04  0.14784958204E+04  0.25500000920E-02 0. -1.
    10030    2    1    2    0    0  0.00000000000E+00  0.00000000000E+00 -0.39519930884E+03  0.25617923320E+04  0.25311257295E+04 0.  0.
        5    1    3    3  502    0  0.36775726319E+03  0.74260299448E+03 -0.11657045034E+04  0.14302425289E+04  0.46999998093E+01 0.  1.
       -5    1    3    3    0  502 -0.36775726319E+03 -0.74260299448E+03  0.77050519460E+03  0.11315498031E+04  0.46999998093E+01 0. -1.
</event>
<event>
 5   0  0.1336899E-05  0.2666853E+04  0.7818609E-02  0.8345841E-01
        2   -1    0    0  501    0  0.00000000000E+00  0.00000000000E+00  0.11886518592E+04  0.11886518592E+04  0.25500000920E-02 0.  1.
       -2   -1    0    0    0  501  0.00000000000E+00  0.00000000000E+00 -0.14958342546E+04  0.14958342547E+04  0.25500000920E-02 0. -1.
    10030    2    1    2    0    0  0.00000000000E+00  0.00000000000E+00 -0.30718239548E+03  0.26844861138E+04  0.26668529527E+04 0.  0.
        1    1    3    3  502    0  0.40565706444E+02 -0.10255543040E+04 -0.10104651457E+04  0.14402940733E+04  0.50400001928E-02 0. -1.
       -1    1    3    3    0  502 -0.40565706444E+02  0.10255543040E+04  0.70328275022E+03  0.12441920405E+04  0.50400001928E-02 0.  1.
</event>
<event>
 5   0  0.5002240E-06  0.2904092E+04  0.7818609E-02  0.8271661E-01
        1   -1    0    0  501    0  0.00000000000E+00  0.00000000000E+00  0.18729799683E+04  0.18729799683E+04  0.50400001928E-02 0.  1.
       -1   -1    0    0    0  501  0.00000000000E+00  0.00000000000E+00 -0.11257131559E+04  0.11257131559E+04  0.50400001928E-02 0. -1.
    10030    2    1    2    0    0  0.00000000000E+00  0.00000000000E+00  0.74726681236E+03  0.29986931242E+04  0.29040924167E+04 0.  0.
        4    1    3    3  502    0  0.65277900997E+03  0.10047118044E+04 -0.47337414324E+03  0.12882744033E+04  0.12699999809E+01 0. -1.
       -4    1    3    3    0  502 -0.65277900997E+03 -0.10047118044E+04  0.12206409556E+04  0.17104187210E+04  0.12699999809E+01 0.  1.
</event>
<event>
 5   0  0.5261878E-06  0.2944820E+04  0.7818609E-02  0.8259666E-01
       -1   -1    0    0    0  501  0.00000000000E+00  0.00000000000E+00  0.15153385321E+04  0.15153385321E+04  0.50400001928E-02 0. -1.
        1   -1    0    0  501    0  0.00000000000E+00  0.00000000000E+00 -0.14306980661E+04  0.14306980661E+04  0.50400001928E-02 0.  1.
    10030    2    1    2    0    0  0.00000000000E+00  0.00000000000E+00  0.84640465965E+02  0.29460365982E+04  0.29448204749E+04 0.  0.
        5    1    3    3  502    0  0.29268490631E+03  0.36004616427E+03  0.14402777598E+04  0.15131820148E+04  0.46999998093E+01 0. -1.
       -5    1    3    3    0  502 -0.29268490631E+03 -0.36004616427E+03 -0.13556372938E+04  0.14328545834E+04  0.46999998093E+01 0.  1.
</event>
<event>
 5   0  0.1339837E-05  0.2102675E+04  0.7818609E-02  0.8560066E-01
       -2   -1    0    0    0  501  0.00000000000E+00  0.00000000000E+00  0.71928547789E+03  0.71928547790E+03  0.25500000920E-02 0. -1.
        2   -1    0    0  501    0  0.00000000000E+00  0.00000000000E+00 -0.15366778974E+04  0.15366778974E+04  0.25500000920E-02 0.  1.
    10030    2    1    2    0    0  0.00000000000E+00  0.00000000000E+00 -0.81739241947E+03  0.22559633753E+04  0.21026745785E+04 0.  0.
        5    1    3    3  502    0  0.36436585099E+03  0.97034572052E+03 -0.59746204156E+03  0.11963763086E+04  0.46999998093E+01 0.  1.
       -5    1    3    3    0  502 -0.36436585099E+03 -0.97034572052E+03 -0.21993037791E+03  0.10595870667E+04  0.46999998093E+01 0. -1.
</event>
<event>
 5   0  0.1382803E-05  0.2800426E+04  0.7818609E-02  0.8303136E-01
       -2   -1    0    0    0  501  0.00000000000E+00  0.00000000000E+00  0.21409131967E+04  0.21409131967E+04  0.25500000920E-02 0.  1.
        2   -1    0    0  501    0  0.00000000000E+00  0.00000000000E+00 -0.91577581485E+03  0.91577581486E+03  0.25500000920E-02 0. -1.
    10030    2    1    2    0    0  0.00000000000E+00  0.00000000000E+00  0.12251373819E+04  0.30566890116E+04  0.28004260585E+04 0.  0.
        2    1    3    3  502    0  0.15716280466E+03  0.32766470361E+03 -0.86340444990E+03  0.93676653937E+03  0.25500000920E-02 0. -1.
       -2    1    3    3    0  502 -0.15716280466E+03 -0.32766470361E+03  0.20885418318E+04  0.21199224722E+04  0.25500000920E-02 0.  1.
</event>
<event>
 5   0  0.1385669E-05  0.2924082E+04  0.7818609E-02  0.8265748E-01
        2   -1    0    0  501    0  0.00000000000E+00  0.00000000000E+00  0.13948056825E+04  0.13948056825E+04  0.25500000920E-02 0. -1.
       -2   -1    0    0    0  501  0.00000000000E+00  0.00000000000E+00 -0.15325173822E+04  0.15325173822E+04  0.25500000920E-02 0.  1.
    10030    2    1    2    0    0  0.00000000000E+00  0.00000000000E+00 -0.13771169974E+03  0.29273230647E+04  0.29240820462E+04 0.  0.
        3    1    3    3  502    0  0.66391999235E+03 -0.50168992544E+03 -0.12723036483E+04  0.15202760017E+04  0.10100000352E+00 0.  1.
       -3    1    3    3    0  502 -0.66391999235E+03  0.50168992544E+03  0.11345919486E+04  0.14070470630E+04  0.10100000352E+00 0. -1.
</event>
<event>
 5   0  0.5059249E-06  0.2887623E+04  0.7818609E-02  0.8276570E-01
        1   -1    0    0  501    0  0.00000000000E+00  0.00000000000E+00  0.15859423917E+04  0.15859423918E+04  0.50400001928E-02 0.  1.
       -1   -1    0    0    0  501  0.00000000000E+00  0.00000000000E+00 -0.13144178263E+04  0.13144178263E+04  0.50400001928E-02 0. -1.
    10030    2    1    2    0    0  0.00000000000E+00  0.00000000000E+00  0.27152456546E+03  0.29003602180E+04  0.28876225177E+04 0.  0.
        1    1    3    3  502    0 -0.22813368111E+03  0.10936761904E+03  0.15635053163E+04  0.15838418881E+04  0.50400001928E-02 0.  1.
       -1    1    3    3    0  502  0.22813368111E+03 -0.10936761904E+03 -0.12919807508E+04  0.13165183299E+04  0.50400001928E-02 0. -1.
</event>
<event>
 5   0  0.1385669E-05  0.2497834E+04  0.7818609E-02  0.8403758E-01
       -2   -1    0    0    0  501  0.00000000000E+00  0.00000000000E+00  0.75852188369E+03  0.75852188370E+03  0.25500000920E-02 0. -1.
        2   -1    0    0  501    0  0.00000000000E+00  0.00000000000E+00 -0.20563590609E+04  0.20563590609E+04  0.25500000920E-02 0.  1.
    10030    2    1    2    0    0  0.00000000000E+00  0.00000000000E+00 -0.12978371773E+04  0.28148809446E+04  0.24978337402E+04 0.  0.
        3    1    3    3  502    0 -0.58755287456E+03  0.10813055202E+04 -0.88891297998E+03  0.15180929829E+04  0.10100000352E+00 0.  1.
       -3    1    3    3    0  502  0.58755287456E+03 -0.10813055202E+04 -0.40892419727E+03  0.12967879618E+04  0.10100000352E+00 0. -1.
</event>
<event>
 5   0  0.1339837E-05  0.2930110E+04  0.7818609E-02  0.8263975E-01
       -2   -1    0    0    0  501  0.00000000000E+00  0.00000000000E+00  0.97910054903E+03  0.97910054904E+03  0.25500000920E-02 0.  1.
        2   -1    0    0  501    0  0.00000000000E+00  0.00000000000E+00 -0.21922018299E+04  0.21922018299E+04  0.25500000920E-02 0. -1.
    10030    2    1    2    0    0  0.00000000000E+00  0.00000000000E+00 -0.12131012808E+04  0.31713023789E+04  0.29301099059E+04 0.  0.
        5    1    3    3  502    0  0.14161999687E+04  0.25273232578E+03 -0.90662326661E+03  0.17004363609E+04  0.46999998093E+01 0.  1.
       -5    1    3    3    0  502 -0.14161999687E+04 -0.25273232578E+03 -0.30647801421E+03  0.14708660180E+04  0.46999998093E+01 0. -1.
</event>
<event>
 5   0  0.5059249E-06  0.2894164E+04  0.7818609E-02  0.8274616E-01
       -1   -1    0    0    0  501  0.00000000000E+00  0.00000000000E+00  0.13725774575E+04  0.13725774575E+04  0.50400001928E-02 0. -1.
        1   -1    0    0  501    0  0.00000000000E+00  0.00000000000E+00 -0.15256301991E+04  0.15256301991E+04  0.50400001928E-02 0.  1.
    10030    2    1    2    0    0  0.00000000000E+00  0.00000000000E+00 -0.15305274157E+03  0.28982076566E+04  0.28941635198E+04 0.  0.
        1    1    3    3  502    0 -0.99999332394E+02  0.62630390615E+03  0.12259790958E+04  0.13803192358E+04  0.50400001928E-02 0. -1.
       -1    1    3    3    0  502  0.99999332394E+02 -0.62630390615E+03 -0.13790318374E+04  0.15178884208E+04  0.50400001928E-02 0.  1.
</event>
<event>
 5   0  0.5352212E-06  0.2798433E+04  0.7818609E-02  0.8303755E-01
       -1   -1    0    0    0  501  0.00000000000E+00  0.00000000000E+00  0.83267632913E+03  0.83267632915E+03  0.50400001928E-02 0.  1.
        1   -1    0    0  501    0  0.00000000000E+00  0.00000000000E+00 -0.23512226885E+04  0.23512226885E+04  0.50400001928E-02 0. -1.
    10030    2    1    2    0    0  0.00000000000E+00  0.00000000000E+00 -0.15185463594E+04  0.31838990177E+04  0.27984334741E+04 0.  0.
        2    1    3    3  502    0  0.39853436077E+02  0.16132297868E+03  0.82140983735E+03  0.83804983188E+03  0.25500000920E-02 0.  1.
       -2    1    3    3    0  502 -0.39853436077E+02 -0.16132297868E+03 -0.23399561968E+04  0.23458491858E+04  0.25500000920E-02 0. -1.
</event>
<event>
 5   0  0.1307832E-05  0.2526064E+04  0.7818609E-02  0.8393759E-01
       -2   -1    0    0    0  501  0.00000000000E+00  0.00000000000E+00  0.12806363147E+04  0.12806363147E+04  0.25500000920E-02 0. -1.
        2   -1    0    0  501    0  0.00000000000E+00  0.00000000000E+00 -0.12456695872E+04  0.12456695872E+04  0.25500000920E-02 0.  1.
    10030    2    1    2    0    0  0.00000000000E+00  0.00000000000E+00  0.34966727497E+02  0.25263059019E+04  0.25260639022E+04 0.  0.
        4    1    3    3  502    0 -0.34043173167E+03  0.10351877521E+04  0.65609026817E+03  0.12719919414E+04  0.12699999809E+01 0. -1.
       -4    1    3    3    0  502  0.34043173167E+03 -0.10351877521E+04 -0.62112354067E+03  0.12543139606E+04  0.12699999809E+01 0.  1.
</event>
<event>
 5   0  0.1307832E-05  0.2911269E+04  0.7818609E-02  0.8269532E-01
        2   -1    0    0  501    0  0.00000000000E+00  0.00000000000E+00  0.24154328173E+04  0.24154328173E+04  0.25500000920E-02 0. -1.
       -2   -1    0    0    0  501  0.00000000000E+00  0.00000000000E+00 -0.87722244954E+03  0.87722244955E+03  0.25500000920E-02 0.  1.
    10030    2    1    2    0    0  0.00000000000E+00  0.00000000000E+00  0.15382103677E+04  0.32926552668E+04  0.29112690653E+04 0.  0.
        4    1    3    3  502    0  0.45552868789E+03  0.12456393308E+04  0.90742050039E+02  0.13294207236E+04  0.12699999809E+01 0.  1.
       -4    1    3    3    0  502 -0.45552868789E+03 -0.12456393308E+04  0.14474683177E+04  0.19632345432E+04  0.12699999809E+01 0. -1.
</event>
<event>
 5   0  0.1382803E-05  0.2879971E+04  0.7818609E-02  0.8278862E-01
       -2   -1    0    0    0  501  0.00000000000E+00  0.00000000000E+00  0.13467746883E+04  0.13467746883E+04  0.25500000920E-02 0.  1.
        2   -1    0    0  501    0  0.00000000000E+00  0.00000000000E+00 -0.15396475510E+04  0.15396475510E+04  0.25500000920E-02 0. -1.
    10030    2    1    2    0    0  0.00000000000E+00  0.00000000000E+00 -0.19287286269E+03  0.28864222394E+04  0.28799710767E+04 0.  0.
        2    1    3    3  502    0  0.10088638752E+03 -0.31968648273E+03 -0.14999950544E+04  0.15369979420E+04  0.25500000920E-02 0. -1.
       -2    1    3    3    0  502 -0.10088638752E+03  0.31968648273E+03  0.13071221917E+04  0.13494242974E+04  0.25500000920E-02 0.  1.
</event>
<event>
 5   0  0.1336899E-05  0.2923435E+04  0.7818609E-02  0.8265939E-01
        2   -1    0    0  501    0  0.00000000000E+00  0.00000000000E+00  0.10738799269E+04  0.10738799269E+04  0.25500000920E-02 0.  1.
       -2   -1    0    0    0  501  0.00000000000E+00  0.00000000000E+00 -0.19896247817E+04  0.19896247817E+04  0.25500000920E-02 0. -1.
    10030    2    1    2    0    0  0.00000000000E+00  0.00000000000E+00 -0.91574485472E+03  0.30635047086E+04  0.29234350447E+04 0.  0.
        1    1    3    3  502    0  0.22261801896E+03 -0.36310268962E+03 -0.19231585923E+04  0.19697566644E+04  0.50400001928E-02 0. -1.
       -1    1    3    3    0  502 -0.22261801896E+03  0.36310268962E+03  0.10074137376E+04  0.10937480443E+04  0.50400001928E-02 0.  1.
</event>
<event>
 5   0  0.1307832E-05  0.2781665E+04  0.7818609E-02  0.8308983E-01
       -2   -1    0    0    0  501  0.00000000000E+00  0.00000000000E+00  0.81637647681E+03  0.81637647681E+03  0.25500000920E-02 0.  1.
        2   -1    0    0  501    0  0.00000000000E+00  0.00000000000E+00 -0.23695127138E+04  0.23695127138E+04  0.25500000920E-02 0. -1.
    10030    2    1    2    0    0  0.00000000000E+00  0.00000000000E+00 -0.15531362370E+04  0.31858891907E+04  0.27816645672E+04 0.  0.
        4    1    3    3  502    0 -0.13316854220E+04  0.10935435793E+03 -0.33436817010E+03  0.13773700029E+04  0.12699999809E+01 0.  1.
       -4    1    3    3    0  502  0.13316854220E+04 -0.10935435793E+03 -0.12187680669E+04  0.18085191878E+04  0.12699999809E+01 0. -1.
</event>
<event>
 5   0  0.1385669E-05  0.2952677E+04  0.7818609E-02  0.8257375E-01
        2   -1    0    0  501    0  0.00000000000E+00  0.00000000000E+00  0.21642209046E+04  0.21642209046E+04  0.25500000920E-02 0.  1.
       -2   -1    0    0    0  501  0.00000000000E+00  0.00000000000E+00 -0.10070946185E+04  0.10070946185E+04  0.25500000920E-02 0. -1.
    10030    2    1    2    0    0  0.00000000000E+00  0.00000000000E+00  0.11571262861E+04  0.31713155231E+04  0.29526769049E+04 0.  0.
        3    1    3    3  502    0 -0.10902514006E+04 -0.42934052897E+01 -0.49059104015E+03  0.11955526458E+04  0.10100000352E+00 0. -1.
       -3    1    3    3    0  502  0.10902514006E+04  0.42934052897E+01  0.16477173262E+04  0.19757628773E+04  0.10100000352E+00 0.  1.
</event>
<event>
 5   0  0.5059249E-06  0.2892524E+04  0.7818609E-02  0.8275105E-01
        1   -1    0    0  501    0  0.00000000000E+00  0.00000000000E+00  0.19515542099E+04  0.19515542099E+04  0.50400001928E-02 0.  1.
       -1   -1    0    0    0  501  0.00000000000E+00  0.00000000000E+00 -0.10717992303E+04  0.10717992303E+04  0.50400001928E-02 0. -1.
    10030    2    1    2    0    0  0.00000000000E+00  0.00000000000E+00  0.87975497966E+03  0.30233534402E+04  0.28925243647E+04 0.  0.
        1    1    3    3  502    0  0.36244703075E+03  0.13688760451E+04  0.74726190599E+03  0.16011214298E+04  0.50400001928E-02 0. -1.
       -1    1    3    3    0  502 -0.36244703075E+03 -0.13688760451E+04  0.13249307367E+03  0.14222320104E+04  0.50400001928E-02 0.  1.
</event>
<event>
 5   0  0.5059249E-06  0.2895773E+04  0.7818609E-02  0.8274136E-01
        1   -1    0    0  501    0  0.00000000000E+00  0.00000000000E+00  0.16903163389E+04  0.16903163389E+04  0.50400001928E-02 0.  1.
       -1   -1    0    0    0  501  0.00000000000E+00  0.00000000000E+00 -0.12402263742E+04  0.12402263742E+04  0.50400001928E-02 0. -1.
    10030    2    1    2    0    0  0.00000000000E+00  0.00000000000E+00  0.45008996477E+03  0.29305427131E+04  0.28957727150E+04 0.  0.
        1    1    3    3  502    0  0.11438010436E+04  0.86922074270E+03  0.40762570682E+03  0.14933131767E+04  0.50400001928E-02 0. -1.
       -1    1    3    3    0  502 -0.11438010436E+04 -0.86922074270E+03  0.42464257955E+02  0.14372295364E+04  0.50400001928E-02 0.  1.
</event>
<event>
 5   0  0.5002240E-06  0.2797321E+04  0.7818609E-02  0.8304101E-01
       -1   -1    0    0    0  501  0.00000000000E+00  0.00000000000E+00  0.15733970891E+04  0.15733970891E+04  0.50400001928E-02 0.  1.
        1   -1    0    0  501    0  0.00000000000E+00  0.00000000000E+00 -0.12433293811E+04  0.12433293811E+04  0.50400001928E-02 0. -1.
    10030    2    1    2    0    0  0.00000000000E+00  0.00000000000E+00  0.33006770799E+03  0.28167264703E+04  0.27973207389E+04 0.  0.
        4    1    3    3  502    0 -0.10797426072E+04 -0.85902226001E+03 -0.65653416951E+02  0.13813309977E+04  0.12699999809E+01 0. -1.
       -4    1    3    3    0  502  0.10797426072E+04  0.85902226001E+03  0.39572112495E+03  0.14353954726E+04  0.12699999809E+01 0.  1.
</event>
<event>
 5   0  0.5059249E-06  0.2875224E+04  0.7818609E-02  0.8280287E-01
        1   -1    0    0  501    0  0.00000000000E+00  0.00000000000E+00  0.15265433206E+04  0.15265433206E+04  0.50400001928E-02 0. -1.
       -1   -1    0    0    0  501  0.00000000000E+00  0.00000000000E+00 -0.13538619115E+04  0.13538619115E+04  0.50400001928E-02 0.  1.
    10030    2    1    2    0    0  0.00000000000E+00  0.00000000000E+00  0.17268140909E+03  0.28804052321E+04  0.28752244142E+04 0.  0.
        1    1    3    3  502    0  0.26575035697E+03 -0.90058504115E+03 -0.10042218511E+04  0.13748229685E+04  0.50400001928E-02 0.  1.
       -1    1    3    3    0  502 -0.26575035697E+03  0.90058504115E+03  0.11769032602E+04  0.15055822636E+04  0.50400001928E-02 0. -1.
</event>
<event>
 5   0  0.1336899E-05  0.2885037E+04  0.7818609E-02  0.8277343E-01
        2   -1    0    0  501    0  0.00000000000E+00  0.00000000000E+00  0.17055426991E+04  0.17055426991E+04  0.25500000920E-02 0.  1.
       -2   -1    0    0    0  501  0.00000000000E+00  0.00000000000E+00 -0.12200570465E+04  0.12200570465E+04  0.25500000920E-02 0. -1.
    10030    2    1    2    0    0  0.00000000000E+00  0.00000000000E+00  0.48548565261E+03  0.29255997456E+04  0.28850368373E+04 0.  0.
        1    1    3    3  502    0 -0.35291984504E+03 -0.94493218056E+03 -0.80297363946E+03  0.12892695252E+04  0.50400001928E-02 0. -1.
       -1    1    3    3    0  502  0.35291984504E+03  0.94493218056E+03  0.12884592921E+04  0.16363302204E+04  0.50400001928E-02 0.  1.
</event>
<event>
 5   0  0.1307832E-05  0.2871162E+04  0.7818609E-02  0.8281510E-01
        2   -1    0    0  501    0  0.00000000000E+00  0.00000000000E+00  0.98907483524E+03  0.98907483525E+03  0.25500000920E-02 0. -1.
       -2   -1    0    0    0  501  0.00000000000E+00  0.00000000000E+00 -0.20836566024E+04  0.20836566024E+04  0.25500000920E-02 0.  1.
    10030    2    1    2    0    0  0.00000000000E+00  0.00000000000E+00 -0.10945817671E+04  0.30727314376E+04  0.28711616539E+04 0.  0.
        4    1    3    3  502    0  0.10596343830E+04 -0.94847728512E+03 -0.75716162809E+03  0.16111267889E+04  0.12699999809E+01 0.  1.
       -4    1    3    3    0  502 -0.10596343830E+04  0.94847728512E+03 -0.33742013902E+03  0.14616046487E+04  0.12699999809E+01 0. -1.
</event>
<event>
 5   0  0.1382803E-05  0.2939296E+04  0.7818609E-02  0.8261281E-01
        2   -1    0    0  501    0  0.00000000000E+00  0.00000000000E+00  0.14607723137E+04  0.14607723137E+04  0.25500000920E-02 0.  1.
       -2   -1    0    0    0  501  0.00000000000E+00  0.00000000000E+00 -0.14785772621E+04  0.14785772621E+04  0.25500000920E-02 0. -1.
    10030    2    1    2    0    0  0.00000000000E+00  0.00000000000E+00 -0.17804948390E+02  0.29393495758E+04  0.29392956491E+04 0.  0.
        2    1    3    3  502    0  0.13739328418E+04 -0.87601520997E+02  0.50540186505E+03  0.14665594177E+04  0.25500000920E-02 0.  1.
       -2    1    3    3    0  502 -0.13739328418E+04  0.87601520997E+02 -0.52320681344E+03  0.14727901582E+04  0.25500000920E-02 0. -1.
</event>
<event>
 5   0  0.5261878E-06  0.2448187E+04  0.7818609E-02  0.8421680E-01
        1   -1    0    0  501    0  0.00000000000E+00  0.00000000000E+00  0.23733502903E+04  0.23733502903E+04  0.50400001928E-02 0.  1.
       -1   -1    0    0    0  501  0.00000000000E+00  0.00000000000E+00 -0.63134594844E+03  0.63134594846E+03  0.50400001928E-02 0. -1.
    10030    2    1    2    0    0  0.00000000000E+00  0.00000000000E+00  0.17420043419E+04  0.30046962388E+04  0.24481871579E+04 0.  0.
        5    1    3    3  502    0  0.11632786267E+04 -0.20313386158E+02  0.13379518153E+04  0.17730671017E+04  0.46999998093E+01 0. -1.
       -5    1    3    3    0  502 -0.11632786267E+04  0.20313386158E+02  0.40405252653E+03  0.12316291370E+04  0.46999998093E+01 0.  1.
</event>
<event>
 5   0  0.5154476E-06  0.2883916E+04  0.7818609E-02  0.8277679E-01
        1   -1    0    0  501    0  0.00000000000E+00  0.00000000000E+00  0.16615533318E+04  0.16615533318E+04  0.50400001928E-02 0. -1.
       -1   -1    0    0    0  501  0.00000000000E+00  0.00000000000E+00 -0.12513851177E+04  0.12513851177E+04  0.50400001928E-02 0.  1.
    10030    2    1    2    0    0  0.00000000000E+00  0.00000000000E+00  0.41016821415E+03  0.29129384495E+04  0.28839161650E+04 0.  0.
        3    1    3    3  502    0 -0.10137932932E+04  0.64448082462E+03 -0.60050769172E+03  0.13430345761E+04  0.10100000352E+00 0.  1.
       -3    1    3    3    0  502  0.10137932932E+04 -0.64448082462E+03  0.10106759059E+04  0.15699038734E+04  0.10100000352E+00 0. -1.
</event>
<event>
 5   0  0.1336899E-05  0.2616298E+04  0.7818609E-02  0.8362686E-01
        2   -1    0    0  501    0  0.00000000000E+00  0.00000000000E+00  0.17877422411E+04  0.17877422411E+04  0.25500000920E-02 0.  1.
       -2   -1    0    0    0  501  0.00000000000E+00  0.00000000000E+00 -0.95721503145E+03  0.95721503146E+03  0.25500000920E-02 0. -1.
    10030    2    1    2    0    0  0.00000000000E+00  0.00000000000E+00  0.83052720964E+03  0.27449572726E+04  0.26162979536E+04 0.  0.
        1    1    3    3  502    0  0.85257481043E+03  0.93891407564E+03  0.78855311730E+02  0.12706933576E+04  0.50400001928E-02 0. -1.
       -1    1    3    3    0  502 -0.85257481043E+03 -0.93891407564E+03  0.75167189792E+03  0.14742639150E+04  0.50400001928E-02 0.  1.
</event>
<event>
 5   0  0.5002240E-06  0.2882547E+04  0.7818609E-02  0.8278089E-01
        1   -1    0    0  501    0  0.00000000000E+00  0.00000000000E+00  0.11583345556E+04  0.11583345556E+04  0.50400001928E-02 0.  1.
       -1   -1    0    0    0  501  0.00000000000E+00  0.00000000000E+00 -0.17933237473E+04  0.17933237473E+04  0.50400001928E-02 0. -1.
    10030    2    1    2    0    0  0.00000000000E+00  0.00000000000E+00 -0.63498919168E+03  0.29516583030E+04  0.28825466976E+04 0.  0.
        4    1    3    3  502    0  0.12930719262E+04 -0.50437066425E+03 -0.71519090487E+03  0.15613854157E+04  0.12699999809E+01 0. -1.
       -4    1    3    3    0  502 -0.12930719262E+04  0.50437066425E+03  0.80201713188E+02  0.13902728872E+04  0.12699999809E+01 0.  1.
</event>
<event>
 5   0  0.5154476E-06  0.2904981E+04  0.7818609E-02  0.8271397E-01
        1   -1    0    0  501    0  0.00000000000E+00  0.00000000000E+00  0.18200893759E+04  0.18200893759E+04  0.50400001928E-02 0.  1.
       -1   -1    0    0    0  501  0.00000000000E+00  0.00000000000E+00 -0.11591344420E+04  0.11591344420E+04  0.50400001928E-02 0. -1.
    10030    2    1    2    0    0  0.00000000000E+00  0.00000000000E+00  0.66095493390E+03  0.29792238179E+04  0.29049807456E+04 0.  0.
        3    1    3    3  502    0  0.30838131666E+02  0.79022372943E+03  0.15799427395E+04  0.17668117056E+04  0.10100000352E+00 0.  1.
       -3    1    3    3    0  502 -0.30838131666E+02 -0.79022372943E+03 -0.91898780558E+03  0.12124121122E+04  0.10100000352E+00 0. -1.
</event>
<event>
 5   0  0.5059249E-06  0.2687642E+04  0.7818609E-02  0.8339026E-01
       -1   -1    0    0    0  501  0.00000000000E+00  0.00000000000E+00  0.11961308714E+04  0.11961308714E+04  0.50400001928E-02 0. -1.
        1   -1    0    0  501    0  0.00000000000E+00  0.00000000000E+00 -0.15097470105E+04  0.15097470105E+04  0.50400001928E-02 0.  1.
    10030    2    1    2    0    0  0.00000000000E+00  0.00000000000E+00 -0.31361613912E+03  0.27058778819E+04  0.26876420946E+04 0.  0.
        1    1    3    3  502    0 -0.21594275381E+03 -0.13155702459E+04  0.13152820669E+02  0.13332401664E+04  0.50400001928E-02 0. -1.
       -1    1    3    3    0  502  0.21594275381E+03  0.13155702459E+04 -0.32676895979E+03  0.13726377154E+04  0.50400001928E-02 0.  1.
</event>
<event>
 5   0  0.5261878E-06  0.2771835E+04  0.7818609E-02  0.8312066E-01
       -1   -1    0    0    0  501  0.00000000000E+00  0.00000000000E+00  0.88742131415E+03  0.88742131417E+03  0.50400001928E-02 0.  1.
        1   -1    0    0  501    0  0.00000000000E+00  0.00000000000E+00 -0.21644374937E+04  0.21644374937E+04  0.50400001928E-02 0. -1.
    10030    2    1    2    0    0  0.00000000000E+00  0.00000000000E+00 -0.12770161795E+04  0.30518588078E+04  0.27718354677E+04 0.  0.
        5    1    3    3  502    0 -0.81457777172E+02  0.55739990161E+03  0.75567585357E+03  0.94254872842E+03  0.46999998093E+01 0.  1.
       -5    1    3    3    0  502  0.81457777172E+02 -0.55739990161E+03 -0.20326920331E+04  0.21093100794E+04  0.46999998093E+01 0. -1.
</event>
<event>
 5   0  0.5154476E-06  0.2924250E+04  0.7818609E-02  0.8265699E-01
       -1   -1    0    0    0  501  0.00000000000E+00  0.00000000000E+00  0.82582027731E+03  0.82582027733E+03  0.50400001928E-02 0.  1.
        1   -1    0    0  501    0  0.00000000000E+00  0.00000000000E+00 -0.25887109561E+04  0.25887109561E+04  0.50400001928E-02 0. -1.
    10030    2    1    2    0    0  0.00000000000E+00  0.00000000000E+00 -0.17628906788E+04  0.34145312334E+04  0.29242503311E+04 0.  0.
        3    1    3    3  502    0  0.13867965965E+04  0.85416062211E+02 -0.14130954633E+04  0.19817516248E+04  0.10100000352E+00 0. -1.
       -3    1    3    3    0  502 -0.13867965965E+04 -0.85416062211E+02 -0.34979521546E+03  0.14327796086E+04  0.10100000352E+00 0.  1.
</event>
<event>
 5   0  0.1307832E-05  0.2886438E+04  0.7818609E-02  0.8276924E-01
        2   -1    0    0  501    0  0.00000000000E+00  0.00000000000E+00  0.18685221121E+04  0.18685221121E+04  0.25500000920E-02 0. -1.
       -2   -1    0    0    0  501  0.00000000000E+00  0.00000000000E+00 -0.11147208724E+04  0.11147208724E+04  0.25500000920E-02 0.  1.
    10030    2    1    2    0    0  0.00000000000E+00  0.00000000000E+00  0.75380123976E+03  0.29832429845E+04  0.28864376653E+04 0.  0.
        4    1    3    3  502    0 -0.82698197046E+03  0.86504551935E+03 -0.45679756845E+03  0.12809639189E+04  0.12699999809E+01 0.  1.
       -4    1    3    3    0  502  0.82698197046E+03 -0.86504551935E+03  0.12105988082E+04  0.17022790656E+04  0.12699999809E+01 0. -1.
</event>
<event>
 5   0  0.1336899E-05  0.1888506E+04  0.7818609E-02  0.8660599E-01
       -2   -1    0    0    0  501  0.00000000000E+00  0.00000000000E+00  0.65798635246E+03  0.65798635246E+03  0.25500000920E-02 0.  1.
        2   -1    0    0  501    0  0.00000000000E+00  0.00000000000E+00 -0.13550640263E+04  0.13550640263E+04  0.25500000920E-02 0. -1.
    10030    2    1    2    0    0  0.00000000000E+00  0.00000000000E+00 -0.69707767387E+03  0.20130503788E+04  0.18885059026E+04 0.  0.
        1    1    3    3  502    0 -0.49947021326E+03 -0.20818830725E+03 -0.11733935733E+04  0.12921553092E+04  0.50400001928E-02 0. -1.
       -1    1    3    3    0  502  0.49947021326E+03  0.20818830725E+03  0.47631589947E+03  0.72089506956E+03  0.50400001928E-02 0.  1.
</event>
<event>
 5   0  0.5002240E-06  0.2783981E+04  0.7818609E-02  0.8308259E-01
        1   -1    0    0  501    0  0.00000000000E+00  0.00000000000E+00  0.14328458070E+04  0.14328458070E+04  0.50400001928E-02 0.  1.
       -1   -1    0    0    0  501  0.00000000000E+00  0.00000000000E+00 -0.13523005366E+04  0.13523005366E+04  0.50400001928E-02 0. -1.
    10030    2    1    2    0    0  0.00000000000E+00  0.00000000000E+00  0.80545270443E+02  0.27851463436E+04  0.27839814322E+04 0.  0.
        4    1    3    3  502    0  0.11628664638E+04  0.56948726462E+02 -0.72302432032E+03  0.13704989423E+04  0.12699999809E+01 0. -1.
       -4    1    3    3    0  502 -0.11628664638E+04 -0.56948726462E+02  0.80356959077E+03  0.14146474013E+04  0.12699999809E+01 0.  1.
</event>
<event>
 5   0  0.1339837E-05  0.3028857E+04  0.7818609E-02  0.8235538E-01
       -2   -1    0    0    0  501  0.00000000000E+00  0.00000000000E+00  0.11529460366E+04  0.11529460366E+04  0.25500000920E-02 0.  1.
        2   -1    0    0  501    0  0.00000000000E+00  0.00000000000E+00 -0.19892458609E+04  0.19892458609E+04  0.25500000920E-02 0. -1.
    10030    2    1    2    0    0  0.00000000000E+00  0.00000000000E+00 -0.83629982436E+03  0.31421918975E+04  0.30288566365E+04 0.  0.
        5    1    3    3  502    0 -0.87889460443E+03  0.42979875952E+03 -0.16173843090E+04  0.18902742638E+04  0.46999998093E+01 0. -1.
       -5    1    3    3    0  502  0.87889460443E+03 -0.42979875952E+03  0.78108448467E+03  0.12519176337E+04  0.46999998093E+01 0.  1.
</event>
<event>
 5   0  0.5002240E-06  0.2871767E+04  0.7818609E-02  0.8281328E-01
       -1   -1    0    0    0  501  0.00000000000E+00  0.00000000000E+00  0.11122670299E+04  0.11122670299E+04  0.50400001928E-02 0. -1.
        1   -1    0    0  501    0  0.00000000000E+00  0.00000000000E+00 -0.18536565404E+04  0.18536565404E+04  0.50400001928E-02 0.  1.
    10030    2    1    2    0    0  0.00000000000E+00  0.00000000000E+00 -0.74138951050E+03  0.29659235703E+04  0.28717667417E+04 0.  0.
        4    1    3    3  502    0  0.13285942165E+04  0.15959484388E+03  0.16707533748E+03  0.13485358310E+04  0.12699999809E+01 0. -1.
       -4    1    3    3    0  502 -0.13285942165E+04 -0.15959484388E+03 -0.90846484798E+03  0.16173877393E+04  0.12699999809E+01 0.  1.
</event>
<event>
 5   0  0.5059249E-06  0.2696268E+04  0.7818609E-02  0.8336217E-01
       -1   -1    0    0    0  501  0.00000000000E+00  0.00000000000E+00  0.14980691388E+04  0.14980691389E+04  0.50400001928E-02 0.  1.
        1   -1    0    0  501    0  0.00000000000E+00  0.00000000000E+00 -0.12132051254E+04  0.12132051254E+04  0.50400001928E-02 0. -1.
    10030    2    1    2    0    0  0.00000000000E+00  0.00000000000E+00  0.28486401346E+03  0.27112742643E+04  0.26962679076E+04 0.  0.
        1    1    3    3  502    0  0.11451179557E+04 -0.70839692583E+03  0.20870648892E+03  0.13626003580E+04  0.50400001928E-02 0.  1.
       -1    1    3    3    0  502 -0.11451179557E+04  0.70839692583E+03  0.76157524542E+02  0.13486739063E+04  0.50400001928E-02 0. -1.
</event>
<event>
 5   0  0.5059249E-06  0.1944862E+04  0.7818609E-02  0.8632843E-01
        1   -1    0    0  501    0  0.00000000000E+00  0.00000000000E+00  0.21272207764E+04  0.21272207764E+04  0.50400001928E-02 0.  1.
       -1   -1    0    0    0  501  0.00000000000E+00  0.00000000000E+00 -0.44453382771E+03  0.44453382774E+03  0.50400001928E-02 0. -1.
    10030    2    1    2    0    0  0.00000000000E+00  0.00000000000E+00  0.16826869487E+04  0.25717546041E+04  0.19448615315E+04 0.  0.
        1    1    3    3  502    0  0.63239039687E+03  0.21325465915E+03  0.17765858086E+04  0.18978019651E+04  0.50400001928E-02 0.  1.
       -1    1    3    3    0  502 -0.63239039687E+03 -0.21325465915E+03 -0.93898859869E+02  0.67395263900E+03  0.50400001928E-02 0. -1.
</event>
<event>
 5   0  0.5154476E-06  0.2931772E+04  0.7818609E-02  0.8263487E-01
        1   -1    0    0  501    0  0.00000000000E+00  0.00000000000E+00  0.18394968038E+04  0.18394968038E+04  0.50400001928E-02 0. -1.
       -1   -1    0    0    0  501  0.00000000000E+00  0.00000000000E+00 -0.11681570998E+04  0.11681570998E+04  0.50400001928E-02 0.  1.
    10030    2    1    2    0    0  0.00000000000E+00  0.00000000000E+00  0.67133970402E+03  0.30076539036E+04  0.29317716497E+04 0.  0.
        3    1    3    3  502    0 -0.11682910006E+03 -0.12534628192E+04  0.11061092600E+04  0.16757970590E+04  0.10100000352E+00 0. -1.
       -3    1    3    3    0  502  0.11682910006E+03  0.12534628192E+04 -0.43476955596E+03  0.13318568447E+04  0.10100000352E+00 0.  1.
</event>
<event>
 5   0  0.1339837E-05  0.2874744E+04  0.7818609E-02  0.8280432E-01
        2   -1    0    0  501    0  0.00000000000E+00  0.00000000000E+00  0.17937675022E+04  0.17937675022E+04  0.25500000920E-02 0.  1.
       -2   -1    0    0    0  501  0.00000000000E+00  0.00000000000E+00 -0.11517869760E+04  0.11517869760E+04  0.25500000920E-02 0. -1.
    10030    2    1    2    0    0  0.00000000000E+00  0.00000000000E+00  0.64198052621E+03  0.29455544783E+04  0.28747438474E+04 0.  0.
        5    1    3    3  502    0  0.17504965771E+03 -0.12772282443E+04 -0.33032564923E+03  0.13308236154E+04  0.46999998093E+01 0. -1.
       -5    1    3    3    0  502 -0.17504965771E+03  0.12772282443E+04  0.97230617544E+03  0.16147308629E+04  0.46999998093E+01 0.  1.
</event>
<event>
 5   0  0.1336899E-05  0.2893475E+04  0.7818609E-02  0.8274821E-01
       -2   -1    0    0    0  501  0.00000000000E+00  0.00000000000E+00  0.18649726452E+04  0.18649726452E+04  0.25500000920E-02 0.  1.
        2   -1    0    0  501    0  0.00000000000E+00  0.00000000000E+00 -0.11222950345E+04  0.11222950345E+04  0.25500000920E-02 0. -1.
    10030    2    1    2    0    0  0.00000000000E+00  0.00000000000E+00  0.74267761070E+03  0.29872676797E+04  0.28934751004E+04 0.  0.
        1    1    3    3  502    0 -0.20842307525E+03  0.13998448710E+04  0.61539063140E+02  0.14166131785E+04  0.50400001928E-02 0. -1.
       -1    1    3    3    0  502  0.20842307525E+03 -0.13998448710E+04  0.68113854756E+03  0.15706545012E+04  0.50400001928E-02 0.  1.
</event>
<event>
 5   0  0.5002240E-06  0.2933489E+04  0.7818609E-02  0.8262983E-01
       -1   -1    0    0    0  501  0.00000000000E+00  0.00000000000E+00  0.10025178429E+04  0.10025178430E+04  0.50400001928E-02 0.  1.
        1   -1    0    0  501    0  0.00000000000E+00  0.00000000000E+00 -0.21459361985E+04  0.21459361985E+04  0.50400001928E-02 0. -1.
    10030    2    1    2    0    0  0.00000000000E+00  0.00000000000E+00 -0.11434183556E+04  0.31484540415E+04  0.29334889322E+04 0.  0.
        4    1    3    3  502    0  0.28048382592E+03 -0.69481437465E+03  0.78160223360E+03  0.10827473649E+04  0.12699999809E+01 0.  1.
       -4    1    3    3    0  502 -0.28048382592E+03  0.69481437465E+03 -0.19250205892E+04  0.20657066765E+04  0.12699999809E+01 0. -1.
</event>
<event>
 5   0  0.5154476E-06  0.2844424E+04  0.7818609E-02  0.8289608E-01
        1   -1    0    0  501    0  0.00000000000E+00  0.00000000000E+00  0.16027564158E+04  0.16027564158E+04  0.50400001928E-02 0.  1.
       -1   -1    0    0    0  501  0.00000000000E+00  0.00000000000E+00 -0.12620052303E+04  0.12620052303E+04  0.50400001928E-02 0. -1.
    10030    2    1    2    0    0  0.00000000000E+00  0.00000000000E+00  0.34075118545E+03  0.28647616461E+04  0.28444240047E+04 0.  0.
        3    1    3    3  502    0  0.84905292949E+03 -0.32264874195E+02 -0.97828552991E+03  0.12957524792E+04  0.10100000352E+00 0. -1.
       -3    1    3    3    0  502 -0.84905292949E+03  0.32264874195E+02  0.13190367154E+04  0.15690091669E+04  0.10100000352E+00 0.  1.
</event>
<event>
 5   0  0.1339837E-05  0.2831245E+04  0.7818609E-02  0.8293633E-01
        2   -1    0    0  501    0  0.00000000000E+00  0.00000000000E+00  0.14233696485E+04  0.14233696485E+04  0.25500000920E-02 0. -1.
       -2   -1    0    0    0  501  0.00000000000E+00  0.00000000000E+00 -0.14079171056E+04  0.14079171056E+04  0.25500000920E-02 0.  1.
    10030    2    1    2    0    0  0.00000000000E+00  0.00000000000E+00  0.15452542916E+02  0.28312867542E+04  0.28312445856E+04 0.  0.
        5    1    3    3  502    0 -0.42438583481E+03  0.12944552498E+04  0.39276012884E+03  0.14177448075E+04  0.46999998093E+01 0.  1.
       -5    1    3    3    0  502  0.42438583481E+03 -0.12944552498E+04 -0.37730758593E+03  0.14135419466E+04  0.46999998093E+01 0. -1.
</event>
<event>
 5   0  0.5154476E-06  0.2973833E+04  0.7818609E-02  0.8251243E-01
        1   -1    0    0  501    0  0.00000000000E+00  0.00000000000E+00  0.23067733724E+04  0.23067733724E+04  0.50400001928E-02 0. -1.
       -1   -1    0    0    0  501  0.00000000000E+00  0.00000000000E+00 -0.95844703240E+03  0.95844703241E+03  0.50400001928E-02 0.  1.
    10030    2    1    2    0    0  0.00000000000E+00  0.00000000000E+00  0.13483263400E+04  0.32652204048E+04  0.29738326067E+04 0.  0.
        3    1    3    3  502    0 -0.13538628811E+04 -0.20735446279E+03  0.13096478769E+04  0.18950245765E+04  0.10100000352E+00 0. -1.
       -3    1    3    3    0  502  0.13538628811E+04  0.20735446279E+03  0.38678463104E+02  0.13701958283E+04  0.10100000352E+00 0.  1.
</event>
<event>
 5   0  0.5059249E-06  0.2829619E+04  0.7818609E-02  0.8294131E-01
       -1   -1    0    0    0  501  0.00000000000E+00  0.00000000000E+00  0.18325690039E+04  0.18325690039E+04  0.50400001928E-02 0. -1.
        1   -1    0    0  501    0  0.00000000000E+00  0.00000000000E+00 -0.10922844069E+04  0.10922844069E+04  0.50400001928E-02 0.  1.
    10030    2    1    2    0    0  0.00000000000E+00  0.00000000000E+00  0.74028459702E+03  0.29248534108E+04  0.28296194426E+04 0.  0.
        1    1    3    3  502    0  0.57782624555E+03  0.11099240478E+04  0.10525682789E+04  0.16351497007E+04  0.50400001928E-02 0. -1.
       -1    1    3    3    0  502 -0.57782624555E+03 -0.11099240478E+04 -0.31228368191E+03  0.12897037101E+04  0.50400001928E-02 0.  1.
</event>
<event>
 5   0  0.1307832E-05  0.2895294E+04  0.7818609E-02  0.8274279E-01
       -2   -1    0    0    0  501  0.00000000000E+00  0.00000000000E+00  0.73434504918E+03  0.73434504918E+03  0.25500000920E-02 0. -1.
        2   -1    0    0  501    0  0.00000000000E+00  0.00000000000E+00 -0.28538107651E+04  0.28538107651E+04  0.25500000920E-02 0.  1.
    10030    2    1    2    0    0  0.00000000000E+00  0.00000000000E+00 -0.21194657159E+04  0.35881558143E+04  0.28952939793E+04 0.  0.
        4    1    3    3  502    0 -0.10758819984E+04 -0.31986598547E+03 -0.21927623322E+04  0.24633401271E+04  0.12699999809E+01 0.  1.
       -4    1    3    3    0  502  0.10758819984E+04  0.31986598547E+03  0.73296616339E+02  0.11248156872E+04  0.12699999809E+01 0. -1.
</event>
<event>
 5   0  0.1382803E-05  0.2869206E+04  0.7818609E-02  0.8282099E-01
        2   -1    0    0  501    0  0.00000000000E+00  0.00000000000E+00  0.11299000425E+04  0.11299000425E+04  0.25500000920E-02 0. -1.
       -2   -1    0    0    0  501  0.00000000000E+00  0.00000000000E+00 -0.18214764041E+04  0.18214764041E+04  0.25500000920E-02 0.  1.
    10030    2    1    2    0    0  0.00000000000E+00  0.00000000000E+00 -0.69157636154E+03  0.29513764466E+04  0.28692063477E+04 0.  0.
        2    1    3    3  502    0  0.32766542802E+03 -0.11858988987E+04  0.41315295894E+03  0.12978506070E+04  0.25500000920E-02 0. -1.
       -2    1    3    3    0  502 -0.32766542802E+03  0.11858988987E+04 -0.11047293205E+04  0.16535258396E+04  0.25500000920E-02 0.  1.
</event>
<event>
 5   0  0.5352212E-06  0.2714357E+04  0.7818609E-02  0.8330362E-01
       -1   -1    0    0    0  501  0.00000000000E+00  0.00000000000E+00  0.68064881762E+03  0.68064881764E+03  0.50400001928E-02 0. -1.
        1   -1    0    0  501    0  0.00000000000E+00  0.00000000000E+00 -0.27061441664E+04  0.27061441664E+04  0.50400001928E-02 0.  1.
    10030    2    1    2    0    0  0.00000000000E+00  0.00000000000E+00 -0.20254953488E+04  0.33867929841E+04  0.27143572552E+04 0.  0.
        2    1    3    3  502    0 -0.86026652992E+03 -0.98057054681E+03 -0.14802010074E+04  0.19729602434E+04  0.25500000920E-02 0. -1.
       -2    1    3    3    0  502  0.86026652992E+03  0.98057054681E+03 -0.54529434142E+03  0.14138327407E+04  0.25500000920E-02 0.  1.
</event>
<event>
 5   0  0.1382803E-05  0.2431868E+04  0.7818609E-02  0.8427668E-01
       -2   -1    0    0    0  501  0.00000000000E+00  0.00000000000E+00  0.99276312930E+03  0.99276312930E+03  0.25500000920E-02 0. -1.
        2   -1    0    0  501    0  0.00000000000E+00  0.00000000000E+00 -0.14892727147E+04  0.14892727147E+04  0.25500000920E-02 0.  1.
    10030    2    1    2    0    0  0.00000000000E+00  0.00000000000E+00 -0.49650958536E+03  0.24820358440E+04  0.24318676285E+04 0.  0.
        2    1    3    3  502    0 -0.13498398354E+03  0.46338504508E+03 -0.13873196879E+04  0.14688779024E+04  0.25500000920E-02 0.  1.
       -2    1    3    3    0  502  0.13498398354E+03 -0.46338504508E+03  0.89081010251E+03  0.10131579416E+04  0.25500000920E-02 0. -1.
</event>
<event>
 5   0  0.5352212E-06  0.2506408E+04  0.7818609E-02  0.8400706E-01
        1   -1    0    0  501    0  0.00000000000E+00  0.00000000000E+00  0.10426371619E+04  0.10426371619E+04  0.50400001928E-02 0.  1.
       -1   -1    0    0    0  501  0.00000000000E+00  0.00000000000E+00 -0.15062964987E+04  0.15062964987E+04  0.50400001928E-02 0. -1.
    10030    2    1    2    0    0  0.00000000000E+00  0.00000000000E+00 -0.46365933686E+03  0.25489336606E+04  0.25064083517E+04 0.  0.
        2    1    3    3  502    0  0.37355871806E+03 -0.31380892745E+03  0.94209458603E+03  0.10609261840E+04  0.25500000920E-02 0.  1.
       -2    1    3    3    0  502 -0.37355871806E+03  0.31380892745E+03 -0.14057539229E+04  0.14880074766E+04  0.25500000920E-02 0. -1.
</event>
<event>
 5   0  0.5261878E-06  0.2904794E+04  0.7818609E-02  0.8271452E-01
        1   -1    0    0  501    0  0.00000000000E+00  0.00000000000E+00  0.63895832152E+03  0.63895832154E+03  0.50400001928E-02 0. -1.
       -1   -1    0    0    0  501  0.00000000000E+00  0.00000000000E+00 -0.33014005647E+04  0.33014005647E+04  0.50400001928E-02 0.  1.
    10030    2    1    2    0    0  0.00000000000E+00  0.00000000000E+00 -0.26624422431E+04  0.39403588862E+04  0.29047942189E+04 0.  0.
        5    1    3    3  502    0 -0.98093343192E+02  0.14469144433E+04 -0.12239668191E+04  0.18977092966E+04  0.46999998093E+01 0.  1.
       -5    1    3    3    0  502  0.98093343192E+02 -0.14469144433E+04 -0.14384754240E+04  0.20426495896E+04  0.46999998093E+01 0. -1.
</event>
<event>
 5   0  0.5059249E-06  0.2907147E+04  0.7818609E-02  0.8270754E-01
        1   -1    0    0  501    0  0.00000000000E+00  0.00000000000E+00  0.15426073265E+04  0.15426073265E+04  0.50400001928E-02 0.  1.
       -1   -1    0    0    0  501  0.00000000000E+00  0.00000000000E+00 -0.13696788535E+04  0.13696788535E+04  0.50400001928E-02 0. -1.
    10030    2    1    2    0    0  0.00000000000E+00  0.00000000000E+00  0.17292847301E+03  0.29122861799E+04  0.29071474915E+04 0.  0.
        1    1    3    3  502    0  0.12668168528E+04 -0.56289440231E+03  0.52450318781E+03  0.14821533796E+04  0.50400001928E-02 0. -1.
       -1    1    3    3    0  502 -0.12668168528E+04  0.56289440231E+03 -0.35157471479E+03  0.14301328004E+04  0.50400001928E-02 0.  1.
</event>
<event>
 5   0  0.1382803E-05  0.2891903E+04  0.7818609E-02  0.8275291E-01
        2   -1    0    0  501    0  0.00000000000E+00  0.00000000000E+00  0.21152240711E+04  0.21152240711E+04  0.25500000920E-02 0.  1.
       -2   -1    0    0    0  501  0.00000000000E+00  0.00000000000E+00 -0.98844178727E+03  0.98844178727E+03  0.25500000920E-02 0. -1.
    10030    2    1    2    0    0  0.00000000000E+00  0.00000000000E+00  0.11267822839E+04  0.31036658584E+04  0.28919030837E+04 0.  0.
        2    1    3    3  502    0  0.44205259662E+03  0.37411361655E+03 -0.85854407818E+03  0.10356009996E+04  0.25500000920E-02 0. -1.
       -2    1    3    3    0  502 -0.44205259662E+03 -0.37411361655E+03  0.19853263620E+04  0.20680648588E+04  0.25500000920E-02 0.  1.
</event>
<event>
 5   0  0.1307832E-05  0.2900278E+04  0.7818609E-02  0.8272795E-01
       -2   -1    0    0    0  501  0.00000000000E+00  0.00000000000E+00  0.20879501866E+04  0.20879501866E+04  0.25500000920E-02 0.  1.
        2   -1    0    0  501    0  0.00000000000E+00  0.00000000000E+00 -0.10071614424E+04  0.10071614424E+04  0.25500000920E-02 0. -1.
    10030    2    1    2    0    0  0.00000000000E+00  0.00000000000E+00  0.10807887442E+04  0.30951116290E+04  0.29002778637E+04 0.  0.
        4    1    3    3  502    0 -0.33237576229E+03 -0.13568781991E+04  0.12527844465E+03  0.14026005832E+04  0.12699999809E+01 0. -1.
       -4    1    3    3    0  502  0.33237576229E+03  0.13568781991E+04  0.95551029960E+03  0.16925110458E+04  0.12699999809E+01 0.  1.
</event>
<event>
 5   0  0.1336899E-05  0.2744881E+04  0.7818609E-02  0.8320588E-01
       -2   -1    0    0    0  501  0.00000000000E+00  0.00000000000E+00  0.11850961756E+04  0.11850961756E+04  0.25500000920E-02 0. -1.
        2   -1    0    0  501    0  0.00000000000E+00  0.00000000000E+00 -0.15894013802E+04  0.15894013802E+04  0.25500000920E-02 0.  1.
    10030    2    1    2    0    0  0.00000000000E+00  0.00000000000E+00 -0.40430520464E+03  0.27744975558E+04  0.27448814161E+04 0.  0.
        1    1    3    3  502    0 -0.11784468538E+04  0.35792875689E+03  0.40997502516E+03  0.12980483440E+04  0.50400001928E-02 0. -1.
       -1    1    3    3    0  502  0.11784468538E+04 -0.35792875689E+03 -0.81428022979E+03  0.14764492117E+04  0.50400001928E-02 0.  1.
</event>
<event>
 5   0  0.1336899E-05  0.2892605E+04  0.7818609E-02  0.8275081E-01
        2   -1    0    0  501    0  0.00000000000E+00  0.00000000000E+00  0.23452111180E+04  0.23452111180E+04  0.25500000920E-02 0. -1.
       -2   -1    0    0    0  501  0.00000000000E+00  0.00000000000E+00 -0.89194166476E+03  0.89194166476E+03  0.25500000920E-02 0.  1.
    10030    2    1    2    0    0  0.00000000000E+00  0.00000000000E+00  0.14532694533E+04  0.32371527828E+04  0.28926054061E+04 0.  0.
        1    1    3    3  502    0 -0.11433755619E+03 -0.10407748215E+04  0.18432305238E+04  0.21198547284E+04  0.50400001928E-02 0. -1.
       -1    1    3    3    0  502  0.11433755619E+03  0.10407748215E+04 -0.38996107051E+03  0.11172980544E+04  0.50400001928E-02 0.  1.
</event>
<event>
 5   0  0.5352212E-06  0.2889305E+04  0.7818609E-02  0.8276067E-01
       -1   -1    0    0    0  501  0.00000000000E+00  0.00000000000E+00  0.11377098419E+04  0.11377098419E+04  0.50400001928E-02 0. -1.
        1   -1    0    0  501    0  0.00000000000E+00  0.00000000000E+00 -0.18344050530E+04  0.18344050530E+04  0.50400001928E-02 0.  1.
    10030    2    1    2    0    0  0.00000000000E+00  0.00000000000E+00 -0.69669521111E+03  0.29721148949E+04  0.28893048872E+04 0.  0.
        2    1    3    3  502    0 -0.71888454385E+03 -0.43480850253E+03  0.86056626294E+03  0.12026752322E+04  0.25500000920E-02 0. -1.
       -2    1    3    3    0  502  0.71888454385E+03  0.43480850253E+03 -0.15572614741E+04  0.17694396627E+04  0.25500000920E-02 0.  1.
</event>
<event>
 5   0  0.1339837E-05  0.2871216E+04  0.7818609E-02  0.8281493E-01
        2   -1    0    0  501    0  0.00000000000E+00  0.00000000000E+00  0.14103815466E+04  0.14103815466E+04  0.25500000920E-02 0. -1.
       -2   -1    0    0    0  501  0.00000000000E+00  0.00000000000E+00 -0.14612860172E+04  0.14612860172E+04  0.25500000920E-02 0.  1.
    10030    2    1    2    0    0  0.00000000000E+00  0.00000000000E+00 -0.50904470652E+02  0.28716675638E+04  0.28712163506E+04 0.  0.
        5    1    3    3  502    0 -0.49666323487E+03 -0.65034452330E+03 -0.12051825879E+04  0.14567462127E+04  0.46999998093E+01 0.  1.
       -5    1    3    3    0  502  0.49666323487E+03  0.65034452330E+03  0.11542781173E+04  0.14149213511E+04  0.46999998093E+01 0. -1.
</event>
<event>
 5   0  0.1336899E-05  0.2854702E+04  0.7818609E-02  0.8286484E-01
       -2   -1    0    0    0  501  0.00000000000E+00  0.00000000000E+00  0.96621375266E+03  0.96621375266E+03  0.25500000920E-02 0. -1.
        2   -1    0    0  501    0  0.00000000000E+00  0.00000000000E+00 -0.21085708650E+04  0.21085708650E+04  0.25500000920E-02 0.  1.
    10030    2    1    2    0    0  0.00000000000E+00  0.00000000000E+00 -0.11423571124E+04  0.30747846177E+04  0.28547015033E+04 0.  0.
        1    1    3    3  502    0 -0.11204513293E+04  0.61596906951E+03 -0.12545196330E+04  0.17912701040E+04  0.50400001928E-02 0.  1.
       -1    1    3    3    0  502  0.11204513293E+04 -0.61596906951E+03  0.11216252064E+03  0.12835145137E+04  0.50400001928E-02 0. -1.
</event>
<event>
 5   0  0.1339837E-05  0.2028701E+04  0.7818609E-02  0.8593318E-01
        2   -1    0    0  501    0  0.00000000000E+00  0.00000000000E+00  0.12648191397E+04  0.12648191397E+04  0.25500000920E-02 0.  1.
       -2   -1    0    0    0  501  0.00000000000E+00  0.00000000000E+00 -0.81348127551E+03  0.81348127552E+03  0.25500000920E-02 0. -1.
    10030    2    1    2    0    0  0.00000000000E+00  0.00000000000E+00  0.45133786414E+03  0.20783004152E+04  0.20287007537E+04 0.  0.
        5    1    3    3  502    0 -0.94216305837E+03  0.21291432237E+03  0.54288581533E+03  0.11080391851E+04  0.46999998093E+01 0.  1.
       -5    1    3    3    0  502  0.94216305837E+03 -0.21291432237E+03 -0.91547951194E+02  0.97026123008E+03  0.46999998093E+01 0. -1.
</event>
<event>
 5   0  0.1307832E-05  0.2896699E+04  0.7818609E-02  0.8273860E-01
        2   -1    0    0  501    0  0.00000000000E+00  0.00000000000E+00  0.14618816052E+04  0.14618816052E+04  0.25500000920E-02 0.  1.
       -2   -1    0    0    0  501  0.00000000000E+00  0.00000000000E+00 -0.14349422234E+04  0.14349422234E+04  0.25500000920E-02 0. -1.
    10030    2    1    2    0    0  0.00000000000E+00  0.00000000000E+00  0.26939381845E+02  0.28968238286E+04  0.28966985628E+04 0.  0.
        4    1    3    3  502    0  0.11204698497E+04 -0.38372481851E+03  0.84718230333E+03  0.14561651309E+04  0.12699999809E+01 0.  1.
       -4    1    3    3    0  502 -0.11204698497E+04  0.38372481851E+03 -0.82024292148E+03  0.14406586978E+04  0.12699999809E+01 0. -1.
</event>
<event>
 5   0  0.5059249E-06  0.2903475E+04  0.7818609E-02  0.8271844E-01
       -1   -1    0    0    0  501  0.00000000000E+00  0.00000000000E+00  0.10873681753E+04  0.10873681753E+04  0.50400001928E-02 0. -1.
        1   -1    0    0  501    0  0.00000000000E+00  0.00000000000E+00 -0.19382044857E+04  0.19382044857E+04  0.50400001928E-02 0.  1.
    10030    2    1    2    0    0  0.00000000000E+00  0.00000000000E+00 -0.85083631040E+03  0.30255726609E+04  0.29034750730E+04 0.  0.
        1    1    3    3  502    0 -0.12544249876E+04  0.44586938597E+03  0.17785747348E+03  0.13431361956E+04  0.50400001928E-02 0. -1.
       -1    1    3    3    0  502  0.12544249876E+04 -0.44586938597E+03 -0.10286937839E+04  0.16824364654E+04  0.50400001928E-02 0.  1.
</event>
<event>
 5   0  0.1385669E-05  0.2905860E+04  0.7818609E-02  0.8271136E-01
       -2   -1    0    0    0  501  0.00000000000E+00  0.00000000000E+00  0.11219768230E+04  0.11219768230E+04  0.25500000920E-02 0. -1.
        2   -1    0    0  501    0  0.00000000000E+00  0.00000000000E+00 -0.18815049314E+04  0.18815049314E+04  0.25500000920E-02 0.  1.
    10030    2    1    2    0    0  0.00000000000E+00  0.00000000000E+00 -0.75952810842E+03  0.30034817544E+04  0.29058595461E+04 0.  0.
        3    1    3    3  502    0  0.34091321133E+03  0.29540699851E+02  0.10797329344E+04  0.11326595651E+04  0.10100000352E+00 0. -1.
       -3    1    3    3    0  502 -0.34091321133E+03 -0.29540699851E+02 -0.18392610428E+04  0.18708221894E+04  0.10100000352E+00 0.  1.
</event>
<event>
 5   0  0.1336899E-05  0.2977980E+04  0.7818609E-02  0.8250047E-01
        2   -1    0    0  501    0  0.00000000000E+00  0.00000000000E+00  0.15165785588E+04  0.15165785589E+04  0.25500000920E-02 0.  1.
       -2   -1    0    0    0  501  0.00000000000E+00  0.00000000000E+00 -0.14619029235E+04  0.14619029235E+04  0.25500000920E-02 0. -1.
    10030    2    1    2    0    0  0.00000000000E+00  0.00000000000E+00  0.54675635394E+02  0.29784814823E+04  0.29779796029E+04 0.  0.
        1    1    3    3  502    0 -0.73226418346E+02  0.27533683484E+03  0.14890621904E+04  0.15160734441E+04  0.50400001928E-02 0.  1.
       -1    1    3    3    0  502  0.73226418346E+02 -0.27533683484E+03 -0.14343865550E+04  0.14624080382E+04  0.50400001928E-02 0. -1.
</event>
<event>
 5   0  0.5002240E-06  0.2860305E+04  0.7818609E-02  0.8284787E-01
       -1   -1    0    0    0  501  0.00000000000E+00  0.00000000000E+00  0.68071009160E+03  0.68071009162E+03  0.50400001928E-02 0.  1.
        1   -1    0    0  501    0  0.00000000000E+00  0.00000000000E+00 -0.30047092553E+04  0.30047092553E+04  0.50400001928E-02 0. -1.
    10030    2    1    2    0    0  0.00000000000E+00  0.00000000000E+00 -0.23239991637E+04  0.36854193469E+04  0.28603048176E+04 0.  0.
        4    1    3    3  502    0  0.49420752571E+03  0.88646443625E+03  0.13627403407E+03  0.10240275877E+04  0.12699999809E+01 0.  1.
       -4    1    3    3    0  502 -0.49420752571E+03 -0.88646443625E+03 -0.24602731977E+04  0.26613917591E+04  0.12699999809E+01 0. -1.
</event>
<event>
 5   0  0.1385669E-05  0.2929494E+04  0.7818609E-02  0.8264156E-01
       -2   -1    0    0    0  501  0.00000000000E+00  0.00000000000E+00  0.22330844744E+04  0.22330844744E+04  0.25500000920E-02 0. -1.
        2   -1    0    0  501    0  0.00000000000E+00  0.00000000000E+00 -0.96077163711E+03  0.96077163711E+03  0.25500000920E-02 0.  1.
    10030    2    1    2    0    0  0.00000000000E+00  0.00000000000E+00  0.12723128373E+04  0.31938561115E+04  0.29294943088E+04 0.  0.
        3    1    3    3  502    0  0.41263075558E+03 -0.11427409201E+04 -0.25582051785E+03  0.12415978006E+04  0.10100000352E+00 0.  1.
       -3    1    3    3    0  502 -0.41263075558E+03  0.11427409201E+04  0.15281333551E+04  0.19522583108E+04  0.10100000352E+00 0. -1.
</event>
<event>
 5   0  0.1336899E-05  0.2916246E+04  0.7818609E-02  0.8268060E-01
        2   -1    0    0  501    0  0.00000000000E+00  0.00000000000E+00  0.20258995993E+04  0.20258995993E+04  0.25500000920E-02 0. -1.
       -2   -1    0    0    0  501  0.00000000000E+00  0.00000000000E+00 -0.10494707190E+04  0.10494707190E+04  0.25500000920E-02 0.  1.
    10030    2    1    2    0    0  0.00000000000E+00  0.00000000000E+00  0.97642888035E+03  0.30753703183E+04  0.29162457435E+04 0.  0.
        1    1    3    3  502    0 -0.65602916109E+03 -0.12861515333E+04  0.70320678393E+03  0.16059451447E+04  0.50400001928E-02 0. -1.
       -1    1    3    3    0  502  0.65602916109E+03  0.12861515333E+04  0.27322209642E+03  0.14694251736E+04  0.50400001928E-02 0.  1.
</event>
<event>
 5   0  0.5352212E-06  0.2869124E+04  0.7818609E-02  0.8282124E-01
       -1   -1    0    0    0  501  0.00000000000E+00  0.00000000000E+00  0.15058593553E+04  0.15058593553E+04  0.50400001928E-02 0.  1.
        1   -1    0    0  501    0  0.00000000000E+00  0.00000000000E+00 -0.13666406840E+04  0.13666406840E+04  0.50400001928E-02 0. -1.
    10030    2    1    2    0    0  0.00000000000E+00  0.00000000000E+00  0.13921867122E+03  0.28725000393E+04  0.28691243677E+04 0.  0.
        2    1    3    3  502    0 -0.11850967745E+04 -0.78592328401E+03  0.25914368133E+03  0.14454359968E+04  0.25500000920E-02 0.  1.
       -2    1    3    3    0  502  0.11850967745E+04  0.78592328401E+03 -0.11992501010E+03  0.14270640425E+04  0.25500000920E-02 0. -1.
</event>
<event>
 5   0  0.1339837E-05  0.2895193E+04  0.7818609E-02  0.8274309E-01
       -2   -1    0    0    0  501  0.00000000000E+00  0.00000000000E+00  0.10133752186E+04  0.10133752186E+04  0.25500000920E-02 0.  1.
        2   -1    0    0  501    0  0.00000000000E+00  0.00000000000E+00 -0.20678779304E+04  0.20678779304E+04  0.25500000920E-02 0. -1.
    10030    2    1    2    0    0  0.00000000000E+00  0.00000000000E+00 -0.10545027117E+04  0.30812531490E+04  0.28951934304E+04 0.  0.
        5    1    3    3  502    0  0.25826278184E+03  0.31695225307E+03  0.95064295073E+03  0.10348441936E+04  0.46999998093E+01 0.  1.
       -5    1    3    3    0  502 -0.25826278184E+03 -0.31695225307E+03 -0.20051456624E+04  0.20464089554E+04  0.46999998093E+01 0. -1.
</event>
<event>
 5   0  0.5059249E-06  0.2940859E+04  0.7818609E-02  0.8260823E-01
       -1   -1    0    0    0  501  0.00000000000E+00  0.00000000000E+00  0.23901880261E+04  0.23901880261E+04  0.50400001928E-02 0. -1.
        1   -1    0    0  501    0  0.00000000000E+00  0.00000000000E+00 -0.90459963290E+03  0.90459963291E+03  0.50400001928E-02 0.  1.
    10030    2    1    2    0    0  0.00000000000E+00  0.00000000000E+00  0.14855883932E+04  0.32947876590E+04  0.29408592017E+04 0.  0.
        1    1    3    3  502    0 -0.12552998453E+04  0.62718194532E+03  0.12350192445E+04  0.18693334183E+04  0.50400001928E-02 0. -1.
       -1    1    3    3    0  502  0.12552998453E+04 -0.62718194532E+03  0.25056914866E+03  0.14254542408E+04  0.50400001928E-02 0.  1.
</event>
<event>
 5   0  0.1336899E-05  0.2919593E+04  0.7818609E-02  0.8267072E-01
        2   -1    0    0  501    0  0.00000000000E+00  0.00000000000E+00  0.27371529620E+04  0.27371529620E+04  0.25500000920E-02 0.  1.
       -2   -1    0    0    0  501  0.00000000000E+00  0.00000000000E+00 -0.77854830978E+03  0.77854830979E+03  0.25500000920E-02 0. -1.
    10030    2    1    2    0    0  0.00000000000E+00  0.00000000000E+00  0.19586046522E+04  0.35157012717E+04  0.29195929937E+04 0.  0.
        1    1    3    3  502    0  0.81331959243E+03  0.11169960242E+04  0.15464636154E+04  0.20738173958E+04  0.50400001928E-02 0.  1.
       -1    1    3    3    0  502 -0.81331959243E+03 -0.11169960242E+04  0.41214103676E+03  0.14418838759E+04  0.50400001928E-02 0. -1.
</event>
<event>
 5   0  0.1382803E-05  0.2916317E+04  0.7818609E-02  0.8268039E-01
       -2   -1    0    0    0  501  0.00000000000E+00  0.00000000000E+00  0.14250604105E+04  0.14250604105E+04  0.25500000920E-02 0. -1.
        2   -1    0    0  501    0  0.00000000000E+00  0.00000000000E+00 -0.14920251725E+04  0.14920251725E+04  0.25500000920E-02 0.  1.
    10030    2    1    2    0    0  0.00000000000E+00  0.00000000000E+00 -0.66964761942E+02  0.29170855830E+04  0.29163168585E+04 0.  0.
        2    1    3    3  502    0  0.20149843638E+03 -0.83209954535E+03 -0.12141471623E+04  0.14856461910E+04  0.25500000920E-02 0.  1.
       -2    1    3    3    0  502 -0.20149843638E+03  0.83209954535E+03  0.11471824004E+04  0.14314393920E+04  0.25500000920E-02 0. -1.
</event>
<event>
 5   0  0.5261878E-06  0.2968859E+04  0.7818609E-02  0.8252680E-01
       -1   -1    0    0    0  501  0.00000000000E+00  0.00000000000E+00  0.87141719751E+03  0.87141719753E+03  0.50400001928E-02 0. -1.
        1   -1    0    0  501    0  0.00000000000E+00  0.00000000000E+00 -0.25286754148E+04  0.25286754148E+04  0.50400001928E-02 0.  1.
    10030    2    1    2    0    0  0.00000000000E+00  0.00000000000E+00 -0.16572582173E+04  0.34000926123E+04  0.29688592041E+04 0.  0.
        5    1    3    3  502    0  0.35406394276E+02  0.69089917787E+02  0.86908211588E+03  0.87255535276E+03  0.46999998093E+01 0. -1.
       -5    1    3    3    0  502 -0.35406394276E+02 -0.69089917787E+02 -0.25263403331E+04  0.25275372595E+04  0.46999998093E+01 0.  1.
</event>
<event>
 5   0  0.5154476E-06  0.2890512E+04  0.7818609E-02  0.8275706E-01
        1   -1    0    0  501    0  0.00000000000E+00  0.00000000000E+00  0.21953257188E+04  0.21953257188E+04  0.50400001928E-02 0. -1.
       -1   -1    0    0    0  501  0.00000000000E+00  0.00000000000E+00 -0.95146028273E+03  0.95146028275E+03  0.50400001928E-02 0.  1.
    10030    2    1    2    0    0  0.00000000000E+00  0.00000000000E+00  0.12438654361E+04  0.31467860016E+04  0.28905122239E+04 0.  0.
        3    1    3    3  502    0  0.69995648227E+03 -0.32282654026E+02 -0.75417182733E+03  0.10294447057E+04  0.10100000352E+00 0.  1.
       -3    1    3    3    0  502 -0.69995648227E+03  0.32282654026E+02  0.19980372634E+04  0.21173412958E+04  0.10100000352E+00 0. -1.
</event>
<event>
 5   0  0.1336899E-05  0.2854828E+04  0.7818609E-02  0.8286446E-01
        2   -1    0    0  501    0  0.00000000000E+00  0.00000000000E+00  0.13239517611E+04  0.13239517611E+04  0.25500000920E-02 0. -1.
       -2   -1    0    0    0  501  0.00000000000E+00  0.00000000000E+00 -0.15389617903E+04  0.15389617903E+04  0.25500000920E-02 0.  1.
    10030    2    1    2    0    0  0.00000000000E+00  0.00000000000E+00 -0.21501002915E+03  0.28629135514E+04  0.28548283119E+04 0.  0.
        1    1    3    3  502    0 -0.11907892542E+04 -0.19576973151E+03  0.65702300997E+03  0.13740393267E+04  0.50400001928E-02 0. -1.
       -1    1    3    3    0  502  0.11907892542E+04  0.19576973151E+03 -0.87203303912E+03  0.14888742247E+04  0.50400001928E-02 0.  1.
</event>
<event>
 5   0  0.1339837E-05  0.2896755E+04  0.7818609E-02  0.8273844E-01
       -2   -1    0    0    0  501  0.00000000000E+00  0.00000000000E+00  0.99886562335E+03  0.99886562335E+03  0.25500000920E-02 0.  1.
        2   -1    0    0  501    0  0.00000000000E+00  0.00000000000E+00 -0.21001793538E+04  0.21001793538E+04  0.25500000920E-02 0. -1.
    10030    2    1    2    0    0  0.00000000000E+00  0.00000000000E+00 -0.11013137305E+04  0.30990449772E+04  0.28967547079E+04 0.  0.
        5    1    3    3  502    0  0.86953933090E+03 -0.11210545880E+04 -0.86240425141E+03  0.16603087725E+04  0.46999998093E+01 0. -1.
       -5    1    3    3    0  502 -0.86953933090E+03  0.11210545880E+04 -0.23890947906E+03  0.14387362046E+04  0.46999998093E+01 0.  1.
</event>
<event>
 5   0  0.5261878E-06  0.2912620E+04  0.7818609E-02  0.8269132E-01
        1   -1    0    0  501    0  0.00000000000E+00  0.00000000000E+00  0.15704943641E+04  0.15704943641E+04  0.50400001928E-02 0. -1.
       -1   -1    0    0    0  501  0.00000000000E+00  0.00000000000E+00 -0.13504277605E+04  0.13504277605E+04  0.50400001928E-02 0.  1.
    10030    2    1    2    0    0  0.00000000000E+00  0.00000000000E+00  0.22006660358E+03  0.29209221246E+04  0.29126202547E+04 0.  0.
        5    1    3    3  502    0 -0.10430106026E+04 -0.18781029695E+03  0.11117162523E+04  0.15359293409E+04  0.46999998093E+01 0. -1.
       -5    1    3    3    0  502  0.10430106026E+04  0.18781029695E+03 -0.89164964869E+03  0.13849927837E+04  0.46999998093E+01 0.  1.
</event>
<event>
 5   0  0.1336899E-05  0.2899468E+04  0.7818609E-02  0.8273036E-01
       -2   -1    0    0    0  501  0.00000000000E+00  0.00000000000E+00  0.68029239748E+03  0.68029239748E+03  0.25500000920E-02 0. -1.
        2   -1    0    0  501    0  0.00000000000E+00  0.00000000000E+00 -0.30894494492E+04  0.30894494492E+04  0.25500000920E-02 0.  1.
    10030    2    1    2    0    0  0.00000000000E+00  0.00000000000E+00 -0.24091570517E+04  0.37697418467E+04  0.28994682083E+04 0.  0.
        1    1    3    3  502    0  0.11167633050E+04  0.20566206709E+03 -0.32804277826E+02  0.11360164109E+04  0.50400001928E-02 0. -1.
       -1    1    3    3    0  502 -0.11167633050E+04 -0.20566206709E+03 -0.23763527739E+04  0.26337254358E+04  0.50400001928E-02 0.  1.
</event>
<event>
 5   0  0.5059249E-06  0.2860809E+04  0.7818609E-02  0.8284634E-01
        1   -1    0    0  501    0  0.00000000000E+00  0.00000000000E+00  0.13404793979E+04  0.13404793979E+04  0.50400001928E-02 0.  1.
       -1   -1    0    0    0  501  0.00000000000E+00  0.00000000000E+00 -0.15263622235E+04  0.15263622235E+04  0.50400001928E-02 0. -1.
    10030    2    1    2    0    0  0.00000000000E+00  0.00000000000E+00 -0.18588282559E+03  0.28668416215E+04  0.28608090565E+04 0.  0.
        1    1    3    3  502    0  0.12568598844E+02  0.11096515103E+04 -0.99738138213E+03  0.14920636935E+04  0.50400001928E-02 0. -1.
       -1    1    3    3    0  502 -0.12568598844E+02 -0.11096515103E+04  0.81149855654E+03  0.13747779280E+04  0.50400001928E-02 0.  1.
</event>
<event>
 5   0  0.1385669E-05  0.2961087E+04  0.7818609E-02  0.8254931E-01
        2   -1    0    0  501    0  0.00000000000E+00  0.00000000000E+00  0.15160490857E+04  0.15160490857E+04  0.25500000920E-02 0.  1.
       -2   -1    0    0    0  501  0.00000000000E+00  0.00000000000E+00 -0.14458690891E+04  0.14458690891E+04  0.25500000920E-02 0. -1.
    10030    2    1    2    0    0  0.00000000000E+00  0.00000000000E+00  0.70179996642E+02  0.29619181748E+04  0.29610866321E+04 0.  0.
        3    1    3    3  502    0 -0.86484282450E+03 -0.51214613634E+03  0.11224839244E+04  0.15067239120E+04  0.10100000352E+00 0.  1.
       -3    1    3    3    0  502  0.86484282450E+03  0.51214613634E+03 -0.10523039278E+04  0.14551942629E+04  0.10100000352E+00 0. -1.
</event>
<event>
 5   0  0.1307832E-05  0.2916024E+04  0.7818609E-02  0.8268126E-01
       -2   -1    0    0    0  501  0.00000000000E+00  0.00000000000E+00  0.12555989936E+04  0.12555989936E+04  0.25500000920E-02 0. -1.
        2   -1    0    0  501    0  0.00000000000E+00  0.00000000000E+00 -0.16930558812E+04  0.16930558812E+04  0.25500000920E-02 0.  1.
    10030    2    1    2    0    0  0.00000000000E+00  0.00000000000E+00 -0.43745688766E+03  0.29486548748E+04  0.29160241841E+04 0.  0.
        4    1    3    3  502    0  0.10651827181E+04  0.29386167618E+03 -0.11805976371E+04  0.16170285406E+04  0.12699999809E+01 0.  1.
       -4    1    3    3    0  502 -0.10651827181E+04 -0.29386167618E+03  0.74314074941E+03  0.13316263342E+04  0.12699999809E+01 0. -1.
</event>
<event>
 5   0  0.1382803E-05  0.2812375E+04  0.7818609E-02  0.8299437E-01
        2   -1    0    0  501    0  0.00000000000E+00  0.00000000000E+00  0.21060820007E+04  0.21060820007E+04  0.25500000920E-02 0.  1.
       -2   -1    0    0    0  501  0.00000000000E+00  0.00000000000E+00 -0.93888212416E+03  0.93888212416E+03  0.25500000920E-02 0. -1.
    10030    2    1    2    0    0  0.00000000000E+00  0.00000000000E+00  0.11671998765E+04  0.30449641248E+04  0.28123746140E+04 0.  0.
        2    1    3    3  502    0  0.10145368777E+04 -0.64883596413E+03 -0.20245195378E+03  0.12211715597E+04  0.25500000920E-02 0.  1.
       -2    1    3    3    0  502 -0.10145368777E+04  0.64883596413E+03  0.13696518303E+04  0.18237925652E+04  0.25500000920E-02 0. -1.
</event>
<event>
 5   0  0.1382803E-05  0.2935459E+04  0.7818609E-02  0.8262405E-01
        2   -1    0    0  501    0  0.00000000000E+00  0.00000000000E+00  0.20408388132E+04  0.20408388132E+04  0.25500000920E-02 0. -1.
       -2   -1    0    0    0  501  0.00000000000E+00  0.00000000000E+00 -0.10555610320E+04  0.10555610320E+04  0.25500000920E-02 0.  1.
    10030    2    1    2    0    0  0.00000000000E+00  0.00000000000E+00  0.98527778121E+03  0.30963998452E+04  0.29354590264E+04 0.  0.
        2    1    3    3  502    0 -0.91850796657E+03 -0.11340279234E+04  0.32735156272E+03  0.14956053160E+04  0.25500000920E-02 0.  1.
       -2    1    3    3    0  502  0.91850796657E+03  0.11340279234E+04  0.65792621849E+03  0.16007945292E+04  0.25500000920E-02 0. -1.
</event>
<event>
 5   0  0.1336899E-05  0.2867499E+04  0.7818609E-02  0.8282614E-01
        2   -1    0    0  501    0  0.00000000000E+00  0.00000000000E+00  0.19245891009E+04  0.19245891009E+04  0.25500000920E-02 0. -1.
       -2   -1    0    0    0  501  0.00000000000E+00  0.00000000000E+00 -0.10680914831E+04  0.10680914831E+04  0.25500000920E-02 0.  1.
    10030    2    1    2    0    0  0.00000000000E+00  0.00000000000E+00  0.85649761776E+03  0.29926805840E+04  0.28674987199E+04 0.  0.
        1    1    3    3  502    0  0.29986070684E+01 -0.50354197328E+02 -0.10671650862E+04  0.10683566156E+04  0.50400001928E-02 0.  1.
       -1    1    3    3    0  502 -0.29986070684E+01  0.50354197328E+02  0.19236627040E+04  0.19243239684E+04  0.50400001928E-02 0. -1.
</event>
<event>
 5   0  0.5261878E-06  0.2278129E+04  0.7818609E-02  0.8486595E-01
       -1   -1    0    0    0  501  0.00000000000E+00  0.00000000000E+00  0.94204982081E+03  0.94204982082E+03  0.50400001928E-02 0. -1.
        1   -1    0    0  501    0  0.00000000000E+00  0.00000000000E+00 -0.13772818365E+04  0.13772818365E+04  0.50400001928E-02 0.  1.
    10030    2    1    2    0    0  0.00000000000E+00  0.00000000000E+00 -0.43523201570E+03  0.23193316573E+04  0.22781291511E+04 0.  0.
        5    1    3    3  502    0 -0.54203740146E+03 -0.58280077153E+03  0.61197409370E+03  0.10039898731E+04  0.46999998093E+01 0. -1.
       -5    1    3    3    0  502  0.54203740146E+03  0.58280077153E+03 -0.10472061094E+04  0.13153417843E+04  0.46999998093E+01 0.  1.
</event>
<event>
 5   0  0.5059249E-06  0.2773495E+04  0.7818609E-02  0.8311545E-01
       -1   -1    0    0    0  501  0.00000000000E+00  0.00000000000E+00  0.15628740446E+04  0.15628740446E+04  0.50400001928E-02 0. -1.
        1   -1    0    0  501    0  0.00000000000E+00  0.00000000000E+00 -0.12304694918E+04  0.12304694918E+04  0.50400001928E-02 0.  1.
    10030    2    1    2    0    0  0.00000000000E+00  0.00000000000E+00  0.33240455282E+03  0.27933435364E+04  0.27734951462E+04 0.  0.
        1    1    3    3  502    0 -0.11177840113E+04 -0.51325249293E+02  0.99120632888E+03  0.14948462675E+04  0.50400001928E-02 0. -1.
       -1    1    3    3    0  502  0.11177840113E+04  0.51325249293E+02 -0.65880177606E+03  0.12984972689E+04  0.50400001928E-02 0.  1.
</event>
<event>
 5   0  0.1336899E-05  0.2918106E+04  0.7818609E-02  0.8267511E-01
       -2   -1    0    0    0  501  0.00000000000E+00  0.00000000000E+00  0.11651857853E+04  0.11651857853E+04  0.25500000920E-02 0.  1.
        2   -1    0    0  501    0  0.00000000000E+00  0.00000000000E+00 -0.18270351339E+04  0.18270351339E+04  0.25500000920E-02 0. -1.
    10030    2    1    2    0    0  0.00000000000E+00  0.00000000000E+00 -0.66184934867E+03  0.29922209192E+04  0.29181058015E+04 0.  0.
        1    1    3    3  502    0 -0.14056377268E+04  0.11784520542E+03 -0.71340026576E+03  0.15807102361E+04  0.50400001928E-02 0.  1.
       -1    1    3    3    0  502  0.14056377268E+04 -0.11784520542E+03  0.51550917095E+02  0.14115106831E+04  0.50400001928E-02 0. -1.
</event>
<event>
 5   0  0.5352212E-06  0.2935621E+04  0.7818609E-02  0.8262357E-01
        1   -1    0    0  501    0  0.00000000000E+00  0.00000000000E+00  0.13774603302E+04  0.13774603302E+04  0.50400001928E-02 0.  1.
       -1   -1    0    0    0  501  0.00000000000E+00  0.00000000000E+00 -0.15640866225E+04  0.15640866225E+04  0.50400001928E-02 0. -1.
    10030    2    1    2    0    0  0.00000000000E+00  0.00000000000E+00 -0.18662629227E+03  0.29415469527E+04  0.29356207354E+04 0.  0.
        2    1    3    3  502    0 -0.81322160052E+03  0.97127747341E+03 -0.83626660141E+03  0.15179101194E+04  0.25500000920E-02 0. -1.
       -2    1    3    3    0  502  0.81322160052E+03 -0.97127747341E+03  0.64964030914E+03  0.14236368333E+04  0.25500000920E-02 0.  1.
</event>
<event>
 5   0  0.5154476E-06  0.2834977E+04  0.7818609E-02  0.8292491E-01
       -1   -1    0    0    0  501  0.00000000000E+00  0.00000000000E+00  0.19068404547E+04  0.19068404547E+04  0.50400001928E-02 0. -1.
        1   -1    0    0  501    0  0.00000000000E+00  0.00000000000E+00 -0.10537189625E+04  0.10537189625E+04  0.50400001928E-02 0.  1.
    10030    2    1    2    0    0  0.00000000000E+00  0.00000000000E+00  0.85312149217E+03  0.29605594172E+04  0.28349772102E+04 0.  0.
        3    1    3    3  502    0  0.13073595369E+04 -0.50223999324E+03  0.65497312667E+03  0.15460995364E+04  0.10100000352E+00 0.  1.
       -3    1    3    3    0  502 -0.13073595369E+04  0.50223999324E+03  0.19814836549E+03  0.14144598808E+04  0.10100000352E+00 0. -1.
</event>
<event>
 5   0  0.5002240E-06  0.2967542E+04  0.7818609E-02  0.8253061E-01
       -1   -1    0    0    0  501  0.00000000000E+00  0.00000000000E+00  0.10184680222E+04  0.10184680222E+04  0.50400001928E-02 0.  1.
        1   -1    0    0  501    0  0.00000000000E+00  0.00000000000E+00 -0.21616548979E+04  0.21616548979E+04  0.50400001928E-02 0. -1.
    10030    2    1    2    0    0  0.00000000000E+00  0.00000000000E+00 -0.11431868757E+04  0.31801229201E+04  0.29675420054E+04 0.  0.
        4    1    3    3  502    0 -0.22571120487E+02 -0.76404546014E+03 -0.19344253850E+04  0.20799706978E+04  0.12699999809E+01 0. -1.
       -4    1    3    3    0  502  0.22571120487E+02  0.76404546014E+03  0.79123850929E+03  0.11001522223E+04  0.12699999809E+01 0.  1.
</event>
<event>
 5   0  0.1336899E-05  0.2891188E+04  0.7818609E-02  0.8275504E-01
        2   -1    0    0  501    0  0.00000000000E+00  0.00000000000E+00  0.11159473984E+04  0.11159473984E+04  0.25500000920E-02 0.  1.
       -2   -1    0    0    0  501  0.00000000000E+00  0.00000000000E+00 -0.18726171180E+04  0.18726171180E+04  0.25500000920E-02 0. -1.
    10030    2    1    2    0    0  0.00000000000E+00  0.00000000000E+00 -0.75666971956E+03  0.29885645164E+04  0.28911881302E+04 0.  0.
        1    1    3    3  502    0 -0.85368106731E+03 -0.82606528610E+03  0.47317375207E+03  0.12786901975E+04  0.50400001928E-02 0.  1.
       -1    1    3    3    0  502  0.85368106731E+03  0.82606528610E+03 -0.12298434716E+04  0.17098743189E+04  0.50400001928E-02 0. -1.
</event>
<event>
 5   0  0.5352212E-06  0.2886862E+04  0.7818609E-02  0.8276797E-01
        1   -1    0    0  501    0  0.00000000000E+00  0.00000000000E+00  0.18258350267E+04  0.18258350267E+04  0.50400001928E-02 0.  1.
       -1   -1    0    0    0  501  0.00000000000E+00  0.00000000000E+00 -0.11411176215E+04  0.11411176215E+04  0.50400001928E-02 0. -1.
    10030    2    1    2    0    0  0.00000000000E+00  0.00000000000E+00  0.68471740522E+03  0.29669526482E+04  0.28868616337E+04 0.  0.
        2    1    3    3  502    0  0.87887713493E+03  0.62821689970E+03 -0.64149336041E+03  0.12564215944E+04  0.25500000920E-02 0. -1.
       -2    1    3    3    0  502 -0.87887713493E+03 -0.62821689970E+03  0.13262107656E+04  0.17105310539E+04  0.25500000920E-02 0.  1.
</event>
<event>
 5   0  0.5154476E-06  0.2823425E+04  0.7818609E-02  0.8296033E-01
       -1   -1    0    0    0  501  0.00000000000E+00  0.00000000000E+00  0.11178845141E+04  0.11178845141E+04  0.50400001928E-02 0.  1.
        1   -1    0    0  501    0  0.00000000000E+00  0.00000000000E+00 -0.17827709670E+04  0.17827709670E+04  0.50400001928E-02 0. -1.
    10030    2    1    2    0    0  0.00000000000E+00  0.00000000000E+00 -0.66488645290E+03  0.29006554811E+04  0.28234249105E+04 0.  0.
        3    1    3    3  502    0  0.24689919125E+03  0.13140503586E+04  0.13298815434E+03  0.13436418477E+04  0.10100000352E+00 0.  1.
       -3    1    3    3    0  502 -0.24689919125E+03 -0.13140503586E+04 -0.79787460723E+03  0.15570136334E+04  0.10100000352E+00 0. -1.
</event>
<event>
 5   0  0.5261878E-06  0.2801352E+04  0.7818609E-02  0.8302849E-01
       -1   -1    0    0    0  501  0.00000000000E+00  0.00000000000E+00  0.93468629731E+03  0.93468629732E+03  0.50400001928E-02 0. -1.
        1   -1    0    0  501    0  0.00000000000E+00  0.00000000000E+00 -0.20989856773E+04  0.20989856774E+04  0.50400001928E-02 0.  1.
    10030    2    1    2    0    0  0.00000000000E+00  0.00000000000E+00 -0.11642993800E+04  0.30336719747E+04  0.28013519243E+04 0.  0.
        5    1    3    3  502    0 -0.89119705500E+03  0.49875364489E+03 -0.16202306262E+04  0.19152432642E+04  0.46999998093E+01 0. -1.
       -5    1    3    3    0  502  0.89119705500E+03 -0.49875364489E+03  0.45593124615E+03  0.11184287104E+04  0.46999998093E+01 0.  1.
</event>
<event>
 5   0  0.1336899E-05  0.2840371E+04  0.7818609E-02  0.8290843E-01
       -2   -1    0    0    0  501  0.00000000000E+00  0.00000000000E+00  0.96871643593E+03  0.96871643593E+03  0.25500000920E-02 0.  1.
        2   -1    0    0  501    0  0.00000000000E+00  0.00000000000E+00 -0.20820616855E+04  0.20820616855E+04  0.25500000920E-02 0. -1.
    10030    2    1    2    0    0  0.00000000000E+00  0.00000000000E+00 -0.11133452496E+04  0.30507781215E+04  0.28403713669E+04 0.  0.
        1    1    3    3  502    0 -0.53545265545E+03  0.20306484134E+03 -0.19525525838E+04  0.20347988767E+04  0.50400001928E-02 0. -1.
       -1    1    3    3    0  502  0.53545265545E+03 -0.20306484134E+03  0.83920733421E+03  0.10159792448E+04  0.50400001928E-02 0.  1.
</event>
<event>
 5   0  0.4590125E-06  0.2917277E+04  0.7818609E-02  0.8267755E-01
       -3   -1    0    0    0  501  0.00000000000E+00  0.00000000000E+00  0.15306186883E+04  0.15306186916E+04  0.10100000352E+00 0.  1.
        3   -1    0    0  501    0  0.00000000000E+00  0.00000000000E+00 -0.13900436950E+04  0.13900436986E+04  0.10100000352E+00 0. -1.
    10030    2    1    2    0    0  0.00000000000E+00  0.00000000000E+00  0.14057499332E+03  0.29206623902E+04  0.29172774069E+04 0.  0.
        1    1    3    3  502    0  0.14303190770E+04  0.28723804940E+02  0.35520363210E+03  0.14740445514E+04  0.50400001928E-02 0.  1.
       -1    1    3    3    0  502 -0.14303190770E+04 -0.28723804940E+02 -0.21462863878E+03  0.14466178389E+04  0.50400001928E-02 0. -1.
</event>
<event>
 5   0  0.5261878E-06  0.2894128E+04  0.7818609E-02  0.8274627E-01
       -1   -1    0    0    0  501  0.00000000000E+00  0.00000000000E+00  0.16921402472E+04  0.16921402473E+04  0.50400001928E-02 0. -1.
        1   -1    0    0  501    0  0.00000000000E+00  0.00000000000E+00 -0.12374830248E+04  0.12374830249E+04  0.50400001928E-02 0.  1.
    10030    2    1    2    0    0  0.00000000000E+00  0.00000000000E+00  0.45465722240E+03  0.29296232721E+04  0.28941284226E+04 0.  0.
        5    1    3    3  502    0 -0.45081471507E+03  0.77170424084E+03  0.13793599874E+04  0.16435989192E+04  0.46999998093E+01 0. -1.
       -5    1    3    3    0  502  0.45081471507E+03 -0.77170424084E+03 -0.92470276495E+03  0.12860243529E+04  0.46999998093E+01 0.  1.
</event>
<event>
 5   0  0.1382803E-05  0.2832045E+04  0.7818609E-02  0.8293388E-01
       -2   -1    0    0    0  501  0.00000000000E+00  0.00000000000E+00  0.85072140307E+03  0.85072140307E+03  0.25500000920E-02 0.  1.
        2   -1    0    0  501    0  0.00000000000E+00  0.00000000000E+00 -0.23569636242E+04  0.23569636242E+04  0.25500000920E-02 0. -1.
    10030    2    1    2    0    0  0.00000000000E+00  0.00000000000E+00 -0.15062422211E+04  0.32076850272E+04  0.28320447746E+04 0.  0.
        2    1    3    3  502    0 -0.98970643409E+03 -0.21545748452E+03  0.36766455806E+03  0.10775518459E+04  0.25500000920E-02 0.  1.
       -2    1    3    3    0  502  0.98970643409E+03  0.21545748452E+03 -0.18739067791E+04  0.21301331813E+04  0.25500000920E-02 0. -1.
</event>
<event>
 5   0  0.5352212E-06  0.2883566E+04  0.7818609E-02  0.8277784E-01
       -1   -1    0    0    0  501  0.00000000000E+00  0.00000000000E+00  0.10805895046E+04  0.10805895046E+04  0.50400001928E-02 0.  1.
        1   -1    0    0  501    0  0.00000000000E+00  0.00000000000E+00 -0.19237079297E+04  0.19237079298E+04  0.50400001928E-02 0. -1.
    10030    2    1    2    0    0  0.00000000000E+00  0.00000000000E+00 -0.84311842515E+03  0.30042974344E+04  0.28835662634E+04 0.  0.
        2    1    3    3  502    0  0.26836298661E+03  0.14112717716E+04 -0.29382129581E+03  0.14663006717E+04  0.25500000920E-02 0.  1.
       -2    1    3    3    0  502 -0.26836298661E+03 -0.14112717716E+04 -0.54929712934E+03  0.15379967627E+04  0.25500000920E-02 0. -1.
</event>
<event>
 5   0  0.1339837E-05  0.2910649E+04  0.7818609E-02  0.8269716E-01
       -2   -1    0    0    0  501  0.00000000000E+00  0.00000000000E+00  0.15421923740E+04  0.15421923740E+04  0.25500000920E-02 0.  1.
        2   -1    0    0  501    0  0.00000000000E+00  0.00000000000E+00 -0.13733497443E+04  0.13733497443E+04  0.25500000920E-02 0. -1.
    10030    2    1    2    0    0  0.00000000000E+00  0.00000000000E+00  0.16884262973E+03  0.29155421183E+04  0.29106490702E+04 0.  0.
        5    1    3    3  502    0 -0.48976641102E+03 -0.71038531009E+03 -0.10894826714E+04  0.13897888356E+04  0.46999998093E+01 0. -1.
       -5    1    3    3    0  502  0.48976641102E+03  0.71038531009E+03  0.12583253012E+04  0.15257532827E+04  0.46999998093E+01 0.  1.
</event>
<event>
 5   0  0.1307832E-05  0.2943518E+04  0.7818609E-02  0.8260046E-01
       -2   -1    0    0    0  501  0.00000000000E+00  0.00000000000E+00  0.69754130252E+03  0.69754130253E+03  0.25500000920E-02 0. -1.
        2   -1    0    0  501    0  0.00000000000E+00  0.00000000000E+00 -0.31052995351E+04  0.31052995351E+04  0.25500000920E-02 0.  1.
    10030    2    1    2    0    0  0.00000000000E+00  0.00000000000E+00 -0.24077582326E+04  0.38028408376E+04  0.29435180872E+04 0.  0.
        4    1    3    3  502    0 -0.49164072955E+03  0.12081335427E+04 -0.32310773169E+03  0.13437624355E+04  0.12699999809E+01 0.  1.
       -4    1    3    3    0  502  0.49164072955E+03 -0.12081335427E+04 -0.20846505009E+04  0.24590784021E+04  0.12699999809E+01 0. -1.
</event>
<event>
 5   0  0.1307832E-05  0.2878598E+04  0.7818609E-02  0.8279274E-01
        2   -1    0    0  501    0  0.00000000000E+00  0.00000000000E+00  0.21870157139E+04  0.21870157139E+04  0.25500000920E-02 0.  1.
       -2   -1    0    0    0  501  0.00000000000E+00  0.00000000000E+00 -0.94721819077E+03  0.94721819077E+03  0.25500000920E-02 0. -1.
    10030    2    1    2    0    0  0.00000000000E+00  0.00000000000E+00  0.12397975231E+04  0.31342339047E+04  0.28785976222E+04 0.  0.
        4    1    3    3  502    0  0.33496835102E+03  0.13894290681E+04  0.43492182215E+03  0.14939462962E+04  0.12699999809E+01 0.  1.
       -4    1    3    3    0  502 -0.33496835102E+03 -0.13894290681E+04  0.80487570097E+03  0.16402876085E+04  0.12699999809E+01 0. -1.
</event>
<event>
 5   0  0.5261878E-06  0.2890249E+04  0.7818609E-02  0.8275785E-01
       -1   -1    0    0    0  501  0.00000000000E+00  0.00000000000E+00  0.11385456620E+04  0.11385456620E+04  0.50400001928E-02 0.  1.
        1   -1    0    0  501    0  0.00000000000E+00  0.00000000000E+00 -0.18342565216E+04  0.18342565216E+04  0.50400001928E-02 0. -1.
    10030    2    1    2    0    0  0.00000000000E+00  0.00000000000E+00 -0.69571085963E+03  0.29728021836E+04  0.28902489897E+04 0.  0.
        5    1    3    3  502    0  0.13016768442E+04 -0.29958670799E+03  0.21948607661E+03  0.13536288376E+04  0.46999998093E+01 0.  1.
       -5    1    3    3    0  502 -0.13016768442E+04  0.29958670799E+03 -0.91519693624E+03  0.16191733460E+04  0.46999998093E+01 0. -1.
</event>
<event>
 5   0  0.5261878E-06  0.2897177E+04  0.7818609E-02  0.8273718E-01
       -1   -1    0    0    0  501  0.00000000000E+00  0.00000000000E+00  0.12372974410E+04  0.12372974410E+04  0.50400001928E-02 0. -1.
        1   -1    0    0  501    0  0.00000000000E+00  0.00000000000E+00 -0.16959611449E+04  0.16959611449E+04  0.50400001928E-02 0.  1.
    10030    2    1    2    0    0  0.00000000000E+00  0.00000000000E+00 -0.45866370390E+03  0.29332585859E+04  0.28971768221E+04 0.  0.
        5    1    3    3  502    0  0.13893550448E+04  0.35190208519E+03 -0.44229352202E+03  0.14999293875E+04  0.46999998093E+01 0. -1.
       -5    1    3    3    0  502 -0.13893550448E+04 -0.35190208519E+03 -0.16370181881E+02  0.14333291983E+04  0.46999998093E+01 0.  1.
</event>
<event>
 5   0  0.5261878E-06  0.2896908E+04  0.7818609E-02  0.8273798E-01
        1   -1    0    0  501    0  0.00000000000E+00  0.00000000000E+00  0.23428811753E+04  0.23428811753E+04  0.50400001928E-02 0.  1.
       -1   -1    0    0    0  501  0.00000000000E+00  0.00000000000E+00 -0.89548648585E+03  0.89548648587E+03  0.50400001928E-02 0. -1.
    10030    2    1    2    0    0  0.00000000000E+00  0.00000000000E+00  0.14473946895E+04  0.32383676612E+04  0.28969076136E+04 0.  0.
        5    1    3    3  502    0 -0.62165514222E+03 -0.13075068580E+04  0.77327639699E+03  0.16413432839E+04  0.46999998093E+01 0. -1.
       -5    1    3    3    0  502  0.62165514222E+03  0.13075068580E+04  0.67411829249E+03  0.15970243773E+04  0.46999998093E+01 0.  1.
</event>
<event>
 5   0  0.1307832E-05  0.2878471E+04  0.7818609E-02  0.8279312E-01
        2   -1    0    0  501    0  0.00000000000E+00  0.00000000000E+00  0.16623490011E+04  0.16623490011E+04  0.25500000920E-02 0. -1.
       -2   -1    0    0    0  501  0.00000000000E+00  0.00000000000E+00 -0.12460677533E+04  0.12460677533E+04  0.25500000920E-02 0.  1.
    10030    2    1    2    0    0  0.00000000000E+00  0.00000000000E+00  0.41628124773E+03  0.29084167544E+04  0.28784714590E+04 0.  0.
        4    1    3    3  502    0  0.12191384634E+04 -0.57308036656E+03  0.72004539750E+03  0.15274772296E+04  0.12699999809E+01 0.  1.
       -4    1    3    3    0  502 -0.12191384634E+04  0.57308036656E+03 -0.30376414977E+03  0.13809395248E+04  0.12699999809E+01 0. -1.
</event>
<event>
 5   0  0.1339837E-05  0.2919445E+04  0.7818609E-02  0.8267115E-01
        2   -1    0    0  501    0  0.00000000000E+00  0.00000000000E+00  0.22203749466E+04  0.22203749466E+04  0.25500000920E-02 0.  1.
       -2   -1    0    0    0  501  0.00000000000E+00  0.00000000000E+00 -0.95965306409E+03  0.95965306410E+03  0.25500000920E-02 0. -1.
    10030    2    1    2    0    0  0.00000000000E+00  0.00000000000E+00  0.12607218825E+04  0.31800280107E+04  0.29194448931E+04 0.  0.
        5    1    3    3  502    0  0.10399332627E+04  0.81245408314E+03  0.13099257194E+04  0.18594274141E+04  0.46999998093E+01 0.  1.
       -5    1    3    3    0  502 -0.10399332627E+04 -0.81245408314E+03 -0.49203836912E+02  0.13206005966E+04  0.46999998093E+01 0. -1.
</event>
<event>
 5   0  0.5154476E-06  0.3002694E+04  0.7818609E-02  0.8242962E-01
       -1   -1    0    0    0  501  0.00000000000E+00  0.00000000000E+00  0.12228388739E+04  0.12228388739E+04  0.50400001928E-02 0. -1.
        1   -1    0    0  501    0  0.00000000000E+00  0.00000000000E+00 -0.18432868085E+04  0.18432868086E+04  0.50400001928E-02 0.  1.
    10030    2    1    2    0    0  0.00000000000E+00  0.00000000000E+00 -0.62044793467E+03  0.30661256824E+04  0.30026939672E+04 0.  0.
        3    1    3    3  502    0  0.50015295485E+03 -0.58060892873E+03  0.10080886813E+04  0.12662947942E+04  0.10100000352E+00 0. -1.
       -3    1    3    3    0  502 -0.50015295485E+03  0.58060892873E+03 -0.16285366160E+04  0.17998308882E+04  0.10100000352E+00 0.  1.
</event>
<event>
 5   0  0.1307832E-05  0.2511963E+04  0.7818609E-02  0.8398736E-01
       -2   -1    0    0    0  501  0.00000000000E+00  0.00000000000E+00  0.86379894544E+03  0.86379894545E+03  0.25500000920E-02 0. -1.
        2   -1    0    0  501    0  0.00000000000E+00  0.00000000000E+00 -0.18262224269E+04  0.18262224269E+04  0.25500000920E-02 0.  1.
    10030    2    1    2    0    0  0.00000000000E+00  0.00000000000E+00 -0.96242348149E+03  0.26900213724E+04  0.25119625845E+04 0.  0.
        4    1    3    3  502    0 -0.31586566311E+03  0.12156090385E+04 -0.47766939396E+03  0.13437433216E+04  0.12699999809E+01 0.  1.
       -4    1    3    3    0  502  0.31586566311E+03 -0.12156090385E+04 -0.48475408752E+03  0.13462780507E+04  0.12699999809E+01 0. -1.
</event>
<event>
 5   0  0.1336899E-05  0.2798363E+04  0.7818609E-02  0.8303777E-01
       -2   -1    0    0    0  501  0.00000000000E+00  0.00000000000E+00  0.12731128528E+04  0.12731128528E+04  0.25500000920E-02 0.  1.
        2   -1    0    0  501    0  0.00000000000E+00  0.00000000000E+00 -0.15377342349E+04  0.15377342349E+04  0.25500000920E-02 0. -1.
    10030    2    1    2    0    0  0.00000000000E+00  0.00000000000E+00 -0.26462138210E+03  0.28108470877E+04  0.27983632492E+04 0.  0.
        1    1    3    3  502    0 -0.61739954904E+03  0.67949286149E+02 -0.13916621732E+04  0.15239825829E+04  0.50400001928E-02 0. -1.
       -1    1    3    3    0  502  0.61739954904E+03 -0.67949286149E+02  0.11270407911E+04  0.12868645047E+04  0.50400001928E-02 0.  1.
</event>
<event>
 5   0  0.5059249E-06  0.2162771E+04  0.7818609E-02  0.8534085E-01
        1   -1    0    0  501    0  0.00000000000E+00  0.00000000000E+00  0.15527676582E+04  0.15527676582E+04  0.50400001928E-02 0. -1.
       -1   -1    0    0    0  501  0.00000000000E+00  0.00000000000E+00 -0.75310330202E+03  0.75310330204E+03  0.50400001928E-02 0.  1.
    10030    2    1    2    0    0  0.00000000000E+00  0.00000000000E+00  0.79966435614E+03  0.23058709602E+04  0.21627708623E+04 0.  0.
        1    1    3    3  502    0  0.89273667569E+02  0.46502515358E+03 -0.63669547894E+03  0.79347294479E+03  0.50400001928E-02 0.  1.
       -1    1    3    3    0  502 -0.89273667569E+02 -0.46502515358E+03  0.14363598351E+04  0.15123980154E+04  0.50400001928E-02 0. -1.
</event>
<event>
 5   0  0.1385669E-05  0.3029055E+04  0.7818609E-02  0.8235482E-01
       -2   -1    0    0    0  501  0.00000000000E+00  0.00000000000E+00  0.12170360790E+04  0.12170360791E+04  0.25500000920E-02 0. -1.
        2   -1    0    0  501    0  0.00000000000E+00  0.00000000000E+00 -0.18847379666E+04  0.18847379666E+04  0.25500000920E-02 0.  1.
    10030    2    1    2    0    0  0.00000000000E+00  0.00000000000E+00 -0.66770188751E+03  0.31017740456E+04  0.30290553675E+04 0.  0.
        3    1    3    3  502    0 -0.67092415778E+03 -0.34192823798E+02 -0.17238196132E+04  0.18500979552E+04  0.10100000352E+00 0.  1.
       -3    1    3    3    0  502  0.67092415778E+03  0.34192823798E+02  0.10561177257E+04  0.12516760904E+04  0.10100000352E+00 0. -1.
</event>
<event>
 5   0  0.5154476E-06  0.2126997E+04  0.7818609E-02  0.8549444E-01
       -1   -1    0    0    0  501  0.00000000000E+00  0.00000000000E+00  0.12631540105E+04  0.12631540105E+04  0.50400001928E-02 0.  1.
        1   -1    0    0  501    0  0.00000000000E+00  0.00000000000E+00 -0.89540042295E+03  0.89540042297E+03  0.50400001928E-02 0. -1.
    10030    2    1    2    0    0  0.00000000000E+00  0.00000000000E+00  0.36775358758E+03  0.21585544335E+04  0.21269966011E+04 0.  0.
        3    1    3    3  502    0 -0.23977985298E+03 -0.87001640709E+03  0.75490238592E+03  0.11765630238E+04  0.10100000352E+00 0.  1.
       -3    1    3    3    0  502  0.23977985298E+03  0.87001640709E+03 -0.38714879834E+03  0.98199140972E+03  0.10100000352E+00 0. -1.
</event>
<event>
 5   0  0.5261878E-06  0.2060324E+04  0.7818609E-02  0.8578925E-01
        1   -1    0    0  501    0  0.00000000000E+00  0.00000000000E+00  0.19088326844E+04  0.19088326844E+04  0.50400001928E-02 0. -1.
       -1   -1    0    0    0  501  0.00000000000E+00  0.00000000000E+00 -0.55595954240E+03  0.55595954242E+03  0.50400001928E-02 0.  1.
    10030    2    1    2    0    0  0.00000000000E+00  0.00000000000E+00  0.13528731420E+04  0.24647922268E+04  0.20603239995E+04 0.  0.
        5    1    3    3  502    0 -0.60631072890E+03 -0.83216666816E+03  0.63680280909E+03  0.12106419666E+04  0.46999998093E+01 0. -1.
       -5    1    3    3    0  502  0.60631072890E+03  0.83216666816E+03  0.71607033286E+03  0.12541502602E+04  0.46999998093E+01 0.  1.
</event>
<event>
 5   0  0.5059249E-06  0.2835134E+04  0.7818609E-02  0.8292443E-01
        1   -1    0    0  501    0  0.00000000000E+00  0.00000000000E+00  0.20854462665E+04  0.20854462665E+04  0.50400001928E-02 0. -1.
       -1   -1    0    0    0  501  0.00000000000E+00  0.00000000000E+00 -0.96358057952E+03  0.96358057953E+03  0.50400001928E-02 0.  1.
    10030    2    1    2    0    0  0.00000000000E+00  0.00000000000E+00  0.11218656870E+04  0.30490268461E+04  0.28351335221E+04 0.  0.
        1    1    3    3  502    0 -0.13529005529E+04 -0.11335637855E+03  0.99950557087E+03  0.16858828432E+04  0.50400001928E-02 0. -1.
       -1    1    3    3    0  502  0.13529005529E+04  0.11335637855E+03  0.12236011612E+03  0.13631440029E+04  0.50400001928E-02 0.  1.
</event>
<event>
 5   0  0.5059249E-06  0.2028376E+04  0.7818609E-02  0.8593468E-01
       -1   -1    0    0    0  501  0.00000000000E+00  0.00000000000E+00  0.62444831943E+03  0.62444831946E+03  0.50400001928E-02 0.  1.
        1   -1    0    0  501    0  0.00000000000E+00  0.00000000000E+00 -0.16471772774E+04  0.16471772774E+04  0.50400001928E-02 0. -1.
    10030    2    1    2    0    0  0.00000000000E+00  0.00000000000E+00 -0.10227289579E+04  0.22716255968E+04  0.20283757864E+04 0.  0.
        1    1    3    3  502    0  0.66392887141E+03 -0.51032871592E+03  0.12938456490E+03  0.84733541779E+03  0.50400001928E-02 0.  1.
       -1    1    3    3    0  502 -0.66392887141E+03  0.51032871592E+03 -0.11521135228E+04  0.14242901790E+04  0.50400001928E-02 0. -1.
</event>
<event>
 5   0  0.1385669E-05  0.2776261E+04  0.7818609E-02  0.8310676E-01
       -2   -1    0    0    0  501  0.00000000000E+00  0.00000000000E+00  0.11780277996E+04  0.11780277996E+04  0.25500000920E-02 0.  1.
        2   -1    0    0  501    0  0.00000000000E+00  0.00000000000E+00 -0.16357053096E+04  0.16357053096E+04  0.25500000920E-02 0. -1.
    10030    2    1    2    0    0  0.00000000000E+00  0.00000000000E+00 -0.45767751002E+03  0.28137331092E+04  0.27762610300E+04 0.  0.
        3    1    3    3  502    0 -0.48547662798E+03  0.78725353347E+03  0.82024143703E+03  0.12362247803E+04  0.10100000352E+00 0.  1.
       -3    1    3    3    0  502  0.48547662798E+03 -0.78725353347E+03 -0.12779189471E+04  0.15775083289E+04  0.10100000352E+00 0. -1.
</event>
<event>
 5   0  0.5059249E-06  0.2929832E+04  0.7818609E-02  0.8264057E-01
       -1   -1    0    0    0  501  0.00000000000E+00  0.00000000000E+00  0.16837111190E+04  0.16837111190E+04  0.50400001928E-02 0.  1.
        1   -1    0    0  501    0  0.00000000000E+00  0.00000000000E+00 -0.12745529486E+04  0.12745529486E+04  0.50400001928E-02 0. -1.
    10030    2    1    2    0    0  0.00000000000E+00  0.00000000000E+00  0.40915817037E+03  0.29582640676E+04  0.29298320575E+04 0.  0.
        1    1    3    3  502    0  0.49146542352E+03 -0.10968218313E+04 -0.64105812106E+03  0.13621717611E+04  0.50400001928E-02 0. -1.
       -1    1    3    3    0  502 -0.49146542352E+03  0.10968218313E+04  0.10502162914E+04  0.15960923065E+04  0.50400001928E-02 0.  1.
</event>
<event>
 5   0  0.5352212E-06  0.2916223E+04  0.7818609E-02  0.8268067E-01
       -1   -1    0    0    0  501  0.00000000000E+00  0.00000000000E+00  0.13204215173E+04  0.13204215173E+04  0.50400001928E-02 0. -1.
        1   -1    0    0  501    0  0.00000000000E+00  0.00000000000E+00 -0.16101597805E+04  0.16101597805E+04  0.50400001928E-02 0.  1.
    10030    2    1    2    0    0  0.00000000000E+00  0.00000000000E+00 -0.28973826321E+03  0.29305812977E+04  0.29162233250E+04 0.  0.
        2    1    3    3  502    0 -0.10974205136E+04 -0.76766523966E+03  0.43455263003E+03  0.14080048622E+04  0.25500000920E-02 0. -1.
       -2    1    3    3    0  502  0.10974205136E+04  0.76766523966E+03 -0.72429089323E+03  0.15225764355E+04  0.25500000920E-02 0.  1.
</event>
<event>
 5   0  0.5154476E-06  0.2948752E+04  0.7818609E-02  0.8258518E-01
        1   -1    0    0  501    0  0.00000000000E+00  0.00000000000E+00  0.24282177024E+04  0.24282177024E+04  0.50400001928E-02 0.  1.
       -1   -1    0    0    0  501  0.00000000000E+00  0.00000000000E+00 -0.89521842110E+03  0.89521842111E+03  0.50400001928E-02 0. -1.
    10030    2    1    2    0    0  0.00000000000E+00  0.00000000000E+00  0.15329992813E+04  0.33234361235E+04  0.29487524261E+04 0.  0.
        3    1    3    3  502    0 -0.37330868725E+03 -0.86335515836E+03 -0.51312574005E+03  0.10714660707E+04  0.10100000352E+00 0. -1.
       -3    1    3    3    0  502  0.37330868725E+03  0.86335515836E+03  0.20461250214E+04  0.22519700528E+04  0.10100000352E+00 0.  1.
</event>
<event>
 5   0  0.1307832E-05  0.2801770E+04  0.7818609E-02  0.8302719E-01
       -2   -1    0    0    0  501  0.00000000000E+00  0.00000000000E+00  0.12510774384E+04  0.12510774384E+04  0.25500000920E-02 0.  1.
        2   -1    0    0  501    0  0.00000000000E+00  0.00000000000E+00 -0.15686313570E+04  0.15686313570E+04  0.25500000920E-02 0. -1.
    10030    2    1    2    0    0  0.00000000000E+00  0.00000000000E+00 -0.31755391866E+03  0.28197087954E+04  0.28017703688E+04 0.  0.
        4    1    3    3  502    0 -0.12490441972E+04 -0.61091406710E+03 -0.33060463270E+03  0.14292055275E+04  0.12699999809E+01 0.  1.
       -4    1    3    3    0  502  0.12490441972E+04  0.61091406710E+03  0.13050714032E+02  0.13905032679E+04  0.12699999809E+01 0. -1.
</event>
<event>
 5   0  0.1385669E-05  0.2881881E+04  0.7818609E-02  0.8278289E-01
        2   -1    0    0  501    0  0.00000000000E+00  0.00000000000E+00  0.11491273461E+04  0.11491273462E+04  0.25500000920E-02 0.  1.
       -2   -1    0    0    0  501  0.00000000000E+00  0.00000000000E+00 -0.18068578679E+04  0.18068578679E+04  0.25500000920E-02 0. -1.
    10030    2    1    2    0    0  0.00000000000E+00  0.00000000000E+00 -0.65773052178E+03  0.29559852141E+04  0.28818811819E+04 0.  0.
        3    1    3    3  502    0  0.18000767275E+03 -0.88090812345E+03  0.82610297083E+03  0.12210028718E+04  0.10100000352E+00 0.  1.
       -3    1    3    3    0  502 -0.18000767275E+03  0.88090812345E+03 -0.14838334926E+04  0.17349823423E+04  0.10100000352E+00 0. -1.
</event>
<event>
 5   0  0.5002240E-06  0.2897541E+04  0.7818609E-02  0.8273609E-01
        1   -1    0    0  501    0  0.00000000000E+00  0.00000000000E+00  0.12583814847E+04  0.12583814848E+04  0.50400001928E-02 0.  1.
       -1   -1    0    0    0  501  0.00000000000E+00  0.00000000000E+00 -0.16679651266E+04  0.16679651266E+04  0.50400001928E-02 0. -1.
    10030    2    1    2    0    0  0.00000000000E+00  0.00000000000E+00 -0.40958364185E+03  0.29263466114E+04  0.28975413250E+04 0.  0.
        4    1    3    3  502    0 -0.12827604595E+04 -0.67130057089E+03 -0.15119859588E+03  0.14556721750E+04  0.12699999809E+01 0. -1.
       -4    1    3    3    0  502  0.12827604595E+04  0.67130057089E+03 -0.25838504598E+03  0.14706744363E+04  0.12699999809E+01 0.  1.
</event>
<event>
 5   0  0.5352212E-06  0.2989187E+04  0.7818609E-02  0.8246825E-01
       -1   -1    0    0    0  501  0.00000000000E+00  0.00000000000E+00  0.12863409335E+04  0.12863409335E+04  0.50400001928E-02 0. -1.
        1   -1    0    0  501    0  0.00000000000E+00  0.00000000000E+00 -0.17365606340E+04  0.17365606340E+04  0.50400001928E-02 0.  1.
    10030    2    1    2    0    0  0.00000000000E+00  0.00000000000E+00 -0.45021970050E+03  0.30229015676E+04  0.29891865296E+04 0.  0.
        2    1    3    3  502    0 -0.84989581155E+01 -0.12734887458E+04 -0.10162139698E+04  0.16292748848E+04  0.25500000920E-02 0.  1.
       -2    1    3    3    0  502  0.84989581155E+01  0.12734887458E+04  0.56599426925E+03  0.13936266828E+04  0.25500000920E-02 0. -1.
</event>
<event>
 5   0  0.5002240E-06  0.2948173E+04  0.7818609E-02  0.8258687E-01
        1   -1    0    0  501    0  0.00000000000E+00  0.00000000000E+00  0.19739322787E+04  0.19739322787E+04  0.50400001928E-02 0. -1.
       -1   -1    0    0    0  501  0.00000000000E+00  0.00000000000E+00 -0.11008130957E+04  0.11008130957E+04  0.50400001928E-02 0.  1.
    10030    2    1    2    0    0  0.00000000000E+00  0.00000000000E+00  0.87311918298E+03  0.30747453744E+04  0.29481726560E+04 0.  0.
        4    1    3    3  502    0 -0.10444008626E+04 -0.33116438432E+03  0.14650444321E+04  0.18294260882E+04  0.12699999809E+01 0. -1.
       -4    1    3    3    0  502  0.10444008626E+04  0.33116438432E+03 -0.59192524912E+03  0.12453192862E+04  0.12699999809E+01 0.  1.
</event>
<event>
 5   0  0.5059249E-06  0.2776078E+04  0.7818609E-02  0.8310734E-01
        1   -1    0    0  501    0  0.00000000000E+00  0.00000000000E+00  0.12703228751E+04  0.12703228751E+04  0.50400001928E-02 0.  1.
       -1   -1    0    0    0  501  0.00000000000E+00  0.00000000000E+00 -0.15166638321E+04  0.15166638321E+04  0.50400001928E-02 0. -1.
    10030    2    1    2    0    0  0.00000000000E+00  0.00000000000E+00 -0.24634095701E+03  0.27869867072E+04  0.27760783561E+04 0.  0.
        1    1    3    3  502    0 -0.11240097209E+04 -0.64536140471E+03  0.37553448948E+03  0.13494129643E+04  0.50400001928E-02 0.  1.
       -1    1    3    3    0  502  0.11240097209E+04  0.64536140471E+03 -0.62187544649E+03  0.14375737429E+04  0.50400001928E-02 0. -1.
</event>
<event>
 5   0  0.4590125E-06  0.2926859E+04  0.7818609E-02  0.8264931E-01
       -3   -1    0    0    0  501  0.00000000000E+00  0.00000000000E+00  0.16389421593E+04  0.16389421624E+04  0.10100000352E+00 0. -1.
        3   -1    0    0  501    0  0.00000000000E+00  0.00000000000E+00 -0.13067122701E+04  0.13067122740E+04  0.10100000352E+00 0.  1.
    10030    2    1    2    0    0  0.00000000000E+00  0.00000000000E+00  0.33222988916E+03  0.29456544364E+04  0.29268589579E+04 0.  0.
        2    1    3    3  502    0  0.95705133068E+03  0.11048904284E+04  0.95696115331E+02  0.14648849289E+04  0.25500000920E-02 0. -1.
       -2    1    3    3    0  502 -0.95705133068E+03 -0.11048904284E+04  0.23653377383E+03  0.14807695076E+04  0.25500000920E-02 0.  1.
</event>
<event>
 5   0  0.5002240E-06  0.2900648E+04  0.7818609E-02  0.8272685E-01
        1   -1    0    0  501    0  0.00000000000E+00  0.00000000000E+00  0.17809200799E+04  0.17809200800E+04  0.50400001928E-02 0.  1.
       -1   -1    0    0    0  501  0.00000000000E+00  0.00000000000E+00 -0.11810974102E+04  0.11810974102E+04  0.50400001928E-02 0. -1.
    10030    2    1    2    0    0  0.00000000000E+00  0.00000000000E+00  0.59982266976E+03  0.29620174902E+04  0.29006482684E+04 0.  0.
        4    1    3    3  502    0 -0.79362131508E+03  0.80090972715E+02 -0.93699153952E+03  0.12305300133E+04  0.12699999809E+01 0. -1.
       -4    1    3    3    0  502  0.79362131508E+03 -0.80090972715E+02  0.15368142093E+04  0.17314874768E+04  0.12699999809E+01 0.  1.
</event>
<event>
 5   0  0.1307832E-05  0.2800020E+04  0.7818609E-02  0.8303262E-01
        2   -1    0    0  501    0  0.00000000000E+00  0.00000000000E+00  0.13130005417E+04  0.13130005417E+04  0.25500000920E-02 0.  1.
       -2   -1    0    0    0  501  0.00000000000E+00  0.00000000000E+00 -0.14927855398E+04  0.14927855398E+04  0.25500000920E-02 0. -1.
    10030    2    1    2    0    0  0.00000000000E+00  0.00000000000E+00 -0.17978499814E+03  0.28057860815E+04  0.28000201588E+04 0.  0.
        4    1    3    3  502    0 -0.82193293832E+03  0.10628530638E+04 -0.48414419764E+03  0.14281553162E+04  0.12699999809E+01 0. -1.
       -4    1    3    3    0  502  0.82193293832E+03 -0.10628530638E+04  0.30435919950E+03  0.13776307653E+04  0.12699999809E+01 0.  1.
</event>
<event>
 5   0  0.4590125E-06  0.2903815E+04  0.7818609E-02  0.8271743E-01
       -3   -1    0    0    0  501  0.00000000000E+00  0.00000000000E+00  0.10968237455E+04  0.10968237501E+04  0.10100000352E+00 0. -1.
        3   -1    0    0  501    0  0.00000000000E+00  0.00000000000E+00 -0.19219451481E+04  0.19219451508E+04  0.10100000352E+00 0.  1.
    10030    2    1    2    0    0  0.00000000000E+00  0.00000000000E+00 -0.82512140266E+03  0.30187689009E+04  0.29038147923E+04 0.  0.
        5    1    3    3  502    0 -0.17559918242E+03  0.12618836281E+04  0.31129939539E+03  0.13115314587E+04  0.46999998093E+01 0. -1.
       -5    1    3    3    0  502  0.17559918242E+03 -0.12618836281E+04 -0.11364207981E+04  0.17072374422E+04  0.46999998093E+01 0.  1.
</event>
<event>
 5   0  0.1307832E-05  0.2898040E+04  0.7818609E-02  0.8273461E-01
       -2   -1    0    0    0  501  0.00000000000E+00  0.00000000000E+00  0.14977328361E+04  0.14977328361E+04  0.25500000920E-02 0. -1.
        2   -1    0    0  501    0  0.00000000000E+00  0.00000000000E+00 -0.14018914220E+04  0.14018914220E+04  0.25500000920E-02 0.  1.
    10030    2    1    2    0    0  0.00000000000E+00  0.00000000000E+00  0.95841414068E+02  0.28996242581E+04  0.28980398999E+04 0.  0.
        4    1    3    3  502    0 -0.58711596375E+03  0.10464508324E+04 -0.76486119897E+03  0.14229472113E+04  0.12699999809E+01 0.  1.
       -4    1    3    3    0  502  0.58711596375E+03 -0.10464508324E+04  0.86070261304E+03  0.14766770468E+04  0.12699999809E+01 0. -1.
</event>
<event>
 5   0  0.5059249E-06  0.2828224E+04  0.7818609E-02  0.8294559E-01
       -1   -1    0    0    0  501  0.00000000000E+00  0.00000000000E+00  0.12842789323E+04  0.12842789323E+04  0.50400001928E-02 0. -1.
        1   -1    0    0  501    0  0.00000000000E+00  0.00000000000E+00 -0.15570703048E+04  0.15570703048E+04  0.50400001928E-02 0.  1.
    10030    2    1    2    0    0  0.00000000000E+00  0.00000000000E+00 -0.27279137242E+03  0.28413492371E+04  0.28282238869E+04 0.  0.
        1    1    3    3  502    0  0.84584428493E+03  0.85544567530E+03 -0.88313025143E+03  0.14923668781E+04  0.50400001928E-02 0. -1.
       -1    1    3    3    0  502 -0.84584428493E+03 -0.85544567530E+03  0.61033887901E+03  0.13489823590E+04  0.50400001928E-02 0.  1.
</event>
<event>
 5   0  0.5002240E-06  0.1994264E+04  0.7818609E-02  0.8609307E-01
       -1   -1    0    0    0  501  0.00000000000E+00  0.00000000000E+00  0.11381885477E+04  0.11381885477E+04  0.50400001928E-02 0.  1.
        1   -1    0    0  501    0  0.00000000000E+00  0.00000000000E+00 -0.87355649388E+03  0.87355649390E+03  0.50400001928E-02 0. -1.
    10030    2    1    2    0    0  0.00000000000E+00  0.00000000000E+00  0.26463205379E+03  0.20117450416E+04  0.19942637710E+04 0.  0.
        4    1    3    3  502    0 -0.87076401499E+03  0.13200947207E+03  0.60397623632E+03  0.10679163719E+04  0.12699999809E+01 0. -1.
       -4    1    3    3    0  502  0.87076401499E+03 -0.13200947207E+03 -0.33934418253E+03  0.94382866964E+03  0.12699999809E+01 0.  1.
</event>
<event>
 5   0  0.1307832E-05  0.2896229E+04  0.7818609E-02  0.8274000E-01
       -2   -1    0    0    0  501  0.00000000000E+00  0.00000000000E+00  0.11540770951E+04  0.11540770951E+04  0.25500000920E-02 0. -1.
        2   -1    0    0  501    0  0.00000000000E+00  0.00000000000E+00 -0.18170671984E+04  0.18170671984E+04  0.25500000920E-02 0.  1.
    10030    2    1    2    0    0  0.00000000000E+00  0.00000000000E+00 -0.66299010336E+03  0.29711442935E+04  0.28962290199E+04 0.  0.
        4    1    3    3  502    0  0.84050753712E+03  0.80858243366E+03 -0.12120540215E+04  0.16820627324E+04  0.12699999809E+01 0.  1.
       -4    1    3    3    0  502 -0.84050753712E+03 -0.80858243366E+03  0.54906391810E+03  0.12890815610E+04  0.12699999809E+01 0. -1.
</event>
<event>
 5   0  0.1307832E-05  0.2898049E+04  0.7818609E-02  0.8273458E-01
        2   -1    0    0  501    0  0.00000000000E+00  0.00000000000E+00  0.29360723824E+04  0.29360723824E+04  0.25500000920E-02 0. -1.
       -2   -1    0    0    0  501  0.00000000000E+00  0.00000000000E+00 -0.71512970227E+03  0.71512970227E+03  0.25500000920E-02 0.  1.
    10030    2    1    2    0    0  0.00000000000E+00  0.00000000000E+00  0.22209426801E+04  0.36512020847E+04  0.28980493913E+04 0.  0.
        4    1    3    3  502    0 -0.36202629293E+03 -0.14242244742E+03  0.28690453559E+04  0.28953013759E+04  0.12699999809E+01 0. -1.
       -4    1    3    3    0  502  0.36202629293E+03  0.14242244742E+03 -0.64810267575E+03  0.75590070877E+03  0.12699999809E+01 0.  1.
</event>
<event>
 5   0  0.1339837E-05  0.2968810E+04  0.7818609E-02  0.8252694E-01
        2   -1    0    0  501    0  0.00000000000E+00  0.00000000000E+00  0.10164048194E+04  0.10164048194E+04  0.25500000920E-02 0.  1.
       -2   -1    0    0    0  501  0.00000000000E+00  0.00000000000E+00 -0.21678944670E+04  0.21678944670E+04  0.25500000920E-02 0. -1.
    10030    2    1    2    0    0  0.00000000000E+00  0.00000000000E+00 -0.11514896476E+04  0.31842992864E+04  0.29688101214E+04 0.  0.
        5    1    3    3  502    0 -0.12087191935E+04 -0.80940242879E+03 -0.89266022104E+03  0.17067509310E+04  0.46999998093E+01 0. -1.
       -5    1    3    3    0  502  0.12087191935E+04  0.80940242879E+03 -0.25882942660E+03  0.14775483554E+04  0.46999998093E+01 0.  1.
</event>
<event>
 5   0  0.1336899E-05  0.2945438E+04  0.7818609E-02  0.8259485E-01
       -2   -1    0    0    0  501  0.00000000000E+00  0.00000000000E+00  0.13139588871E+04  0.13139588871E+04  0.25500000920E-02 0. -1.
        2   -1    0    0  501    0  0.00000000000E+00  0.00000000000E+00 -0.16506618127E+04  0.16506618128E+04  0.25500000920E-02 0.  1.
    10030    2    1    2    0    0  0.00000000000E+00  0.00000000000E+00 -0.33670292567E+03  0.29646206998E+04  0.29454383432E+04 0.  0.
        1    1    3    3  502    0  0.35925512676E+02  0.11381123356E+04 -0.11084101811E+04  0.15890762916E+04  0.50400001928E-02 0.  1.
       -1    1    3    3    0  502 -0.35925512676E+02 -0.11381123356E+04  0.77170725542E+03  0.13755444082E+04  0.50400001928E-02 0. -1.
</event>
<event>
 5   0  0.5261878E-06  0.2867007E+04  0.7818609E-02  0.8282762E-01
        1   -1    0    0  501    0  0.00000000000E+00  0.00000000000E+00  0.13041799706E+04  0.13041799706E+04  0.50400001928E-02 0.  1.
       -1   -1    0    0    0  501  0.00000000000E+00  0.00000000000E+00 -0.15756506891E+04  0.15756506891E+04  0.50400001928E-02 0. -1.
    10030    2    1    2    0    0  0.00000000000E+00  0.00000000000E+00 -0.27147071844E+03  0.28798306597E+04  0.28670068499E+04 0.  0.
        5    1    3    3  502    0  0.26239680855E+02 -0.10992566060E+03 -0.15711611444E+04  0.15752274767E+04  0.46999998093E+01 0. -1.
       -5    1    3    3    0  502 -0.26239680855E+02  0.10992566060E+03  0.12996904260E+04  0.13046031830E+04  0.46999998093E+01 0.  1.
</event>
<event>
 5   0  0.1339837E-05  0.2913985E+04  0.7818609E-02  0.8268729E-01
       -2   -1    0    0    0  501  0.00000000000E+00  0.00000000000E+00  0.12914914073E+04  0.12914914073E+04  0.25500000920E-02 0.  1.
        2   -1    0    0  501    0  0.00000000000E+00  0.00000000000E+00 -0.16437021276E+04  0.16437021276E+04  0.25500000920E-02 0. -1.
    10030    2    1    2    0    0  0.00000000000E+00  0.00000000000E+00 -0.35221072033E+03  0.29351935349E+04  0.29139850199E+04 0.  0.
        5    1    3    3  502    0  0.12351168696E+04  0.63701779288E+03 -0.61689716828E+03  0.15204899067E+04  0.46999998093E+01 0. -1.
       -5    1    3    3    0  502 -0.12351168696E+04 -0.63701779288E+03  0.26468644795E+03  0.14147036282E+04  0.46999998093E+01 0.  1.
</event>
<event>
 5   0  0.5352212E-06  0.2941017E+04  0.7818609E-02  0.8260777E-01
        1   -1    0    0  501    0  0.00000000000E+00  0.00000000000E+00  0.21251037580E+04  0.21251037580E+04  0.50400001928E-02 0.  1.
       -1   -1    0    0    0  501  0.00000000000E+00  0.00000000000E+00 -0.10175480681E+04  0.10175480681E+04  0.50400001928E-02 0. -1.
    10030    2    1    2    0    0  0.00000000000E+00  0.00000000000E+00  0.11075556899E+04  0.31426518261E+04  0.29410169829E+04 0.  0.
        2    1    3    3  502    0 -0.13336128322E+03 -0.26410127884E+03 -0.98541553929E+03  0.10288724423E+04  0.25500000920E-02 0. -1.
       -2    1    3    3    0  502  0.13336128322E+03  0.26410127884E+03  0.20929712292E+04  0.21137793839E+04  0.25500000920E-02 0.  1.
</event>
<event>
 5   0  0.1339837E-05  0.2278902E+04  0.7818609E-02  0.8486286E-01
        2   -1    0    0  501    0  0.00000000000E+00  0.00000000000E+00  0.99302361712E+03  0.99302361712E+03  0.25500000920E-02 0.  1.
       -2   -1    0    0    0  501  0.00000000000E+00  0.00000000000E+00 -0.13074702534E+04  0.13074702534E+04  0.25500000920E-02 0. -1.
    10030    2    1    2    0    0  0.00000000000E+00  0.00000000000E+00 -0.31444663624E+03  0.23004938705E+04  0.22789022272E+04 0.  0.
        5    1    3    3  502    0  0.60173066668E+03  0.87335162535E+03  0.26326119039E+03  0.10927723464E+04  0.46999998093E+01 0.  1.
       -5    1    3    3    0  502 -0.60173066668E+03 -0.87335162535E+03 -0.57770782663E+03  0.12077215241E+04  0.46999998093E+01 0. -1.
</event>
<event>
 5   0  0.5154476E-06  0.3233644E+04  0.7818609E-02  0.8179988E-01
        1   -1    0    0  501    0  0.00000000000E+00  0.00000000000E+00  0.22010739758E+04  0.22010739758E+04  0.50400001928E-02 0.  1.
       -1   -1    0    0    0  501  0.00000000000E+00  0.00000000000E+00 -0.11876536231E+04  0.11876536231E+04  0.50400001928E-02 0. -1.
    10030    2    1    2    0    0  0.00000000000E+00  0.00000000000E+00  0.10134203528E+04  0.33887275989E+04  0.32336440633E+04 0.  0.
        3    1    3    3  502    0  0.11004250773E+04  0.79364902836E+03  0.14282588228E+04  0.19699587321E+04  0.10100000352E+00 0.  1.
       -3    1    3    3    0  502 -0.11004250773E+04 -0.79364902836E+03 -0.41483847003E+03  0.14187688668E+04  0.10100000352E+00 0. -1.
</event>
<event>
 5   0  0.5002240E-06  0.2839811E+04  0.7818609E-02  0.8291014E-01
        1   -1    0    0  501    0  0.00000000000E+00  0.00000000000E+00  0.16124075224E+04  0.16124075224E+04  0.50400001928E-02 0.  1.
       -1   -1    0    0    0  501  0.00000000000E+00  0.00000000000E+00 -0.12503856215E+04  0.12503856215E+04  0.50400001928E-02 0. -1.
    10030    2    1    2    0    0  0.00000000000E+00  0.00000000000E+00  0.36202190094E+03  0.28627931439E+04  0.28398106853E+04 0.  0.
        4    1    3    3  502    0 -0.13213847972E+03 -0.26861935802E+03 -0.12182106791E+04  0.12544543869E+04  0.12699999809E+01 0. -1.
       -4    1    3    3    0  502  0.13213847972E+03  0.26861935802E+03  0.15802325800E+04  0.16083387570E+04  0.12699999809E+01 0.  1.
</event>
<event>
 5   0  0.5154476E-06  0.2938686E+04  0.7818609E-02  0.8261460E-01
       -1   -1    0    0    0  501  0.00000000000E+00  0.00000000000E+00  0.11009629413E+04  0.11009629413E+04  0.50400001928E-02 0. -1.
        1   -1    0    0  501    0  0.00000000000E+00  0.00000000000E+00 -0.19609820020E+04  0.19609820020E+04  0.50400001928E-02 0.  1.
    10030    2    1    2    0    0  0.00000000000E+00  0.00000000000E+00 -0.86001906067E+03  0.30619449433E+04  0.29386857694E+04 0.  0.
        3    1    3    3  502    0  0.93691368035E+03 -0.61920846970E+02 -0.16076027192E+04  0.18617271413E+04  0.10100000352E+00 0.  1.
       -3    1    3    3    0  502 -0.93691368035E+03  0.61920846970E+02  0.74758365849E+03  0.12002178020E+04  0.10100000352E+00 0. -1.
</event>
<event>
 5   0  0.5154476E-06  0.2579884E+04  0.7818609E-02  0.8375066E-01
        1   -1    0    0  501    0  0.00000000000E+00  0.00000000000E+00  0.13240858325E+04  0.13240858325E+04  0.50400001928E-02 0.  1.
       -1   -1    0    0    0  501  0.00000000000E+00  0.00000000000E+00 -0.12566788021E+04  0.12566788021E+04  0.50400001928E-02 0. -1.
    10030    2    1    2    0    0  0.00000000000E+00  0.00000000000E+00  0.67407030385E+02  0.25807646346E+04  0.25798841818E+04 0.  0.
        3    1    3    3  502    0  0.16696984934E+03  0.11504395962E+04 -0.52555829098E+03  0.12757749497E+04  0.10100000352E+00 0.  1.
       -3    1    3    3    0  502 -0.16696984934E+03 -0.11504395962E+04  0.59296532136E+03  0.13049896848E+04  0.10100000352E+00 0. -1.
</event>
<event>
 5   0  0.1382803E-05  0.2689065E+04  0.7818609E-02  0.8338562E-01
        2   -1    0    0  501    0  0.00000000000E+00  0.00000000000E+00  0.15349632676E+04  0.15349632676E+04  0.25500000920E-02 0. -1.
       -2   -1    0    0    0  501  0.00000000000E+00  0.00000000000E+00 -0.11777269651E+04  0.11777269651E+04  0.25500000920E-02 0.  1.
    10030    2    1    2    0    0  0.00000000000E+00  0.00000000000E+00  0.35723630250E+03  0.27126902328E+04  0.26890649905E+04 0.  0.
        2    1    3    3  502    0 -0.11462207393E+04 -0.69959173044E+03  0.24641769104E+03  0.13652736909E+04  0.25500000920E-02 0.  1.
       -2    1    3    3    0  502  0.11462207393E+04  0.69959173044E+03  0.11081861146E+03  0.13474165419E+04  0.25500000920E-02 0. -1.
</event>
<event>
 5   0  0.5261878E-06  0.2765617E+04  0.7818609E-02  0.8314023E-01
       -1   -1    0    0    0  501  0.00000000000E+00  0.00000000000E+00  0.19809789932E+04  0.19809789932E+04  0.50400001928E-02 0. -1.
        1   -1    0    0  501    0  0.00000000000E+00  0.00000000000E+00 -0.96525964219E+03  0.96525964221E+03  0.50400001928E-02 0.  1.
    10030    2    1    2    0    0  0.00000000000E+00  0.00000000000E+00  0.10157193510E+04  0.29462386354E+04  0.27656168022E+04 0.  0.
        5    1    3    3  502    0 -0.21297554869E+03  0.48464017337E+03  0.18687495814E+04  0.19422877671E+04  0.46999998093E+01 0. -1.
       -5    1    3    3    0  502  0.21297554869E+03 -0.48464017337E+03 -0.85303023044E+03  0.10039508683E+04  0.46999998093E+01 0.  1.
</event>
<event>
 5   0  0.5352212E-06  0.2869050E+04  0.7818609E-02  0.8282146E-01
       -1   -1    0    0    0  501  0.00000000000E+00  0.00000000000E+00  0.18175476773E+04  0.18175476773E+04  0.50400001928E-02 0. -1.
        1   -1    0    0  501    0  0.00000000000E+00  0.00000000000E+00 -0.11322193038E+04  0.11322193038E+04  0.50400001928E-02 0.  1.
    10030    2    1    2    0    0  0.00000000000E+00  0.00000000000E+00  0.68532837355E+03  0.29497669811E+04  0.28690504114E+04 0.  0.
        2    1    3    3  502    0 -0.31631890401E+03 -0.11856352858E+04  0.11065846314E+04  0.16523674611E+04  0.25500000920E-02 0. -1.
       -2    1    3    3    0  502  0.31631890401E+03  0.11856352858E+04 -0.42125625781E+03  0.12973995201E+04  0.25500000920E-02 0.  1.
</event>
<event>
 5   0  0.5154476E-06  0.2722924E+04  0.7818609E-02  0.8327605E-01
        1   -1    0    0  501    0  0.00000000000E+00  0.00000000000E+00  0.14371327937E+04  0.14371327937E+04  0.50400001928E-02 0. -1.
       -1   -1    0    0    0  501  0.00000000000E+00  0.00000000000E+00 -0.12897754492E+04  0.12897754492E+04  0.50400001928E-02 0.  1.
    10030    2    1    2    0    0  0.00000000000E+00  0.00000000000E+00  0.14735734449E+03  0.27269082429E+04  0.27229238657E+04 0.  0.
        3    1    3    3  502    0 -0.49538963756E+03  0.19375258402E+03 -0.11814020025E+04  0.12956317604E+04  0.10100000352E+00 0.  1.
       -3    1    3    3    0  502  0.49538963756E+03 -0.19375258402E+03  0.13287593470E+04  0.14312764825E+04  0.10100000352E+00 0. -1.
</event>
<event>
 5   0  0.1336899E-05  0.2541160E+04  0.7818609E-02  0.8388467E-01
       -2   -1    0    0    0  501  0.00000000000E+00  0.00000000000E+00  0.16410255270E+04  0.16410255270E+04  0.25500000920E-02 0. -1.
        2   -1    0    0  501    0  0.00000000000E+00  0.00000000000E+00 -0.98375919157E+03  0.98375919158E+03  0.25500000920E-02 0.  1.
    10030    2    1    2    0    0  0.00000000000E+00  0.00000000000E+00  0.65726633547E+03  0.26247847186E+04  0.25411603222E+04 0.  0.
        1    1    3    3  502    0 -0.11220074464E+03  0.11702170988E+04 -0.16928512512E+03  0.11877097789E+04  0.50400001928E-02 0.  1.
       -1    1    3    3    0  502  0.11220074464E+03 -0.11702170988E+04  0.82655146059E+03  0.14370749397E+04  0.50400001928E-02 0. -1.
</event>
<event>
 5   0  0.1382803E-05  0.2902099E+04  0.7818609E-02  0.8272253E-01
        2   -1    0    0  501    0  0.00000000000E+00  0.00000000000E+00  0.68954137137E+03  0.68954137137E+03  0.25500000920E-02 0.  1.
       -2   -1    0    0    0  501  0.00000000000E+00  0.00000000000E+00 -0.30535445366E+04  0.30535445366E+04  0.25500000920E-02 0. -1.
    10030    2    1    2    0    0  0.00000000000E+00  0.00000000000E+00 -0.23640031652E+04  0.37430859079E+04  0.29020994382E+04 0.  0.
        2    1    3    3  502    0  0.59550452365E+02 -0.99248541205E+03  0.18113256668E+03  0.10106347294E+04  0.25500000920E-02 0.  1.
       -2    1    3    3    0  502 -0.59550452365E+02  0.99248541205E+03 -0.25451357319E+04  0.27324511786E+04  0.25500000920E-02 0. -1.
</event>
<event>
 5   0  0.5154476E-06  0.2874162E+04  0.7818609E-02  0.8280607E-01
        1   -1    0    0  501    0  0.00000000000E+00  0.00000000000E+00  0.15440335558E+04  0.15440335558E+04  0.50400001928E-02 0.  1.
       -1   -1    0    0    0  501  0.00000000000E+00  0.00000000000E+00 -0.13375370181E+04  0.13375370181E+04  0.50400001928E-02 0. -1.
    10030    2    1    2    0    0  0.00000000000E+00  0.00000000000E+00  0.20649653769E+03  0.28815705739E+04  0.28741621653E+04 0.  0.
        3    1    3    3  502    0  0.46165925166E+03  0.10371673657E+04  0.98663042476E+03  0.15040894303E+04  0.10100000352E+00 0.  1.
       -3    1    3    3    0  502 -0.46165925166E+03 -0.10371673657E+04 -0.78013388706E+03  0.13774811436E+04  0.10100000352E+00 0. -1.
</event>
<event>
 5   0  0.1336899E-05  0.2866431E+04  0.7818609E-02  0.8282936E-01
        2   -1    0    0  501    0  0.00000000000E+00  0.00000000000E+00  0.13357453593E+04  0.13357453593E+04  0.25500000920E-02 0. -1.
       -2   -1    0    0    0  501  0.00000000000E+00  0.00000000000E+00 -0.15377979137E+04  0.15377979137E+04  0.25500000920E-02 0.  1.
    10030    2    1    2    0    0  0.00000000000E+00  0.00000000000E+00 -0.20205255441E+03  0.28735432730E+04  0.28664308307E+04 0.  0.
        1    1    3    3  502    0 -0.25815998947E+03  0.69152346977E+03 -0.13325920387E+04  0.15233689084E+04  0.50400001928E-02 0.  1.
       -1    1    3    3    0  502  0.25815998947E+03 -0.69152346977E+03  0.11305394843E+04  0.13501743646E+04  0.50400001928E-02 0. -1.
</event>
<event>
 5   0  0.5059249E-06  0.2912529E+04  0.7818609E-02  0.8269159E-01
        1   -1    0    0  501    0  0.00000000000E+00  0.00000000000E+00  0.16990347605E+04  0.16990347606E+04  0.50400001928E-02 0.  1.
       -1   -1    0    0    0  501  0.00000000000E+00  0.00000000000E+00 -0.12481829596E+04  0.12481829596E+04  0.50400001928E-02 0. -1.
    10030    2    1    2    0    0  0.00000000000E+00  0.00000000000E+00  0.45085180099E+03  0.29472177201E+04  0.29125289601E+04 0.  0.
        1    1    3    3  502    0  0.22526326545E+03  0.44761075220E+03 -0.11581951674E+04  0.12619488778E+04  0.50400001928E-02 0. -1.
       -1    1    3    3    0  502 -0.22526326545E+03 -0.44761075220E+03  0.16090469684E+04  0.16852688423E+04  0.50400001928E-02 0.  1.
</event>
<event>
 5   0  0.5154476E-06  0.2893523E+04  0.7818609E-02  0.8274807E-01
       -1   -1    0    0    0  501  0.00000000000E+00  0.00000000000E+00  0.17083865439E+04  0.17083865439E+04  0.50400001928E-02 0.  1.
        1   -1    0    0  501    0  0.00000000000E+00  0.00000000000E+00 -0.12252023977E+04  0.12252023977E+04  0.50400001928E-02 0. -1.
    10030    2    1    2    0    0  0.00000000000E+00  0.00000000000E+00  0.48318414618E+03  0.29335889416E+04  0.28935233124E+04 0.  0.
        3    1    3    3  502    0  0.13085206230E+04  0.41072214144E+03 -0.22543854584E+03  0.13898710179E+04  0.10100000352E+00 0. -1.
       -3    1    3    3    0  502 -0.13085206230E+04 -0.41072214144E+03  0.70862269202E+03  0.15437179237E+04  0.10100000352E+00 0.  1.
</event>
<event>
 5   0  0.1307832E-05  0.2793841E+04  0.7818609E-02  0.8305183E-01
       -2   -1    0    0    0  501  0.00000000000E+00  0.00000000000E+00  0.26734835121E+04  0.26734835121E+04  0.25500000920E-02 0.  1.
        2   -1    0    0  501    0  0.00000000000E+00  0.00000000000E+00 -0.72990396347E+03  0.72990396348E+03  0.25500000920E-02 0. -1.
    10030    2    1    2    0    0  0.00000000000E+00  0.00000000000E+00  0.19435795486E+04  0.34033874756E+04  0.27938405193E+04 0.  0.
        4    1    3    3  502    0  0.12990912345E+04  0.10748102804E+03  0.36003481723E+03  0.13523375649E+04  0.12699999809E+01 0. -1.
       -4    1    3    3    0  502 -0.12990912345E+04 -0.10748102804E+03  0.15835447314E+04  0.20510499107E+04  0.12699999809E+01 0.  1.
</event>
<event>
 5   0  0.1339837E-05  0.2903535E+04  0.7818609E-02  0.8271826E-01
       -2   -1    0    0    0  501  0.00000000000E+00  0.00000000000E+00  0.16010401701E+04  0.16010401701E+04  0.25500000920E-02 0.  1.
        2   -1    0    0  501    0  0.00000000000E+00  0.00000000000E+00 -0.13164123682E+04  0.13164123682E+04  0.25500000920E-02 0. -1.
    10030    2    1    2    0    0  0.00000000000E+00  0.00000000000E+00  0.28462780185E+03  0.29174525383E+04  0.29035351431E+04 0.  0.
        5    1    3    3  502    0 -0.13035326988E+04  0.61105588482E+03  0.33034774605E+03  0.14770709240E+04  0.46999998093E+01 0. -1.
       -5    1    3    3    0  502  0.13035326988E+04 -0.61105588482E+03 -0.45719944203E+02  0.14403816142E+04  0.46999998093E+01 0.  1.
</event>
<event>
 5   0  0.4590125E-06  0.2830145E+04  0.7818609E-02  0.8293970E-01
       -3   -1    0    0    0  501  0.00000000000E+00  0.00000000000E+00  0.11688584193E+04  0.11688584237E+04  0.10100000352E+00 0.  1.
        3   -1    0    0  501    0  0.00000000000E+00  0.00000000000E+00 -0.17131497807E+04  0.17131497836E+04  0.10100000352E+00 0. -1.
    10030    2    1    2    0    0  0.00000000000E+00  0.00000000000E+00 -0.54429136133E+03  0.28820082073E+04  0.28301445583E+04 0.  0.
        4    1    3    3  502    0  0.10733559354E+03  0.49156892585E+03  0.10746901025E+04  0.11866428982E+04  0.12699999809E+01 0.  1.
       -4    1    3    3    0  502 -0.10733559354E+03 -0.49156892585E+03 -0.16189814638E+04  0.16953653092E+04  0.12699999809E+01 0. -1.
</event>
<event>
 5   0  0.1336899E-05  0.2901816E+04  0.7818609E-02  0.8272337E-01
       -2   -1    0    0    0  501  0.00000000000E+00  0.00000000000E+00  0.16322450044E+04  0.16322450044E+04  0.25500000920E-02 0. -1.
        2   -1    0    0  501    0  0.00000000000E+00  0.00000000000E+00 -0.12897172942E+04  0.12897172942E+04  0.25500000920E-02 0.  1.
    10030    2    1    2    0    0  0.00000000000E+00  0.00000000000E+00  0.34252771018E+03  0.29219622985E+04  0.29018164039E+04 0.  0.
        1    1    3    3  502    0  0.10925727193E+04  0.87421241715E+03 -0.21502967948E+03  0.14156977998E+04  0.50400001928E-02 0.  1.
       -1    1    3    3    0  502 -0.10925727193E+04 -0.87421241715E+03  0.55755738966E+03  0.15062644987E+04  0.50400001928E-02 0. -1.
</event>
<event>
 5   0  0.1339837E-05  0.2904867E+04  0.7818609E-02  0.8271431E-01
        2   -1    0    0  501    0  0.00000000000E+00  0.00000000000E+00  0.14538009512E+04  0.14538009512E+04  0.25500000920E-02 0.  1.
       -2   -1    0    0    0  501  0.00000000000E+00  0.00000000000E+00 -0.14510673531E+04  0.14510673531E+04  0.25500000920E-02 0. -1.
    10030    2    1    2    0    0  0.00000000000E+00  0.00000000000E+00  0.27335981357E+01  0.29048683044E+04  0.29048670181E+04 0.  0.
        5    1    3    3  502    0  0.62556166119E+03 -0.54232442780E+03  0.11947230294E+04  0.14535571485E+04  0.46999998093E+01 0. -1.
       -5    1    3    3    0  502 -0.62556166119E+03  0.54232442780E+03 -0.11919894313E+04  0.14513111559E+04  0.46999998093E+01 0.  1.
</event>
<event>
 5   0  0.1307832E-05  0.2945102E+04  0.7818609E-02  0.8259583E-01
       -2   -1    0    0    0  501  0.00000000000E+00  0.00000000000E+00  0.16474715625E+04  0.16474715625E+04  0.25500000920E-02 0.  1.
        2   -1    0    0  501    0  0.00000000000E+00  0.00000000000E+00 -0.13162030194E+04  0.13162030194E+04  0.25500000920E-02 0. -1.
    10030    2    1    2    0    0  0.00000000000E+00  0.00000000000E+00  0.33126854306E+03  0.29636745819E+04  0.29451024056E+04 0.  0.
        4    1    3    3  502    0 -0.11722412050E+04 -0.51994640630E+03 -0.56274767583E+03  0.14004214607E+04  0.12699999809E+01 0. -1.
       -4    1    3    3    0  502  0.11722412050E+04  0.51994640630E+03  0.89401621889E+03  0.15632531211E+04  0.12699999809E+01 0.  1.
</event>
<event>
 5   0  0.5154476E-06  0.2929532E+04  0.7818609E-02  0.8264145E-01
       -1   -1    0    0    0  501  0.00000000000E+00  0.00000000000E+00  0.27073626107E+04  0.27073626107E+04  0.50400001928E-02 0.  1.
        1   -1    0    0  501    0  0.00000000000E+00  0.00000000000E+00 -0.79248343544E+03  0.79248343546E+03  0.50400001928E-02 0. -1.
    10030    2    1    2    0    0  0.00000000000E+00  0.00000000000E+00  0.19148791752E+04  0.34998460461E+04  0.29295324014E+04 0.  0.
        3    1    3    3  502    0  0.83722652403E+03 -0.97421050099E+03  0.17983988236E+04  0.22100390702E+04  0.10100000352E+00 0. -1.
       -3    1    3    3    0  502 -0.83722652403E+03  0.97421050099E+03  0.11648035165E+03  0.12898069760E+04  0.10100000352E+00 0.  1.
</event>
<event>
 5   0  0.5154476E-06  0.2920765E+04  0.7818609E-02  0.8266726E-01
        1   -1    0    0  501    0  0.00000000000E+00  0.00000000000E+00  0.21076776245E+04  0.21076776245E+04  0.50400001928E-02 0.  1.
       -1   -1    0    0    0  501  0.00000000000E+00  0.00000000000E+00 -0.10118797689E+04  0.10118797689E+04  0.50400001928E-02 0. -1.
    10030    2    1    2    0    0  0.00000000000E+00  0.00000000000E+00  0.10957978556E+04  0.31195573934E+04  0.29207645216E+04 0.  0.
        3    1    3    3  502    0 -0.11377757263E+03  0.13990432969E+04  0.11741715998E+03  0.14085646177E+04  0.10100000352E+00 0. -1.
       -3    1    3    3    0  502  0.11377757263E+03 -0.13990432969E+04  0.97838069563E+03  0.17109927757E+04  0.10100000352E+00 0.  1.
</event>
<event>
 5   0  0.1385669E-05  0.2828225E+04  0.7818609E-02  0.8294559E-01
        2   -1    0    0  501    0  0.00000000000E+00  0.00000000000E+00  0.16326044034E+04  0.16326044034E+04  0.25500000920E-02 0.  1.
       -2   -1    0    0    0  501  0.00000000000E+00  0.00000000000E+00 -0.12248614619E+04  0.12248614619E+04  0.25500000920E-02 0. -1.
    10030    2    1    2    0    0  0.00000000000E+00  0.00000000000E+00  0.40774294145E+03  0.28574658653E+04  0.28282250379E+04 0.  0.
        3    1    3    3  502    0  0.35840547955E+02  0.26868477448E+03  0.16061105900E+04  0.16288238979E+04  0.10100000352E+00 0.  1.
       -3    1    3    3    0  502 -0.35840547955E+02 -0.26868477448E+03 -0.11983676485E+04  0.12286419674E+04  0.10100000352E+00 0. -1.
</event>
<event>
 5   0  0.1307832E-05  0.2741688E+04  0.7818609E-02  0.8321604E-01
       -2   -1    0    0    0  501  0.00000000000E+00  0.00000000000E+00  0.58505338742E+03  0.58505338742E+03  0.25500000920E-02 0. -1.
        2   -1    0    0  501    0  0.00000000000E+00  0.00000000000E+00 -0.32120372359E+04  0.32120372359E+04  0.25500000920E-02 0.  1.
    10030    2    1    2    0    0  0.00000000000E+00  0.00000000000E+00 -0.26269838484E+04  0.37970906233E+04  0.27416879949E+04 0.  0.
        4    1    3    3  502    0 -0.10281197728E+04  0.27956574374E+03 -0.11888090800E+03  0.10720641564E+04  0.12699999809E+01 0. -1.
       -4    1    3    3    0  502  0.10281197728E+04 -0.27956574374E+03 -0.25081029404E+04  0.27250264669E+04  0.12699999809E+01 0.  1.
</event>
<event>
 5   0  0.5352212E-06  0.3149646E+04  0.7818609E-02  0.8202244E-01
       -1   -1    0    0    0  501  0.00000000000E+00  0.00000000000E+00  0.16502214455E+04  0.16502214455E+04  0.50400001928E-02 0. -1.
        1   -1    0    0  501    0  0.00000000000E+00  0.00000000000E+00 -0.15028694751E+04  0.15028694751E+04  0.50400001928E-02 0.  1.
    10030    2    1    2    0    0  0.00000000000E+00  0.00000000000E+00  0.14735197032E+03  0.31530909206E+04  0.31496459722E+04 0.  0.
        2    1    3    3  502    0  0.79691208704E+03 -0.10863730230E+03  0.14291127550E+04  0.16398884731E+04  0.25500000920E-02 0. -1.
       -2    1    3    3    0  502 -0.79691208704E+03  0.10863730230E+03 -0.12817607847E+04  0.15132024475E+04  0.25500000920E-02 0.  1.
</event>
<event>
 5   0  0.5059249E-06  0.2232618E+04  0.7818609E-02  0.8504973E-01
        1   -1    0    0  501    0  0.00000000000E+00  0.00000000000E+00  0.12663234419E+04  0.12663234419E+04  0.50400001928E-02 0. -1.
       -1   -1    0    0    0  501  0.00000000000E+00  0.00000000000E+00 -0.98406586390E+03  0.98406586391E+03  0.50400001928E-02 0.  1.
    10030    2    1    2    0    0  0.00000000000E+00  0.00000000000E+00  0.28225757800E+03  0.22503893058E+04  0.22326179000E+04 0.  0.
        1    1    3    3  502    0  0.10629229262E+04 -0.27088273574E+03 -0.67796445154E+02  0.10989899734E+04  0.50400001928E-02 0.  1.
       -1    1    3    3    0  502 -0.10629229262E+04  0.27088273574E+03  0.35005402315E+03  0.11513993324E+04  0.50400001928E-02 0. -1.
</event>
<event>
 5   0  0.5352212E-06  0.2900543E+04  0.7818609E-02  0.8272716E-01
       -1   -1    0    0    0  501  0.00000000000E+00  0.00000000000E+00  0.91231486896E+03  0.91231486898E+03  0.50400001928E-02 0.  1.
        1   -1    0    0  501    0  0.00000000000E+00  0.00000000000E+00 -0.23054398014E+04  0.23054398014E+04  0.50400001928E-02 0. -1.
    10030    2    1    2    0    0  0.00000000000E+00  0.00000000000E+00 -0.13931249324E+04  0.32177546704E+04  0.29005427150E+04 0.  0.
        2    1    3    3  502    0 -0.14310626416E+04  0.19516779413E+03 -0.55083313245E+03  0.15457839085E+04  0.25500000920E-02 0.  1.
       -2    1    3    3    0  502  0.14310626416E+04 -0.19516779413E+03 -0.84229179997E+03  0.16719707618E+04  0.25500000920E-02 0. -1.
</event>
<event>
 5   0  0.4590125E-06  0.2902947E+04  0.7818609E-02  0.8272001E-01
       -3   -1    0    0    0  501  0.00000000000E+00  0.00000000000E+00  0.13261642992E+04  0.13261643031E+04  0.10100000352E+00 0.  1.
        3   -1    0    0  501    0  0.00000000000E+00  0.00000000000E+00 -0.15886229395E+04  0.15886229427E+04  0.10100000352E+00 0. -1.
    10030    2    1    2    0    0  0.00000000000E+00  0.00000000000E+00 -0.26245864024E+03  0.29147872458E+04  0.29029468046E+04 0.  0.
        3    1    3    3  502    0 -0.10039399616E+04  0.10482575910E+04 -0.13722054733E+03  0.14579330960E+04  0.10100000352E+00 0. -1.
       -3    1    3    3    0  502  0.10039399616E+04 -0.10482575910E+04 -0.12523809291E+03  0.14568541498E+04  0.10100000352E+00 0.  1.
</event>
<event>
 5   0  0.1307832E-05  0.2886156E+04  0.7818609E-02  0.8277009E-01
       -2   -1    0    0    0  501  0.00000000000E+00  0.00000000000E+00  0.84392528346E+03  0.84392528347E+03  0.25500000920E-02 0.  1.
        2   -1    0    0  501    0  0.00000000000E+00  0.00000000000E+00 -0.24676040536E+04  0.24676040536E+04  0.25500000920E-02 0. -1.
    10030    2    1    2    0    0  0.00000000000E+00  0.00000000000E+00 -0.16236787701E+04  0.33115293370E+04  0.28861555401E+04 0.  0.
        4    1    3    3  502    0 -0.54973051462E+03  0.50112933485E+03  0.60699647552E+03  0.96009404912E+03  0.12699999809E+01 0.  1.
       -4    1    3    3    0  502  0.54973051462E+03 -0.50112933485E+03 -0.22306752456E+04  0.23514352879E+04  0.12699999809E+01 0. -1.
</event>
<event>
 5   0  0.1307832E-05  0.2777474E+04  0.7818609E-02  0.8310296E-01
        2   -1    0    0  501    0  0.00000000000E+00  0.00000000000E+00  0.15305320917E+04  0.15305320917E+04  0.25500000920E-02 0. -1.
       -2   -1    0    0    0  501  0.00000000000E+00  0.00000000000E+00 -0.12600782336E+04  0.12600782336E+04  0.25500000920E-02 0.  1.
    10030    2    1    2    0    0  0.00000000000E+00  0.00000000000E+00  0.27045385811E+03  0.27906103253E+04  0.27774737979E+04 0.  0.
        4    1    3    3  502    0  0.21355956818E+03  0.78937474188E+03 -0.99252042263E+03  0.12860087770E+04  0.12699999809E+01 0.  1.
       -4    1    3    3    0  502 -0.21355956818E+03 -0.78937474188E+03  0.12629742807E+04  0.15046015483E+04  0.12699999809E+01 0. -1.
</event>
<event>
 5   0  0.1339837E-05  0.2964496E+04  0.7818609E-02  0.8253942E-01
        2   -1    0    0  501    0  0.00000000000E+00  0.00000000000E+00  0.17151364517E+04  0.17151364517E+04  0.25500000920E-02 0. -1.
       -2   -1    0    0    0  501  0.00000000000E+00  0.00000000000E+00 -0.12809823149E+04  0.12809823149E+04  0.25500000920E-02 0.  1.
    10030    2    1    2    0    0  0.00000000000E+00  0.00000000000E+00  0.43415413674E+03  0.29961187666E+04  0.29644962218E+04 0.  0.
        5    1    3    3  502    0 -0.12266365377E+03  0.14526772237E+04  0.48773945896E+03  0.15372798567E+04  0.46999998093E+01 0.  1.
       -5    1    3    3    0  502  0.12266365377E+03 -0.14526772237E+04 -0.53585322221E+02  0.14588389099E+04  0.46999998093E+01 0. -1.
</event>
<event>
 5   0  0.5154476E-06  0.2906123E+04  0.7818609E-02  0.8271058E-01
        1   -1    0    0  501    0  0.00000000000E+00  0.00000000000E+00  0.16375861402E+04  0.16375861402E+04  0.50400001928E-02 0.  1.
       -1   -1    0    0    0  501  0.00000000000E+00  0.00000000000E+00 -0.12893296944E+04  0.12893296944E+04  0.50400001928E-02 0. -1.
    10030    2    1    2    0    0  0.00000000000E+00  0.00000000000E+00  0.34825644577E+03  0.29269158346E+04  0.29061234920E+04 0.  0.
        3    1    3    3  502    0 -0.84761182729E+03  0.10643688322E+04 -0.33948274569E+03  0.14023463786E+04  0.10100000352E+00 0. -1.
       -3    1    3    3    0  502  0.84761182729E+03 -0.10643688322E+04  0.68773919146E+03  0.15245694561E+04  0.10100000352E+00 0.  1.
</event>
<event>
 5   0  0.5352212E-06  0.2847561E+04  0.7818609E-02  0.8288653E-01
       -1   -1    0    0    0  501  0.00000000000E+00  0.00000000000E+00  0.14329537981E+04  0.14329537981E+04  0.50400001928E-02 0. -1.
        1   -1    0    0  501    0  0.00000000000E+00  0.00000000000E+00 -0.14146655805E+04  0.14146655805E+04  0.50400001928E-02 0.  1.
    10030    2    1    2    0    0  0.00000000000E+00  0.00000000000E+00  0.18288217598E+02  0.28476193786E+04  0.28475606519E+04 0.  0.
        2    1    3    3  502    0  0.12983695525E+03  0.12170950829E+04  0.73646395563E+03  0.14284807432E+04  0.25500000920E-02 0. -1.
       -2    1    3    3    0  502 -0.12983695525E+03 -0.12170950829E+04 -0.71817573803E+03  0.14191386354E+04  0.25500000920E-02 0.  1.
</event>
<event>
 5   0  0.1336899E-05  0.3077865E+04  0.7818609E-02  0.8221839E-01
       -2   -1    0    0    0  501  0.00000000000E+00  0.00000000000E+00  0.90439307048E+03  0.90439307048E+03  0.25500000920E-02 0.  1.
        2   -1    0    0  501    0  0.00000000000E+00  0.00000000000E+00 -0.26186764320E+04  0.26186764320E+04  0.25500000920E-02 0. -1.
    10030    2    1    2    0    0  0.00000000000E+00  0.00000000000E+00 -0.17142833616E+04  0.35230695025E+04  0.30778647267E+04 0.  0.
        1    1    3    3  502    0  0.65205385474E+03 -0.34498888355E+03 -0.24031026849E+04  0.25137808324E+04  0.50400001928E-02 0. -1.
       -1    1    3    3    0  502 -0.65205385474E+03  0.34498888355E+03  0.68881932337E+03  0.10092886701E+04  0.50400001928E-02 0.  1.
</event>
<event>
 5   0  0.5002240E-06  0.2858593E+04  0.7818609E-02  0.8285305E-01
       -1   -1    0    0    0  501  0.00000000000E+00  0.00000000000E+00  0.16076605559E+04  0.16076605559E+04  0.50400001928E-02 0. -1.
        1   -1    0    0  501    0  0.00000000000E+00  0.00000000000E+00 -0.12707213719E+04  0.12707213720E+04  0.50400001928E-02 0.  1.
    10030    2    1    2    0    0  0.00000000000E+00  0.00000000000E+00  0.33693918393E+03  0.28783819278E+04  0.28585930996E+04 0.  0.
        4    1    3    3  502    0 -0.11124420137E+04 -0.61279825075E+03  0.82862855518E+03  0.15164682078E+04  0.12699999809E+01 0. -1.
       -4    1    3    3    0  502  0.11124420137E+04  0.61279825075E+03 -0.49168937125E+03  0.13619137200E+04  0.12699999809E+01 0.  1.
</event>
<event>
 5   0  0.1307832E-05  0.2787589E+04  0.7818609E-02  0.8307132E-01
        2   -1    0    0  501    0  0.00000000000E+00  0.00000000000E+00  0.15034128752E+04  0.15034128752E+04  0.25500000920E-02 0.  1.
       -2   -1    0    0    0  501  0.00000000000E+00  0.00000000000E+00 -0.12921689548E+04  0.12921689549E+04  0.25500000920E-02 0. -1.
    10030    2    1    2    0    0  0.00000000000E+00  0.00000000000E+00  0.21124392037E+03  0.27955818301E+04  0.27875892407E+04 0.  0.
        4    1    3    3  502    0 -0.14521148354E+03  0.31166550192E+03 -0.12489691796E+04  0.12954332806E+04  0.12699999809E+01 0. -1.
       -4    1    3    3    0  502  0.14521148354E+03 -0.31166550192E+03  0.14602131000E+04  0.15001485494E+04  0.12699999809E+01 0.  1.
</event>
<event>
 5   0  0.4590125E-06  0.1776783E+04  0.7818609E-02  0.8718744E-01
        3   -1    0    0  501    0  0.00000000000E+00  0.00000000000E+00  0.12839765496E+04  0.12839765536E+04  0.10100000352E+00 0.  1.
       -3   -1    0    0    0  501  0.00000000000E+00  0.00000000000E+00 -0.61468383374E+03  0.61468384204E+03  0.10100000352E+00 0. -1.
    10030    2    1    2    0    0  0.00000000000E+00  0.00000000000E+00  0.66929271590E+03  0.18986603956E+04  0.17767832052E+04 0.  0.
        2    1    3    3  502    0  0.73208804545E+02  0.17293623784E+03 -0.59323146839E+03  0.62224596947E+03  0.25500000920E-02 0. -1.
       -2    1    3    3    0  502 -0.73208804545E+02 -0.17293623784E+03  0.12625241843E+04  0.12764144262E+04  0.25500000920E-02 0.  1.
</event>
<event>
 5   0  0.1382803E-05  0.2950712E+04  0.7818609E-02  0.8257947E-01
       -2   -1    0    0    0  501  0.00000000000E+00  0.00000000000E+00  0.19457046309E+04  0.19457046309E+04  0.25500000920E-02 0.  1.
        2   -1    0    0  501    0  0.00000000000E+00  0.00000000000E+00 -0.11187079486E+04  0.11187079486E+04  0.25500000920E-02 0. -1.
    10030    2    1    2    0    0  0.00000000000E+00  0.00000000000E+00  0.82699668230E+03  0.30644125796E+04  0.29507119387E+04 0.  0.
        2    1    3    3  502    0 -0.13689703380E+04  0.54966891242E+03  0.39123550585E+03  0.15261981918E+04  0.25500000920E-02 0.  1.
       -2    1    3    3    0  502  0.13689703380E+04 -0.54966891242E+03  0.43576117644E+03  0.15382143877E+04  0.25500000920E-02 0. -1.
</event>
<event>
 5   0  0.5002240E-06  0.2791863E+04  0.7818609E-02  0.8305799E-01
       -1   -1    0    0    0  501  0.00000000000E+00  0.00000000000E+00  0.70803012119E+03  0.70803012121E+03  0.50400001928E-02 0. -1.
        1   -1    0    0  501    0  0.00000000000E+00  0.00000000000E+00 -0.27521770999E+04  0.27521770999E+04  0.50400001928E-02 0.  1.
    10030    2    1    2    0    0  0.00000000000E+00  0.00000000000E+00 -0.20441469787E+04  0.34602072211E+04  0.27918626654E+04 0.  0.
        4    1    3    3  502    0 -0.20759545121E+03 -0.89230997531E+03  0.28329902529E+03  0.95894364486E+03  0.12699999809E+01 0. -1.
       -4    1    3    3    0  502  0.20759545121E+03  0.89230997531E+03 -0.23274460040E+04  0.25012635762E+04  0.12699999809E+01 0.  1.
</event>
<event>
 5   0  0.1307832E-05  0.2853244E+04  0.7818609E-02  0.8286926E-01
        2   -1    0    0  501    0  0.00000000000E+00  0.00000000000E+00  0.23657286055E+04  0.23657286055E+04  0.25500000920E-02 0. -1.
       -2   -1    0    0    0  501  0.00000000000E+00  0.00000000000E+00 -0.86030614680E+03  0.86030614680E+03  0.25500000920E-02 0.  1.
    10030    2    1    2    0    0  0.00000000000E+00  0.00000000000E+00  0.15054224587E+04  0.32260347523E+04  0.28532443716E+04 0.  0.
        4    1    3    3  502    0  0.21415686980E+03  0.48344949716E+03  0.22508450534E+04  0.23121184330E+04  0.12699999809E+01 0. -1.
       -4    1    3    3    0  502 -0.21415686980E+03 -0.48344949716E+03 -0.74542259464E+03  0.91391631930E+03  0.12699999809E+01 0.  1.
</event>
<event>
 5   0  0.5154476E-06  0.3067062E+04  0.7818609E-02  0.8224836E-01
        1   -1    0    0  501    0  0.00000000000E+00  0.00000000000E+00  0.19311571446E+04  0.19311571446E+04  0.50400001928E-02 0.  1.
       -1   -1    0    0    0  501  0.00000000000E+00  0.00000000000E+00 -0.12177763619E+04  0.12177763619E+04  0.50400001928E-02 0. -1.
    10030    2    1    2    0    0  0.00000000000E+00  0.00000000000E+00  0.71338078273E+03  0.31489335065E+04  0.30670621264E+04 0.  0.
        3    1    3    3  502    0 -0.30781034030E+03 -0.12481664892E+04  0.12151013653E+04  0.17689370053E+04  0.10100000352E+00 0.  1.
       -3    1    3    3    0  502  0.30781034030E+03  0.12481664892E+04 -0.50172058258E+03  0.13799965013E+04  0.10100000352E+00 0. -1.
</event>
<event>
 5   0  0.1339837E-05  0.2843308E+04  0.7818609E-02  0.8289948E-01
        2   -1    0    0  501    0  0.00000000000E+00  0.00000000000E+00  0.16087712339E+04  0.16087712339E+04  0.25500000920E-02 0. -1.
       -2   -1    0    0    0  501  0.00000000000E+00  0.00000000000E+00 -0.12563003661E+04  0.12563003661E+04  0.25500000920E-02 0.  1.
    10030    2    1    2    0    0  0.00000000000E+00  0.00000000000E+00  0.35247086775E+03  0.28650716000E+04  0.28433078554E+04 0.  0.
        5    1    3    3  502    0  0.82824608211E+03  0.37614320341E+02 -0.98745110962E+03  0.12893751175E+04  0.46999998093E+01 0.  1.
       -5    1    3    3    0  502 -0.82824608211E+03 -0.37614320341E+02  0.13399219774E+04  0.15756964825E+04  0.46999998093E+01 0. -1.
</event>
<event>
 5   0  0.1339837E-05  0.2842827E+04  0.7818609E-02  0.8290094E-01
       -2   -1    0    0    0  501  0.00000000000E+00  0.00000000000E+00  0.20294818615E+04  0.20294818615E+04  0.25500000920E-02 0. -1.
        2   -1    0    0  501    0  0.00000000000E+00  0.00000000000E+00 -0.99553309252E+03  0.99553309252E+03  0.25500000920E-02 0.  1.
    10030    2    1    2    0    0  0.00000000000E+00  0.00000000000E+00  0.10339487690E+04  0.30250149540E+04  0.28428270111E+04 0.  0.
        5    1    3    3  502    0  0.82307076246E+03 -0.91841365189E+03  0.12689948976E+04  0.17695477547E+04  0.46999998093E+01 0. -1.
       -5    1    3    3    0  502 -0.82307076246E+03  0.91841365189E+03 -0.23504612864E+03  0.12554671993E+04  0.46999998093E+01 0.  1.
</event>
<event>
 5   0  0.1336899E-05  0.2878577E+04  0.7818609E-02  0.8279280E-01
       -2   -1    0    0    0  501  0.00000000000E+00  0.00000000000E+00  0.98579750907E+03  0.98579750907E+03  0.25500000920E-02 0. -1.
        2   -1    0    0  501    0  0.00000000000E+00  0.00000000000E+00 -0.21013960114E+04  0.21013960114E+04  0.25500000920E-02 0.  1.
    10030    2    1    2    0    0  0.00000000000E+00  0.00000000000E+00 -0.11155985023E+04  0.30871935204E+04  0.28785766994E+04 0.  0.
        1    1    3    3  502    0 -0.13561954512E+04 -0.54002730107E+02 -0.10714323348E+04  0.17292049170E+04  0.50400001928E-02 0.  1.
       -1    1    3    3    0  502  0.13561954512E+04  0.54002730107E+02 -0.44166167512E+02  0.13579886035E+04  0.50400001928E-02 0. -1.
</event>
<event>
 5   0  0.5352212E-06  0.2914742E+04  0.7818609E-02  0.8268505E-01
       -1   -1    0    0    0  501  0.00000000000E+00  0.00000000000E+00  0.99673582820E+03  0.99673582821E+03  0.50400001928E-02 0.  1.
        1   -1    0    0  501    0  0.00000000000E+00  0.00000000000E+00 -0.21308856201E+04  0.21308856201E+04  0.50400001928E-02 0. -1.
    10030    2    1    2    0    0  0.00000000000E+00  0.00000000000E+00 -0.11341497919E+04  0.31276214483E+04  0.29147418708E+04 0.  0.
        2    1    3    3  502    0 -0.12189724405E+03  0.23042274687E+03  0.97151597847E+03  0.10058811445E+04  0.25500000920E-02 0.  1.
       -2    1    3    3    0  502  0.12189724405E+03 -0.23042274687E+03 -0.21056657704E+04  0.21217403038E+04  0.25500000920E-02 0. -1.
</event>
<event>
 5   0  0.5154476E-06  0.2874808E+04  0.7818609E-02  0.8280412E-01
       -1   -1    0    0    0  501  0.00000000000E+00  0.00000000000E+00  0.19299042537E+04  0.19299042537E+04  0.50400001928E-02 0.  1.
        1   -1    0    0  501    0  0.00000000000E+00  0.00000000000E+00 -0.10705871391E+04  0.10705871391E+04  0.50400001928E-02 0. -1.
    10030    2    1    2    0    0  0.00000000000E+00  0.00000000000E+00  0.85931711459E+03  0.30004913928E+04  0.28748082884E+04 0.  0.
        3    1    3    3  502    0  0.37284042465E+03  0.13562979867E+04  0.73852958387E+03  0.15887039270E+04  0.10100000352E+00 0.  1.
       -3    1    3    3    0  502 -0.37284042465E+03 -0.13562979867E+04  0.12078753072E+03  0.14117874659E+04  0.10100000352E+00 0. -1.
</event>
<event>
 5   0  0.5059249E-06  0.2877380E+04  0.7818609E-02  0.8279640E-01
       -1   -1    0    0    0  501  0.00000000000E+00  0.00000000000E+00  0.13880061898E+04  0.13880061899E+04  0.50400001928E-02 0.  1.
        1   -1    0    0  501    0  0.00000000000E+00  0.00000000000E+00 -0.14912244124E+04  0.14912244124E+04  0.50400001928E-02 0. -1.
    10030    2    1    2    0    0  0.00000000000E+00  0.00000000000E+00 -0.10321822257E+03  0.28792306023E+04  0.28773798602E+04 0.  0.
        1    1    3    3  502    0  0.73294959082E+03  0.94480827907E+03 -0.85209298413E+03  0.14683120379E+04  0.50400001928E-02 0. -1.
       -1    1    3    3    0  502 -0.73294959082E+03 -0.94480827907E+03  0.74887476156E+03  0.14109185644E+04  0.50400001928E-02 0.  1.
</event>
<event>
 5   0  0.1307832E-05  0.2874656E+04  0.7818609E-02  0.8280458E-01
       -2   -1    0    0    0  501  0.00000000000E+00  0.00000000000E+00  0.12124915277E+04  0.12124915277E+04  0.25500000920E-02 0.  1.
        2   -1    0    0  501    0  0.00000000000E+00  0.00000000000E+00 -0.17038564717E+04  0.17038564717E+04  0.25500000920E-02 0. -1.
    10030    2    1    2    0    0  0.00000000000E+00  0.00000000000E+00 -0.49136494397E+03  0.29163479994E+04  0.28746558308E+04 0.  0.
        4    1    3    3  502    0  0.47602838314E+03 -0.85465656451E+03 -0.13139834412E+04  0.16381681725E+04  0.12699999809E+01 0. -1.
       -4    1    3    3    0  502 -0.47602838314E+03  0.85465656451E+03  0.82261849725E+03  0.12781798268E+04  0.12699999809E+01 0.  1.
</event>
<event>
 5   0  0.5261878E-06  0.2899631E+04  0.7818609E-02  0.8272987E-01
        1   -1    0    0  501    0  0.00000000000E+00  0.00000000000E+00  0.79629740435E+03  0.79629740436E+03  0.50400001928E-02 0. -1.
       -1   -1    0    0    0  501  0.00000000000E+00  0.00000000000E+00 -0.26396728285E+04  0.26396728285E+04  0.50400001928E-02 0.  1.
    10030    2    1    2    0    0  0.00000000000E+00  0.00000000000E+00 -0.18433754241E+04  0.34359702328E+04  0.28996307501E+04 0.  0.
        5    1    3    3  502    0  0.96995876925E+03 -0.27406895653E+03 -0.21565637206E+04  0.23804879705E+04  0.46999998093E+01 0.  1.
       -5    1    3    3    0  502 -0.96995876925E+03  0.27406895653E+03  0.31318829646E+03  0.10554822623E+04  0.46999998093E+01 0. -1.
</event>
<event>
 5   0  0.5002240E-06  0.2833806E+04  0.7818609E-02  0.8292849E-01
       -1   -1    0    0    0  501  0.00000000000E+00  0.00000000000E+00  0.12732799517E+04  0.12732799517E+04  0.50400001928E-02 0. -1.
        1   -1    0    0  501    0  0.00000000000E+00  0.00000000000E+00 -0.15767263184E+04  0.15767263184E+04  0.50400001928E-02 0.  1.
    10030    2    1    2    0    0  0.00000000000E+00  0.00000000000E+00 -0.30344636677E+03  0.28500062701E+04  0.28338059288E+04 0.  0.
        4    1    3    3  502    0  0.79696545683E+03 -0.52140528393E+03  0.90336674232E+03  0.13126654157E+04  0.12699999809E+01 0. -1.
       -4    1    3    3    0  502 -0.79696545683E+03  0.52140528393E+03 -0.12068131091E+04  0.15373408544E+04  0.12699999809E+01 0.  1.
</event>
<event>
 5   0  0.5352212E-06  0.2619508E+04  0.7818609E-02  0.8361605E-01
       -1   -1    0    0    0  501  0.00000000000E+00  0.00000000000E+00  0.12415197051E+04  0.12415197051E+04  0.50400001928E-02 0.  1.
        1   -1    0    0  501    0  0.00000000000E+00  0.00000000000E+00 -0.13817387376E+04  0.13817387376E+04  0.50400001928E-02 0. -1.
    10030    2    1    2    0    0  0.00000000000E+00  0.00000000000E+00 -0.14021903253E+03  0.26232584427E+04  0.26195082515E+04 0.  0.
        2    1    3    3  502    0 -0.60833580801E+03  0.10494227301E+04 -0.56487689754E+03  0.13380756448E+04  0.25500000920E-02 0.  1.
       -2    1    3    3    0  502  0.60833580801E+03 -0.10494227301E+04  0.42465786501E+03  0.12851827979E+04  0.25500000920E-02 0. -1.
</event>
<event>
 5   0  0.1385669E-05  0.2783729E+04  0.7818609E-02  0.8308338E-01
       -2   -1    0    0    0  501  0.00000000000E+00  0.00000000000E+00  0.11754892380E+04  0.11754892380E+04  0.25500000920E-02 0.  1.
        2   -1    0    0  501    0  0.00000000000E+00  0.00000000000E+00 -0.16480687931E+04  0.16480687931E+04  0.25500000920E-02 0. -1.
    10030    2    1    2    0    0  0.00000000000E+00  0.00000000000E+00 -0.47257955511E+03  0.28235580310E+04  0.27837292467E+04 0.  0.
        3    1    3    3  502    0 -0.12736681510E+04  0.54330136952E+03 -0.37930422424E+03  0.14357153763E+04  0.10100000352E+00 0. -1.
       -3    1    3    3    0  502  0.12736681510E+04 -0.54330136952E+03 -0.93275330873E+02  0.13878426548E+04  0.10100000352E+00 0.  1.
</event>
<event>
 5   0  0.1307832E-05  0.2874715E+04  0.7818609E-02  0.8280440E-01
        2   -1    0    0  501    0  0.00000000000E+00  0.00000000000E+00  0.15947472098E+04  0.15947472098E+04  0.25500000920E-02 0.  1.
       -2   -1    0    0    0  501  0.00000000000E+00  0.00000000000E+00 -0.12955011651E+04  0.12955011651E+04  0.25500000920E-02 0. -1.
    10030    2    1    2    0    0  0.00000000000E+00  0.00000000000E+00  0.29924604478E+03  0.28902483749E+04  0.28747151987E+04 0.  0.
        4    1    3    3  502    0  0.70912778675E+02  0.13328332558E+04  0.68591139126E+03  0.15006495792E+04  0.12699999809E+01 0.  1.
       -4    1    3    3    0  502 -0.70912778675E+02 -0.13328332558E+04 -0.38666534648E+03  0.13895987957E+04  0.12699999809E+01 0. -1.
</event>
<event>
 5   0  0.1336899E-05  0.2835383E+04  0.7818609E-02  0.8292367E-01
       -2   -1    0    0    0  501  0.00000000000E+00  0.00000000000E+00  0.16791089231E+04  0.16791089231E+04  0.25500000920E-02 0. -1.
        2   -1    0    0  501    0  0.00000000000E+00  0.00000000000E+00 -0.11969735860E+04  0.11969735860E+04  0.25500000920E-02 0.  1.
    10030    2    1    2    0    0  0.00000000000E+00  0.00000000000E+00  0.48213533709E+03  0.28760825092E+04  0.28353828871E+04 0.  0.
        1    1    3    3  502    0 -0.10040388130E+04  0.97722128704E+03  0.46049113664E+03  0.14748245553E+04  0.50400001928E-02 0.  1.
       -1    1    3    3    0  502  0.10040388130E+04 -0.97722128704E+03  0.21644200448E+02  0.14012579539E+04  0.50400001928E-02 0. -1.
</event>
<event>
 5   0  0.1385669E-05  0.2824235E+04  0.7818609E-02  0.8295784E-01
        2   -1    0    0  501    0  0.00000000000E+00  0.00000000000E+00  0.21847391996E+04  0.21847391996E+04  0.25500000920E-02 0.  1.
       -2   -1    0    0    0  501  0.00000000000E+00  0.00000000000E+00 -0.91272915850E+03  0.91272915850E+03  0.25500000920E-02 0. -1.
    10030    2    1    2    0    0  0.00000000000E+00  0.00000000000E+00  0.12720100411E+04  0.30974683581E+04  0.28242345308E+04 0.  0.
        3    1    3    3  502    0  0.92543934584E+03  0.94338967680E+03  0.11817980699E+04  0.17728702021E+04  0.10100000352E+00 0.  1.
       -3    1    3    3    0  502 -0.92543934584E+03 -0.94338967680E+03  0.90211971224E+02  0.13245981561E+04  0.10100000352E+00 0. -1.
</event>
<event>
 5   0  0.5261878E-06  0.2892620E+04  0.7818609E-02  0.8275077E-01
        1   -1    0    0  501    0  0.00000000000E+00  0.00000000000E+00  0.12275447393E+04  0.12275447393E+04  0.50400001928E-02 0. -1.
       -1   -1    0    0    0  501  0.00000000000E+00  0.00000000000E+00 -0.17040620359E+04  0.17040620359E+04  0.50400001928E-02 0.  1.
    10030    2    1    2    0    0  0.00000000000E+00  0.00000000000E+00 -0.47651729658E+03  0.29316067752E+04  0.28926198420E+04 0.  0.
        5    1    3    3  502    0  0.25981359940E+03 -0.11816480320E+04 -0.10414009301E+04  0.15963499507E+04  0.46999998093E+01 0.  1.
       -5    1    3    3    0  502 -0.25981359940E+03  0.11816480320E+04  0.56488363351E+03  0.13352568245E+04  0.46999998093E+01 0. -1.
</event>
<event>
 5   0  0.5002240E-06  0.2928866E+04  0.7818609E-02  0.8264341E-01
       -1   -1    0    0    0  501  0.00000000000E+00  0.00000000000E+00  0.10082629169E+04  0.10082629169E+04  0.50400001928E-02 0. -1.
        1   -1    0    0  501    0  0.00000000000E+00  0.00000000000E+00 -0.21269882734E+04  0.21269882734E+04  0.50400001928E-02 0.  1.
    10030    2    1    2    0    0  0.00000000000E+00  0.00000000000E+00 -0.11187253565E+04  0.31352511904E+04  0.29288655830E+04 0.  0.
        4    1    3    3  502    0  0.90134718780E+01  0.14143790641E+04 -0.96559348700E+03  0.17125775237E+04  0.12699999809E+01 0.  1.
       -4    1    3    3    0  502 -0.90134718780E+01 -0.14143790641E+04 -0.15313186953E+03  0.14226736667E+04  0.12699999809E+01 0. -1.
</event>
<event>
 5   0  0.5154476E-06  0.2924199E+04  0.7818609E-02  0.8265714E-01
       -1   -1    0    0    0  501  0.00000000000E+00  0.00000000000E+00  0.86545384855E+03  0.86545384857E+03  0.50400001928E-02 0.  1.
        1   -1    0    0  501    0  0.00000000000E+00  0.00000000000E+00 -0.24700745159E+04  0.24700745159E+04  0.50400001928E-02 0. -1.
    10030    2    1    2    0    0  0.00000000000E+00  0.00000000000E+00 -0.16046206674E+04  0.33355283645E+04  0.29241993749E+04 0.  0.
        3    1    3    3  502    0  0.71075403614E+03 -0.65023083007E+03  0.45229750359E+03  0.10642107283E+04  0.10100000352E+00 0.  1.
       -3    1    3    3    0  502 -0.71075403614E+03  0.65023083007E+03 -0.20569181710E+04  0.22713176362E+04  0.10100000352E+00 0. -1.
</event>
<event>
 5   0  0.5059249E-06  0.2871689E+04  0.7818609E-02  0.8281351E-01
        1   -1    0    0  501    0  0.00000000000E+00  0.00000000000E+00  0.22740442590E+04  0.22740442590E+04  0.50400001928E-02 0. -1.
       -1   -1    0    0    0  501  0.00000000000E+00  0.00000000000E+00 -0.90660018318E+03  0.90660018320E+03  0.50400001928E-02 0.  1.
    10030    2    1    2    0    0  0.00000000000E+00  0.00000000000E+00  0.13674440758E+04  0.31806444422E+04  0.28716886612E+04 0.  0.
        1    1    3    3  502    0  0.59988517871E+03 -0.45686025143E+02  0.21277108987E+04  0.22111316354E+04  0.50400001928E-02 0. -1.
       -1    1    3    3    0  502 -0.59988517871E+03  0.45686025143E+02 -0.76026682290E+03  0.96951280680E+03  0.50400001928E-02 0.  1.
</event>
<event>
 5   0  0.1307832E-05  0.2785856E+04  0.7818609E-02  0.8307673E-01
        2   -1    0    0  501    0  0.00000000000E+00  0.00000000000E+00  0.11082266305E+04  0.11082266305E+04  0.25500000920E-02 0. -1.
       -2   -1    0    0    0  501  0.00000000000E+00  0.00000000000E+00 -0.17507692115E+04  0.17507692115E+04  0.25500000920E-02 0.  1.
    10030    2    1    2    0    0  0.00000000000E+00  0.00000000000E+00 -0.64254258097E+03  0.28589958420E+04  0.27858564673E+04 0.  0.
        4    1    3    3  502    0 -0.12687608867E+04 -0.19233388550E+03  0.23470917777E+03  0.13045445651E+04  0.12699999809E+01 0. -1.
       -4    1    3    3    0  502  0.12687608867E+04  0.19233388550E+03 -0.87725175874E+03  0.15544512769E+04  0.12699999809E+01 0.  1.
</event>
<event>
 5   0  0.1336899E-05  0.2913159E+04  0.7818609E-02  0.8268973E-01
        2   -1    0    0  501    0  0.00000000000E+00  0.00000000000E+00  0.18870797930E+04  0.18870797930E+04  0.25500000920E-02 0.  1.
       -2   -1    0    0    0  501  0.00000000000E+00  0.00000000000E+00 -0.11242893178E+04  0.11242893178E+04  0.25500000920E-02 0. -1.
    10030    2    1    2    0    0  0.00000000000E+00  0.00000000000E+00  0.76279047519E+03  0.30113691108E+04  0.29131588719E+04 0.  0.
        1    1    3    3  502    0 -0.61100049931E+03 -0.98126725039E+03 -0.53471949349E+03  0.12736294452E+04  0.50400001928E-02 0. -1.
       -1    1    3    3    0  502  0.61100049931E+03  0.98126725039E+03  0.12975099687E+04  0.17377396657E+04  0.50400001928E-02 0.  1.
</event>
<event>
 5   0  0.1382803E-05  0.2869288E+04  0.7818609E-02  0.8282074E-01
       -2   -1    0    0    0  501  0.00000000000E+00  0.00000000000E+00  0.12164783044E+04  0.12164783044E+04  0.25500000920E-02 0.  1.
        2   -1    0    0  501    0  0.00000000000E+00  0.00000000000E+00 -0.16919356539E+04  0.16919356539E+04  0.25500000920E-02 0. -1.
    10030    2    1    2    0    0  0.00000000000E+00  0.00000000000E+00 -0.47545734955E+03  0.29084139583E+04  0.28692877272E+04 0.  0.
        2    1    3    3  502    0  0.21884872071E+03 -0.83358256117E+03 -0.14002984357E+04  0.16442598207E+04  0.25500000920E-02 0. -1.
       -2    1    3    3    0  502 -0.21884872071E+03  0.83358256117E+03  0.92484108618E+03  0.12641541376E+04  0.25500000920E-02 0.  1.
</event>
<event>
 5   0  0.5154476E-06  0.2980186E+04  0.7818609E-02  0.8249412E-01
       -1   -1    0    0    0  501  0.00000000000E+00  0.00000000000E+00  0.11499530439E+04  0.11499530439E+04  0.50400001928E-02 0. -1.
        1   -1    0    0  501    0  0.00000000000E+00  0.00000000000E+00 -0.19308417946E+04  0.19308417946E+04  0.50400001928E-02 0.  1.
    10030    2    1    2    0    0  0.00000000000E+00  0.00000000000E+00 -0.78088875071E+03  0.30807948386E+04  0.29801861681E+04 0.  0.
        3    1    3    3  502    0  0.31942296962E+03 -0.10213903148E+04  0.68143389425E+03  0.12687085446E+04  0.10100000352E+00 0. -1.
       -3    1    3    3    0  502 -0.31942296962E+03  0.10213903148E+04 -0.14623226450E+04  0.18120862940E+04  0.10100000352E+00 0.  1.
</event>
<event>
 5   0  0.1385669E-05  0.2591297E+04  0.7818609E-02  0.8371164E-01
        2   -1    0    0  501    0  0.00000000000E+00  0.00000000000E+00  0.13225156657E+04  0.13225156657E+04  0.25500000920E-02 0. -1.
       -2   -1    0    0    0  501  0.00000000000E+00  0.00000000000E+00 -0.12693268683E+04  0.12693268683E+04  0.25500000920E-02 0.  1.
    10030    2    1    2    0    0  0.00000000000E+00  0.00000000000E+00  0.53188797396E+02  0.25918425341E+04  0.25912967166E+04 0.  0.
        3    1    3    3  502    0 -0.11821612360E+04  0.27867386304E+03 -0.42465509191E+03  0.12866608982E+04  0.10100000352E+00 0.  1.
       -3    1    3    3    0  502  0.11821612360E+04 -0.27867386304E+03  0.47784388931E+03  0.13051816358E+04  0.10100000352E+00 0. -1.
</event>
<event>
 5   0  0.1339837E-05  0.2908478E+04  0.7818609E-02  0.8270359E-01
        2   -1    0    0  501    0  0.00000000000E+00  0.00000000000E+00  0.17249246253E+04  0.17249246253E+04  0.25500000920E-02 0.  1.
       -2   -1    0    0    0  501  0.00000000000E+00  0.00000000000E+00 -0.12260310507E+04  0.12260310507E+04  0.25500000920E-02 0. -1.
    10030    2    1    2    0    0  0.00000000000E+00  0.00000000000E+00  0.49889357459E+03  0.29509556761E+04  0.29084780562E+04 0.  0.
        5    1    3    3  502    0  0.77675591538E+03 -0.11889934936E+04  0.56663661062E+03  0.15291024879E+04  0.46999998093E+01 0. -1.
       -5    1    3    3    0  502 -0.77675591538E+03  0.11889934936E+04 -0.67743036025E+02  0.14218531882E+04  0.46999998093E+01 0.  1.
</event>
<event>
 5   0  0.1336899E-05  0.2966935E+04  0.7818609E-02  0.8253236E-01
       -2   -1    0    0    0  501  0.00000000000E+00  0.00000000000E+00  0.12883614518E+04  0.12883614518E+04  0.25500000920E-02 0.  1.
        2   -1    0    0  501    0  0.00000000000E+00  0.00000000000E+00 -0.17081194207E+04  0.17081194207E+04  0.25500000920E-02 0. -1.
    10030    2    1    2    0    0  0.00000000000E+00  0.00000000000E+00 -0.41975796886E+03  0.29964808725E+04  0.29669345909E+04 0.  0.
        1    1    3    3  502    0 -0.43990949979E+03  0.59245941073E+03  0.10898504041E+04  0.13161696033E+04  0.50400001928E-02 0.  1.
       -1    1    3    3    0  502  0.43990949979E+03 -0.59245941073E+03 -0.15096083730E+04  0.16803112691E+04  0.50400001928E-02 0. -1.
</event>
<event>
 5   0  0.5154476E-06  0.2453548E+04  0.7818609E-02  0.8419724E-01
       -1   -1    0    0    0  501  0.00000000000E+00  0.00000000000E+00  0.20832949068E+04  0.20832949068E+04  0.50400001928E-02 0. -1.
        1   -1    0    0  501    0  0.00000000000E+00  0.00000000000E+00 -0.72240126256E+03  0.72240126257E+03  0.50400001928E-02 0.  1.
    10030    2    1    2    0    0  0.00000000000E+00  0.00000000000E+00  0.13608936443E+04  0.28056961694E+04  0.24535483456E+04 0.  0.
        3    1    3    3  502    0 -0.29242946901E+03 -0.11749901394E+04  0.45502993016E+03  0.12935103670E+04  0.10100000352E+00 0. -1.
       -3    1    3    3    0  502  0.29242946901E+03  0.11749901394E+04  0.90586371410E+03  0.15121858024E+04  0.10100000352E+00 0.  1.
</event>
<event>
 5   0  0.5002240E-06  0.2946603E+04  0.7818609E-02  0.8259145E-01
       -1   -1    0    0    0  501  0.00000000000E+00  0.00000000000E+00  0.10088677077E+04  0.10088677077E+04  0.50400001928E-02 0.  1.
        1   -1    0    0  501    0  0.00000000000E+00  0.00000000000E+00 -0.21515383934E+04  0.21515383934E+04  0.50400001928E-02 0. -1.
    10030    2    1    2    0    0  0.00000000000E+00  0.00000000000E+00 -0.11426706857E+04  0.31604061011E+04  0.29466032016E+04 0.  0.
        4    1    3    3  502    0 -0.10164538969E+04 -0.15796621585E+03 -0.17026102393E+04  0.19892247459E+04  0.12699999809E+01 0. -1.
       -4    1    3    3    0  502  0.10164538969E+04  0.15796621585E+03  0.55993955360E+03  0.11711813551E+04  0.12699999809E+01 0.  1.
</event>
<event>
 5   0  0.5154476E-06  0.2888487E+04  0.7818609E-02  0.8276311E-01
       -1   -1    0    0    0  501  0.00000000000E+00  0.00000000000E+00  0.21145357650E+04  0.21145357650E+04  0.50400001928E-02 0.  1.
        1   -1    0    0  501    0  0.00000000000E+00  0.00000000000E+00 -0.98642918249E+03  0.98642918250E+03  0.50400001928E-02 0. -1.
    10030    2    1    2    0    0  0.00000000000E+00  0.00000000000E+00  0.11281065825E+04  0.31009649475E+04  0.28884873453E+04 0.  0.
        3    1    3    3  502    0  0.77121758118E+03  0.11750122207E+04  0.92077505655E+03  0.16802550376E+04  0.10100000352E+00 0. -1.
       -3    1    3    3    0  502 -0.77121758118E+03 -0.11750122207E+04  0.20733152594E+03  0.14207099099E+04  0.10100000352E+00 0.  1.
</event>
<event>
 5   0  0.1307832E-05  0.2884222E+04  0.7818609E-02  0.8277588E-01
        2   -1    0    0  501    0  0.00000000000E+00  0.00000000000E+00  0.18101407506E+04  0.18101407506E+04  0.25500000920E-02 0.  1.
       -2   -1    0    0    0  501  0.00000000000E+00  0.00000000000E+00 -0.11489071609E+04  0.11489071609E+04  0.25500000920E-02 0. -1.
    10030    2    1    2    0    0  0.00000000000E+00  0.00000000000E+00  0.66123358971E+03  0.29590479115E+04  0.28842216771E+04 0.  0.
        4    1    3    3  502    0  0.30561418944E+03  0.75932165314E+03 -0.88749923765E+03  0.12073217945E+04  0.12699999809E+01 0. -1.
       -4    1    3    3    0  502 -0.30561418944E+03 -0.75932165314E+03  0.15487328274E+04  0.17517261170E+04  0.12699999809E+01 0.  1.
</event>
<event>
 5   0  0.1339837E-05  0.2886114E+04  0.7818609E-02  0.8277021E-01
        2   -1    0    0  501    0  0.00000000000E+00  0.00000000000E+00  0.17324803129E+04  0.17324803129E+04  0.25500000920E-02 0. -1.
       -2   -1    0    0    0  501  0.00000000000E+00  0.00000000000E+00 -0.12019835568E+04  0.12019835568E+04  0.25500000920E-02 0.  1.
    10030    2    1    2    0    0  0.00000000000E+00  0.00000000000E+00  0.53049675605E+03  0.29344638697E+04  0.28861135450E+04 0.  0.
        5    1    3    3  502    0 -0.11044619557E+04 -0.50467012718E+03  0.10579651899E+04  0.16105404627E+04  0.46999998093E+01 0. -1.
       -5    1    3    3    0  502  0.11044619557E+04  0.50467012718E+03 -0.52746843386E+03  0.13239234070E+04  0.46999998093E+01 0.  1.
</event>
<event>
 5   0  0.1382803E-05  0.2920606E+04  0.7818609E-02  0.8266773E-01
        2   -1    0    0  501    0  0.00000000000E+00  0.00000000000E+00  0.17821247000E+04  0.17821247000E+04  0.25500000920E-02 0. -1.
       -2   -1    0    0    0  501  0.00000000000E+00  0.00000000000E+00 -0.11965968014E+04  0.11965968014E+04  0.25500000920E-02 0.  1.
    10030    2    1    2    0    0  0.00000000000E+00  0.00000000000E+00  0.58552789860E+03  0.29787215014E+04  0.29206059068E+04 0.  0.
        2    1    3    3  502    0 -0.77387445342E+03  0.69640159958E+03  0.13371658094E+04  0.16946590393E+04  0.25500000920E-02 0. -1.
       -2    1    3    3    0  502  0.77387445342E+03 -0.69640159958E+03 -0.75163791083E+03  0.12840624621E+04  0.25500000920E-02 0.  1.
</event>
<event>
 5   0  0.1385669E-05  0.2900853E+04  0.7818609E-02  0.8272624E-01
        2   -1    0    0  501    0  0.00000000000E+00  0.00000000000E+00  0.13093812825E+04  0.13093812825E+04  0.25500000920E-02 0.  1.
       -2   -1    0    0    0  501  0.00000000000E+00  0.00000000000E+00 -0.16066653405E+04  0.16066653405E+04  0.25500000920E-02 0. -1.
    10030    2    1    2    0    0  0.00000000000E+00  0.00000000000E+00 -0.29728405801E+03  0.29160466230E+04  0.29008533394E+04 0.  0.
        3    1    3    3  502    0 -0.10622164841E+04  0.65095127741E+03  0.59801067757E+03  0.13819038336E+04  0.10100000352E+00 0.  1.
       -3    1    3    3    0  502  0.10622164841E+04 -0.65095127741E+03 -0.89529473558E+03  0.15341427894E+04  0.10100000352E+00 0. -1.
</event>
<event>
 5   0  0.1382803E-05  0.2943020E+04  0.7818609E-02  0.8260192E-01
       -2   -1    0    0    0  501  0.00000000000E+00  0.00000000000E+00  0.19735784184E+04  0.19735784184E+04  0.25500000920E-02 0. -1.
        2   -1    0    0  501    0  0.00000000000E+00  0.00000000000E+00 -0.10971649037E+04  0.10971649037E+04  0.25500000920E-02 0.  1.
    10030    2    1    2    0    0  0.00000000000E+00  0.00000000000E+00  0.87641351473E+03  0.30707433221E+04  0.29430195211E+04 0.  0.
        2    1    3    3  502    0  0.80320424637E+03  0.69723705237E+02  0.17226229672E+04  0.19019538227E+04  0.25500000920E-02 0. -1.
       -2    1    3    3    0  502 -0.80320424637E+03 -0.69723705237E+02 -0.84620945247E+03  0.11687894994E+04  0.25500000920E-02 0.  1.
</event>
<event>
 5   0  0.1385669E-05  0.2904358E+04  0.7818609E-02  0.8271582E-01
       -2   -1    0    0    0  501  0.00000000000E+00  0.00000000000E+00  0.68551699405E+03  0.68551699406E+03  0.25500000920E-02 0. -1.
        2   -1    0    0  501    0  0.00000000000E+00  0.00000000000E+00 -0.30762539218E+04  0.30762539218E+04  0.25500000920E-02 0.  1.
    10030    2    1    2    0    0  0.00000000000E+00  0.00000000000E+00 -0.23907369277E+04  0.37617709159E+04  0.29043583398E+04 0.  0.
        3    1    3    3  502    0  0.93523033898E+03 -0.17233609685E+03  0.22610882619E+03  0.97748694555E+03  0.10100000352E+00 0. -1.
       -3    1    3    3    0  502 -0.93523033898E+03  0.17233609685E+03 -0.26168457539E+04  0.27842839703E+04  0.10100000352E+00 0.  1.
</event>
<event>
 5   0  0.1385669E-05  0.2885036E+04  0.7818609E-02  0.8277344E-01
        2   -1    0    0  501    0  0.00000000000E+00  0.00000000000E+00  0.16865765234E+04  0.16865765234E+04  0.25500000920E-02 0.  1.
       -2   -1    0    0    0  501  0.00000000000E+00  0.00000000000E+00 -0.12337760043E+04  0.12337760043E+04  0.25500000920E-02 0. -1.
    10030    2    1    2    0    0  0.00000000000E+00  0.00000000000E+00  0.45280051909E+03  0.29203525277E+04  0.28850356282E+04 0.  0.
        3    1    3    3  502    0 -0.65076157809E+03  0.12539008867E+04 -0.68889086864E+02  0.14143916649E+04  0.10100000352E+00 0. -1.
       -3    1    3    3    0  502  0.65076157809E+03 -0.12539008867E+04  0.52168960595E+03  0.15059608628E+04  0.10100000352E+00 0.  1.
</event>
<event>
 5   0  0.1307832E-05  0.2859523E+04  0.7818609E-02  0.8285023E-01
       -2   -1    0    0    0  501  0.00000000000E+00  0.00000000000E+00  0.15559494905E+04  0.15559494905E+04  0.25500000920E-02 0.  1.
        2   -1    0    0  501    0  0.00000000000E+00  0.00000000000E+00 -0.13138072905E+04  0.13138072905E+04  0.25500000920E-02 0. -1.
    10030    2    1    2    0    0  0.00000000000E+00  0.00000000000E+00  0.24214220005E+03  0.28697567810E+04  0.28595228863E+04 0.  0.
        4    1    3    3  502    0 -0.23428211640E+03 -0.14319044903E+03  0.15292408893E+04  0.15536958921E+04  0.12699999809E+01 0.  1.
       -4    1    3    3    0  502  0.23428211640E+03  0.14319044903E+03 -0.12870986892E+04  0.13160608890E+04  0.12699999809E+01 0. -1.
</event>
<event>
 5   0  0.5154476E-06  0.2675839E+04  0.7818609E-02  0.8342887E-01
        1   -1    0    0  501    0  0.00000000000E+00  0.00000000000E+00  0.15112026815E+04  0.15112026815E+04  0.50400001928E-02 0. -1.
       -1   -1    0    0    0  501  0.00000000000E+00  0.00000000000E+00 -0.11845063011E+04  0.11845063011E+04  0.50400001928E-02 0.  1.
    10030    2    1    2    0    0  0.00000000000E+00  0.00000000000E+00  0.32669638041E+03  0.26957089826E+04  0.26758393812E+04 0.  0.
        3    1    3    3  502    0 -0.70357543540E+03 -0.10718944992E+04 -0.22165827601E+03  0.13011950708E+04  0.10100000352E+00 0.  1.
       -3    1    3    3    0  502  0.70357543540E+03  0.10718944992E+04  0.54835465643E+03  0.13945139118E+04  0.10100000352E+00 0. -1.
</event>
<event>
 5   0  0.5352212E-06  0.3032205E+04  0.7818609E-02  0.8234594E-01
       -1   -1    0    0    0  501  0.00000000000E+00  0.00000000000E+00  0.13354786638E+04  0.13354786638E+04  0.50400001928E-02 0.  1.
        1   -1    0    0  501    0  0.00000000000E+00  0.00000000000E+00 -0.17211555043E+04  0.17211555043E+04  0.50400001928E-02 0. -1.
    10030    2    1    2    0    0  0.00000000000E+00  0.00000000000E+00 -0.38567684054E+03  0.30566341681E+04  0.30322047774E+04 0.  0.
        2    1    3    3  502    0 -0.13997633011E+03  0.26986147283E+03 -0.16901157346E+04  0.17172390002E+04  0.25500000920E-02 0. -1.
       -2    1    3    3    0  502  0.13997633011E+03 -0.26986147283E+03  0.13044388941E+04  0.13393951679E+04  0.25500000920E-02 0.  1.
</event>
<event>
 5   0  0.5352212E-06  0.2107704E+04  0.7818609E-02  0.8557857E-01
        1   -1    0    0  501    0  0.00000000000E+00  0.00000000000E+00  0.15429236369E+04  0.15429236369E+04  0.50400001928E-02 0.  1.
       -1   -1    0    0    0  501  0.00000000000E+00  0.00000000000E+00 -0.71980507735E+03  0.71980507737E+03  0.50400001928E-02 0. -1.
    10030    2    1    2    0    0  0.00000000000E+00  0.00000000000E+00  0.82311855955E+03  0.22627287143E+04  0.21077042182E+04 0.  0.
        2    1    3    3  502    0 -0.75969793489E+03  0.88768663006E+02  0.11898532396E+04  0.14144863236E+04  0.25500000920E-02 0.  1.
       -2    1    3    3    0  502  0.75969793489E+03 -0.88768663006E+02 -0.36673468006E+03  0.84824239069E+03  0.25500000920E-02 0. -1.
</event>
<event>
 5   0  0.5154476E-06  0.2874252E+04  0.7818609E-02  0.8280580E-01
       -1   -1    0    0    0  501  0.00000000000E+00  0.00000000000E+00  0.17391548075E+04  0.17391548075E+04  0.50400001928E-02 0. -1.
        1   -1    0    0  501    0  0.00000000000E+00  0.00000000000E+00 -0.11875485880E+04  0.11875485880E+04  0.50400001928E-02 0.  1.
    10030    2    1    2    0    0  0.00000000000E+00  0.00000000000E+00  0.55160621950E+03  0.29267033955E+04  0.28742517885E+04 0.  0.
        3    1    3    3  502    0  0.74197578581E+03 -0.12283341140E+04  0.35466359219E+03  0.14782148139E+04  0.10100000352E+00 0.  1.
       -3    1    3    3    0  502 -0.74197578581E+03  0.12283341140E+04  0.19694262730E+03  0.14484885816E+04  0.10100000352E+00 0. -1.
</event>
<event>
 5   0  0.1336899E-05  0.2512132E+04  0.7818609E-02  0.8398676E-01
       -2   -1    0    0    0  501  0.00000000000E+00  0.00000000000E+00  0.12387804860E+04  0.12387804860E+04  0.25500000920E-02 0.  1.
        2   -1    0    0  501    0  0.00000000000E+00  0.00000000000E+00 -0.12735924483E+04  0.12735924483E+04  0.25500000920E-02 0. -1.
    10030    2    1    2    0    0  0.00000000000E+00  0.00000000000E+00 -0.34811962280E+02  0.25123729343E+04  0.25121317418E+04 0.  0.
        1    1    3    3  502    0  0.43055008738E+03 -0.99129654310E+03 -0.65751372628E+03  0.12650559333E+04  0.50400001928E-02 0. -1.
       -1    1    3    3    0  502 -0.43055008738E+03  0.99129654310E+03  0.62270176400E+03  0.12473170010E+04  0.50400001928E-02 0.  1.
</event>
<event>
 5   0  0.5154476E-06  0.1973091E+04  0.7818609E-02  0.8619306E-01
       -1   -1    0    0    0  501  0.00000000000E+00  0.00000000000E+00  0.78830073958E+03  0.78830073960E+03  0.50400001928E-02 0.  1.
        1   -1    0    0  501    0  0.00000000000E+00  0.00000000000E+00 -0.12346453963E+04  0.12346453963E+04  0.50400001928E-02 0. -1.
    10030    2    1    2    0    0  0.00000000000E+00  0.00000000000E+00 -0.44634465673E+03  0.20229461359E+04  0.19730908535E+04 0.  0.
        3    1    3    3  502    0  0.26439567344E+03 -0.47243011334E+03 -0.10687394237E+04  0.11980397532E+04  0.10100000352E+00 0. -1.
       -3    1    3    3    0  502 -0.26439567344E+03  0.47243011334E+03  0.62239476700E+03  0.82490638275E+03  0.10100000352E+00 0.  1.
</event>
<event>
 5   0  0.1385669E-05  0.2918148E+04  0.7818609E-02  0.8267498E-01
       -2   -1    0    0    0  501  0.00000000000E+00  0.00000000000E+00  0.26720873144E+04  0.26720873144E+04  0.25500000920E-02 0.  1.
        2   -1    0    0  501    0  0.00000000000E+00  0.00000000000E+00 -0.79671677793E+03  0.79671677794E+03  0.25500000920E-02 0. -1.
    10030    2    1    2    0    0  0.00000000000E+00  0.00000000000E+00  0.18753705365E+04  0.34688040923E+04  0.29181479027E+04 0.  0.
        3    1    3    3  502    0 -0.95168108166E+03  0.62548642939E+03 -0.14655473567E+03  0.11482196895E+04  0.10100000352E+00 0. -1.
       -3    1    3    3    0  502  0.95168108166E+03 -0.62548642939E+03  0.20219252721E+04  0.23205844029E+04  0.10100000352E+00 0.  1.
</event>
<event>
 5   0  0.5059249E-06  0.2851261E+04  0.7818609E-02  0.8287528E-01
       -1   -1    0    0    0  501  0.00000000000E+00  0.00000000000E+00  0.80361394376E+03  0.80361394378E+03  0.50400001928E-02 0. -1.
        1   -1    0    0  501    0  0.00000000000E+00  0.00000000000E+00 -0.25291019914E+04  0.25291019914E+04  0.50400001928E-02 0.  1.
    10030    2    1    2    0    0  0.00000000000E+00  0.00000000000E+00 -0.17254880476E+04  0.33327159351E+04  0.28512605111E+04 0.  0.
        1    1    3    3  502    0 -0.11142278805E+04  0.78740879173E+03 -0.37953047675E+03  0.14161778694E+04  0.50400001928E-02 0. -1.
       -1    1    3    3    0  502  0.11142278805E+04 -0.78740879173E+03 -0.13459575709E+04  0.19165380658E+04  0.50400001928E-02 0.  1.
</event>
<event>
 5   0  0.1307832E-05  0.2881732E+04  0.7818609E-02  0.8278334E-01
       -2   -1    0    0    0  501  0.00000000000E+00  0.00000000000E+00  0.10496008001E+04  0.10496008001E+04  0.25500000920E-02 0.  1.
        2   -1    0    0  501    0  0.00000000000E+00  0.00000000000E+00 -0.19779849619E+04  0.19779849619E+04  0.25500000920E-02 0. -1.
    10030    2    1    2    0    0  0.00000000000E+00  0.00000000000E+00 -0.92838416182E+03  0.30275857620E+04  0.28817318394E+04 0.  0.
        4    1    3    3  502    0  0.13267597194E+03  0.64443493213E+03  0.88255880090E+03  0.11008228492E+04  0.12699999809E+01 0.  1.
       -4    1    3    3    0  502 -0.13267597194E+03 -0.64443493213E+03 -0.18109429627E+04  0.19267629129E+04  0.12699999809E+01 0. -1.
</event>
<event>
 5   0  0.1307832E-05  0.2871982E+04  0.7818609E-02  0.8281263E-01
        2   -1    0    0  501    0  0.00000000000E+00  0.00000000000E+00  0.12615173827E+04  0.12615173827E+04  0.25500000920E-02 0. -1.
       -2   -1    0    0    0  501  0.00000000000E+00  0.00000000000E+00 -0.16345945583E+04  0.16345945583E+04  0.25500000920E-02 0.  1.
    10030    2    1    2    0    0  0.00000000000E+00  0.00000000000E+00 -0.37307717566E+03  0.28961119410E+04  0.28719815104E+04 0.  0.
        4    1    3    3  502    0 -0.84261124994E+03  0.24027260084E+03 -0.13337895405E+04  0.15958448523E+04  0.12699999809E+01 0.  1.
       -4    1    3    3    0  502  0.84261124994E+03 -0.24027260084E+03  0.96071236483E+03  0.13002670887E+04  0.12699999809E+01 0. -1.
</event>
<event>
 5   0  0.5261878E-06  0.2927994E+04  0.7818609E-02  0.8264597E-01
       -1   -1    0    0    0  501  0.00000000000E+00  0.00000000000E+00  0.11287544957E+04  0.11287544958E+04  0.50400001928E-02 0. -1.
        1   -1    0    0  501    0  0.00000000000E+00  0.00000000000E+00 -0.18988067378E+04  0.18988067378E+04  0.50400001928E-02 0.  1.
    10030    2    1    2    0    0  0.00000000000E+00  0.00000000000E+00 -0.77005224201E+03  0.30275612335E+04  0.29279936078E+04 0.  0.
        5    1    3    3  502    0  0.14883365782E+03 -0.11535615662E+04 -0.13043079946E+04  0.17475975450E+04  0.46999998093E+01 0.  1.
       -5    1    3    3    0  502 -0.14883365782E+03  0.11535615662E+04  0.53425575261E+03  0.12799636885E+04  0.46999998093E+01 0. -1.
</event>
<event>
 5   0  0.5154476E-06  0.2926899E+04  0.7818609E-02  0.8264919E-01
        1   -1    0    0  501    0  0.00000000000E+00  0.00000000000E+00  0.10082655291E+04  0.10082655291E+04  0.50400001928E-02 0. -1.
       -1   -1    0    0    0  501  0.00000000000E+00  0.00000000000E+00 -0.21241280194E+04  0.21241280194E+04  0.50400001928E-02 0.  1.
    10030    2    1    2    0    0  0.00000000000E+00  0.00000000000E+00 -0.11158624903E+04  0.31323935485E+04  0.29268994252E+04 0.  0.
        3    1    3    3  502    0  0.59556121877E+03  0.11130257050E+04  0.23443220906E+03  0.12839306274E+04  0.10100000352E+00 0. -1.
       -3    1    3    3    0  502 -0.59556121877E+03 -0.11130257050E+04 -0.13502946994E+04  0.18484629211E+04  0.10100000352E+00 0.  1.
</event>
<event>
 5   0  0.5352212E-06  0.2834395E+04  0.7818609E-02  0.8292669E-01
        1   -1    0    0  501    0  0.00000000000E+00  0.00000000000E+00  0.17763920264E+04  0.17763920264E+04  0.50400001928E-02 0.  1.
       -1   -1    0    0    0  501  0.00000000000E+00  0.00000000000E+00 -0.11306339313E+04  0.11306339313E+04  0.50400001928E-02 0. -1.
    10030    2    1    2    0    0  0.00000000000E+00  0.00000000000E+00  0.64575809513E+03  0.29070259577E+04  0.28343952444E+04 0.  0.
        2    1    3    3  502    0 -0.12422983673E+04 -0.42616135883E+03  0.86899930497E+03  0.15748265076E+04  0.25500000920E-02 0.  1.
       -2    1    3    3    0  502  0.12422983673E+04  0.42616135883E+03 -0.22324120984E+03  0.13321994501E+04  0.25500000920E-02 0. -1.
</event>
<event>
 5   0  0.1307832E-05  0.2878834E+04  0.7818609E-02  0.8279203E-01
        2   -1    0    0  501    0  0.00000000000E+00  0.00000000000E+00  0.19410876593E+04  0.19410876593E+04  0.25500000920E-02 0.  1.
       -2   -1    0    0    0  501  0.00000000000E+00  0.00000000000E+00 -0.10674025836E+04  0.10674025836E+04  0.25500000920E-02 0. -1.
    10030    2    1    2    0    0  0.00000000000E+00  0.00000000000E+00  0.87368507573E+03  0.30084902429E+04  0.28788344742E+04 0.  0.
        4    1    3    3  502    0  0.71655747697E+03  0.12195598456E+04  0.15811015790E+03  0.14232994308E+04  0.12699999809E+01 0.  1.
       -4    1    3    3    0  502 -0.71655747697E+03 -0.12195598456E+04  0.71557491783E+03  0.15851908121E+04  0.12699999809E+01 0. -1.
</event>
<event>
 5   0  0.5154476E-06  0.1896362E+04  0.7818609E-02  0.8656670E-01
        1   -1    0    0  501    0  0.00000000000E+00  0.00000000000E+00  0.70151352725E+03  0.70151352727E+03  0.50400001928E-02 0. -1.
       -1   -1    0    0    0  501  0.00000000000E+00  0.00000000000E+00 -0.12815814828E+04  0.12815814828E+04  0.50400001928E-02 0.  1.
    10030    2    1    2    0    0  0.00000000000E+00  0.00000000000E+00 -0.58006795558E+03  0.19830950101E+04  0.18963615125E+04 0.  0.
        3    1    3    3  502    0  0.49093084616E+02 -0.66802555342E+03 -0.99183047717E+03  0.11968274632E+04  0.10100000352E+00 0.  1.
       -3    1    3    3    0  502 -0.49093084616E+02  0.66802555342E+03  0.41176252158E+03  0.78626754694E+03  0.10100000352E+00 0. -1.
</event>
<event>
 5   0  0.1382803E-05  0.2876032E+04  0.7818609E-02  0.8280045E-01
        2   -1    0    0  501    0  0.00000000000E+00  0.00000000000E+00  0.15066197184E+04  0.15066197184E+04  0.25500000920E-02 0. -1.
       -2   -1    0    0    0  501  0.00000000000E+00  0.00000000000E+00 -0.13725358086E+04  0.13725358086E+04  0.25500000920E-02 0.  1.
    10030    2    1    2    0    0  0.00000000000E+00  0.00000000000E+00  0.13408390977E+03  0.28791555270E+04  0.28760316503E+04 0.  0.
        2    1    3    3  502    0  0.42091177222E+03 -0.61567303316E+03 -0.11637931972E+04  0.13822570707E+04  0.25500000920E-02 0.  1.
       -2    1    3    3    0  502 -0.42091177222E+03  0.61567303316E+03  0.12978771069E+04  0.14968984563E+04  0.25500000920E-02 0. -1.
</event>
<event>
 5   0  0.1307832E-05  0.2911275E+04  0.7818609E-02  0.8269531E-01
       -2   -1    0    0    0  501  0.00000000000E+00  0.00000000000E+00  0.12053022848E+04  0.12053022848E+04  0.25500000920E-02 0.  1.
        2   -1    0    0  501    0  0.00000000000E+00  0.00000000000E+00 -0.17579664756E+04  0.17579664756E+04  0.25500000920E-02 0. -1.
    10030    2    1    2    0    0  0.00000000000E+00  0.00000000000E+00 -0.55266419088E+03  0.29632687604E+04  0.29112753285E+04 0.  0.
        4    1    3    3  502    0 -0.30231179333E+03 -0.39011485050E+03 -0.16702039090E+04  0.17415983255E+04  0.12699999809E+01 0. -1.
       -4    1    3    3    0  502  0.30231179333E+03  0.39011485050E+03  0.11175397181E+04  0.12216704349E+04  0.12699999809E+01 0.  1.
</event>
<event>
 5   0  0.5261878E-06  0.2807534E+04  0.7818609E-02  0.8300933E-01
       -1   -1    0    0    0  501  0.00000000000E+00  0.00000000000E+00  0.89877617543E+03  0.89877617545E+03  0.50400001928E-02 0.  1.
        1   -1    0    0  501    0  0.00000000000E+00  0.00000000000E+00 -0.21924942078E+04  0.21924942079E+04  0.50400001928E-02 0. -1.
    10030    2    1    2    0    0  0.00000000000E+00  0.00000000000E+00 -0.12937180324E+04  0.30912703833E+04  0.28075338351E+04 0.  0.
        5    1    3    3  502    0 -0.10683538883E+04  0.82793009029E+03 -0.22948338798E+03  0.13709606050E+04  0.46999998093E+01 0.  1.
       -5    1    3    3    0  502  0.10683538883E+04 -0.82793009029E+03 -0.10642346444E+04  0.17203097783E+04  0.46999998093E+01 0. -1.
</event>
<event>
 5   0  0.4590125E-06  0.2277576E+04  0.7818609E-02  0.8486815E-01
       -4   -1    0    0    0  501  0.00000000000E+00  0.00000000000E+00  0.13228395349E+04  0.13228401445E+04  0.12699999809E+01 0.  1.
        4   -1    0    0  501    0  0.00000000000E+00  0.00000000000E+00 -0.98034276962E+03  0.98034359224E+03  0.12699999809E+01 0. -1.
    10030    2    1    2    0    0  0.00000000000E+00  0.00000000000E+00  0.34249676528E+03  0.23031837368E+04  0.22775757487E+04 0.  0.
        5    1    3    3  502    0  0.85508278284E+01 -0.68374226133E+03 -0.74961594718E+03  0.10146540075E+04  0.46999998093E+01 0. -1.
       -5    1    3    3    0  502 -0.85508278284E+01  0.68374226133E+03  0.10921127125E+04  0.12885297293E+04  0.46999998093E+01 0.  1.
</event>
<event>
 5   0  0.1382803E-05  0.2916010E+04  0.7818609E-02  0.8268130E-01
       -2   -1    0    0    0  501  0.00000000000E+00  0.00000000000E+00  0.81708750371E+03  0.81708750372E+03  0.25500000920E-02 0.  1.
        2   -1    0    0  501    0  0.00000000000E+00  0.00000000000E+00 -0.26016537598E+04  0.26016537599E+04  0.25500000920E-02 0. -1.
    10030    2    1    2    0    0  0.00000000000E+00  0.00000000000E+00 -0.17845662561E+04  0.34187412636E+04  0.29160101345E+04 0.  0.
        2    1    3    3  502    0  0.66195564223E+03  0.86911029449E+03  0.23970339892E+03  0.11184791888E+04  0.25500000920E-02 0.  1.
       -2    1    3    3    0  502 -0.66195564223E+03 -0.86911029449E+03 -0.20242696551E+04  0.23002620748E+04  0.25500000920E-02 0. -1.
</event>
<event>
 5   0  0.1385669E-05  0.2845525E+04  0.7818609E-02  0.8289272E-01
       -2   -1    0    0    0  501  0.00000000000E+00  0.00000000000E+00  0.12690768065E+04  0.12690768065E+04  0.25500000920E-02 0.  1.
        2   -1    0    0  501    0  0.00000000000E+00  0.00000000000E+00 -0.15950595933E+04  0.15950595933E+04  0.25500000920E-02 0. -1.
    10030    2    1    2    0    0  0.00000000000E+00  0.00000000000E+00 -0.32598278680E+03  0.28641363998E+04  0.28455250025E+04 0.  0.
        3    1    3    3  502    0  0.72206769489E+03 -0.44340395868E+03  0.98740316665E+03  0.13011356003E+04  0.10100000352E+00 0.  1.
       -3    1    3    3    0  502 -0.72206769489E+03  0.44340395868E+03 -0.13133859535E+04  0.15630007996E+04  0.10100000352E+00 0. -1.
</event>
<event>
 5   0  0.1339837E-05  0.2882064E+04  0.7818609E-02  0.8278234E-01
        2   -1    0    0  501    0  0.00000000000E+00  0.00000000000E+00  0.83646781189E+03  0.83646781189E+03  0.25500000920E-02 0.  1.
       -2   -1    0    0    0  501  0.00000000000E+00  0.00000000000E+00 -0.24825504742E+04  0.24825504742E+04  0.25500000920E-02 0. -1.
    10030    2    1    2    0    0  0.00000000000E+00  0.00000000000E+00 -0.16460826623E+04  0.33190182861E+04  0.28820642346E+04 0.  0.
        5    1    3    3  502    0 -0.11365223012E+04 -0.78107430732E+03 -0.34157481175E+03  0.14207235680E+04  0.46999998093E+01 0.  1.
       -5    1    3    3    0  502  0.11365223012E+04  0.78107430732E+03 -0.13045078506E+04  0.18982947181E+04  0.46999998093E+01 0. -1.
</event>
<event>
 5   0  0.5352212E-06  0.2780023E+04  0.7818609E-02  0.8309497E-01
       -1   -1    0    0    0  501  0.00000000000E+00  0.00000000000E+00  0.90819170738E+03  0.90819170740E+03  0.50400001928E-02 0. -1.
        1   -1    0    0  501    0  0.00000000000E+00  0.00000000000E+00 -0.21274496355E+04  0.21274496355E+04  0.50400001928E-02 0.  1.
    10030    2    1    2    0    0  0.00000000000E+00  0.00000000000E+00 -0.12192579281E+04  0.30356413429E+04  0.27800231056E+04 0.  0.
        2    1    3    3  502    0 -0.55252889937E+03 -0.59060396133E+03  0.62481883413E+03  0.10220077296E+04  0.25500000920E-02 0. -1.
       -2    1    3    3    0  502  0.55252889937E+03  0.59060396133E+03 -0.18440767622E+04  0.20136336134E+04  0.25500000920E-02 0.  1.
</event>
<event>
 5   0  0.1382803E-05  0.2897047E+04  0.7818609E-02  0.8273757E-01
       -2   -1    0    0    0  501  0.00000000000E+00  0.00000000000E+00  0.12346467813E+04  0.12346467813E+04  0.25500000920E-02 0.  1.
        2   -1    0    0  501    0  0.00000000000E+00  0.00000000000E+00 -0.16994497863E+04  0.16994497863E+04  0.25500000920E-02 0. -1.
    10030    2    1    2    0    0  0.00000000000E+00  0.00000000000E+00 -0.46480300493E+03  0.29340965676E+04  0.28970469162E+04 0.  0.
        2    1    3    3  502    0 -0.13281480934E+04 -0.33508319583E+03 -0.70955519593E+03  0.15426362767E+04  0.25500000920E-02 0. -1.
       -2    1    3    3    0  502  0.13281480934E+04  0.33508319583E+03  0.24475219100E+03  0.13914602909E+04  0.25500000920E-02 0.  1.
</event>
<event>
 5   0  0.5352212E-06  0.2216590E+04  0.7818609E-02  0.8511555E-01
        1   -1    0    0  501    0  0.00000000000E+00  0.00000000000E+00  0.11925923881E+04  0.11925923882E+04  0.50400001928E-02 0. -1.
       -1   -1    0    0    0  501  0.00000000000E+00  0.00000000000E+00 -0.10299558551E+04  0.10299558551E+04  0.50400001928E-02 0.  1.
    10030    2    1    2    0    0  0.00000000000E+00  0.00000000000E+00  0.16263653302E+03  0.22225482433E+04  0.22165897347E+04 0.  0.
        2    1    3    3  502    0 -0.83515095312E+03  0.11191694977E+03 -0.64055800345E+03  0.10584503172E+04  0.25500000920E-02 0.  1.
       -2    1    3    3    0  502  0.83515095312E+03 -0.11191694977E+03  0.80319453647E+03  0.11640979261E+04  0.25500000920E-02 0. -1.
</event>
<event>
 5   0  0.1339837E-05  0.2895626E+04  0.7818609E-02  0.8274180E-01
        2   -1    0    0  501    0  0.00000000000E+00  0.00000000000E+00  0.14577692797E+04  0.14577692797E+04  0.25500000920E-02 0.  1.
       -2   -1    0    0    0  501  0.00000000000E+00  0.00000000000E+00 -0.14379245698E+04  0.14379245698E+04  0.25500000920E-02 0. -1.
    10030    2    1    2    0    0  0.00000000000E+00  0.00000000000E+00  0.19844709835E+02  0.28956938495E+04  0.28956258490E+04 0.  0.
        5    1    3    3  502    0  0.13926538019E+04 -0.32539779016E+03 -0.21540901311E+03  0.14463026884E+04  0.46999998093E+01 0. -1.
       -5    1    3    3    0  502 -0.13926538019E+04  0.32539779016E+03  0.23525372294E+03  0.14493911611E+04  0.46999998093E+01 0.  1.
</event>
<event>
 5   0  0.5002240E-06  0.2903736E+04  0.7818609E-02  0.8271767E-01
       -1   -1    0    0    0  501  0.00000000000E+00  0.00000000000E+00  0.19363051378E+04  0.19363051378E+04  0.50400001928E-02 0.  1.
        1   -1    0    0  501    0  0.00000000000E+00  0.00000000000E+00 -0.10886303401E+04  0.10886303402E+04  0.50400001928E-02 0. -1.
    10030    2    1    2    0    0  0.00000000000E+00  0.00000000000E+00  0.84767479765E+03  0.30249354780E+04  0.29037358839E+04 0.  0.
        4    1    3    3  502    0 -0.25667989298E+03  0.89657270001E+03 -0.73534813913E+03  0.11876302760E+04  0.12699999809E+01 0. -1.
       -4    1    3    3    0  502  0.25667989298E+03 -0.89657270001E+03  0.15830229368E+04  0.18373052020E+04  0.12699999809E+01 0.  1.
</event>
<event>
 5   0  0.5352212E-06  0.2976920E+04  0.7818609E-02  0.8250352E-01
        1   -1    0    0  501    0  0.00000000000E+00  0.00000000000E+00  0.22282093235E+04  0.22282093235E+04  0.50400001928E-02 0. -1.
       -1   -1    0    0    0  501  0.00000000000E+00  0.00000000000E+00 -0.99430213667E+03  0.99430213669E+03  0.50400001928E-02 0.  1.
    10030    2    1    2    0    0  0.00000000000E+00  0.00000000000E+00  0.12339071868E+04  0.32225114602E+04  0.29769200804E+04 0.  0.
        2    1    3    3  502    0  0.58521441951E+03 -0.12059531535E+04  0.13174182482E+04  0.18794652872E+04  0.25500000920E-02 0. -1.
       -2    1    3    3    0  502 -0.58521441951E+03  0.12059531535E+04 -0.83511061392E+02  0.13430461729E+04  0.25500000920E-02 0.  1.
</event>
<event>
 5   0  0.5059249E-06  0.2294730E+04  0.7818609E-02  0.8480002E-01
       -1   -1    0    0    0  501  0.00000000000E+00  0.00000000000E+00  0.56432690579E+03  0.56432690581E+03  0.50400001928E-02 0. -1.
        1   -1    0    0  501    0  0.00000000000E+00  0.00000000000E+00 -0.23327725756E+04  0.23327725756E+04  0.50400001928E-02 0.  1.
    10030    2    1    2    0    0  0.00000000000E+00  0.00000000000E+00 -0.17684456698E+04  0.28970994814E+04  0.22947299009E+04 0.  0.
        1    1    3    3  502    0 -0.11434923364E+04  0.86935270924E+02 -0.92998506392E+03  0.14764838922E+04  0.50400001928E-02 0. -1.
       -1    1    3    3    0  502  0.11434923364E+04 -0.86935270924E+02 -0.83846060587E+03  0.14206155892E+04  0.50400001928E-02 0.  1.
</event>
<event>
 5   0  0.1339837E-05  0.2686895E+04  0.7818609E-02  0.8339270E-01
       -2   -1    0    0    0  501  0.00000000000E+00  0.00000000000E+00  0.79909025807E+03  0.79909025808E+03  0.25500000920E-02 0. -1.
        2   -1    0    0  501    0  0.00000000000E+00  0.00000000000E+00 -0.22586323400E+04  0.22586323400E+04  0.25500000920E-02 0.  1.
    10030    2    1    2    0    0  0.00000000000E+00  0.00000000000E+00 -0.14595420819E+04  0.30577225981E+04  0.26868949362E+04 0.  0.
        5    1    3    3  502    0 -0.74065669030E+03  0.10664086656E+04 -0.11223926681E+04  0.17162712974E+04  0.46999998093E+01 0. -1.
       -5    1    3    3    0  502  0.74065669030E+03 -0.10664086656E+04 -0.33714941388E+03  0.13414513007E+04  0.46999998093E+01 0.  1.
</event>
<event>
 5   0  0.5261878E-06  0.2822805E+04  0.7818609E-02  0.8296223E-01
       -1   -1    0    0    0  501  0.00000000000E+00  0.00000000000E+00  0.10841316178E+04  0.10841316178E+04  0.50400001928E-02 0. -1.
        1   -1    0    0  501    0  0.00000000000E+00  0.00000000000E+00 -0.18374676373E+04  0.18374676373E+04  0.50400001928E-02 0.  1.
    10030    2    1    2    0    0  0.00000000000E+00  0.00000000000E+00 -0.75333601956E+03  0.29215992551E+04  0.28228048195E+04 0.  0.
        5    1    3    3  502    0  0.25578291858E+02  0.79897425405E+03  0.82723636782E+03  0.11503722032E+04  0.46999998093E+01 0. -1.
       -5    1    3    3    0  502 -0.25578291858E+02 -0.79897425405E+03 -0.15805723874E+04  0.17712270519E+04  0.46999998093E+01 0.  1.
</event>
<event>
 5   0  0.5154476E-06  0.2920423E+04  0.7818609E-02  0.8266827E-01
       -1   -1    0    0    0  501  0.00000000000E+00  0.00000000000E+00  0.11525327382E+04  0.11525327382E+04  0.50400001928E-02 0. -1.
        1   -1    0    0  501    0  0.00000000000E+00  0.00000000000E+00 -0.18500279894E+04  0.18500279894E+04  0.50400001928E-02 0.  1.
    10030    2    1    2    0    0  0.00000000000E+00  0.00000000000E+00 -0.69749525117E+03  0.30025607277E+04  0.29204231368E+04 0.  0.
        3    1    3    3  502    0  0.61021408261E+03  0.93583673031E+03  0.61794501712E+03  0.12767175360E+04  0.10100000352E+00 0. -1.
       -3    1    3    3    0  502 -0.61021408261E+03 -0.93583673031E+03 -0.13154402683E+04  0.17258431916E+04  0.10100000352E+00 0.  1.
</event>
<event>
 5   0  0.1336899E-05  0.2924218E+04  0.7818609E-02  0.8265708E-01
        2   -1    0    0  501    0  0.00000000000E+00  0.00000000000E+00  0.12885344212E+04  0.12885344212E+04  0.25500000920E-02 0.  1.
       -2   -1    0    0    0  501  0.00000000000E+00  0.00000000000E+00 -0.16590654186E+04  0.16590654186E+04  0.25500000920E-02 0. -1.
    10030    2    1    2    0    0  0.00000000000E+00  0.00000000000E+00 -0.37053099740E+03  0.29475998398E+04  0.29242181169E+04 0.  0.
        1    1    3    3  502    0 -0.58634175958E+03  0.80538613950E+03  0.89348763544E+03  0.13381941740E+04  0.50400001928E-02 0.  1.
       -1    1    3    3    0  502  0.58634175958E+03 -0.80538613950E+03 -0.12640186328E+04  0.16094056657E+04  0.50400001928E-02 0. -1.
</event>
<event>
 5   0  0.5059249E-06  0.2863877E+04  0.7818609E-02  0.8283707E-01
       -1   -1    0    0    0  501  0.00000000000E+00  0.00000000000E+00  0.98404183183E+03  0.98404183185E+03  0.50400001928E-02 0.  1.
        1   -1    0    0  501    0  0.00000000000E+00  0.00000000000E+00 -0.20836992860E+04  0.20836992860E+04  0.50400001928E-02 0. -1.
    10030    2    1    2    0    0  0.00000000000E+00  0.00000000000E+00 -0.10996574542E+04  0.30677411179E+04  0.28638765773E+04 0.  0.
        1    1    3    3  502    0  0.17860825226E+03  0.10811175098E+04 -0.15372562171E+04  0.18878221990E+04  0.50400001928E-02 0. -1.
       -1    1    3    3    0  502 -0.17860825226E+03 -0.10811175098E+04  0.43759876292E+03  0.11799189189E+04  0.50400001928E-02 0.  1.
</event>
<event>
 5   0  0.1385669E-05  0.2880141E+04  0.7818609E-02  0.8278811E-01
       -2   -1    0    0    0  501  0.00000000000E+00  0.00000000000E+00  0.10277311447E+04  0.10277311447E+04  0.25500000920E-02 0. -1.
        2   -1    0    0  501    0  0.00000000000E+00  0.00000000000E+00 -0.20178462638E+04  0.20178462638E+04  0.25500000920E-02 0.  1.
    10030    2    1    2    0    0  0.00000000000E+00  0.00000000000E+00 -0.99011511908E+03  0.30455774086E+04  0.28801412817E+04 0.  0.
        3    1    3    3  502    0  0.78250227511E+03 -0.69301721104E+02  0.78120360440E+03  0.11078770784E+04  0.10100000352E+00 0. -1.
       -3    1    3    3    0  502 -0.78250227511E+03  0.69301721104E+02 -0.17713187235E+04  0.19377003302E+04  0.10100000352E+00 0.  1.
</event>
<event>
 5   0  0.5059249E-06  0.2869549E+04  0.7818609E-02  0.8281996E-01
       -1   -1    0    0    0  501  0.00000000000E+00  0.00000000000E+00  0.80032674219E+03  0.80032674221E+03  0.50400001928E-02 0.  1.
        1   -1    0    0  501    0  0.00000000000E+00  0.00000000000E+00 -0.25721714170E+04  0.25721714170E+04  0.50400001928E-02 0. -1.
    10030    2    1    2    0    0  0.00000000000E+00  0.00000000000E+00 -0.17718446748E+04  0.33724981592E+04  0.28695487942E+04 0.  0.
        1    1    3    3  502    0 -0.14138890808E+03 -0.13362440197E+04 -0.29472624753E+03  0.13756461989E+04  0.50400001928E-02 0. -1.
       -1    1    3    3    0  502  0.14138890808E+03  0.13362440197E+04 -0.14771184273E+04  0.19968519604E+04  0.50400001928E-02 0.  1.
</event>
<event>
 5   0  0.5002240E-06  0.2899606E+04  0.7818609E-02  0.8272995E-01
       -1   -1    0    0    0  501  0.00000000000E+00  0.00000000000E+00  0.16888690361E+04  0.16888690361E+04  0.50400001928E-02 0.  1.
        1   -1    0    0  501    0  0.00000000000E+00  0.00000000000E+00 -0.12445781155E+04  0.12445781156E+04  0.50400001928E-02 0. -1.
    10030    2    1    2    0    0  0.00000000000E+00  0.00000000000E+00  0.44429092056E+03  0.29334471517E+04  0.28996064853E+04 0.  0.
        4    1    3    3  502    0 -0.92148911096E+02  0.13179345125E+04 -0.38188640981E+03  0.13752387589E+04  0.12699999809E+01 0.  1.
       -4    1    3    3    0  502  0.92148911096E+02 -0.13179345125E+04  0.82617733037E+03  0.15582083927E+04  0.12699999809E+01 0. -1.
</event>
<event>
 5   0  0.1336899E-05  0.2889211E+04  0.7818609E-02  0.8276095E-01
       -2   -1    0    0    0  501  0.00000000000E+00  0.00000000000E+00  0.10955082936E+04  0.10955082936E+04  0.25500000920E-02 0.  1.
        2   -1    0    0  501    0  0.00000000000E+00  0.00000000000E+00 -0.19049474472E+04  0.19049474472E+04  0.25500000920E-02 0. -1.
    10030    2    1    2    0    0  0.00000000000E+00  0.00000000000E+00 -0.80943915360E+03  0.30004557407E+04  0.28892114683E+04 0.  0.
        1    1    3    3  502    0 -0.11753205640E+04 -0.40968302930E+03 -0.11662103265E+04  0.17056568056E+04  0.50400001928E-02 0. -1.
       -1    1    3    3    0  502  0.11753205640E+04  0.40968302930E+03  0.35677117290E+03  0.12947989352E+04  0.50400001928E-02 0.  1.
</event>
<event>
 5   0  0.5059249E-06  0.2878940E+04  0.7818609E-02  0.8279171E-01
       -1   -1    0    0    0  501  0.00000000000E+00  0.00000000000E+00  0.12800730351E+04  0.12800730351E+04  0.50400001928E-02 0.  1.
        1   -1    0    0  501    0  0.00000000000E+00  0.00000000000E+00 -0.16187153433E+04  0.16187153433E+04  0.50400001928E-02 0. -1.
    10030    2    1    2    0    0  0.00000000000E+00  0.00000000000E+00 -0.33864230818E+03  0.28987883784E+04  0.28789399872E+04 0.  0.
        1    1    3    3  502    0  0.39285422211E+03  0.40611899475E+03 -0.15023849151E+04  0.16051253879E+04  0.50400001928E-02 0. -1.
       -1    1    3    3    0  502 -0.39285422211E+03 -0.40611899475E+03  0.11637426069E+04  0.12936629905E+04  0.50400001928E-02 0.  1.
</event>
<event>
 5   0  0.5059249E-06  0.2042099E+04  0.7818609E-02  0.8587187E-01
        1   -1    0    0  501    0  0.00000000000E+00  0.00000000000E+00  0.96637602340E+03  0.96637602341E+03  0.50400001928E-02 0. -1.
       -1   -1    0    0    0  501  0.00000000000E+00  0.00000000000E+00 -0.10788158206E+04  0.10788158206E+04  0.50400001928E-02 0.  1.
    10030    2    1    2    0    0  0.00000000000E+00  0.00000000000E+00 -0.11243979719E+03  0.20451918440E+04  0.20420986682E+04 0.  0.
        1    1    3    3  502    0  0.28828262143E+03  0.80958154683E+03 -0.60842843511E+03  0.10529550377E+04  0.50400001928E-02 0.  1.
       -1    1    3    3    0  502 -0.28828262143E+03 -0.80958154683E+03  0.49598863791E+03  0.99223680629E+03  0.50400001928E-02 0. -1.
</event>
<event>
 5   0  0.1385669E-05  0.2884330E+04  0.7818609E-02  0.8277555E-01
       -2   -1    0    0    0  501  0.00000000000E+00  0.00000000000E+00  0.12689921153E+04  0.12689921153E+04  0.25500000920E-02 0. -1.
        2   -1    0    0  501    0  0.00000000000E+00  0.00000000000E+00 -0.16389694086E+04  0.16389694086E+04  0.25500000920E-02 0.  1.
    10030    2    1    2    0    0  0.00000000000E+00  0.00000000000E+00 -0.36997729330E+03  0.29079615239E+04  0.28843295628E+04 0.  0.
        3    1    3    3  502    0  0.17260270597E+03  0.90879111299E+03  0.93048786704E+03  0.13120597022E+04  0.10100000352E+00 0. -1.
       -3    1    3    3    0  502 -0.17260270597E+03 -0.90879111299E+03 -0.13004651603E+04  0.15959018217E+04  0.10100000352E+00 0.  1.
</event>
<event>
 5   0  0.1339837E-05  0.2938466E+04  0.7818609E-02  0.8261524E-01
        2   -1    0    0  501    0  0.00000000000E+00  0.00000000000E+00  0.15580651312E+04  0.15580651312E+04  0.25500000920E-02 0.  1.
       -2   -1    0    0    0  501  0.00000000000E+00  0.00000000000E+00 -0.13854653284E+04  0.13854653284E+04  0.25500000920E-02 0. -1.
    10030    2    1    2    0    0  0.00000000000E+00  0.00000000000E+00  0.17259980274E+03  0.29435304596E+04  0.29384657348E+04 0.  0.
        5    1    3    3  502    0  0.11580030118E+04 -0.14479489191E+03 -0.80781155107E+03  0.14193372144E+04  0.46999998093E+01 0. -1.
       -5    1    3    3    0  502 -0.11580030118E+04  0.14479489191E+03  0.98041135381E+03  0.15241932452E+04  0.46999998093E+01 0.  1.
</event>
<event>
 5   0  0.1382803E-05  0.2864585E+04  0.7818609E-02  0.8283493E-01
       -2   -1    0    0    0  501  0.00000000000E+00  0.00000000000E+00  0.10043501569E+04  0.10043501569E+04  0.25500000920E-02 0.  1.
        2   -1    0    0  501    0  0.00000000000E+00  0.00000000000E+00 -0.20425765234E+04  0.20425765234E+04  0.25500000920E-02 0. -1.
    10030    2    1    2    0    0  0.00000000000E+00  0.00000000000E+00 -0.10382263666E+04  0.30469266803E+04  0.28645851719E+04 0.  0.
        2    1    3    3  502    0 -0.11230755215E+04 -0.74387715196E+03 -0.15057872099E+01  0.13470909812E+04  0.25500000920E-02 0.  1.
       -2    1    3    3    0  502  0.11230755215E+04  0.74387715196E+03 -0.10367205794E+04  0.16998356991E+04  0.25500000920E-02 0. -1.
</event>
<event>
 5   0  0.1382803E-05  0.2826494E+04  0.7818609E-02  0.8295090E-01
        2   -1    0    0  501    0  0.00000000000E+00  0.00000000000E+00  0.15490303834E+04  0.15490303834E+04  0.25500000920E-02 0.  1.
       -2   -1    0    0    0  501  0.00000000000E+00  0.00000000000E+00 -0.12893657807E+04  0.12893657807E+04  0.25500000920E-02 0. -1.
    10030    2    1    2    0    0  0.00000000000E+00  0.00000000000E+00  0.25966460273E+03  0.28383961641E+04  0.28264937783E+04 0.  0.
        2    1    3    3  502    0 -0.66165689501E+03 -0.71294211529E+03  0.11594255438E+04  0.15133882179E+04  0.25500000920E-02 0.  1.
       -2    1    3    3    0  502  0.66165689501E+03  0.71294211529E+03 -0.89976094106E+03  0.13250079462E+04  0.25500000920E-02 0. -1.
</event>
<event>
 5   0  0.1385669E-05  0.2847791E+04  0.7818609E-02  0.8288583E-01
       -2   -1    0    0    0  501  0.00000000000E+00  0.00000000000E+00  0.10607293760E+04  0.10607293760E+04  0.25500000920E-02 0. -1.
        2   -1    0    0  501    0  0.00000000000E+00  0.00000000000E+00 -0.19114001667E+04  0.19114001667E+04  0.25500000920E-02 0.  1.
    10030    2    1    2    0    0  0.00000000000E+00  0.00000000000E+00 -0.85067079072E+03  0.29721295428E+04  0.28477909377E+04 0.  0.
        3    1    3    3  502    0  0.12523492889E+03  0.43098598986E+02  0.10542868617E+04  0.10625733262E+04  0.10100000352E+00 0. -1.
       -3    1    3    3    0  502 -0.12523492889E+03 -0.43098598986E+02 -0.19049576524E+04  0.19095562166E+04  0.10100000352E+00 0.  1.
</event>
<event>
 5   0  0.5352212E-06  0.2896147E+04  0.7818609E-02  0.8274025E-01
       -1   -1    0    0    0  501  0.00000000000E+00  0.00000000000E+00  0.15806819572E+04  0.15806819572E+04  0.50400001928E-02 0.  1.
        1   -1    0    0  501    0  0.00000000000E+00  0.00000000000E+00 -0.13265898359E+04  0.13265898359E+04  0.50400001928E-02 0. -1.
    10030    2    1    2    0    0  0.00000000000E+00  0.00000000000E+00  0.25409212129E+03  0.29072717931E+04  0.28961468321E+04 0.  0.
        2    1    3    3  502    0  0.81934151536E+02  0.36614914694E+03  0.15310386874E+04  0.15763431940E+04  0.25500000920E-02 0.  1.
       -2    1    3    3    0  502 -0.81934151536E+02 -0.36614914694E+03 -0.12769465661E+04  0.13309285991E+04  0.25500000920E-02 0. -1.
</event>
<event>
 5   0  0.1336899E-05  0.2924773E+04  0.7818609E-02  0.8265545E-01
       -2   -1    0    0    0  501  0.00000000000E+00  0.00000000000E+00  0.13069842523E+04  0.13069842523E+04  0.25500000920E-02 0. -1.
        2   -1    0    0  501    0  0.00000000000E+00  0.00000000000E+00 -0.16362660916E+04  0.16362660917E+04  0.25500000920E-02 0.  1.
    10030    2    1    2    0    0  0.00000000000E+00  0.00000000000E+00 -0.32928183933E+03  0.29432503440E+04  0.29247728215E+04 0.  0.
        1    1    3    3  502    0  0.28756922230E+03  0.13911248045E+04 -0.51418202204E+03  0.15107307606E+04  0.50400001928E-02 0.  1.
       -1    1    3    3    0  502 -0.28756922230E+03 -0.13911248045E+04  0.18490018271E+03  0.14325195834E+04  0.50400001928E-02 0. -1.
</event>
<event>
 5   0  0.5059249E-06  0.2902262E+04  0.7818609E-02  0.8272205E-01
       -1   -1    0    0    0  501  0.00000000000E+00  0.00000000000E+00  0.16207353839E+04  0.16207353839E+04  0.50400001928E-02 0.  1.
        1   -1    0    0  501    0  0.00000000000E+00  0.00000000000E+00 -0.12992752404E+04  0.12992752404E+04  0.50400001928E-02 0. -1.
    10030    2    1    2    0    0  0.00000000000E+00  0.00000000000E+00  0.32146014356E+03  0.29200106243E+04  0.29022621215E+04 0.  0.
        1    1    3    3  502    0  0.25083406018E+03  0.14232003410E+04  0.28150098236E+02  0.14454097566E+04  0.50400001928E-02 0.  1.
       -1    1    3    3    0  502 -0.25083406018E+03 -0.14232003410E+04  0.29331004533E+03  0.14746008677E+04  0.50400001928E-02 0. -1.
</event>
<event>
 5   0  0.5154476E-06  0.2898359E+04  0.7818609E-02  0.8273366E-01
       -1   -1    0    0    0  501  0.00000000000E+00  0.00000000000E+00  0.89273163452E+03  0.89273163453E+03  0.50400001928E-02 0.  1.
        1   -1    0    0  501    0  0.00000000000E+00  0.00000000000E+00 -0.23524667842E+04  0.23524667842E+04  0.50400001928E-02 0. -1.
    10030    2    1    2    0    0  0.00000000000E+00  0.00000000000E+00 -0.14597351497E+04  0.32451984188E+04  0.28983592031E+04 0.  0.
        3    1    3    3  502    0 -0.82704953409E+03 -0.53364693951E+03 -0.19207914206E+04  0.21582932330E+04  0.10100000352E+00 0. -1.
       -3    1    3    3    0  502  0.82704953409E+03  0.53364693951E+03  0.46105627085E+03  0.10869051858E+04  0.10100000352E+00 0.  1.
</event>
<event>
 5   0  0.5002240E-06  0.2768881E+04  0.7818609E-02  0.8312995E-01
       -1   -1    0    0    0  501  0.00000000000E+00  0.00000000000E+00  0.14245637723E+04  0.14245637723E+04  0.50400001928E-02 0.  1.
        1   -1    0    0  501    0  0.00000000000E+00  0.00000000000E+00 -0.13454475747E+04  0.13454475747E+04  0.50400001928E-02 0. -1.
    10030    2    1    2    0    0  0.00000000000E+00  0.00000000000E+00  0.79116197586E+02  0.27700113471E+04  0.27688812705E+04 0.  0.
        4    1    3    3  502    0 -0.43666955017E+03  0.53476023263E+03 -0.11609422743E+04  0.13507173574E+04  0.12699999809E+01 0. -1.
       -4    1    3    3    0  502  0.43666955017E+03 -0.53476023263E+03  0.12400584719E+04  0.14192939897E+04  0.12699999809E+01 0.  1.
</event>
<event>
 5   0  0.1307832E-05  0.2748412E+04  0.7818609E-02  0.8319466E-01
       -2   -1    0    0    0  501  0.00000000000E+00  0.00000000000E+00  0.13538712276E+04  0.13538712276E+04  0.25500000920E-02 0. -1.
        2   -1    0    0  501    0  0.00000000000E+00  0.00000000000E+00 -0.13948466012E+04  0.13948466012E+04  0.25500000920E-02 0.  1.
    10030    2    1    2    0    0  0.00000000000E+00  0.00000000000E+00 -0.40975373540E+02  0.27487178288E+04  0.27484124001E+04 0.  0.
        4    1    3    3  502    0  0.92196529337E+03  0.39810266470E+03  0.91766524178E+03  0.13603737879E+04  0.12699999809E+01 0. -1.
       -4    1    3    3    0  502 -0.92196529337E+03 -0.39810266470E+03 -0.95864061532E+03  0.13883440410E+04  0.12699999809E+01 0.  1.
</event>
<event>
 5   0  0.5154476E-06  0.2941120E+04  0.7818609E-02  0.8260747E-01
       -1   -1    0    0    0  501  0.00000000000E+00  0.00000000000E+00  0.16165220137E+04  0.16165220138E+04  0.50400001928E-02 0.  1.
        1   -1    0    0  501    0  0.00000000000E+00  0.00000000000E+00 -0.13377775361E+04  0.13377775361E+04  0.50400001928E-02 0. -1.
    10030    2    1    2    0    0  0.00000000000E+00  0.00000000000E+00  0.27874447767E+03  0.29542995498E+04  0.29411200836E+04 0.  0.
        3    1    3    3  502    0  0.47480509828E+02 -0.61205126746E+02 -0.13357267690E+04  0.13379710303E+04  0.10100000352E+00 0. -1.
       -3    1    3    3    0  502 -0.47480509828E+02  0.61205126746E+02  0.16144712467E+04  0.16163285195E+04  0.10100000352E+00 0.  1.
</event>
<event>
 5   0  0.1339837E-05  0.2877287E+04  0.7818609E-02  0.8279667E-01
        2   -1    0    0  501    0  0.00000000000E+00  0.00000000000E+00  0.13519097475E+04  0.13519097475E+04  0.25500000920E-02 0.  1.
       -2   -1    0    0    0  501  0.00000000000E+00  0.00000000000E+00 -0.15309421614E+04  0.15309421614E+04  0.25500000920E-02 0. -1.
    10030    2    1    2    0    0  0.00000000000E+00  0.00000000000E+00 -0.17903241389E+03  0.28828519089E+04  0.28772873550E+04 0.  0.
        5    1    3    3  502    0  0.10748506509E+03 -0.57816841927E+03 -0.14050069536E+04  0.15231212656E+04  0.46999998093E+01 0. -1.
       -5    1    3    3    0  502 -0.10748506509E+03  0.57816841927E+03  0.12259745397E+04  0.13597306433E+04  0.46999998093E+01 0.  1.
</event>
<event>
 5   0  0.5154476E-06  0.2363710E+04  0.7818609E-02  0.8453216E-01
       -1   -1    0    0    0  501  0.00000000000E+00  0.00000000000E+00  0.93905088344E+03  0.93905088345E+03  0.50400001928E-02 0.  1.
        1   -1    0    0  501    0  0.00000000000E+00  0.00000000000E+00 -0.14874399054E+04  0.14874399054E+04  0.50400001928E-02 0. -1.
    10030    2    1    2    0    0  0.00000000000E+00  0.00000000000E+00 -0.54838902192E+03  0.24264907888E+04  0.23637104368E+04 0.  0.
        3    1    3    3  502    0 -0.14864487566E+03  0.84432802364E+03  0.56092119597E+03  0.10245085206E+04  0.10100000352E+00 0.  1.
       -3    1    3    3    0  502  0.14864487566E+03 -0.84432802364E+03 -0.11093102179E+04  0.14019822682E+04  0.10100000352E+00 0. -1.
</event>
<event>
 5   0  0.1336899E-05  0.2878274E+04  0.7818609E-02  0.8279371E-01
        2   -1    0    0  501    0  0.00000000000E+00  0.00000000000E+00  0.23404875319E+04  0.23404875319E+04  0.25500000920E-02 0. -1.
       -2   -1    0    0    0  501  0.00000000000E+00  0.00000000000E+00 -0.88490750413E+03  0.88490750413E+03  0.25500000920E-02 0.  1.
    10030    2    1    2    0    0  0.00000000000E+00  0.00000000000E+00  0.14555800277E+04  0.32253950360E+04  0.28782737745E+04 0.  0.
        1    1    3    3  502    0  0.12270938623E+04 -0.13222039214E+03 -0.10166134084E+03  0.12383766015E+04  0.50400001928E-02 0.  1.
       -1    1    3    3    0  502 -0.12270938623E+04  0.13222039214E+03  0.15572413686E+04  0.19870184345E+04  0.50400001928E-02 0. -1.
</event>
<event>
 5   0  0.5154476E-06  0.2135444E+04  0.7818609E-02  0.8545789E-01
        1   -1    0    0  501    0  0.00000000000E+00  0.00000000000E+00  0.14733971872E+04  0.14733971872E+04  0.50400001928E-02 0. -1.
       -1   -1    0    0    0  501  0.00000000000E+00  0.00000000000E+00 -0.77374239094E+03  0.77374239096E+03  0.50400001928E-02 0.  1.
    10030    2    1    2    0    0  0.00000000000E+00  0.00000000000E+00  0.69965479624E+03  0.22471395781E+04  0.21354436190E+04 0.  0.
        3    1    3    3  502    0  0.54935165024E+03  0.37192457847E+02  0.13124768605E+04  0.14232940786E+04  0.10100000352E+00 0. -1.
       -3    1    3    3    0  502 -0.54935165024E+03 -0.37192457847E+02 -0.61282206426E+03  0.82384549958E+03  0.10100000352E+00 0.  1.
</event>
<event>
 5   0  0.1339837E-05  0.2925398E+04  0.7818609E-02  0.8265361E-01
        2   -1    0    0  501    0  0.00000000000E+00  0.00000000000E+00  0.13318838800E+04  0.13318838800E+04  0.25500000920E-02 0.  1.
       -2   -1    0    0    0  501  0.00000000000E+00  0.00000000000E+00 -0.16063627262E+04  0.16063627262E+04  0.25500000920E-02 0. -1.
    10030    2    1    2    0    0  0.00000000000E+00  0.00000000000E+00 -0.27447884615E+03  0.29382466062E+04  0.29253981749E+04 0.  0.
        5    1    3    3  502    0  0.38880571649E+03 -0.11901389713E+04 -0.89677889381E+03  0.15400763392E+04  0.46999998093E+01 0. -1.
       -5    1    3    3    0  502 -0.38880571649E+03  0.11901389713E+04  0.62230004766E+03  0.13981702670E+04  0.46999998093E+01 0.  1.
</event>
<event>
 5   0  0.1385669E-05  0.2819978E+04  0.7818609E-02  0.8297093E-01
        2   -1    0    0  501    0  0.00000000000E+00  0.00000000000E+00  0.26873868183E+04  0.26873868183E+04  0.25500000920E-02 0. -1.
       -2   -1    0    0    0  501  0.00000000000E+00  0.00000000000E+00 -0.73977754031E+03  0.73977754031E+03  0.25500000920E-02 0.  1.
    10030    2    1    2    0    0  0.00000000000E+00  0.00000000000E+00  0.19476092780E+04  0.34271643586E+04  0.28199775959E+04 0.  0.
        3    1    3    3  502    0 -0.92159881523E+03  0.56412771340E+03  0.20746449361E+04  0.23391742291E+04  0.10100000352E+00 0. -1.
       -3    1    3    3    0  502  0.92159881523E+03 -0.56412771340E+03 -0.12703565807E+03  0.10879901295E+04  0.10100000352E+00 0.  1.
</event>
<event>
 5   0  0.1385669E-05  0.2591545E+04  0.7818609E-02  0.8371079E-01
       -2   -1    0    0    0  501  0.00000000000E+00  0.00000000000E+00  0.81722318020E+03  0.81722318020E+03  0.25500000920E-02 0. -1.
        2   -1    0    0  501    0  0.00000000000E+00  0.00000000000E+00 -0.20545504216E+04  0.20545504216E+04  0.25500000920E-02 0.  1.
    10030    2    1    2    0    0  0.00000000000E+00  0.00000000000E+00 -0.12373272414E+04  0.28717736018E+04  0.25915448902E+04 0.  0.
        3    1    3    3  502    0 -0.14363110347E+02 -0.86202561607E+03 -0.16905954027E+04  0.18977374126E+04  0.10100000352E+00 0.  1.
       -3    1    3    3    0  502  0.14363110347E+02  0.86202561607E+03  0.45326816121E+03  0.97403618920E+03  0.10100000352E+00 0. -1.
</event>
<event>
 5   0  0.5002240E-06  0.2919149E+04  0.7818609E-02  0.8267203E-01
        1   -1    0    0  501    0  0.00000000000E+00  0.00000000000E+00  0.23057053884E+04  0.23057053884E+04  0.50400001928E-02 0.  1.
       -1   -1    0    0    0  501  0.00000000000E+00  0.00000000000E+00 -0.92395033781E+03  0.92395033782E+03  0.50400001928E-02 0. -1.
    10030    2    1    2    0    0  0.00000000000E+00  0.00000000000E+00  0.13817550506E+04  0.32296557262E+04  0.29191486927E+04 0.  0.
        4    1    3    3  502    0 -0.47467745830E+03  0.98030296177E+03  0.17658464699E+04  0.20747356348E+04  0.12699999809E+01 0.  1.
       -4    1    3    3    0  502  0.47467745830E+03 -0.98030296177E+03 -0.38409141929E+03  0.11549200914E+04  0.12699999809E+01 0. -1.
</event>
<event>
 5   0  0.5002240E-06  0.2946427E+04  0.7818609E-02  0.8259196E-01
       -1   -1    0    0    0  501  0.00000000000E+00  0.00000000000E+00  0.10950311484E+04  0.10950311484E+04  0.50400001928E-02 0. -1.
        1   -1    0    0  501    0  0.00000000000E+00  0.00000000000E+00 -0.19820061323E+04  0.19820061323E+04  0.50400001928E-02 0.  1.
    10030    2    1    2    0    0  0.00000000000E+00  0.00000000000E+00 -0.88697498394E+03  0.30770372807E+04  0.29464272950E+04 0.  0.
        4    1    3    3  502    0 -0.82842810300E+03  0.23217897197E+03 -0.16923908480E+04  0.18985227395E+04  0.12699999809E+01 0.  1.
       -4    1    3    3    0  502  0.82842810300E+03 -0.23217897197E+03  0.80541586408E+03  0.11785145412E+04  0.12699999809E+01 0. -1.
</event>
<event>
 5   0  0.5059249E-06  0.2128027E+04  0.7818609E-02  0.8548997E-01
       -1   -1    0    0    0  501  0.00000000000E+00  0.00000000000E+00  0.69295197371E+03  0.69295197373E+03  0.50400001928E-02 0.  1.
        1   -1    0    0  501    0  0.00000000000E+00  0.00000000000E+00 -0.16337711104E+04  0.16337711104E+04  0.50400001928E-02 0. -1.
    10030    2    1    2    0    0  0.00000000000E+00  0.00000000000E+00 -0.94081913667E+03  0.23267230841E+04  0.21280271761E+04 0.  0.
        1    1    3    3  502    0 -0.62039648899E+03 -0.39973824245E+03  0.36760234337E+03  0.82450830736E+03  0.50400001928E-02 0.  1.
       -1    1    3    3    0  502  0.62039648899E+03  0.39973824245E+03 -0.13084214800E+04  0.15022147767E+04  0.50400001928E-02 0. -1.
</event>
<event>
 5   0  0.5261878E-06  0.2894917E+04  0.7818609E-02  0.8274391E-01
        1   -1    0    0  501    0  0.00000000000E+00  0.00000000000E+00  0.19994175173E+04  0.19994175173E+04  0.50400001928E-02 0.  1.
       -1   -1    0    0    0  501  0.00000000000E+00  0.00000000000E+00 -0.10478733537E+04  0.10478733537E+04  0.50400001928E-02 0. -1.
    10030    2    1    2    0    0  0.00000000000E+00  0.00000000000E+00  0.95154416363E+03  0.30472908710E+04  0.28949171589E+04 0.  0.
        5    1    3    3  502    0  0.11704447815E+03 -0.10840055055E+04  0.14779042378E+04  0.18365702742E+04  0.46999998093E+01 0.  1.
       -5    1    3    3    0  502 -0.11704447815E+03  0.10840055055E+04 -0.52636007415E+03  0.12107205968E+04  0.46999998093E+01 0. -1.
</event>
<event>
 5   0  0.5154476E-06  0.2845425E+04  0.7818609E-02  0.8289303E-01
        1   -1    0    0  501    0  0.00000000000E+00  0.00000000000E+00  0.15088269782E+04  0.15088269782E+04  0.50400001928E-02 0. -1.
       -1   -1    0    0    0  501  0.00000000000E+00  0.00000000000E+00 -0.13415129427E+04  0.13415129427E+04  0.50400001928E-02 0.  1.
    10030    2    1    2    0    0  0.00000000000E+00  0.00000000000E+00  0.16731403557E+03  0.28503399209E+04  0.28454250435E+04 0.  0.
        3    1    3    3  502    0 -0.73634517915E+03  0.73241515929E+03  0.10576918026E+04  0.14823454887E+04  0.10100000352E+00 0. -1.
       -3    1    3    3    0  502  0.73634517915E+03 -0.73241515929E+03 -0.89037776701E+03  0.13679944322E+04  0.10100000352E+00 0.  1.
</event>
<event>
 5   0  0.5002240E-06  0.2909959E+04  0.7818609E-02  0.8269921E-01
       -1   -1    0    0    0  501  0.00000000000E+00  0.00000000000E+00  0.10586025385E+04  0.10586025385E+04  0.50400001928E-02 0.  1.
        1   -1    0    0  501    0  0.00000000000E+00  0.00000000000E+00 -0.19997729522E+04  0.19997729522E+04  0.50400001928E-02 0. -1.
    10030    2    1    2    0    0  0.00000000000E+00  0.00000000000E+00 -0.94117041371E+03  0.30583754907E+04  0.29099585726E+04 0.  0.
        4    1    3    3  502    0 -0.50961849520E+03  0.11818183218E+04 -0.11838420606E+04  0.17486821306E+04  0.12699999809E+01 0. -1.
       -4    1    3    3    0  502  0.50961849520E+03 -0.11818183218E+04  0.24267164686E+03  0.13096933601E+04  0.12699999809E+01 0.  1.
</event>
<event>
 5   0  0.5352212E-06  0.3046183E+04  0.7818609E-02  0.8230665E-01
       -1   -1    0    0    0  501  0.00000000000E+00  0.00000000000E+00  0.87800675151E+03  0.87800675152E+03  0.50400001928E-02 0. -1.
        1   -1    0    0  501    0  0.00000000000E+00  0.00000000000E+00 -0.26421290746E+04  0.26421290747E+04  0.50400001928E-02 0.  1.
    10030    2    1    2    0    0  0.00000000000E+00  0.00000000000E+00 -0.17641223231E+04  0.35201358262E+04  0.30461826379E+04 0.  0.
        2    1    3    3  502    0  0.12629543631E+04 -0.52379060941E+03 -0.10652661177E+03  0.13714073956E+04  0.25500000920E-02 0. -1.
       -2    1    3    3    0  502 -0.12629543631E+04  0.52379060941E+03 -0.16575957114E+04  0.21487284305E+04  0.25500000920E-02 0.  1.
</event>
<event>
 5   0  0.1382803E-05  0.2906545E+04  0.7818609E-02  0.8270933E-01
       -2   -1    0    0    0  501  0.00000000000E+00  0.00000000000E+00  0.18335711102E+04  0.18335711102E+04  0.25500000920E-02 0.  1.
        2   -1    0    0  501    0  0.00000000000E+00  0.00000000000E+00 -0.11518510302E+04  0.11518510302E+04  0.25500000920E-02 0. -1.
    10030    2    1    2    0    0  0.00000000000E+00  0.00000000000E+00  0.68172008004E+03  0.29854221404E+04  0.29065448713E+04 0.  0.
        2    1    3    3  502    0  0.84859683570E+03 -0.16914681951E+03 -0.85841893347E+03  0.12188561447E+04  0.25500000920E-02 0. -1.
       -2    1    3    3    0  502 -0.84859683570E+03  0.16914681951E+03  0.15401390135E+04  0.17665659957E+04  0.25500000920E-02 0.  1.
</event>
<event>
 5   0  0.5154476E-06  0.2877852E+04  0.7818609E-02  0.8279498E-01
       -1   -1    0    0    0  501  0.00000000000E+00  0.00000000000E+00  0.75103544715E+03  0.75103544716E+03  0.50400001928E-02 0. -1.
        1   -1    0    0  501    0  0.00000000000E+00  0.00000000000E+00 -0.27568711753E+04  0.27568711753E+04  0.50400001928E-02 0.  1.
    10030    2    1    2    0    0  0.00000000000E+00  0.00000000000E+00 -0.20058357282E+04  0.35079066225E+04  0.28778519600E+04 0.  0.
        3    1    3    3  502    0  0.80706271441E+03  0.52701726421E+03  0.29935057308E+03  0.10093107537E+04  0.10100000352E+00 0. -1.
       -3    1    3    3    0  502 -0.80706271441E+03 -0.52701726421E+03 -0.23051863013E+04  0.24985958688E+04  0.10100000352E+00 0.  1.
</event>
<event>
 5   0  0.5059249E-06  0.2867309E+04  0.7818609E-02  0.8282671E-01
        1   -1    0    0  501    0  0.00000000000E+00  0.00000000000E+00  0.12975070521E+04  0.12975070521E+04  0.50400001928E-02 0. -1.
       -1   -1    0    0    0  501  0.00000000000E+00  0.00000000000E+00 -0.15840880061E+04  0.15840880061E+04  0.50400001928E-02 0.  1.
    10030    2    1    2    0    0  0.00000000000E+00  0.00000000000E+00 -0.28658095408E+03  0.28815950582E+04  0.28673090933E+04 0.  0.
        1    1    3    3  502    0 -0.68068452334E+02  0.13288862375E+04  0.39302880153E+03  0.13874593995E+04  0.50400001928E-02 0. -1.
       -1    1    3    3    0  502  0.68068452334E+02 -0.13288862375E+04 -0.67960975561E+03  0.14941356587E+04  0.50400001928E-02 0.  1.
</event>
<event>
 5   0  0.1382803E-05  0.2865827E+04  0.7818609E-02  0.8283118E-01
       -2   -1    0    0    0  501  0.00000000000E+00  0.00000000000E+00  0.17020322300E+04  0.17020322300E+04  0.25500000920E-02 0.  1.
        2   -1    0    0  501    0  0.00000000000E+00  0.00000000000E+00 -0.12063470311E+04  0.12063470311E+04  0.25500000920E-02 0. -1.
    10030    2    1    2    0    0  0.00000000000E+00  0.00000000000E+00  0.49568519888E+03  0.29083792611E+04  0.28658272994E+04 0.  0.
        2    1    3    3  502    0  0.12479434980E+04  0.40792174134E+03  0.83036751026E+03  0.15534713783E+04  0.25500000920E-02 0. -1.
       -2    1    3    3    0  502 -0.12479434980E+04 -0.40792174134E+03 -0.33468231138E+03  0.13549078828E+04  0.25500000920E-02 0.  1.
</event>
<event>
 5   0  0.5352212E-06  0.2937497E+04  0.7818609E-02  0.8261808E-01
       -1   -1    0    0    0  501  0.00000000000E+00  0.00000000000E+00  0.12164192415E+04  0.12164192416E+04  0.50400001928E-02 0.  1.
        1   -1    0    0  501    0  0.00000000000E+00  0.00000000000E+00 -0.17734204319E+04  0.17734204319E+04  0.50400001928E-02 0. -1.
    10030    2    1    2    0    0  0.00000000000E+00  0.00000000000E+00 -0.55700119035E+03  0.29898396735E+04  0.29374973952E+04 0.  0.
        2    1    3    3  502    0 -0.13220772582E+04  0.63294913195E+03 -0.37349016184E+03  0.15126162043E+04  0.25500000920E-02 0.  1.
       -2    1    3    3    0  502  0.13220772582E+04 -0.63294913195E+03 -0.18351102850E+03  0.14772234692E+04  0.25500000920E-02 0. -1.
</event>
<event>
 5   0  0.5154476E-06  0.2983481E+04  0.7818609E-02  0.8248464E-01
       -1   -1    0    0    0  501  0.00000000000E+00  0.00000000000E+00  0.12691972834E+04  0.12691972834E+04  0.50400001928E-02 0. -1.
        1   -1    0    0  501    0  0.00000000000E+00  0.00000000000E+00 -0.17533042656E+04  0.17533042656E+04  0.50400001928E-02 0.  1.
    10030    2    1    2    0    0  0.00000000000E+00  0.00000000000E+00 -0.48410698221E+03  0.30225015490E+04  0.29834805251E+04 0.  0.
        3    1    3    3  502    0 -0.48417934463E+03 -0.99105070951E+03 -0.12595186995E+04  0.16742157899E+04  0.10100000352E+00 0. -1.
       -3    1    3    3    0  502  0.48417934463E+03  0.99105070951E+03  0.77541171730E+03  0.13482857591E+04  0.10100000352E+00 0.  1.
</event>
<event>
 5   0  0.1336899E-05  0.2809242E+04  0.7818609E-02  0.8300405E-01
       -2   -1    0    0    0  501  0.00000000000E+00  0.00000000000E+00  0.13549293317E+04  0.13549293317E+04  0.25500000920E-02 0.  1.
        2   -1    0    0  501    0  0.00000000000E+00  0.00000000000E+00 -0.14561349930E+04  0.14561349930E+04  0.25500000920E-02 0. -1.
    10030    2    1    2    0    0  0.00000000000E+00  0.00000000000E+00 -0.10120566136E+03  0.28110643247E+04  0.28092418998E+04 0.  0.
        1    1    3    3  502    0 -0.58833997551E+03 -0.99259593862E+03  0.75089705246E+03  0.13766760721E+04  0.50400001928E-02 0.  1.
       -1    1    3    3    0  502  0.58833997551E+03  0.99259593862E+03 -0.85210271382E+03  0.14343882526E+04  0.50400001928E-02 0. -1.
</event>
<event>
 5   0  0.1382803E-05  0.2856283E+04  0.7818609E-02  0.8286005E-01
        2   -1    0    0  501    0  0.00000000000E+00  0.00000000000E+00  0.24895703129E+04  0.24895703129E+04  0.25500000920E-02 0. -1.
       -2   -1    0    0    0  501  0.00000000000E+00  0.00000000000E+00 -0.81925286985E+03  0.81925286985E+03  0.25500000920E-02 0.  1.
    10030    2    1    2    0    0  0.00000000000E+00  0.00000000000E+00  0.16703174431E+04  0.33088231828E+04  0.28562826356E+04 0.  0.
        2    1    3    3  502    0 -0.30187839568E+02 -0.14266034071E+04  0.90348722112E+03  0.16889043033E+04  0.25500000920E-02 0. -1.
       -2    1    3    3    0  502  0.30187839568E+02  0.14266034071E+04  0.76683022194E+03  0.16199188795E+04  0.25500000920E-02 0.  1.
</event>
<event>
 5   0  0.1307832E-05  0.2863401E+04  0.7818609E-02  0.8283851E-01
       -2   -1    0    0    0  501  0.00000000000E+00  0.00000000000E+00  0.13664741327E+04  0.13664741327E+04  0.25500000920E-02 0.  1.
        2   -1    0    0  501    0  0.00000000000E+00  0.00000000000E+00 -0.15000404005E+04  0.15000404005E+04  0.25500000920E-02 0. -1.
    10030    2    1    2    0    0  0.00000000000E+00  0.00000000000E+00 -0.13356626783E+03  0.28665145332E+04  0.28634010583E+04 0.  0.
        4    1    3    3  502    0 -0.13751075592E+04 -0.11078492922E+03 -0.45004493537E+03  0.14511154870E+04  0.12699999809E+01 0. -1.
       -4    1    3    3    0  502  0.13751075592E+04  0.11078492922E+03  0.31647866754E+03  0.14153990461E+04  0.12699999809E+01 0.  1.
</event>
<event>
 5   0  0.1339837E-05  0.2978680E+04  0.7818609E-02  0.8249845E-01
       -2   -1    0    0    0  501  0.00000000000E+00  0.00000000000E+00  0.13093014856E+04  0.13093014856E+04  0.25500000920E-02 0. -1.
        2   -1    0    0  501    0  0.00000000000E+00  0.00000000000E+00 -0.16941354044E+04  0.16941354044E+04  0.25500000920E-02 0.  1.
    10030    2    1    2    0    0  0.00000000000E+00  0.00000000000E+00 -0.38483391887E+03  0.30034368900E+04  0.29786802459E+04 0.  0.
        5    1    3    3  502    0 -0.57443690232E+03 -0.79021567939E+03  0.94106724725E+03  0.13564837738E+04  0.46999998093E+01 0. -1.
       -5    1    3    3    0  502  0.57443690232E+03  0.79021567939E+03 -0.13259011661E+04  0.16469531162E+04  0.46999998093E+01 0.  1.
</event>
<event>
 5   0  0.1307832E-05  0.2938995E+04  0.7818609E-02  0.8261369E-01
       -2   -1    0    0    0  501  0.00000000000E+00  0.00000000000E+00  0.10818040382E+04  0.10818040382E+04  0.25500000920E-02 0. -1.
        2   -1    0    0  501    0  0.00000000000E+00  0.00000000000E+00 -0.19961316715E+04  0.19961316715E+04  0.25500000920E-02 0.  1.
    10030    2    1    2    0    0  0.00000000000E+00  0.00000000000E+00 -0.91432763330E+03  0.30779357097E+04  0.29389952725E+04 0.  0.
        4    1    3    3  502    0 -0.16570798126E+03 -0.32634436118E+02 -0.19859330773E+04  0.19931020902E+04  0.12699999809E+01 0.  1.
       -4    1    3    3    0  502  0.16570798126E+03  0.32634436118E+02  0.10716054440E+04  0.10848336195E+04  0.12699999809E+01 0. -1.
</event>
<event>
 5   0  0.1336899E-05  0.2934249E+04  0.7818609E-02  0.8262760E-01
        2   -1    0    0  501    0  0.00000000000E+00  0.00000000000E+00  0.13735522904E+04  0.13735522904E+04  0.25500000920E-02 0.  1.
       -2   -1    0    0    0  501  0.00000000000E+00  0.00000000000E+00 -0.15670709227E+04  0.15670709227E+04  0.25500000920E-02 0. -1.
    10030    2    1    2    0    0  0.00000000000E+00  0.00000000000E+00 -0.19351863232E+03  0.29406232131E+04  0.29342486978E+04 0.  0.
        1    1    3    3  502    0 -0.47691028148E+03 -0.13488698882E+04 -0.42236584466E+03  0.14917393535E+04  0.50400001928E-02 0.  1.
       -1    1    3    3    0  502  0.47691028148E+03  0.13488698882E+04  0.22884721233E+03  0.14488838596E+04  0.50400001928E-02 0. -1.
</event>
<event>
 5   0  0.5352212E-06  0.2906039E+04  0.7818609E-02  0.8271083E-01
        1   -1    0    0  501    0  0.00000000000E+00  0.00000000000E+00  0.17185123472E+04  0.17185123472E+04  0.50400001928E-02 0. -1.
       -1   -1    0    0    0  501  0.00000000000E+00  0.00000000000E+00 -0.12285426290E+04  0.12285426290E+04  0.50400001928E-02 0.  1.
    10030    2    1    2    0    0  0.00000000000E+00  0.00000000000E+00  0.48996971823E+03  0.29470549762E+04  0.29060390066E+04 0.  0.
        2    1    3    3  502    0  0.87303603181E+03  0.76267399742E+03 -0.64339417488E+03  0.13258278936E+04  0.25500000920E-02 0.  1.
       -2    1    3    3    0  502 -0.87303603181E+03 -0.76267399742E+03  0.11333638931E+04  0.16212270826E+04  0.25500000920E-02 0. -1.
</event>
<event>
 5   0  0.1382803E-05  0.2750122E+04  0.7818609E-02  0.8318923E-01
        2   -1    0    0  501    0  0.00000000000E+00  0.00000000000E+00  0.14914265062E+04  0.14914265062E+04  0.25500000920E-02 0. -1.
       -2   -1    0    0    0  501  0.00000000000E+00  0.00000000000E+00 -0.12677745153E+04  0.12677745153E+04  0.25500000920E-02 0.  1.
    10030    2    1    2    0    0  0.00000000000E+00  0.00000000000E+00  0.22365199090E+03  0.27592010214E+04  0.27501218271E+04 0.  0.
        2    1    3    3  502    0 -0.77634675915E+03 -0.91841360198E+03  0.78080662144E+03  0.14338259360E+04  0.25500000920E-02 0. -1.
       -2    1    3    3    0  502  0.77634675915E+03  0.91841360198E+03 -0.55715463054E+03  0.13253750854E+04  0.25500000920E-02 0.  1.
</event>
<event>
 5   0  0.1385669E-05  0.2916278E+04  0.7818609E-02  0.8268051E-01
       -2   -1    0    0    0  501  0.00000000000E+00  0.00000000000E+00  0.15307129883E+04  0.15307129883E+04  0.25500000920E-02 0. -1.
        2   -1    0    0  501    0  0.00000000000E+00  0.00000000000E+00 -0.13890057993E+04  0.13890057993E+04  0.25500000920E-02 0.  1.
    10030    2    1    2    0    0  0.00000000000E+00  0.00000000000E+00  0.14170718897E+03  0.29197187877E+04  0.29162779140E+04 0.  0.
        3    1    3    3  502    0  0.12507190035E+04 -0.30062009967E+03 -0.61661423960E+03  0.14264934633E+04  0.10100000352E+00 0.  1.
       -3    1    3    3    0  502 -0.12507190035E+04  0.30062009967E+03  0.75832142857E+03  0.14932253244E+04  0.10100000352E+00 0. -1.
</event>
<event>
 5   0  0.1339837E-05  0.2704275E+04  0.7818609E-02  0.8333619E-01
        2   -1    0    0  501    0  0.00000000000E+00  0.00000000000E+00  0.12930174309E+04  0.12930174309E+04  0.25500000920E-02 0.  1.
       -2   -1    0    0    0  501  0.00000000000E+00  0.00000000000E+00 -0.14139610591E+04  0.14139610591E+04  0.25500000920E-02 0. -1.
    10030    2    1    2    0    0  0.00000000000E+00  0.00000000000E+00 -0.12094362819E+03  0.27069784901E+04  0.27042753529E+04 0.  0.
        5    1    3    3  502    0  0.36131228806E+03 -0.11154498876E+04  0.61360994253E+03  0.13233723107E+04  0.46999998093E+01 0.  1.
       -5    1    3    3    0  502 -0.36131228806E+03  0.11154498876E+04 -0.73455357072E+03  0.13836061793E+04  0.46999998093E+01 0. -1.
</event>
<event>
 5   0  0.1336899E-05  0.2399649E+04  0.7818609E-02  0.8439635E-01
        2   -1    0    0  501    0  0.00000000000E+00  0.00000000000E+00  0.11720386630E+04  0.11720386630E+04  0.25500000920E-02 0. -1.
       -2   -1    0    0    0  501  0.00000000000E+00  0.00000000000E+00 -0.12282686458E+04  0.12282686458E+04  0.25500000920E-02 0.  1.
    10030    2    1    2    0    0  0.00000000000E+00  0.00000000000E+00 -0.56229982793E+02  0.24003073088E+04  0.23996485921E+04 0.  0.
        1    1    3    3  502    0 -0.69696475858E+02 -0.26517440147E+03  0.11402823959E+04  0.11727825904E+04  0.50400001928E-02 0. -1.
       -1    1    3    3    0  502  0.69696475858E+02  0.26517440147E+03 -0.11965123787E+04  0.12275247184E+04  0.50400001928E-02 0.  1.
</event>
<event>
 5   0  0.5059249E-06  0.2906825E+04  0.7818609E-02  0.8270850E-01
       -1   -1    0    0    0  501  0.00000000000E+00  0.00000000000E+00  0.10360513795E+04  0.10360513795E+04  0.50400001928E-02 0.  1.
        1   -1    0    0  501    0  0.00000000000E+00  0.00000000000E+00 -0.20389024382E+04  0.20389024382E+04  0.50400001928E-02 0. -1.
    10030    2    1    2    0    0  0.00000000000E+00  0.00000000000E+00 -0.10028510587E+04  0.30749538178E+04  0.29068248546E+04 0.  0.
        1    1    3    3  502    0  0.13588394020E+04 -0.22681475451E+03 -0.99137561243E+03  0.16972669378E+04  0.50400001928E-02 0. -1.
       -1    1    3    3    0  502 -0.13588394020E+04  0.22681475451E+03 -0.11475446294E+02  0.13776868800E+04  0.50400001928E-02 0.  1.
</event>
<event>
 5   0  0.1382803E-05  0.2945078E+04  0.7818609E-02  0.8259590E-01
       -2   -1    0    0    0  501  0.00000000000E+00  0.00000000000E+00  0.97500106574E+03  0.97500106575E+03  0.25500000920E-02 0. -1.
        2   -1    0    0  501    0  0.00000000000E+00  0.00000000000E+00 -0.22239686376E+04  0.22239686376E+04  0.25500000920E-02 0.  1.
    10030    2    1    2    0    0  0.00000000000E+00  0.00000000000E+00 -0.12489675719E+04  0.31989697034E+04  0.29450784654E+04 0.  0.
        2    1    3    3  502    0  0.14003797477E+04 -0.41537764733E+03 -0.42194223587E+03  0.15204069449E+04  0.25500000920E-02 0.  1.
       -2    1    3    3    0  502 -0.14003797477E+04  0.41537764733E+03 -0.82702533603E+03  0.16785627585E+04  0.25500000920E-02 0. -1.
</event>
<event>
 5   0  0.5154476E-06  0.2893942E+04  0.7818609E-02  0.8274682E-01
       -1   -1    0    0    0  501  0.00000000000E+00  0.00000000000E+00  0.24182530894E+04  0.24182530894E+04  0.50400001928E-02 0.  1.
        1   -1    0    0  501    0  0.00000000000E+00  0.00000000000E+00 -0.86580093419E+03  0.86580093421E+03  0.50400001928E-02 0. -1.
    10030    2    1    2    0    0  0.00000000000E+00  0.00000000000E+00  0.15524521552E+04  0.32840540236E+04  0.28939424900E+04 0.  0.
        3    1    3    3  502    0  0.14307901076E+04  0.74569713186E+02  0.10060195795E+04  0.17506559852E+04  0.10100000352E+00 0.  1.
       -3    1    3    3    0  502 -0.14307901076E+04 -0.74569713186E+02  0.54643257567E+03  0.15333980383E+04  0.10100000352E+00 0. -1.
</event>
<event>
 5   0  0.1339837E-05  0.2904044E+04  0.7818609E-02  0.8271675E-01
       -2   -1    0    0    0  501  0.00000000000E+00  0.00000000000E+00  0.88277977700E+03  0.88277977700E+03  0.25500000920E-02 0. -1.
        2   -1    0    0  501    0  0.00000000000E+00  0.00000000000E+00 -0.23883288995E+04  0.23883288995E+04  0.25500000920E-02 0.  1.
    10030    2    1    2    0    0  0.00000000000E+00  0.00000000000E+00 -0.15055491225E+04  0.32711086765E+04  0.29040443890E+04 0.  0.
        5    1    3    3  502    0 -0.30738064674E+03 -0.10949870139E+04  0.26402434872E+03  0.11675660022E+04  0.46999998093E+01 0. -1.
       -5    1    3    3    0  502  0.30738064674E+03  0.10949870139E+04 -0.17695734712E+04  0.21035426743E+04  0.46999998093E+01 0.  1.
</event>
<event>
 5   0  0.5002240E-06  0.2934795E+04  0.7818609E-02  0.8262600E-01
       -1   -1    0    0    0  501  0.00000000000E+00  0.00000000000E+00  0.11323464326E+04  0.11323464326E+04  0.50400001928E-02 0.  1.
        1   -1    0    0  501    0  0.00000000000E+00  0.00000000000E+00 -0.19015868423E+04  0.19015868423E+04  0.50400001928E-02 0. -1.
    10030    2    1    2    0    0  0.00000000000E+00  0.00000000000E+00 -0.76924040969E+03  0.30339332749E+04  0.29347947643E+04 0.  0.
        4    1    3    3  502    0  0.33276833127E+03 -0.13503163105E+04  0.99344240341E+02  0.13942595854E+04  0.12699999809E+01 0.  1.
       -4    1    3    3    0  502 -0.33276833127E+03  0.13503163105E+04 -0.86858465003E+03  0.16396736894E+04  0.12699999809E+01 0. -1.
</event>
<event>
 5   0  0.1307832E-05  0.2956004E+04  0.7818609E-02  0.8256407E-01
        2   -1    0    0  501    0  0.00000000000E+00  0.00000000000E+00  0.15796164958E+04  0.15796164958E+04  0.25500000920E-02 0.  1.
       -2   -1    0    0    0  501  0.00000000000E+00  0.00000000000E+00 -0.13829238422E+04  0.13829238422E+04  0.25500000920E-02 0. -1.
    10030    2    1    2    0    0  0.00000000000E+00  0.00000000000E+00  0.19669265363E+03  0.29625403380E+04  0.29560035951E+04 0.  0.
        4    1    3    3  502    0 -0.12052966862E+04  0.12781794865E+02  0.95556471900E+03  0.15381836760E+04  0.12699999809E+01 0.  1.
       -4    1    3    3    0  502  0.12052966862E+04 -0.12781794865E+02 -0.75887206536E+03  0.14243566620E+04  0.12699999809E+01 0. -1.
</event>
<event>
 5   0  0.5059249E-06  0.2926370E+04  0.7818609E-02  0.8265075E-01
        1   -1    0    0  501    0  0.00000000000E+00  0.00000000000E+00  0.13261745549E+04  0.13261745549E+04  0.50400001928E-02 0.  1.
       -1   -1    0    0    0  501  0.00000000000E+00  0.00000000000E+00 -0.16143499344E+04  0.16143499344E+04  0.50400001928E-02 0. -1.
    10030    2    1    2    0    0  0.00000000000E+00  0.00000000000E+00 -0.28817537951E+03  0.29405244893E+04  0.29263696319E+04 0.  0.
        1    1    3    3  502    0  0.27503173788E+03  0.63174458663E+03  0.11529564916E+04  0.13431501595E+04  0.50400001928E-02 0.  1.
       -1    1    3    3    0  502 -0.27503173788E+03 -0.63174458663E+03 -0.14411318711E+04  0.15973743298E+04  0.50400001928E-02 0. -1.
</event>
<event>
 5   0  0.1336899E-05  0.2903099E+04  0.7818609E-02  0.8271956E-01
       -2   -1    0    0    0  501  0.00000000000E+00  0.00000000000E+00  0.13834077751E+04  0.13834077751E+04  0.25500000920E-02 0. -1.
        2   -1    0    0  501    0  0.00000000000E+00  0.00000000000E+00 -0.15230473806E+04  0.15230473806E+04  0.25500000920E-02 0.  1.
    10030    2    1    2    0    0  0.00000000000E+00  0.00000000000E+00 -0.13963960550E+03  0.29064551556E+04  0.29030987500E+04 0.  0.
        1    1    3    3  502    0 -0.12223562579E+04  0.50183918949E+03  0.53170609893E+03  0.14243274796E+04  0.50400001928E-02 0. -1.
       -1    1    3    3    0  502  0.12223562579E+04 -0.50183918949E+03 -0.67134570443E+03  0.14821276761E+04  0.50400001928E-02 0.  1.
</event>
<event>
 5   0  0.5002240E-06  0.2452626E+04  0.7818609E-02  0.8420060E-01
       -1   -1    0    0    0  501  0.00000000000E+00  0.00000000000E+00  0.90647382070E+03  0.90647382071E+03  0.50400001928E-02 0.  1.
        1   -1    0    0  501    0  0.00000000000E+00  0.00000000000E+00 -0.16590038737E+04  0.16590038737E+04  0.50400001928E-02 0. -1.
    10030    2    1    2    0    0  0.00000000000E+00  0.00000000000E+00 -0.75253005299E+03  0.25654776944E+04  0.24526260049E+04 0.  0.
        4    1    3    3  502    0 -0.44230888292E+03 -0.10506833459E+04 -0.84902259688E+03  0.14214125454E+04  0.12699999809E+01 0. -1.
       -4    1    3    3    0  502  0.44230888292E+03  0.10506833459E+04  0.96492543885E+02  0.11440651490E+04  0.12699999809E+01 0.  1.
</event>
<event>
 5   0  0.4590125E-06  0.2905655E+04  0.7818609E-02  0.8271197E-01
        3   -1    0    0  501    0  0.00000000000E+00  0.00000000000E+00  0.19296065038E+04  0.19296065065E+04  0.10100000352E+00 0.  1.
       -3   -1    0    0    0  501  0.00000000000E+00  0.00000000000E+00 -0.10938541130E+04  0.10938541177E+04  0.10100000352E+00 0. -1.
    10030    2    1    2    0    0  0.00000000000E+00  0.00000000000E+00  0.83575239082E+03  0.30234606241E+04  0.29056551906E+04 0.  0.
        1    1    3    3  502    0 -0.99704151882E+02 -0.90784835450E+03 -0.75778991265E+03  0.11867498070E+04  0.50400001928E-02 0. -1.
       -1    1    3    3    0  502  0.99704151882E+02  0.90784835450E+03  0.15935423035E+04  0.18367108171E+04  0.50400001928E-02 0.  1.
</event>
<event>
 5   0  0.1385669E-05  0.2890413E+04  0.7818609E-02  0.8275736E-01
       -2   -1    0    0    0  501  0.00000000000E+00  0.00000000000E+00  0.20992947813E+04  0.20992947813E+04  0.25500000920E-02 0. -1.
        2   -1    0    0  501    0  0.00000000000E+00  0.00000000000E+00 -0.99491615518E+03  0.99491615519E+03  0.25500000920E-02 0.  1.
    10030    2    1    2    0    0  0.00000000000E+00  0.00000000000E+00  0.11043786262E+04  0.30942109365E+04  0.28904133216E+04 0.  0.
        3    1    3    3  502    0  0.41644832723E+03  0.12232379793E+04  0.12450338132E+04  0.17943939282E+04  0.10100000352E+00 0. -1.
       -3    1    3    3    0  502 -0.41644832723E+03 -0.12232379793E+04 -0.14065518701E+03  0.12998170084E+04  0.10100000352E+00 0.  1.
</event>
<event>
 5   0  0.5154476E-06  0.1858874E+04  0.7818609E-02  0.8675603E-01
        1   -1    0    0  501    0  0.00000000000E+00  0.00000000000E+00  0.12253479818E+04  0.12253479818E+04  0.50400001928E-02 0.  1.
       -1   -1    0    0    0  501  0.00000000000E+00  0.00000000000E+00 -0.70498603364E+03  0.70498603366E+03  0.50400001928E-02 0. -1.
    10030    2    1    2    0    0  0.00000000000E+00  0.00000000000E+00  0.52036194812E+03  0.19303340154E+04  0.18588740824E+04 0.  0.
        3    1    3    3  502    0  0.84701081297E+03  0.36103514616E+03  0.39186069172E+03  0.10006640325E+04  0.10100000352E+00 0.  1.
       -3    1    3    3    0  502 -0.84701081297E+03 -0.36103514616E+03  0.12850125640E+03  0.92966998292E+03  0.10100000352E+00 0. -1.
</event>
<event>
 5   0  0.1336899E-05  0.2929667E+04  0.7818609E-02  0.8264105E-01
        2   -1    0    0  501    0  0.00000000000E+00  0.00000000000E+00  0.19268789831E+04  0.19268789831E+04  0.25500000920E-02 0.  1.
       -2   -1    0    0    0  501  0.00000000000E+00  0.00000000000E+00 -0.11135818819E+04  0.11135818819E+04  0.25500000920E-02 0. -1.
    10030    2    1    2    0    0  0.00000000000E+00  0.00000000000E+00  0.81329710123E+03  0.30404608649E+04  0.29296672330E+04 0.  0.
        1    1    3    3  502    0 -0.48115926056E+03  0.50409912827E+03  0.17438265159E+04  0.18779140243E+04  0.50400001928E-02 0.  1.
       -1    1    3    3    0  502  0.48115926056E+03 -0.50409912827E+03 -0.93052941465E+03  0.11625468406E+04  0.50400001928E-02 0. -1.
</event>
<event>
 5   0  0.5002240E-06  0.2931792E+04  0.7818609E-02  0.8263481E-01
        1   -1    0    0  501    0  0.00000000000E+00  0.00000000000E+00  0.21718731888E+04  0.21718731888E+04  0.50400001928E-02 0. -1.
       -1   -1    0    0    0  501  0.00000000000E+00  0.00000000000E+00 -0.98939995367E+03  0.98939995368E+03  0.50400001928E-02 0.  1.
    10030    2    1    2    0    0  0.00000000000E+00  0.00000000000E+00  0.11824732351E+04  0.31612731425E+04  0.29317921020E+04 0.  0.
        4    1    3    3  502    0  0.34277384938E+02  0.92713185160E+03  0.18150180093E+04  0.20383916200E+04  0.12699999809E+01 0. -1.
       -4    1    3    3    0  502 -0.34277384938E+02 -0.92713185160E+03 -0.63254477418E+03  0.11228815225E+04  0.12699999809E+01 0.  1.
</event>
<event>
 5   0  0.1385669E-05  0.2438666E+04  0.7818609E-02  0.8425168E-01
        2   -1    0    0  501    0  0.00000000000E+00  0.00000000000E+00  0.65649714599E+03  0.65649714599E+03  0.25500000920E-02 0. -1.
       -2   -1    0    0    0  501  0.00000000000E+00  0.00000000000E+00 -0.22647052568E+04  0.22647052568E+04  0.25500000920E-02 0.  1.
    10030    2    1    2    0    0  0.00000000000E+00  0.00000000000E+00 -0.16082081108E+04  0.29212024028E+04  0.24386656496E+04 0.  0.
        3    1    3    3  502    0  0.30734902939E+03 -0.19049065207E+03 -0.21990032456E+04  0.22285343612E+04  0.10100000352E+00 0.  1.
       -3    1    3    3    0  502 -0.30734902939E+03  0.19049065207E+03  0.59079513481E+03  0.69266804164E+03  0.10100000352E+00 0. -1.
</event>
<event>
 5   0  0.5002240E-06  0.2705909E+04  0.7818609E-02  0.8333090E-01
        1   -1    0    0  501    0  0.00000000000E+00  0.00000000000E+00  0.25008711840E+04  0.25008711840E+04  0.50400001928E-02 0. -1.
       -1   -1    0    0    0  501  0.00000000000E+00  0.00000000000E+00 -0.73193914304E+03  0.73193914306E+03  0.50400001928E-02 0.  1.
    10030    2    1    2    0    0  0.00000000000E+00  0.00000000000E+00  0.17689320410E+04  0.32328103271E+04  0.27059087282E+04 0.  0.
        4    1    3    3  502    0 -0.11616945723E+04  0.59026536284E+02  0.58926110579E+02  0.11646854986E+04  0.12699999809E+01 0.  1.
       -4    1    3    3    0  502  0.11616945723E+04 -0.59026536284E+02  0.17100059304E+04  0.20681248285E+04  0.12699999809E+01 0. -1.
</event>
<event>
 5   0  0.5261878E-06  0.2867076E+04  0.7818609E-02  0.8282741E-01
       -1   -1    0    0    0  501  0.00000000000E+00  0.00000000000E+00  0.17055479784E+04  0.17055479784E+04  0.50400001928E-02 0.  1.
        1   -1    0    0  501    0  0.00000000000E+00  0.00000000000E+00 -0.12049100217E+04  0.12049100217E+04  0.50400001928E-02 0. -1.
    10030    2    1    2    0    0  0.00000000000E+00  0.00000000000E+00  0.50063795673E+03  0.29104580002E+04  0.28670764564E+04 0.  0.
        5    1    3    3  502    0 -0.13491952325E+03 -0.69524596043E+03 -0.10149103179E+04  0.12375925285E+04  0.46999998093E+01 0. -1.
       -5    1    3    3    0  502  0.13491952325E+03  0.69524596043E+03  0.15155482747E+04  0.16728654716E+04  0.46999998093E+01 0.  1.
</event>
<event>
 5   0  0.5002240E-06  0.2916521E+04  0.7818609E-02  0.8267979E-01
       -1   -1    0    0    0  501  0.00000000000E+00  0.00000000000E+00  0.17038673014E+04  0.17038673014E+04  0.50400001928E-02 0.  1.
        1   -1    0    0  501    0  0.00000000000E+00  0.00000000000E+00 -0.12480570845E+04  0.12480570845E+04  0.50400001928E-02 0. -1.
    10030    2    1    2    0    0  0.00000000000E+00  0.00000000000E+00  0.45581021692E+03  0.29519243858E+04  0.29165209798E+04 0.  0.
        4    1    3    3  502    0  0.69645532559E+03  0.72694037770E+03 -0.83990370840E+03  0.13110805412E+04  0.12699999809E+01 0. -1.
       -4    1    3    3    0  502 -0.69645532559E+03 -0.72694037770E+03  0.12957139253E+04  0.16408438446E+04  0.12699999809E+01 0.  1.
</event>
<event>
 5   0  0.5154476E-06  0.2871560E+04  0.7818609E-02  0.8281390E-01
        1   -1    0    0  501    0  0.00000000000E+00  0.00000000000E+00  0.10712487526E+04  0.10712487526E+04  0.50400001928E-02 0.  1.
       -1   -1    0    0    0  501  0.00000000000E+00  0.00000000000E+00 -0.19243566980E+04  0.19243566980E+04  0.50400001928E-02 0. -1.
    10030    2    1    2    0    0  0.00000000000E+00  0.00000000000E+00 -0.85310794538E+03  0.29956054505E+04  0.28715603509E+04 0.  0.
        3    1    3    3  502    0  0.74298673799E+03  0.85673379980E+03  0.49207786589E+03  0.12361887934E+04  0.10100000352E+00 0.  1.
       -3    1    3    3    0  502 -0.74298673799E+03 -0.85673379980E+03 -0.13451858113E+04  0.17594166572E+04  0.10100000352E+00 0. -1.
</event>
<event>
 5   0  0.1382803E-05  0.2904640E+04  0.7818609E-02  0.8271498E-01
        2   -1    0    0  501    0  0.00000000000E+00  0.00000000000E+00  0.18578515146E+04  0.18578515146E+04  0.25500000920E-02 0.  1.
       -2   -1    0    0    0  501  0.00000000000E+00  0.00000000000E+00 -0.11353075814E+04  0.11353075814E+04  0.25500000920E-02 0. -1.
    10030    2    1    2    0    0  0.00000000000E+00  0.00000000000E+00  0.72254393319E+03  0.29931590959E+04  0.29046396744E+04 0.  0.
        2    1    3    3  502    0 -0.12570781603E+03 -0.69453621046E+03 -0.94668071793E+03  0.11808418117E+04  0.25500000920E-02 0. -1.
       -2    1    3    3    0  502  0.12570781603E+03  0.69453621046E+03  0.16692246511E+04  0.18123172842E+04  0.25500000920E-02 0.  1.
</event>
<event>
 5   0  0.1307832E-05  0.3009434E+04  0.7818609E-02  0.8241042E-01
       -2   -1    0    0    0  501  0.00000000000E+00  0.00000000000E+00  0.11425386426E+04  0.11425386426E+04  0.25500000920E-02 0. -1.
        2   -1    0    0  501    0  0.00000000000E+00  0.00000000000E+00 -0.19817041207E+04  0.19817041207E+04  0.25500000920E-02 0.  1.
    10030    2    1    2    0    0  0.00000000000E+00  0.00000000000E+00 -0.83916547802E+03  0.31242427633E+04  0.30094341901E+04 0.  0.
        4    1    3    3  502    0 -0.75441090994E+03  0.95579928512E+03  0.49815780763E+03  0.13156180710E+04  0.12699999809E+01 0. -1.
       -4    1    3    3    0  502  0.75441090994E+03 -0.95579928512E+03 -0.13373232856E+04  0.18086246923E+04  0.12699999809E+01 0.  1.
</event>
<event>
 5   0  0.1385669E-05  0.2928124E+04  0.7818609E-02  0.8264559E-01
       -2   -1    0    0    0  501  0.00000000000E+00  0.00000000000E+00  0.12218130661E+04  0.12218130661E+04  0.25500000920E-02 0.  1.
        2   -1    0    0  501    0  0.00000000000E+00  0.00000000000E+00 -0.17543411791E+04  0.17543411791E+04  0.25500000920E-02 0. -1.
    10030    2    1    2    0    0  0.00000000000E+00  0.00000000000E+00 -0.53252811299E+03  0.29761542451E+04  0.29281236141E+04 0.  0.
        3    1    3    3  502    0 -0.11713464087E+03 -0.77609787601E+02 -0.17474718991E+04  0.17531120476E+04  0.10100000352E+00 0. -1.
       -3    1    3    3    0  502  0.11713464087E+03  0.77609787601E+02  0.12149437861E+04  0.12230421975E+04  0.10100000352E+00 0.  1.
</event>
<event>
 5   0  0.1339837E-05  0.2900026E+04  0.7818609E-02  0.8272870E-01
       -2   -1    0    0    0  501  0.00000000000E+00  0.00000000000E+00  0.13077539933E+04  0.13077539933E+04  0.25500000920E-02 0. -1.
        2   -1    0    0  501    0  0.00000000000E+00  0.00000000000E+00 -0.16077470017E+04  0.16077470017E+04  0.25500000920E-02 0.  1.
    10030    2    1    2    0    0  0.00000000000E+00  0.00000000000E+00 -0.29999300841E+03  0.29155009951E+04  0.29000259046E+04 0.  0.
        5    1    3    3  502    0 -0.66687709649E+03  0.24223614260E+03 -0.14213044640E+04  0.15885628348E+04  0.46999998093E+01 0.  1.
       -5    1    3    3    0  502  0.66687709649E+03 -0.24223614260E+03  0.11213114556E+04  0.13269381603E+04  0.46999998093E+01 0. -1.
</event>
<event>
 5   0  0.5002240E-06  0.2115989E+04  0.7818609E-02  0.8554233E-01
       -1   -1    0    0    0  501  0.00000000000E+00  0.00000000000E+00  0.60387615051E+03  0.60387615053E+03  0.50400001928E-02 0.  1.
        1   -1    0    0  501    0  0.00000000000E+00  0.00000000000E+00 -0.18536121157E+04  0.18536121157E+04  0.50400001928E-02 0. -1.
    10030    2    1    2    0    0  0.00000000000E+00  0.00000000000E+00 -0.12497359652E+04  0.24574882663E+04  0.21159887987E+04 0.  0.
        4    1    3    3  502    0 -0.84896514827E+03 -0.16912729325E+03  0.81582445040E+02  0.86948442915E+03  0.12699999809E+01 0.  1.
       -4    1    3    3    0  502  0.84896514827E+03  0.16912729325E+03 -0.13313184103E+04  0.15880038371E+04  0.12699999809E+01 0. -1.
</event>
<event>
 5   0  0.5059249E-06  0.2922924E+04  0.7818609E-02  0.8266089E-01
        1   -1    0    0  501    0  0.00000000000E+00  0.00000000000E+00  0.80991368984E+03  0.80991368986E+03  0.50400001928E-02 0.  1.
       -1   -1    0    0    0  501  0.00000000000E+00  0.00000000000E+00 -0.26371591566E+04  0.26371591566E+04  0.50400001928E-02 0. -1.
    10030    2    1    2    0    0  0.00000000000E+00  0.00000000000E+00 -0.18272454668E+04  0.34470728465E+04  0.29229240861E+04 0.  0.
        1    1    3    3  502    0 -0.64867647578E+03 -0.19338995270E+03 -0.24411495481E+04  0.25332571840E+04  0.50400001928E-02 0. -1.
       -1    1    3    3    0  502  0.64867647578E+03  0.19338995270E+03  0.61390408128E+03  0.91381566252E+03  0.50400001928E-02 0.  1.
</event>
<event>
 5   0  0.1385669E-05  0.2516884E+04  0.7818609E-02  0.8396995E-01
       -2   -1    0    0    0  501  0.00000000000E+00  0.00000000000E+00  0.82251677828E+03  0.82251677828E+03  0.25500000920E-02 0.  1.
        2   -1    0    0  501    0  0.00000000000E+00  0.00000000000E+00 -0.19254033126E+04  0.19254033126E+04  0.25500000920E-02 0. -1.
    10030    2    1    2    0    0  0.00000000000E+00  0.00000000000E+00 -0.11028865343E+04  0.27479200908E+04  0.25168842083E+04 0.  0.
        3    1    3    3  502    0  0.46930808672E+03  0.78957302504E+03 -0.14906408815E+04  0.17509100176E+04  0.10100000352E+00 0. -1.
       -3    1    3    3    0  502 -0.46930808672E+03 -0.78957302504E+03  0.38775434718E+03  0.99701007321E+03  0.10100000352E+00 0.  1.
</event>
<event>
 5   0  0.1336899E-05  0.2836631E+04  0.7818609E-02  0.8291985E-01
        2   -1    0    0  501    0  0.00000000000E+00  0.00000000000E+00  0.11744724616E+04  0.11744724616E+04  0.25500000920E-02 0. -1.
       -2   -1    0    0    0  501  0.00000000000E+00  0.00000000000E+00 -0.17127848079E+04  0.17127848079E+04  0.25500000920E-02 0.  1.
    10030    2    1    2    0    0  0.00000000000E+00  0.00000000000E+00 -0.53831234634E+03  0.28872572695E+04  0.28366308110E+04 0.  0.
        1    1    3    3  502    0 -0.10355761432E+04 -0.30746576787E+03 -0.12046157618E+04  0.16180396411E+04  0.50400001928E-02 0.  1.
       -1    1    3    3    0  502  0.10355761432E+04  0.30746576787E+03  0.66630341546E+03  0.12692176284E+04  0.50400001928E-02 0. -1.
</event>
<event>
 5   0  0.4590125E-06  0.2968532E+04  0.7818609E-02  0.8252774E-01
       -3   -1    0    0    0  501  0.00000000000E+00  0.00000000000E+00  0.22589327243E+04  0.22589327266E+04  0.10100000352E+00 0. -1.
        3   -1    0    0  501    0  0.00000000000E+00  0.00000000000E+00 -0.97525962239E+03  0.97525962762E+03  0.10100000352E+00 0.  1.
    10030    2    1    2    0    0  0.00000000000E+00  0.00000000000E+00  0.12836731020E+04  0.32341923542E+04  0.29685322217E+04 0.  0.
        4    1    3    3  502    0  0.94262706072E+03  0.11428371092E+04  0.74181988287E+03  0.16567802465E+04  0.12699999809E+01 0.  1.
       -4    1    3    3    0  502 -0.94262706072E+03 -0.11428371092E+04  0.54185321908E+03  0.15774121077E+04  0.12699999809E+01 0. -1.
</event>
<event>
 5   0  0.1385669E-05  0.2960455E+04  0.7818609E-02  0.8255114E-01
        2   -1    0    0  501    0  0.00000000000E+00  0.00000000000E+00  0.14280403989E+04  0.14280403989E+04  0.25500000920E-02 0.  1.
       -2   -1    0    0    0  501  0.00000000000E+00  0.00000000000E+00 -0.15343214612E+04  0.15343214612E+04  0.25500000920E-02 0. -1.
    10030    2    1    2    0    0  0.00000000000E+00  0.00000000000E+00 -0.10628106234E+03  0.29623618601E+04  0.29604547161E+04 0.  0.
        3    1    3    3  502    0  0.13339151389E+04 -0.28396366710E+03  0.52265005622E+03  0.14605232122E+04  0.10100000352E+00 0. -1.
       -3    1    3    3    0  502 -0.13339151389E+04  0.28396366710E+03 -0.62893111856E+03  0.15018386478E+04  0.10100000352E+00 0.  1.
</event>
<event>
 5   0  0.5154476E-06  0.2195155E+04  0.7818609E-02  0.8520448E-01
        1   -1    0    0  501    0  0.00000000000E+00  0.00000000000E+00  0.13153800838E+04  0.13153800838E+04  0.50400001928E-02 0. -1.
       -1   -1    0    0    0  501  0.00000000000E+00  0.00000000000E+00 -0.91583873957E+03  0.91583873958E+03  0.50400001928E-02 0.  1.
    10030    2    1    2    0    0  0.00000000000E+00  0.00000000000E+00  0.39954134422E+03  0.22312188234E+04  0.21951546989E+04 0.  0.
        3    1    3    3  502    0 -0.91965973893E+03 -0.59879259830E+03  0.18077088151E+03  0.11122071448E+04  0.10100000352E+00 0. -1.
       -3    1    3    3    0  502  0.91965973893E+03  0.59879259830E+03  0.21877046271E+03  0.11190116786E+04  0.10100000352E+00 0.  1.
</event>
<event>
 5   0  0.4590125E-06  0.2843636E+04  0.7818609E-02  0.8289848E-01
       -3   -1    0    0    0  501  0.00000000000E+00  0.00000000000E+00  0.13532018660E+04  0.13532018697E+04  0.10100000352E+00 0. -1.
        3   -1    0    0  501    0  0.00000000000E+00  0.00000000000E+00 -0.14939134649E+04  0.14939134684E+04  0.10100000352E+00 0.  1.
    10030    2    1    2    0    0  0.00000000000E+00  0.00000000000E+00 -0.14071159897E+03  0.28471153381E+04  0.28436360517E+04 0.  0.
        5    1    3    3  502    0 -0.92249040298E+03 -0.94961553853E+03 -0.58943607715E+03  0.14492119216E+04  0.46999998093E+01 0.  1.
       -5    1    3    3    0  502  0.92249040298E+03  0.94961553853E+03  0.44872447818E+03  0.13979034165E+04  0.46999998093E+01 0. -1.
</event>
<event>
 5   0  0.1382803E-05  0.2805295E+04  0.7818609E-02  0.8301626E-01
       -2   -1    0    0    0  501  0.00000000000E+00  0.00000000000E+00  0.80608288086E+03  0.80608288087E+03  0.25500000920E-02 0.  1.
        2   -1    0    0  501    0  0.00000000000E+00  0.00000000000E+00 -0.24407168846E+04  0.24407168846E+04  0.25500000920E-02 0. -1.
    10030    2    1    2    0    0  0.00000000000E+00  0.00000000000E+00 -0.16346340038E+04  0.32467997655E+04  0.28052950631E+04 0.  0.
        2    1    3    3  502    0 -0.11139637230E+03 -0.40495370106E+03  0.73159802845E+03  0.84358302911E+03  0.25500000920E-02 0.  1.
       -2    1    3    3    0  502  0.11139637230E+03  0.40495370106E+03 -0.23662320322E+04  0.24032167364E+04  0.25500000920E-02 0. -1.
</event>
<event>
 5   0  0.5059249E-06  0.3027019E+04  0.7818609E-02  0.8236057E-01
        1   -1    0    0  501    0  0.00000000000E+00  0.00000000000E+00  0.27806185995E+04  0.27806185995E+04  0.50400001928E-02 0. -1.
       -1   -1    0    0    0  501  0.00000000000E+00  0.00000000000E+00 -0.82381341471E+03  0.82381341473E+03  0.50400001928E-02 0.  1.
    10030    2    1    2    0    0  0.00000000000E+00  0.00000000000E+00  0.19568051848E+04  0.36044320142E+04  0.30270189319E+04 0.  0.
        1    1    3    3  502    0 -0.68122229468E+03  0.28722372362E+03 -0.59418038478E+03  0.94847857744E+03  0.50400001928E-02 0.  1.
       -1    1    3    3    0  502  0.68122229468E+03 -0.28722372362E+03  0.25509855696E+04  0.26559534368E+04  0.50400001928E-02 0. -1.
</event>
<event>
 5   0  0.1385669E-05  0.3213701E+04  0.7818609E-02  0.8185208E-01
        2   -1    0    0  501    0  0.00000000000E+00  0.00000000000E+00  0.13256895732E+04  0.13256895732E+04  0.25500000920E-02 0.  1.
       -2   -1    0    0    0  501  0.00000000000E+00  0.00000000000E+00 -0.19476422794E+04  0.19476422794E+04  0.25500000920E-02 0. -1.
    10030    2    1    2    0    0  0.00000000000E+00  0.00000000000E+00 -0.62195270626E+03  0.32733318526E+04  0.32137013315E+04 0.  0.
        3    1    3    3  502    0  0.48598043721E+03  0.13311172712E+04 -0.10826075514E+04  0.17832804871E+04  0.10100000352E+00 0. -1.
       -3    1    3    3    0  502 -0.48598043721E+03 -0.13311172712E+04  0.46065484517E+03  0.14900513655E+04  0.10100000352E+00 0.  1.
</event>
<event>
 5   0  0.1382803E-05  0.2850725E+04  0.7818609E-02  0.8287691E-01
       -2   -1    0    0    0  501  0.00000000000E+00  0.00000000000E+00  0.84313079668E+03  0.84313079669E+03  0.25500000920E-02 0.  1.
        2   -1    0    0  501    0  0.00000000000E+00  0.00000000000E+00 -0.24096595630E+04  0.24096595630E+04  0.25500000920E-02 0. -1.
    10030    2    1    2    0    0  0.00000000000E+00  0.00000000000E+00 -0.15665287663E+04  0.32527903597E+04  0.28507249514E+04 0.  0.
        2    1    3    3  502    0  0.12243786502E+04 -0.72690634146E+03 -0.70964937950E+03  0.15909425352E+04  0.25500000920E-02 0.  1.
       -2    1    3    3    0  502 -0.12243786502E+04  0.72690634146E+03 -0.85687938683E+03  0.16618478245E+04  0.25500000920E-02 0. -1.
</event>
<event>
 5   0  0.5059249E-06  0.2952883E+04  0.7818609E-02  0.8257315E-01
        1   -1    0    0  501    0  0.00000000000E+00  0.00000000000E+00  0.14844079162E+04  0.14844079162E+04  0.50400001928E-02 0.  1.
       -1   -1    0    0    0  501  0.00000000000E+00  0.00000000000E+00 -0.14685173872E+04  0.14685173872E+04  0.50400001928E-02 0. -1.
    10030    2    1    2    0    0  0.00000000000E+00  0.00000000000E+00  0.15890528927E+02  0.29529253034E+04  0.29528825474E+04 0.  0.
        1    1    3    3  502    0 -0.13069334411E+04  0.62276290998E+03 -0.28183500543E+03  0.14749032618E+04  0.50400001928E-02 0. -1.
       -1    1    3    3    0  502  0.13069334411E+04 -0.62276290998E+03  0.29772553436E+03  0.14780220416E+04  0.50400001928E-02 0.  1.
</event>
<event>
 5   0  0.1339837E-05  0.2853534E+04  0.7818609E-02  0.8286838E-01
        2   -1    0    0  501    0  0.00000000000E+00  0.00000000000E+00  0.12514853785E+04  0.12514853785E+04  0.25500000920E-02 0.  1.
       -2   -1    0    0    0  501  0.00000000000E+00  0.00000000000E+00 -0.16265979301E+04  0.16265979301E+04  0.25500000920E-02 0. -1.
    10030    2    1    2    0    0  0.00000000000E+00  0.00000000000E+00 -0.37511255163E+03  0.28780833086E+04  0.28535336173E+04 0.  0.
        5    1    3    3  502    0 -0.34139289722E+03 -0.89332120027E+03 -0.12554711797E+04  0.15782274393E+04  0.46999998093E+01 0. -1.
       -5    1    3    3    0  502  0.34139289722E+03  0.89332120027E+03  0.88035862803E+03  0.12998558693E+04  0.46999998093E+01 0.  1.
</event>
<event>
 5   0  0.1382803E-05  0.2933982E+04  0.7818609E-02  0.8262838E-01
        2   -1    0    0  501    0  0.00000000000E+00  0.00000000000E+00  0.10109963174E+04  0.10109963174E+04  0.25500000920E-02 0.  1.
       -2   -1    0    0    0  501  0.00000000000E+00  0.00000000000E+00 -0.21286550729E+04  0.21286550729E+04  0.25500000920E-02 0. -1.
    10030    2    1    2    0    0  0.00000000000E+00  0.00000000000E+00 -0.11176587555E+04  0.31396513903E+04  0.29339818948E+04 0.  0.
        2    1    3    3  502    0  0.12063600901E+03  0.10405119980E+04 -0.16578811579E+04  0.19610681269E+04  0.25500000920E-02 0. -1.
       -2    1    3    3    0  502 -0.12063600901E+03 -0.10405119980E+04  0.54022240234E+03  0.11785832634E+04  0.25500000920E-02 0.  1.
</event>
<event>
 5   0  0.1339837E-05  0.2890689E+04  0.7818609E-02  0.8275653E-01
       -2   -1    0    0    0  501  0.00000000000E+00  0.00000000000E+00  0.12446772474E+04  0.12446772474E+04  0.25500000920E-02 0.  1.
        2   -1    0    0  501    0  0.00000000000E+00  0.00000000000E+00 -0.16783632304E+04  0.16783632304E+04  0.25500000920E-02 0. -1.
    10030    2    1    2    0    0  0.00000000000E+00  0.00000000000E+00 -0.43368598297E+03  0.29230404778E+04  0.28906888630E+04 0.  0.
        5    1    3    3  502    0 -0.63531951852E+03 -0.41177358290E+03  0.10281183700E+04  0.12768076781E+04  0.46999998093E+01 0.  1.
       -5    1    3    3    0  502  0.63531951852E+03  0.41177358290E+03 -0.14618043530E+04  0.16462327996E+04  0.46999998093E+01 0. -1.
</event>
<event>
 5   0  0.5059249E-06  0.3166812E+04  0.7818609E-02  0.8197637E-01
        1   -1    0    0  501    0  0.00000000000E+00  0.00000000000E+00  0.19858517247E+04  0.19858517248E+04  0.50400001928E-02 0. -1.
       -1   -1    0    0    0  501  0.00000000000E+00  0.00000000000E+00 -0.12625186719E+04  0.12625186719E+04  0.50400001928E-02 0.  1.
    10030    2    1    2    0    0  0.00000000000E+00  0.00000000000E+00  0.72333305285E+03  0.32483703967E+04  0.31668122029E+04 0.  0.
        1    1    3    3  502    0  0.13853892266E+04  0.27687005006E+02  0.11476277584E+04  0.17991996419E+04  0.50400001928E-02 0. -1.
       -1    1    3    3    0  502 -0.13853892266E+04 -0.27687005006E+02 -0.42429470554E+03  0.14491707548E+04  0.50400001928E-02 0.  1.
</event>
<event>
 5   0  0.1307832E-05  0.2368649E+04  0.7818609E-02  0.8451335E-01
       -2   -1    0    0    0  501  0.00000000000E+00  0.00000000000E+00  0.10294267590E+04  0.10294267590E+04  0.25500000920E-02 0.  1.
        2   -1    0    0  501    0  0.00000000000E+00  0.00000000000E+00 -0.13625297107E+04  0.13625297107E+04  0.25500000920E-02 0. -1.
    10030    2    1    2    0    0  0.00000000000E+00  0.00000000000E+00 -0.33310295167E+03  0.23919564696E+04  0.23686490192E+04 0.  0.
        4    1    3    3  502    0 -0.93776315839E+00  0.66751570257E+03 -0.11544644790E+04  0.13335546253E+04  0.12699999809E+01 0. -1.
       -4    1    3    3    0  502  0.93776315839E+00 -0.66751570257E+03  0.82136152732E+03  0.10584018443E+04  0.12699999809E+01 0.  1.
</event>
<event>
 5   0  0.1385669E-05  0.2883267E+04  0.7818609E-02  0.8277874E-01
        2   -1    0    0  501    0  0.00000000000E+00  0.00000000000E+00  0.24161153175E+04  0.24161153175E+04  0.25500000920E-02 0. -1.
       -2   -1    0    0    0  501  0.00000000000E+00  0.00000000000E+00 -0.86018521081E+03  0.86018521082E+03  0.25500000920E-02 0.  1.
    10030    2    1    2    0    0  0.00000000000E+00  0.00000000000E+00  0.15559301067E+04  0.32763005284E+04  0.28832666639E+04 0.  0.
        3    1    3    3  502    0  0.58508733143E+02 -0.13663458502E+04  0.12961827184E+04  0.18842542037E+04  0.10100000352E+00 0. -1.
       -3    1    3    3    0  502 -0.58508733143E+02  0.13663458502E+04  0.25974738828E+03  0.13920463247E+04  0.10100000352E+00 0.  1.
</event>
<event>
 5   0  0.1339837E-05  0.2796475E+04  0.7818609E-02  0.8304364E-01
        2   -1    0    0  501    0  0.00000000000E+00  0.00000000000E+00  0.15575323962E+04  0.15575323962E+04  0.25500000920E-02 0.  1.
       -2   -1    0    0    0  501  0.00000000000E+00  0.00000000000E+00 -0.12552340832E+04  0.12552340832E+04  0.25500000920E-02 0. -1.
    10030    2    1    2    0    0  0.00000000000E+00  0.00000000000E+00  0.30229831297E+03  0.28127664794E+04  0.27964747447E+04 0.  0.
        5    1    3    3  502    0 -0.11300780448E+04  0.60507387376E+03  0.71284220354E+03  0.14667504482E+04  0.46999998093E+01 0.  1.
       -5    1    3    3    0  502  0.11300780448E+04 -0.60507387376E+03 -0.41054389057E+03  0.13460160312E+04  0.46999998093E+01 0. -1.
</event>
<event>
 5   0  0.1385669E-05  0.2253894E+04  0.7818609E-02  0.8496325E-01
        2   -1    0    0  501    0  0.00000000000E+00  0.00000000000E+00  0.10094486922E+04  0.10094486922E+04  0.25500000920E-02 0. -1.
       -2   -1    0    0    0  501  0.00000000000E+00  0.00000000000E+00 -0.12581221462E+04  0.12581221462E+04  0.25500000920E-02 0.  1.
    10030    2    1    2    0    0  0.00000000000E+00  0.00000000000E+00 -0.24867345401E+03  0.22675708384E+04  0.22538941901E+04 0.  0.
        3    1    3    3  502    0 -0.78991623953E+03 -0.48380063161E+03 -0.77008743881E+03  0.12046017559E+04  0.10100000352E+00 0.  1.
       -3    1    3    3    0  502  0.78991623953E+03  0.48380063161E+03  0.52141398479E+03  0.10629690825E+04  0.10100000352E+00 0. -1.
</event>
<event>
 5   0  0.5154476E-06  0.2707873E+04  0.7818609E-02  0.8332455E-01
       -1   -1    0    0    0  501  0.00000000000E+00  0.00000000000E+00  0.93439321952E+03  0.93439321953E+03  0.50400001928E-02 0.  1.
        1   -1    0    0  501    0  0.00000000000E+00  0.00000000000E+00 -0.19618551376E+04  0.19618551376E+04  0.50400001928E-02 0. -1.
    10030    2    1    2    0    0  0.00000000000E+00  0.00000000000E+00 -0.10274619180E+04  0.28962483571E+04  0.27078730681E+04 0.  0.
        3    1    3    3  502    0  0.68971065316E+01 -0.25897718318E+03 -0.19350979106E+04  0.19523628467E+04  0.10100000352E+00 0. -1.
       -3    1    3    3    0  502 -0.68971065316E+01  0.25897718318E+03  0.90763599256E+03  0.94388551036E+03  0.10100000352E+00 0.  1.
</event>
<event>
 5   0  0.5154476E-06  0.2170600E+04  0.7818609E-02  0.8530766E-01
        1   -1    0    0  501    0  0.00000000000E+00  0.00000000000E+00  0.93710203925E+03  0.93710203927E+03  0.50400001928E-02 0. -1.
       -1   -1    0    0    0  501  0.00000000000E+00  0.00000000000E+00 -0.12569348023E+04  0.12569348023E+04  0.50400001928E-02 0.  1.
    10030    2    1    2    0    0  0.00000000000E+00  0.00000000000E+00 -0.31983276308E+03  0.21940368416E+04  0.21706000705E+04 0.  0.
        3    1    3    3  502    0  0.14435569051E+03 -0.32863450652E+03  0.87536760434E+03  0.94610129330E+03  0.10100000352E+00 0. -1.
       -3    1    3    3    0  502 -0.14435569051E+03  0.32863450652E+03 -0.11952003674E+04  0.12479355483E+04  0.10100000352E+00 0.  1.
</event>
<event>
 5   0  0.1307832E-05  0.2743528E+04  0.7818609E-02  0.8321018E-01
        2   -1    0    0  501    0  0.00000000000E+00  0.00000000000E+00  0.19072686032E+04  0.19072686032E+04  0.25500000920E-02 0. -1.
       -2   -1    0    0    0  501  0.00000000000E+00  0.00000000000E+00 -0.98661335131E+03  0.98661335132E+03  0.25500000920E-02 0.  1.
    10030    2    1    2    0    0  0.00000000000E+00  0.00000000000E+00  0.92065525190E+03  0.28938819545E+04  0.27435281435E+04 0.  0.
        4    1    3    3  502    0 -0.33841069648E+03  0.21251111166E+03 -0.92385871254E+03  0.10065780177E+04  0.12699999809E+01 0.  1.
       -4    1    3    3    0  502  0.33841069648E+03 -0.21251111166E+03  0.18445139644E+04  0.18873039368E+04  0.12699999809E+01 0. -1.
</event>
<event>
 5   0  0.5261878E-06  0.2862238E+04  0.7818609E-02  0.8284202E-01
        1   -1    0    0  501    0  0.00000000000E+00  0.00000000000E+00  0.14832748772E+04  0.14832748772E+04  0.50400001928E-02 0. -1.
       -1   -1    0    0    0  501  0.00000000000E+00  0.00000000000E+00 -0.13807966937E+04  0.13807966937E+04  0.50400001928E-02 0.  1.
    10030    2    1    2    0    0  0.00000000000E+00  0.00000000000E+00  0.10247818346E+03  0.28640715709E+04  0.28622376186E+04 0.  0.
        5    1    3    3  502    0 -0.81748935322E+03 -0.68887013417E+03  0.10032939653E+04  0.14661008748E+04  0.46999998093E+01 0. -1.
       -5    1    3    3    0  502  0.81748935322E+03  0.68887013417E+03 -0.90081578182E+03  0.13979706961E+04  0.46999998093E+01 0.  1.
</event>
<event>
 5   0  0.4590125E-06  0.2877372E+04  0.7818609E-02  0.8279642E-01
       -3   -1    0    0    0  501  0.00000000000E+00  0.00000000000E+00  0.10470514884E+04  0.10470514933E+04  0.10100000352E+00 0. -1.
        3   -1    0    0  501    0  0.00000000000E+00  0.00000000000E+00 -0.19768057323E+04  0.19768057348E+04  0.10100000352E+00 0.  1.
    10030    2    1    2    0    0  0.00000000000E+00  0.00000000000E+00 -0.92975424383E+03  0.30238572281E+04  0.28773719923E+04 0.  0.
        2    1    3    3  502    0  0.10061612087E+04 -0.66037891923E+03  0.36351462435E+03  0.12572205761E+04  0.25500000920E-02 0. -1.
       -2    1    3    3    0  502 -0.10061612087E+04  0.66037891923E+03 -0.12932688682E+04  0.17666366520E+04  0.25500000920E-02 0.  1.
</event>
<event>
 5   0  0.5154476E-06  0.2874676E+04  0.7818609E-02  0.8280452E-01
        1   -1    0    0  501    0  0.00000000000E+00  0.00000000000E+00  0.16579829950E+04  0.16579829950E+04  0.50400001928E-02 0. -1.
       -1   -1    0    0    0  501  0.00000000000E+00  0.00000000000E+00 -0.12460564819E+04  0.12460564819E+04  0.50400001928E-02 0.  1.
    10030    2    1    2    0    0  0.00000000000E+00  0.00000000000E+00  0.41192651312E+03  0.29040394769E+04  0.28746759524E+04 0.  0.
        3    1    3    3  502    0 -0.12306361764E+04  0.47984086121E+03  0.77852216914E+03  0.15332349555E+04  0.10100000352E+00 0. -1.
       -3    1    3    3    0  502  0.12306361764E+04 -0.47984086121E+03 -0.36659565602E+03  0.13708045214E+04  0.10100000352E+00 0.  1.
</event>
<event>
 5   0  0.5261878E-06  0.2913508E+04  0.7818609E-02  0.8268870E-01
       -1   -1    0    0    0  501  0.00000000000E+00  0.00000000000E+00  0.19086085452E+04  0.19086085452E+04  0.50400001928E-02 0.  1.
        1   -1    0    0  501    0  0.00000000000E+00  0.00000000000E+00 -0.11118739131E+04  0.11118739131E+04  0.50400001928E-02 0. -1.
    10030    2    1    2    0    0  0.00000000000E+00  0.00000000000E+00  0.79673463214E+03  0.30204824583E+04  0.29135078869E+04 0.  0.
        5    1    3    3  502    0  0.10744389868E+04 -0.32180448627E+03  0.13620861338E+04  0.17644483528E+04  0.46999998093E+01 0.  1.
       -5    1    3    3    0  502 -0.10744389868E+04  0.32180448627E+03 -0.56535150170E+03  0.12560341055E+04  0.46999998093E+01 0. -1.
</event>
<event>
 5   0  0.5154476E-06  0.2934906E+04  0.7818609E-02  0.8262567E-01
       -1   -1    0    0    0  501  0.00000000000E+00  0.00000000000E+00  0.26107218974E+04  0.26107218974E+04  0.50400001928E-02 0.  1.
        1   -1    0    0  501    0  0.00000000000E+00  0.00000000000E+00 -0.82483638492E+03  0.82483638494E+03  0.50400001928E-02 0. -1.
    10030    2    1    2    0    0  0.00000000000E+00  0.00000000000E+00  0.17858855125E+04  0.34355582823E+04  0.29349060713E+04 0.  0.
        3    1    3    3  502    0 -0.66752110621E+02  0.14295714038E+04  0.12727759188E+04  0.19152255200E+04  0.10100000352E+00 0.  1.
       -3    1    3    3    0  502  0.66752110621E+02 -0.14295714038E+04  0.51310959370E+03  0.15203327623E+04  0.10100000352E+00 0. -1.
</event>
<event>
 5   0  0.1336899E-05  0.2863832E+04  0.7818609E-02  0.8283721E-01
       -2   -1    0    0    0  501  0.00000000000E+00  0.00000000000E+00  0.13643774822E+04  0.13643774822E+04  0.25500000920E-02 0.  1.
        2   -1    0    0  501    0  0.00000000000E+00  0.00000000000E+00 -0.15027974330E+04  0.15027974330E+04  0.25500000920E-02 0. -1.
    10030    2    1    2    0    0  0.00000000000E+00  0.00000000000E+00 -0.13841995085E+03  0.28671749152E+04  0.28638316835E+04 0.  0.
        1    1    3    3  502    0  0.62500523961E+03  0.75691796734E+03 -0.11129367686E+04  0.14839759465E+04  0.50400001928E-02 0. -1.
       -1    1    3    3    0  502 -0.62500523961E+03 -0.75691796734E+03  0.97451681778E+03  0.13831989687E+04  0.50400001928E-02 0.  1.
</event>
<event>
 5   0  0.5352212E-06  0.2824713E+04  0.7818609E-02  0.8295637E-01
       -1   -1    0    0    0  501  0.00000000000E+00  0.00000000000E+00  0.93147668218E+03  0.93147668219E+03  0.50400001928E-02 0. -1.
        1   -1    0    0  501    0  0.00000000000E+00  0.00000000000E+00 -0.21414932789E+04  0.21414932790E+04  0.50400001928E-02 0.  1.
    10030    2    1    2    0    0  0.00000000000E+00  0.00000000000E+00 -0.12100165968E+04  0.30729699611E+04  0.28247131213E+04 0.  0.
        2    1    3    3  502    0 -0.19747673502E+03  0.37323939746E+03 -0.20712151841E+04  0.21138204861E+04  0.25500000920E-02 0.  1.
       -2    1    3    3    0  502  0.19747673502E+03 -0.37323939746E+03  0.86119858731E+03  0.95914947505E+03  0.25500000920E-02 0. -1.
</event>
<event>
 5   0  0.5154476E-06  0.2912825E+04  0.7818609E-02  0.8269072E-01
        1   -1    0    0  501    0  0.00000000000E+00  0.00000000000E+00  0.17671954346E+04  0.17671954346E+04  0.50400001928E-02 0.  1.
       -1   -1    0    0    0  501  0.00000000000E+00  0.00000000000E+00 -0.12002842963E+04  0.12002842964E+04  0.50400001928E-02 0. -1.
    10030    2    1    2    0    0  0.00000000000E+00  0.00000000000E+00  0.56691113821E+03  0.29674797309E+04  0.29128246969E+04 0.  0.
        3    1    3    3  502    0  0.54203014992E+03  0.13031352469E+04 -0.82702807724E+02  0.14137884990E+04  0.10100000352E+00 0. -1.
       -3    1    3    3    0  502 -0.54203014992E+03 -0.13031352469E+04  0.64961394594E+03  0.15536912319E+04  0.10100000352E+00 0.  1.
</event>
<event>
 5   0  0.5352212E-06  0.2891360E+04  0.7818609E-02  0.8275453E-01
        1   -1    0    0  501    0  0.00000000000E+00  0.00000000000E+00  0.15782919921E+04  0.15782919921E+04  0.50400001928E-02 0. -1.
       -1   -1    0    0    0  501  0.00000000000E+00  0.00000000000E+00 -0.13242099460E+04  0.13242099460E+04  0.50400001928E-02 0.  1.
    10030    2    1    2    0    0  0.00000000000E+00  0.00000000000E+00  0.25408204608E+03  0.29025019381E+04  0.28913595098E+04 0.  0.
        2    1    3    3  502    0 -0.15570087877E+03 -0.49541021645E+03 -0.12273491862E+04  0.13326890377E+04  0.25500000920E-02 0.  1.
       -2    1    3    3    0  502  0.15570087877E+03  0.49541021645E+03  0.14814312323E+04  0.15698129004E+04  0.25500000920E-02 0. -1.
</event>
<event>
 5   0  0.5154476E-06  0.3225078E+04  0.7818609E-02  0.8182225E-01
       -1   -1    0    0    0  501  0.00000000000E+00  0.00000000000E+00  0.12524779130E+04  0.12524779130E+04  0.50400001928E-02 0.  1.
        1   -1    0    0  501    0  0.00000000000E+00  0.00000000000E+00 -0.20761099917E+04  0.20761099917E+04  0.50400001928E-02 0. -1.
    10030    2    1    2    0    0  0.00000000000E+00  0.00000000000E+00 -0.82363207876E+03  0.33285879047E+04  0.32250779274E+04 0.  0.
        3    1    3    3  502    0  0.62364301107E+03 -0.18912953840E+03 -0.19341413830E+04  0.20409810110E+04  0.10100000352E+00 0. -1.
       -3    1    3    3    0  502 -0.62364301107E+03  0.18912953840E+03  0.11105093043E+04  0.12876068937E+04  0.10100000352E+00 0.  1.
</event>
<event>
 5   0  0.1339837E-05  0.2884017E+04  0.7818609E-02  0.8277649E-01
        2   -1    0    0  501    0  0.00000000000E+00  0.00000000000E+00  0.24691348092E+04  0.24691348092E+04  0.25500000920E-02 0.  1.
       -2   -1    0    0    0  501  0.00000000000E+00  0.00000000000E+00 -0.84215268079E+03  0.84215268079E+03  0.25500000920E-02 0. -1.
    10030    2    1    2    0    0  0.00000000000E+00  0.00000000000E+00  0.16269821285E+04  0.33112874900E+04  0.28840169894E+04 0.  0.
        5    1    3    3  502    0  0.13015113731E+02  0.82107907523E+03 -0.54745614806E+03  0.98695013300E+03  0.46999998093E+01 0. -1.
       -5    1    3    3    0  502 -0.13015113731E+02 -0.82107907523E+03  0.21744382765E+04  0.23243373570E+04  0.46999998093E+01 0.  1.
</event>
<event>
 5   0  0.1336899E-05  0.2825529E+04  0.7818609E-02  0.8295386E-01
       -2   -1    0    0    0  501  0.00000000000E+00  0.00000000000E+00  0.79264980132E+03  0.79264980133E+03  0.25500000920E-02 0. -1.
        2   -1    0    0  501    0  0.00000000000E+00  0.00000000000E+00 -0.25180143550E+04  0.25180143550E+04  0.25500000920E-02 0.  1.
    10030    2    1    2    0    0  0.00000000000E+00  0.00000000000E+00 -0.17253645537E+04  0.33106641563E+04  0.28255290324E+04 0.  0.
        1    1    3    3  502    0 -0.10995443603E+04  0.88432545402E+03 -0.78087911118E+03  0.16127000636E+04  0.50400001928E-02 0. -1.
       -1    1    3    3    0  502  0.10995443603E+04 -0.88432545402E+03 -0.94448544248E+03  0.16979640927E+04  0.50400001928E-02 0.  1.
</event>
<event>
 5   0  0.5059249E-06  0.2881556E+04  0.7818609E-02  0.8278386E-01
        1   -1    0    0  501    0  0.00000000000E+00  0.00000000000E+00  0.13769675432E+04  0.13769675433E+04  0.50400001928E-02 0.  1.
       -1   -1    0    0    0  501  0.00000000000E+00  0.00000000000E+00 -0.15075459150E+04  0.15075459150E+04  0.50400001928E-02 0. -1.
    10030    2    1    2    0    0  0.00000000000E+00  0.00000000000E+00 -0.13057837176E+03  0.28845134583E+04  0.28815563815E+04 0.  0.
        1    1    3    3  502    0  0.94109143220E+03 -0.32519181582E+03 -0.11077218487E+04  0.14894463719E+04  0.50400001928E-02 0. -1.
       -1    1    3    3    0  502 -0.94109143220E+03  0.32519181582E+03  0.97714347692E+03  0.13950670863E+04  0.50400001928E-02 0.  1.
</event>
<event>
 5   0  0.1382803E-05  0.2859475E+04  0.7818609E-02  0.8285038E-01
       -2   -1    0    0    0  501  0.00000000000E+00  0.00000000000E+00  0.19103684070E+04  0.19103684070E+04  0.25500000920E-02 0.  1.
        2   -1    0    0  501    0  0.00000000000E+00  0.00000000000E+00 -0.10700288232E+04  0.10700288232E+04  0.25500000920E-02 0. -1.
    10030    2    1    2    0    0  0.00000000000E+00  0.00000000000E+00  0.84033958381E+03  0.29803972302E+04  0.28594749577E+04 0.  0.
        2    1    3    3  502    0 -0.31035964183E+03 -0.93327491822E+03 -0.66141415459E+03  0.11852400028E+04  0.25500000920E-02 0. -1.
       -2    1    3    3    0  502  0.31035964183E+03  0.93327491822E+03  0.15017537384E+04  0.17951572274E+04  0.25500000920E-02 0.  1.
</event>
<event>
 5   0  0.1339837E-05  0.2431994E+04  0.7818609E-02  0.8427622E-01
       -2   -1    0    0    0  501  0.00000000000E+00  0.00000000000E+00  0.17252415374E+04  0.17252415374E+04  0.25500000920E-02 0.  1.
        2   -1    0    0  501    0  0.00000000000E+00  0.00000000000E+00 -0.85706790397E+03  0.85706790398E+03  0.25500000920E-02 0. -1.
    10030    2    1    2    0    0  0.00000000000E+00  0.00000000000E+00  0.86817363346E+03  0.25823094414E+04  0.24319943654E+04 0.  0.
        5    1    3    3  502    0 -0.89136314999E+03 -0.60023521465E+03  0.10383069505E+04  0.14942938103E+04  0.46999998093E+01 0.  1.
       -5    1    3    3    0  502  0.89136314999E+03  0.60023521465E+03 -0.17013331699E+03  0.10880156311E+04  0.46999998093E+01 0. -1.
</event>
<event>
 5   0  0.5352212E-06  0.2836622E+04  0.7818609E-02  0.8291988E-01
        1   -1    0    0  501    0  0.00000000000E+00  0.00000000000E+00  0.21793370609E+04  0.21793370609E+04  0.50400001928E-02 0. -1.
       -1   -1    0    0    0  501  0.00000000000E+00  0.00000000000E+00 -0.92303593290E+03  0.92303593291E+03  0.50400001928E-02 0.  1.
    10030    2    1    2    0    0  0.00000000000E+00  0.00000000000E+00  0.12563011280E+04  0.31023729938E+04  0.28366222287E+04 0.  0.
        2    1    3    3  502    0 -0.13207436936E+04 -0.19307756648E+02  0.11931423865E+04  0.17799790584E+04  0.25500000920E-02 0.  1.
       -2    1    3    3    0  502  0.13207436936E+04  0.19307756648E+02  0.63158741450E+02  0.13223939354E+04  0.25500000920E-02 0. -1.
</event>
<event>
 5   0  0.1382803E-05  0.2919362E+04  0.7818609E-02  0.8267140E-01
        2   -1    0    0  501    0  0.00000000000E+00  0.00000000000E+00  0.21558483650E+04  0.21558483650E+04  0.25500000920E-02 0. -1.
       -2   -1    0    0    0  501  0.00000000000E+00  0.00000000000E+00 -0.98832005061E+03  0.98832005061E+03  0.25500000920E-02 0.  1.
    10030    2    1    2    0    0  0.00000000000E+00  0.00000000000E+00  0.11675283144E+04  0.31441684156E+04  0.29193616872E+04 0.  0.
        2    1    3    3  502    0 -0.55189855150E+03 -0.77839430917E+03  0.17734425459E+04  0.20138490945E+04  0.25500000920E-02 0. -1.
       -2    1    3    3    0  502  0.55189855150E+03  0.77839430917E+03 -0.60591423154E+03  0.11303193211E+04  0.25500000920E-02 0.  1.
</event>
<event>
 5   0  0.1385669E-05  0.2880775E+04  0.7818609E-02  0.8278621E-01
       -2   -1    0    0    0  501  0.00000000000E+00  0.00000000000E+00  0.11498396996E+04  0.11498396996E+04  0.25500000920E-02 0.  1.
        2   -1    0    0  501    0  0.00000000000E+00  0.00000000000E+00 -0.18043519900E+04  0.18043519900E+04  0.25500000920E-02 0. -1.
    10030    2    1    2    0    0  0.00000000000E+00  0.00000000000E+00 -0.65451229039E+03  0.29541916897E+04  0.28807745835E+04 0.  0.
        3    1    3    3  502    0 -0.51459139637E+03  0.13244201034E+04 -0.56954560462E+03  0.15307759867E+04  0.10100000352E+00 0. -1.
       -3    1    3    3    0  502  0.51459139637E+03 -0.13244201034E+04 -0.84966685774E+02  0.14234157030E+04  0.10100000352E+00 0.  1.
</event>
<event>
 5   0  0.5261878E-06  0.2928660E+04  0.7818609E-02  0.8264401E-01
        1   -1    0    0  501    0  0.00000000000E+00  0.00000000000E+00  0.15358390209E+04  0.15358390209E+04  0.50400001928E-02 0.  1.
       -1   -1    0    0    0  501  0.00000000000E+00  0.00000000000E+00 -0.13961507711E+04  0.13961507711E+04  0.50400001928E-02 0. -1.
    10030    2    1    2    0    0  0.00000000000E+00  0.00000000000E+00  0.13968824987E+03  0.29319897920E+04  0.29286603308E+04 0.  0.
        5    1    3    3  502    0  0.30993688411E+02 -0.87543476853E+02 -0.13931920350E+04  0.13962917336E+04  0.46999998093E+01 0. -1.
       -5    1    3    3    0  502 -0.30993688411E+02  0.87543476853E+02  0.15328802848E+04  0.15356980584E+04  0.46999998093E+01 0.  1.
</event>
<event>
 5   0  0.5261878E-06  0.2819426E+04  0.7818609E-02  0.8297263E-01
       -1   -1    0    0    0  501  0.00000000000E+00  0.00000000000E+00  0.10974007570E+04  0.10974007570E+04  0.50400001928E-02 0. -1.
        1   -1    0    0  501    0  0.00000000000E+00  0.00000000000E+00 -0.18109075566E+04  0.18109075566E+04  0.50400001928E-02 0.  1.
    10030    2    1    2    0    0  0.00000000000E+00  0.00000000000E+00 -0.71350679959E+03  0.29083083136E+04  0.28194264122E+04 0.  0.
        5    1    3    3  502    0  0.92950251123E+03  0.10553388701E+04 -0.25592648281E+03  0.14294178898E+04  0.46999998093E+01 0.  1.
       -5    1    3    3    0  502 -0.92950251123E+03 -0.10553388701E+04 -0.45758031679E+03  0.14788904237E+04  0.46999998093E+01 0. -1.
</event>
<event>
 5   0  0.1336899E-05  0.2909561E+04  0.7818609E-02  0.8270039E-01
       -2   -1    0    0    0  501  0.00000000000E+00  0.00000000000E+00  0.21238227468E+04  0.21238227468E+04  0.25500000920E-02 0. -1.
        2   -1    0    0  501    0  0.00000000000E+00  0.00000000000E+00 -0.99649827822E+03  0.99649827822E+03  0.25500000920E-02 0.  1.
    10030    2    1    2    0    0  0.00000000000E+00  0.00000000000E+00  0.11273244686E+04  0.31203210251E+04  0.29095605926E+04 0.  0.
        1    1    3    3  502    0 -0.54137534303E+02 -0.81693151513E+03 -0.72597538005E+03  0.10942340817E+04  0.50400001928E-02 0.  1.
       -1    1    3    3    0  502  0.54137534303E+02  0.81693151513E+03  0.18532998487E+04  0.20260869434E+04  0.50400001928E-02 0. -1.
</event>
<event>
 5   0  0.5002240E-06  0.2461297E+04  0.7818609E-02  0.8416905E-01
        1   -1    0    0  501    0  0.00000000000E+00  0.00000000000E+00  0.19196648933E+04  0.19196648933E+04  0.50400001928E-02 0. -1.
       -1   -1    0    0    0  501  0.00000000000E+00  0.00000000000E+00 -0.78893775706E+03  0.78893775708E+03  0.50400001928E-02 0.  1.
    10030    2    1    2    0    0  0.00000000000E+00  0.00000000000E+00  0.11307271362E+04  0.27086026504E+04  0.24612973126E+04 0.  0.
        4    1    3    3  502    0  0.22267735985E+03  0.93250668779E+03 -0.28374644464E+03  0.99983377974E+03  0.12699999809E+01 0.  1.
       -4    1    3    3    0  502 -0.22267735985E+03 -0.93250668779E+03  0.14144735809E+04  0.17087688706E+04  0.12699999809E+01 0. -1.
</event>
<event>
 5   0  0.5352212E-06  0.2642283E+04  0.7818609E-02  0.8353979E-01
       -1   -1    0    0    0  501  0.00000000000E+00  0.00000000000E+00  0.74529940163E+03  0.74529940165E+03  0.50400001928E-02 0.  1.
        1   -1    0    0  501    0  0.00000000000E+00  0.00000000000E+00 -0.23418967929E+04  0.23418967929E+04  0.50400001928E-02 0. -1.
    10030    2    1    2    0    0  0.00000000000E+00  0.00000000000E+00 -0.15965973913E+04  0.30871961946E+04  0.26422825575E+04 0.  0.
        2    1    3    3  502    0  0.59037210182E+03  0.13649534147E+03  0.57336625174E+03  0.83421763078E+03  0.25500000920E-02 0.  1.
       -2    1    3    3    0  502 -0.59037210182E+03 -0.13649534147E+03 -0.21699636430E+04  0.22529785638E+04  0.25500000920E-02 0. -1.
</event>
<event>
 5   0  0.1307832E-05  0.2913145E+04  0.7818609E-02  0.8268977E-01
        2   -1    0    0  501    0  0.00000000000E+00  0.00000000000E+00  0.15080146139E+04  0.15080146139E+04  0.25500000920E-02 0.  1.
       -2   -1    0    0    0  501  0.00000000000E+00  0.00000000000E+00 -0.14068849254E+04  0.14068849254E+04  0.25500000920E-02 0. -1.
    10030    2    1    2    0    0  0.00000000000E+00  0.00000000000E+00  0.10112968845E+03  0.29148995393E+04  0.29131447115E+04 0.  0.
        4    1    3    3  502    0  0.10365202240E+03  0.11677392607E+04  0.91551756843E+03  0.14874584881E+04  0.12699999809E+01 0. -1.
       -4    1    3    3    0  502 -0.10365202240E+03 -0.11677392607E+04 -0.81438787999E+03  0.14274410512E+04  0.12699999809E+01 0.  1.
</event>
<event>
 5   0  0.1382803E-05  0.2690322E+04  0.7818609E-02  0.8338152E-01
       -2   -1    0    0    0  501  0.00000000000E+00  0.00000000000E+00  0.98716335608E+03  0.98716335608E+03  0.25500000920E-02 0.  1.
        2   -1    0    0  501    0  0.00000000000E+00  0.00000000000E+00 -0.18329879538E+04  0.18329879538E+04  0.25500000920E-02 0. -1.
    10030    2    1    2    0    0  0.00000000000E+00  0.00000000000E+00 -0.84582459777E+03  0.28201513099E+04  0.26903223154E+04 0.  0.
        2    1    3    3  502    0  0.89217730472E+03  0.51431295358E+03 -0.13301007631E+04  0.16821611687E+04  0.25500000920E-02 0. -1.
       -2    1    3    3    0  502 -0.89217730472E+03 -0.51431295358E+03  0.48427616536E+03  0.11379901413E+04  0.25500000920E-02 0.  1.
</event>
<event>
 5   0  0.1385669E-05  0.2645080E+04  0.7818609E-02  0.8353048E-01
       -2   -1    0    0    0  501  0.00000000000E+00  0.00000000000E+00  0.14666714760E+04  0.14666714760E+04  0.25500000920E-02 0. -1.
        2   -1    0    0  501    0  0.00000000000E+00  0.00000000000E+00 -0.11925722238E+04  0.11925722238E+04  0.25500000920E-02 0.  1.
    10030    2    1    2    0    0  0.00000000000E+00  0.00000000000E+00  0.27409925219E+03  0.26592436997E+04  0.26450797066E+04 0.  0.
        3    1    3    3  502    0 -0.11167291734E+04  0.70533157058E+03  0.20475251084E+03  0.13366002664E+04  0.10100000352E+00 0.  1.
       -3    1    3    3    0  502  0.11167291734E+04 -0.70533157058E+03  0.69346741351E+02  0.13226434334E+04  0.10100000352E+00 0. -1.
</event>
<event>
 5   0  0.4590125E-06  0.3104810E+04  0.7818609E-02  0.8214419E-01
       -4   -1    0    0    0  501  0.00000000000E+00  0.00000000000E+00  0.10621884266E+04  0.10621891858E+04  0.12699999809E+01 0.  1.
        4   -1    0    0  501    0  0.00000000000E+00  0.00000000000E+00 -0.22688625184E+04  0.22688628738E+04  0.12699999809E+01 0. -1.
    10030    2    1    2    0    0  0.00000000000E+00  0.00000000000E+00 -0.12066740918E+04  0.33310520596E+04  0.31048100522E+04 0.  0.
        4    1    3    3  502    0  0.13274337631E+04  0.58810487113E+03 -0.11929384329E+04  0.18791092178E+04  0.12699999809E+01 0. -1.
       -4    1    3    3    0  502 -0.13274337631E+04 -0.58810487113E+03 -0.13735658949E+02  0.14519428419E+04  0.12699999809E+01 0.  1.
</event>
<event>
 5   0  0.1307832E-05  0.2841415E+04  0.7818609E-02  0.8290525E-01
        2   -1    0    0  501    0  0.00000000000E+00  0.00000000000E+00  0.17397706577E+04  0.17397706577E+04  0.25500000920E-02 0. -1.
       -2   -1    0    0    0  501  0.00000000000E+00  0.00000000000E+00 -0.11601584066E+04  0.11601584066E+04  0.25500000920E-02 0.  1.
    10030    2    1    2    0    0  0.00000000000E+00  0.00000000000E+00  0.57961225105E+03  0.28999290643E+04  0.28414148265E+04 0.  0.
        4    1    3    3  502    0 -0.72368457990E+03 -0.10635681697E+04  0.90514124313E+03  0.15729522897E+04  0.12699999809E+01 0. -1.
       -4    1    3    3    0  502  0.72368457990E+03  0.10635681697E+04 -0.32552899208E+03  0.13269767746E+04  0.12699999809E+01 0.  1.
</event>
<event>
 5   0  0.1385669E-05  0.2761495E+04  0.7818609E-02  0.8315323E-01
        2   -1    0    0  501    0  0.00000000000E+00  0.00000000000E+00  0.29935749250E+04  0.29935749250E+04  0.25500000920E-02 0.  1.
       -2   -1    0    0    0  501  0.00000000000E+00  0.00000000000E+00 -0.63685180130E+03  0.63685180131E+03  0.25500000920E-02 0. -1.
    10030    2    1    2    0    0  0.00000000000E+00  0.00000000000E+00  0.23567231237E+04  0.36304267263E+04  0.27614949454E+04 0.  0.
        3    1    3    3  502    0  0.83455759749E+03 -0.67362479861E+03  0.35131283759E+02  0.10730754727E+04  0.10100000352E+00 0. -1.
       -3    1    3    3    0  502 -0.83455759749E+03  0.67362479861E+03  0.23215918400E+04  0.25573512536E+04  0.10100000352E+00 0.  1.
</event>
<event>
 5   0  0.5154476E-06  0.2757446E+04  0.7818609E-02  0.8316603E-01
       -1   -1    0    0    0  501  0.00000000000E+00  0.00000000000E+00  0.11925070451E+04  0.11925070451E+04  0.50400001928E-02 0.  1.
        1   -1    0    0  501    0  0.00000000000E+00  0.00000000000E+00 -0.15940174035E+04  0.15940174035E+04  0.50400001928E-02 0. -1.
    10030    2    1    2    0    0  0.00000000000E+00  0.00000000000E+00 -0.40151035837E+03  0.27865244486E+04  0.27574459078E+04 0.  0.
        3    1    3    3  502    0  0.65731935319E+03 -0.10948992811E+03 -0.14204714942E+04  0.15690111702E+04  0.10100000352E+00 0. -1.
       -3    1    3    3    0  502 -0.65731935319E+03  0.10948992811E+03  0.10189611358E+04  0.12175132783E+04  0.10100000352E+00 0.  1.
</event>
<event>
 5   0  0.1336899E-05  0.2802668E+04  0.7818609E-02  0.8302440E-01
        2   -1    0    0  501    0  0.00000000000E+00  0.00000000000E+00  0.23482919178E+04  0.23482919178E+04  0.25500000920E-02 0. -1.
       -2   -1    0    0    0  501  0.00000000000E+00  0.00000000000E+00 -0.83624064710E+03  0.83624064710E+03  0.25500000920E-02 0.  1.
    10030    2    1    2    0    0  0.00000000000E+00  0.00000000000E+00  0.15120512707E+04  0.31845325649E+04  0.28026681237E+04 0.  0.
        1    1    3    3  502    0 -0.92291485532E+03 -0.96353148700E+03  0.12428560566E+04  0.18234187490E+04  0.50400001928E-02 0.  1.
       -1    1    3    3    0  502  0.92291485532E+03  0.96353148700E+03  0.26919521407E+03  0.13611138159E+04  0.50400001928E-02 0. -1.
</event>
<event>
 5   0  0.5352212E-06  0.2808653E+04  0.7818609E-02  0.8300587E-01
        1   -1    0    0  501    0  0.00000000000E+00  0.00000000000E+00  0.16413447066E+04  0.16413447066E+04  0.50400001928E-02 0.  1.
       -1   -1    0    0    0  501  0.00000000000E+00  0.00000000000E+00 -0.12015345989E+04  0.12015345989E+04  0.50400001928E-02 0. -1.
    10030    2    1    2    0    0  0.00000000000E+00  0.00000000000E+00  0.43981010770E+03  0.28428793054E+04  0.28086526689E+04 0.  0.
        2    1    3    3  502    0 -0.97606543229E+03 -0.60570046380E+03  0.10375583116E+04  0.15479354089E+04  0.25500000920E-02 0.  1.
       -2    1    3    3    0  502  0.97606543229E+03  0.60570046380E+03 -0.59774820395E+03  0.12949438966E+04  0.25500000920E-02 0. -1.
</event>
<event>
 5   0  0.5059249E-06  0.2461454E+04  0.7818609E-02  0.8416848E-01
        1   -1    0    0  501    0  0.00000000000E+00  0.00000000000E+00  0.96582525790E+03  0.96582525791E+03  0.50400001928E-02 0.  1.
       -1   -1    0    0    0  501  0.00000000000E+00  0.00000000000E+00 -0.15682846993E+04  0.15682846993E+04  0.50400001928E-02 0. -1.
    10030    2    1    2    0    0  0.00000000000E+00  0.00000000000E+00 -0.60245944135E+03  0.25341099572E+04  0.24614540208E+04 0.  0.
        1    1    3    3  502    0  0.43828561922E+03 -0.94344314780E+02 -0.14812264661E+04  0.15475874701E+04  0.50400001928E-02 0. -1.
       -1    1    3    3    0  502 -0.43828561922E+03  0.94344314780E+02  0.87876702473E+03  0.98652248708E+03  0.50400001928E-02 0.  1.
</event>
<event>
 5   0  0.1307832E-05  0.2851549E+04  0.7818609E-02  0.8287441E-01
        2   -1    0    0  501    0  0.00000000000E+00  0.00000000000E+00  0.13517787475E+04  0.13517787475E+04  0.25500000920E-02 0.  1.
       -2   -1    0    0    0  501  0.00000000000E+00  0.00000000000E+00 -0.15038206177E+04  0.15038206177E+04  0.25500000920E-02 0. -1.
    10030    2    1    2    0    0  0.00000000000E+00  0.00000000000E+00 -0.15204187017E+03  0.28555993652E+04  0.28515488781E+04 0.  0.
        4    1    3    3  502    0  0.98479462511E+03 -0.12305985019E+03  0.94908684488E+03  0.13732194407E+04  0.12699999809E+01 0.  1.
       -4    1    3    3    0  502 -0.98479462511E+03  0.12305985019E+03 -0.11011287151E+04  0.14823799244E+04  0.12699999809E+01 0. -1.
</event>
<event>
 5   0  0.1307832E-05  0.2783902E+04  0.7818609E-02  0.8308284E-01
       -2   -1    0    0    0  501  0.00000000000E+00  0.00000000000E+00  0.86592816176E+03  0.86592816176E+03  0.25500000920E-02 0. -1.
        2   -1    0    0  501    0  0.00000000000E+00  0.00000000000E+00 -0.22375155243E+04  0.22375155243E+04  0.25500000920E-02 0.  1.
    10030    2    1    2    0    0  0.00000000000E+00  0.00000000000E+00 -0.13715873625E+04  0.31034436860E+04  0.27839020851E+04 0.  0.
        4    1    3    3  502    0 -0.42202968944E+03 -0.12233412978E+04 -0.12573334655E+04  0.18043176123E+04  0.12699999809E+01 0.  1.
       -4    1    3    3    0  502  0.42202968944E+03  0.12233412978E+04 -0.11425389702E+03  0.12991260738E+04  0.12699999809E+01 0. -1.
</event>
<event>
 5   0  0.1307832E-05  0.2811782E+04  0.7818609E-02  0.8299620E-01
       -2   -1    0    0    0  501  0.00000000000E+00  0.00000000000E+00  0.19270661474E+04  0.19270661474E+04  0.25500000920E-02 0. -1.
        2   -1    0    0  501    0  0.00000000000E+00  0.00000000000E+00 -0.10256675886E+04  0.10256675886E+04  0.25500000920E-02 0.  1.
    10030    2    1    2    0    0  0.00000000000E+00  0.00000000000E+00  0.90139855889E+03  0.29527337360E+04  0.28117818468E+04 0.  0.
        4    1    3    3  502    0 -0.11040073090E+04  0.38242677028E+03 -0.37044877777E+03  0.12256901252E+04  0.12699999809E+01 0.  1.
       -4    1    3    3    0  502  0.11040073090E+04 -0.38242677028E+03  0.12718473367E+04  0.17270436108E+04  0.12699999809E+01 0. -1.
</event>
<event>
 5   0  0.4590125E-06  0.2974402E+04  0.7818609E-02  0.8251079E-01
       -3   -1    0    0    0  501  0.00000000000E+00  0.00000000000E+00  0.29382995836E+04  0.29382995854E+04  0.10100000352E+00 0.  1.
        3   -1    0    0  501    0  0.00000000000E+00  0.00000000000E+00 -0.75273703771E+03  0.75273704449E+03  0.10100000352E+00 0. -1.
    10030    2    1    2    0    0  0.00000000000E+00  0.00000000000E+00  0.21855625459E+04  0.36910366299E+04  0.29744020846E+04 0.  0.
        4    1    3    3  502    0  0.57794607536E+03 -0.13499202789E+04  0.13850176743E+04  0.20185593864E+04  0.12699999809E+01 0.  1.
       -4    1    3    3    0  502 -0.57794607536E+03  0.13499202789E+04  0.80054487168E+03  0.16724772435E+04  0.12699999809E+01 0. -1.
</event>
<event>
 5   0  0.5059249E-06  0.2871902E+04  0.7818609E-02  0.8281287E-01
        1   -1    0    0  501    0  0.00000000000E+00  0.00000000000E+00  0.16555596247E+04  0.16555596247E+04  0.50400001928E-02 0.  1.
       -1   -1    0    0    0  501  0.00000000000E+00  0.00000000000E+00 -0.12454733003E+04  0.12454733003E+04  0.50400001928E-02 0. -1.
    10030    2    1    2    0    0  0.00000000000E+00  0.00000000000E+00  0.41008632438E+03  0.29010329250E+04  0.28719020246E+04 0.  0.
        1    1    3    3  502    0  0.71041630377E+03 -0.13633341681E+03  0.14580596771E+04  0.16276412833E+04  0.50400001928E-02 0.  1.
       -1    1    3    3    0  502 -0.71041630377E+03  0.13633341681E+03 -0.10479733527E+04  0.12733916417E+04  0.50400001928E-02 0. -1.
</event>
<event>
 5   0  0.4590125E-06  0.2828497E+04  0.7818609E-02  0.8294475E-01
       -3   -1    0    0    0  501  0.00000000000E+00  0.00000000000E+00  0.81432833458E+03  0.81432834084E+03  0.10100000352E+00 0.  1.
        3   -1    0    0  501    0  0.00000000000E+00  0.00000000000E+00 -0.24561338712E+04  0.24561338733E+04  0.10100000352E+00 0. -1.
    10030    2    1    2    0    0  0.00000000000E+00  0.00000000000E+00 -0.16418055366E+04  0.32704622141E+04  0.28284974233E+04 0.  0.
        1    1    3    3  502    0 -0.96658517011E+03 -0.33965423259E+03  0.30633990562E+03  0.10693437364E+04  0.50400001928E-02 0.  1.
       -1    1    3    3    0  502  0.96658517011E+03  0.33965423259E+03 -0.19481454422E+04  0.22011184777E+04  0.50400001928E-02 0. -1.
</event>
<event>
 5   0  0.1385669E-05  0.3025193E+04  0.7818609E-02  0.8236573E-01
       -2   -1    0    0    0  501  0.00000000000E+00  0.00000000000E+00  0.12444202497E+04  0.12444202497E+04  0.25500000920E-02 0.  1.
        2   -1    0    0  501    0  0.00000000000E+00  0.00000000000E+00 -0.18385653687E+04  0.18385653687E+04  0.25500000920E-02 0. -1.
    10030    2    1    2    0    0  0.00000000000E+00  0.00000000000E+00 -0.59414511902E+03  0.30829856184E+04  0.30251928700E+04 0.  0.
        3    1    3    3  502    0  0.11296109951E+03 -0.98337286173E+03  0.86852810926E+03  0.13168612235E+04  0.10100000352E+00 0.  1.
       -3    1    3    3    0  502 -0.11296109951E+03  0.98337286173E+03 -0.14626732283E+04  0.17661243949E+04  0.10100000352E+00 0. -1.
</event>
<event>
 5   0  0.1336899E-05  0.2919762E+04  0.7818609E-02  0.8267022E-01
       -2   -1    0    0    0  501  0.00000000000E+00  0.00000000000E+00  0.10648683987E+04  0.10648683987E+04  0.25500000920E-02 0. -1.
        2   -1    0    0  501    0  0.00000000000E+00  0.00000000000E+00 -0.20014233139E+04  0.20014233139E+04  0.25500000920E-02 0.  1.
    10030    2    1    2    0    0  0.00000000000E+00  0.00000000000E+00 -0.93655491518E+03  0.30662917125E+04  0.29197619350E+04 0.  0.
        1    1    3    3  502    0 -0.11961024781E+03 -0.14419788206E+04 -0.67203214770E+03  0.15953798100E+04  0.50400001928E-02 0. -1.
       -1    1    3    3    0  502  0.11961024781E+03  0.14419788206E+04 -0.26452276748E+03  0.14709119026E+04  0.50400001928E-02 0.  1.
</event>
<event>
 5   0  0.4590125E-06  0.2966273E+04  0.7818609E-02  0.8253428E-01
        4   -1    0    0  501    0  0.00000000000E+00  0.00000000000E+00  0.12296918957E+04  0.12296925515E+04  0.12699999809E+01 0. -1.
       -4   -1    0    0    0  501  0.00000000000E+00  0.00000000000E+00 -0.17888158571E+04  0.17888163079E+04  0.12699999809E+01 0.  1.
    10030    2    1    2    0    0  0.00000000000E+00  0.00000000000E+00 -0.55912396135E+03  0.30185088594E+04  0.29662731045E+04 0.  0.
        3    1    3    3  502    0  0.30554953776E+02  0.28161134882E+02  0.12290999829E+04  0.12298021926E+04  0.10100000352E+00 0. -1.
       -3    1    3    3    0  502 -0.30554953776E+02 -0.28161134882E+02 -0.17882239443E+04  0.17887066668E+04  0.10100000352E+00 0.  1.
</event>
<event>
 5   0  0.5059249E-06  0.2920026E+04  0.7818609E-02  0.8266944E-01
        1   -1    0    0  501    0  0.00000000000E+00  0.00000000000E+00  0.22549166335E+04  0.22549166335E+04  0.50400001928E-02 0.  1.
       -1   -1    0    0    0  501  0.00000000000E+00  0.00000000000E+00 -0.94532901991E+03  0.94532901993E+03  0.50400001928E-02 0. -1.
    10030    2    1    2    0    0  0.00000000000E+00  0.00000000000E+00  0.13095876136E+04  0.32002456534E+04  0.29200261171E+04 0.  0.
        1    1    3    3  502    0 -0.80804243913E+03  0.12067148935E+04  0.81935178429E+03  0.16674623726E+04  0.50400001928E-02 0.  1.
       -1    1    3    3    0  502  0.80804243913E+03 -0.12067148935E+04  0.49023582928E+03  0.15327832808E+04  0.50400001928E-02 0. -1.
</event>
<event>
 5   0  0.5352212E-06  0.2857019E+04  0.7818609E-02  0.8285782E-01
       -1   -1    0    0    0  501  0.00000000000E+00  0.00000000000E+00  0.15572731270E+04  0.15572731270E+04  0.50400001928E-02 0.  1.
        1   -1    0    0  501    0  0.00000000000E+00  0.00000000000E+00 -0.13103925358E+04  0.13103925358E+04  0.50400001928E-02 0. -1.
    10030    2    1    2    0    0  0.00000000000E+00  0.00000000000E+00  0.24688059115E+03  0.28676656628E+04  0.28570187832E+04 0.  0.
        2    1    3    3  502    0 -0.11189941792E+04 -0.63925427314E+03 -0.49517218116E+03  0.13805757813E+04  0.25500000920E-02 0. -1.
       -2    1    3    3    0  502  0.11189941792E+04  0.63925427314E+03  0.74205277231E+03  0.14870898815E+04  0.25500000920E-02 0.  1.
</event>
<event>
 5   0  0.1385669E-05  0.2903556E+04  0.7818609E-02  0.8271820E-01
       -2   -1    0    0    0  501  0.00000000000E+00  0.00000000000E+00  0.10432023537E+04  0.10432023537E+04  0.25500000920E-02 0.  1.
        2   -1    0    0  501    0  0.00000000000E+00  0.00000000000E+00 -0.20203745735E+04  0.20203745735E+04  0.25500000920E-02 0. -1.
    10030    2    1    2    0    0  0.00000000000E+00  0.00000000000E+00 -0.97717221975E+03  0.30635769272E+04  0.29035561027E+04 0.  0.
        3    1    3    3  502    0  0.85934101811E+03 -0.55092271570E+03 -0.15777953037E+04  0.18792075071E+04  0.10100000352E+00 0. -1.
       -3    1    3    3    0  502 -0.85934101811E+03  0.55092271570E+03  0.60062308396E+03  0.11843694201E+04  0.10100000352E+00 0.  1.
</event>
<event>
 5   0  0.5352212E-06  0.2881522E+04  0.7818609E-02  0.8278397E-01
        1   -1    0    0  501    0  0.00000000000E+00  0.00000000000E+00  0.18066715475E+04  0.18066715475E+04  0.50400001928E-02 0.  1.
       -1   -1    0    0    0  501  0.00000000000E+00  0.00000000000E+00 -0.11489590026E+04  0.11489590026E+04  0.50400001928E-02 0. -1.
    10030    2    1    2    0    0  0.00000000000E+00  0.00000000000E+00  0.65771254487E+03  0.29556305501E+04  0.28815215004E+04 0.  0.
        2    1    3    3  502    0 -0.45990124220E+03  0.15037677593E+03 -0.10631272566E+04  0.11680590272E+04  0.25500000920E-02 0. -1.
       -2    1    3    3    0  502  0.45990124220E+03 -0.15037677593E+03  0.17208398015E+04  0.17875715229E+04  0.25500000920E-02 0.  1.
</event>
<event>
 5   0  0.1307832E-05  0.2921638E+04  0.7818609E-02  0.8266468E-01
        2   -1    0    0  501    0  0.00000000000E+00  0.00000000000E+00  0.18751754942E+04  0.18751754942E+04  0.25500000920E-02 0. -1.
       -2   -1    0    0    0  501  0.00000000000E+00  0.00000000000E+00 -0.11380229941E+04  0.11380229941E+04  0.25500000920E-02 0.  1.
    10030    2    1    2    0    0  0.00000000000E+00  0.00000000000E+00  0.73715250007E+03  0.30131984884E+04  0.29216384653E+04 0.  0.
        4    1    3    3  502    0 -0.81023260788E+03  0.31179908203E+03 -0.84310205008E+03  0.12101728084E+04  0.12699999809E+01 0.  1.
       -4    1    3    3    0  502  0.81023260788E+03 -0.31179908203E+03  0.15802545502E+04  0.18030256800E+04  0.12699999809E+01 0. -1.
</event>
<event>
 5   0  0.5154476E-06  0.2880704E+04  0.7818609E-02  0.8278642E-01
        1   -1    0    0  501    0  0.00000000000E+00  0.00000000000E+00  0.17867257252E+04  0.17867257252E+04  0.50400001928E-02 0.  1.
       -1   -1    0    0    0  501  0.00000000000E+00  0.00000000000E+00 -0.11611257189E+04  0.11611257189E+04  0.50400001928E-02 0. -1.
    10030    2    1    2    0    0  0.00000000000E+00  0.00000000000E+00  0.62560000631E+03  0.29478514441E+04  0.28807035197E+04 0.  0.
        3    1    3    3  502    0  0.11811610085E+04 -0.55827190400E+03 -0.30780525707E+03  0.13422194058E+04  0.10100000352E+00 0. -1.
       -3    1    3    3    0  502 -0.11811610085E+04  0.55827190400E+03  0.93340526338E+03  0.16056320384E+04  0.10100000352E+00 0.  1.
</event>
<event>
 5   0  0.5059249E-06  0.2870495E+04  0.7818609E-02  0.8281711E-01
       -1   -1    0    0    0  501  0.00000000000E+00  0.00000000000E+00  0.97227660470E+03  0.97227660471E+03  0.50400001928E-02 0.  1.
        1   -1    0    0  501    0  0.00000000000E+00  0.00000000000E+00 -0.21186718616E+04  0.21186718616E+04  0.50400001928E-02 0. -1.
    10030    2    1    2    0    0  0.00000000000E+00  0.00000000000E+00 -0.11463952569E+04  0.30909484664E+04  0.28704947895E+04 0.  0.
        1    1    3    3  502    0  0.93248406692E+02  0.10474891144E+04  0.47854781622E+03  0.11553946177E+04  0.50400001928E-02 0.  1.
       -1    1    3    3    0  502 -0.93248406692E+02 -0.10474891144E+04 -0.16249430732E+04  0.19355538487E+04  0.50400001928E-02 0. -1.
</event>
<event>
 5   0  0.1307832E-05  0.2847435E+04  0.7818609E-02  0.8288691E-01
        2   -1    0    0  501    0  0.00000000000E+00  0.00000000000E+00  0.24047716962E+04  0.24047716962E+04  0.25500000920E-02 0.  1.
       -2   -1    0    0    0  501  0.00000000000E+00  0.00000000000E+00 -0.84289535673E+03  0.84289535673E+03  0.25500000920E-02 0. -1.
    10030    2    1    2    0    0  0.00000000000E+00  0.00000000000E+00  0.15618763395E+04  0.32476670530E+04  0.28474345624E+04 0.  0.
        4    1    3    3  502    0 -0.13688290065E+04 -0.38191976932E+03  0.68273263295E+03  0.15766042687E+04  0.12699999809E+01 0.  1.
       -4    1    3    3    0  502  0.13688290065E+04  0.38191976932E+03  0.87914370655E+03  0.16710627842E+04  0.12699999809E+01 0. -1.
</event>
<event>
 5   0  0.1339837E-05  0.2575158E+04  0.7818609E-02  0.8376689E-01
        2   -1    0    0  501    0  0.00000000000E+00  0.00000000000E+00  0.10061360464E+04  0.10061360464E+04  0.25500000920E-02 0.  1.
       -2   -1    0    0    0  501  0.00000000000E+00  0.00000000000E+00 -0.16477492276E+04  0.16477492276E+04  0.25500000920E-02 0. -1.
    10030    2    1    2    0    0  0.00000000000E+00  0.00000000000E+00 -0.64161318121E+03  0.26538852741E+04  0.25751581648E+04 0.  0.
        5    1    3    3  502    0  0.28779956129E+03  0.15040508026E+03 -0.16048458686E+04  0.16373767519E+04  0.46999998093E+01 0. -1.
       -5    1    3    3    0  502 -0.28779956129E+03 -0.15040508026E+03  0.96323268739E+03  0.10165085222E+04  0.46999998093E+01 0.  1.
</event>
<event>
 5   0  0.5352212E-06  0.1779813E+04  0.7818609E-02  0.8717109E-01
       -1   -1    0    0    0  501  0.00000000000E+00  0.00000000000E+00  0.14360558400E+04  0.14360558400E+04  0.50400001928E-02 0.  1.
        1   -1    0    0  501    0  0.00000000000E+00  0.00000000000E+00 -0.55146438436E+03  0.55146438439E+03  0.50400001928E-02 0. -1.
    10030    2    1    2    0    0  0.00000000000E+00  0.00000000000E+00  0.88459145566E+03  0.19875202244E+04  0.17798130798E+04 0.  0.
        2    1    3    3  502    0  0.33709125290E+02  0.69859649039E+03  0.10567458254E+04  0.12672352193E+04  0.25500000920E-02 0.  1.
       -2    1    3    3    0  502 -0.33709125290E+02 -0.69859649039E+03 -0.17215436978E+03  0.72028500509E+03  0.25500000920E-02 0. -1.
</event>
<event>
 5   0  0.5352212E-06  0.2944387E+04  0.7818609E-02  0.8259792E-01
        1   -1    0    0  501    0  0.00000000000E+00  0.00000000000E+00  0.17185447166E+04  0.17185447167E+04  0.50400001928E-02 0.  1.
       -1   -1    0    0    0  501  0.00000000000E+00  0.00000000000E+00 -0.12611567882E+04  0.12611567882E+04  0.50400001928E-02 0. -1.
    10030    2    1    2    0    0  0.00000000000E+00  0.00000000000E+00  0.45738792845E+03  0.29797015049E+04  0.29443874305E+04 0.  0.
        2    1    3    3  502    0  0.12711623315E+04 -0.94007292994E+02  0.97418603297E+03  0.16042847226E+04  0.25500000920E-02 0.  1.
       -2    1    3    3    0  502 -0.12711623315E+04  0.94007292994E+02 -0.51679810452E+03  0.13754167823E+04  0.25500000920E-02 0. -1.
</event>
<event>
 5   0  0.5059249E-06  0.2905004E+04  0.7818609E-02  0.8271390E-01
       -1   -1    0    0    0  501  0.00000000000E+00  0.00000000000E+00  0.10245965606E+04  0.10245965606E+04  0.50400001928E-02 0.  1.
        1   -1    0    0  501    0  0.00000000000E+00  0.00000000000E+00 -0.20591146416E+04  0.20591146416E+04  0.50400001928E-02 0. -1.
    10030    2    1    2    0    0  0.00000000000E+00  0.00000000000E+00 -0.10345180811E+04  0.30837112022E+04  0.29050038070E+04 0.  0.
        1    1    3    3  502    0  0.81209390827E+03 -0.48858389270E+03  0.65115791489E+03  0.11498771092E+04  0.50400001928E-02 0.  1.
       -1    1    3    3    0  502 -0.81209390827E+03  0.48858389270E+03 -0.16856759959E+04  0.19338340930E+04  0.50400001928E-02 0. -1.
</event>
<event>
 5   0  0.5261878E-06  0.2909121E+04  0.7818609E-02  0.8270169E-01
       -1   -1    0    0    0  501  0.00000000000E+00  0.00000000000E+00  0.13343436024E+04  0.13343436024E+04  0.50400001928E-02 0.  1.
        1   -1    0    0  501    0  0.00000000000E+00  0.00000000000E+00 -0.15856087829E+04  0.15856087829E+04  0.50400001928E-02 0. -1.
    10030    2    1    2    0    0  0.00000000000E+00  0.00000000000E+00 -0.25126518046E+03  0.29199523853E+04  0.29091214725E+04 0.  0.
        5    1    3    3  502    0 -0.14325194842E+04 -0.19229013458E+03 -0.28944953702E+03  0.14740728248E+04  0.46999998093E+01 0. -1.
       -5    1    3    3    0  502  0.14325194842E+04  0.19229013458E+03  0.38184356552E+02  0.14458795605E+04  0.46999998093E+01 0.  1.
</event>
<event>
 5   0  0.5154476E-06  0.2917991E+04  0.7818609E-02  0.8267545E-01
       -1   -1    0    0    0  501  0.00000000000E+00  0.00000000000E+00  0.16245073763E+04  0.16245073763E+04  0.50400001928E-02 0. -1.
        1   -1    0    0  501    0  0.00000000000E+00  0.00000000000E+00 -0.13103463108E+04  0.13103463108E+04  0.50400001928E-02 0.  1.
    10030    2    1    2    0    0  0.00000000000E+00  0.00000000000E+00  0.31416106548E+03  0.29348536871E+04  0.29179905740E+04 0.  0.
        3    1    3    3  502    0 -0.21601170850E+03 -0.13627159777E+04 -0.32001436974E+03  0.14163562762E+04  0.10100000352E+00 0.  1.
       -3    1    3    3    0  502  0.21601170850E+03  0.13627159777E+04  0.63417543522E+03  0.15184974109E+04  0.10100000352E+00 0. -1.
</event>
<event>
 5   0  0.1336899E-05  0.2769517E+04  0.7818609E-02  0.8312795E-01
       -2   -1    0    0    0  501  0.00000000000E+00  0.00000000000E+00  0.12447745402E+04  0.12447745402E+04  0.25500000920E-02 0. -1.
        2   -1    0    0  501    0  0.00000000000E+00  0.00000000000E+00 -0.15404846562E+04  0.15404846562E+04  0.25500000920E-02 0.  1.
    10030    2    1    2    0    0  0.00000000000E+00  0.00000000000E+00 -0.29571011595E+03  0.27852591964E+04  0.27695169829E+04 0.  0.
        1    1    3    3  502    0  0.47966546761E+03  0.12881415396E+04  0.20933650052E+02  0.13747093528E+04  0.50400001928E-02 0. -1.
       -1    1    3    3    0  502 -0.47966546761E+03 -0.12881415396E+04 -0.31664376600E+03  0.14105498437E+04  0.50400001928E-02 0.  1.
</event>
<event>
 5   0  0.5154476E-06  0.2932029E+04  0.7818609E-02  0.8263411E-01
        1   -1    0    0  501    0  0.00000000000E+00  0.00000000000E+00  0.17991390151E+04  0.17991390151E+04  0.50400001928E-02 0.  1.
       -1   -1    0    0    0  501  0.00000000000E+00  0.00000000000E+00 -0.11945707062E+04  0.11945707062E+04  0.50400001928E-02 0. -1.
    10030    2    1    2    0    0  0.00000000000E+00  0.00000000000E+00  0.60456830891E+03  0.29937097213E+04  0.29320291703E+04 0.  0.
        3    1    3    3  502    0 -0.89409763546E+03 -0.73399729325E+03 -0.61723653580E+03  0.13111611493E+04  0.10100000352E+00 0. -1.
       -3    1    3    3    0  502  0.89409763546E+03  0.73399729325E+03  0.12218048447E+04  0.16825485720E+04  0.10100000352E+00 0.  1.
</event>
<event>
 5   0  0.5059249E-06  0.2918688E+04  0.7818609E-02  0.8267339E-01
        1   -1    0    0  501    0  0.00000000000E+00  0.00000000000E+00  0.14584760152E+04  0.14584760152E+04  0.50400001928E-02 0. -1.
       -1   -1    0    0    0  501  0.00000000000E+00  0.00000000000E+00 -0.14602121884E+04  0.14602121885E+04  0.50400001928E-02 0.  1.
    10030    2    1    2    0    0  0.00000000000E+00  0.00000000000E+00 -0.17361732890E+01  0.29186882036E+04  0.29186876872E+04 0.  0.
        1    1    3    3  502    0  0.18272254224E+03  0.14476876198E+04 -0.23172390348E+02  0.14593573695E+04  0.50400001928E-02 0. -1.
       -1    1    3    3    0  502 -0.18272254224E+03 -0.14476876198E+04  0.21436217059E+02  0.14593308342E+04  0.50400001928E-02 0.  1.
</event>
<event>
 5   0  0.5059249E-06  0.2347246E+04  0.7818609E-02  0.8459522E-01
        1   -1    0    0  501    0  0.00000000000E+00  0.00000000000E+00  0.13209025520E+04  0.13209025521E+04  0.50400001928E-02 0.  1.
       -1   -1    0    0    0  501  0.00000000000E+00  0.00000000000E+00 -0.10427649357E+04  0.10427649357E+04  0.50400001928E-02 0. -1.
    10030    2    1    2    0    0  0.00000000000E+00  0.00000000000E+00  0.27813761633E+03  0.23636674878E+04  0.23472459307E+04 0.  0.
        1    1    3    3  502    0 -0.11536157351E+04 -0.11560999786E+03  0.32254097880E+03  0.12034232917E+04  0.50400001928E-02 0. -1.
       -1    1    3    3    0  502  0.11536157351E+04  0.11560999786E+03 -0.44403362468E+02  0.11602441961E+04  0.50400001928E-02 0.  1.
</event>
<event>
 5   0  0.5002240E-06  0.2191648E+04  0.7818609E-02  0.8521912E-01
       -1   -1    0    0    0  501  0.00000000000E+00  0.00000000000E+00  0.59641595688E+03  0.59641595690E+03  0.50400001928E-02 0. -1.
        1   -1    0    0  501    0  0.00000000000E+00  0.00000000000E+00 -0.20134113688E+04  0.20134113688E+04  0.50400001928E-02 0.  1.
    10030    2    1    2    0    0  0.00000000000E+00  0.00000000000E+00 -0.14169954119E+04  0.26098273257E+04  0.21916483916E+04 0.  0.
        4    1    3    3  502    0  0.20365013812E+03  0.79420726083E+03  0.15726838314E+03  0.83484939310E+03  0.12699999809E+01 0. -1.
       -4    1    3    3    0  502 -0.20365013812E+03 -0.79420726083E+03 -0.15742637950E+04  0.17749779326E+04  0.12699999809E+01 0.  1.
</event>
<event>
 5   0  0.5154476E-06  0.3092316E+04  0.7818609E-02  0.8217850E-01
        1   -1    0    0  501    0  0.00000000000E+00  0.00000000000E+00  0.17054623251E+04  0.17054623251E+04  0.50400001928E-02 0. -1.
       -1   -1    0    0    0  501  0.00000000000E+00  0.00000000000E+00 -0.14017339705E+04  0.14017339705E+04  0.50400001928E-02 0.  1.
    10030    2    1    2    0    0  0.00000000000E+00  0.00000000000E+00  0.30372835458E+03  0.31071962956E+04  0.30923159453E+04 0.  0.
        3    1    3    3  502    0 -0.13351055541E+04  0.30550513114E+03  0.87278740009E+03  0.16240683735E+04  0.10100000352E+00 0. -1.
       -3    1    3    3    0  502  0.13351055541E+04 -0.30550513114E+03 -0.56905904551E+03  0.14831279221E+04  0.10100000352E+00 0.  1.
</event>
<event>
 5   0  0.1336899E-05  0.2859368E+04  0.7818609E-02  0.8285070E-01
       -2   -1    0    0    0  501  0.00000000000E+00  0.00000000000E+00  0.19352511707E+04  0.19352511707E+04  0.25500000920E-02 0. -1.
        2   -1    0    0  501    0  0.00000000000E+00  0.00000000000E+00 -0.10561916937E+04  0.10561916937E+04  0.25500000920E-02 0.  1.
    10030    2    1    2    0    0  0.00000000000E+00  0.00000000000E+00  0.87905947704E+03  0.29914428644E+04  0.28593679104E+04 0.  0.
        1    1    3    3  502    0  0.24951124234E+03 -0.13706774566E+04  0.77526336243E+03  0.15943794502E+04  0.50400001928E-02 0. -1.
       -1    1    3    3    0  502 -0.24951124234E+03  0.13706774566E+04  0.10379611460E+03  0.13970634142E+04  0.50400001928E-02 0.  1.
</event>
<event>
 5   0  0.1385669E-05  0.2841567E+04  0.7818609E-02  0.8290478E-01
       -2   -1    0    0    0  501  0.00000000000E+00  0.00000000000E+00  0.11732480334E+04  0.11732480334E+04  0.25500000920E-02 0.  1.
        2   -1    0    0  501    0  0.00000000000E+00  0.00000000000E+00 -0.17205445739E+04  0.17205445739E+04  0.25500000920E-02 0. -1.
    10030    2    1    2    0    0  0.00000000000E+00  0.00000000000E+00 -0.54729654053E+03  0.28937926074E+04  0.28415668479E+04 0.  0.
        3    1    3    3  502    0 -0.40687389467E+03  0.75364619241E+03  0.88080779329E+03  0.12285566037E+04  0.10100000352E+00 0.  1.
       -3    1    3    3    0  502  0.40687389467E+03 -0.75364619241E+03 -0.14281043338E+04  0.16652360037E+04  0.10100000352E+00 0. -1.
</event>
<event>
 5   0  0.5154476E-06  0.2945786E+04  0.7818609E-02  0.8259384E-01
        1   -1    0    0  501    0  0.00000000000E+00  0.00000000000E+00  0.23578917765E+04  0.23578917765E+04  0.50400001928E-02 0.  1.
       -1   -1    0    0    0  501  0.00000000000E+00  0.00000000000E+00 -0.92006517007E+03  0.92006517009E+03  0.50400001928E-02 0. -1.
    10030    2    1    2    0    0  0.00000000000E+00  0.00000000000E+00  0.14378266064E+04  0.32779569465E+04  0.29457862097E+04 0.  0.
        3    1    3    3  502    0 -0.68241933356E+03 -0.20255275228E+03 -0.71594067146E+03  0.10096013171E+04  0.10100000352E+00 0. -1.
       -3    1    3    3    0  502  0.68241933356E+03  0.20255275228E+03  0.21537672778E+04  0.22683556294E+04  0.10100000352E+00 0.  1.
</event>
<event>
 5   0  0.1339837E-05  0.3146669E+04  0.7818609E-02  0.8203045E-01
        2   -1    0    0  501    0  0.00000000000E+00  0.00000000000E+00  0.17143473543E+04  0.17143473543E+04  0.25500000920E-02 0. -1.
       -2   -1    0    0    0  501  0.00000000000E+00  0.00000000000E+00 -0.14439210513E+04  0.14439210513E+04  0.25500000920E-02 0.  1.
    10030    2    1    2    0    0  0.00000000000E+00  0.00000000000E+00  0.27042630297E+03  0.31582684055E+04  0.31466694990E+04 0.  0.
        5    1    3    3  502    0  0.98778519017E+03  0.59567633632E+03 -0.93868887677E+03  0.14871814876E+04  0.46999998093E+01 0.  1.
       -5    1    3    3    0  502 -0.98778519017E+03 -0.59567633632E+03  0.12091151797E+04  0.16710869180E+04  0.46999998093E+01 0. -1.
</event>
<event>
 5   0  0.5002240E-06  0.2823259E+04  0.7818609E-02  0.8296083E-01
       -1   -1    0    0    0  501  0.00000000000E+00  0.00000000000E+00  0.75432585136E+03  0.75432585137E+03  0.50400001928E-02 0. -1.
        1   -1    0    0  501    0  0.00000000000E+00  0.00000000000E+00 -0.26416945880E+04  0.26416945880E+04  0.50400001928E-02 0.  1.
    10030    2    1    2    0    0  0.00000000000E+00  0.00000000000E+00 -0.18873687367E+04  0.33960204394E+04  0.28232594774E+04 0.  0.
        4    1    3    3  502    0  0.58815217917E+03  0.94241465766E+03 -0.19913774773E+04  0.22802750366E+04  0.12699999809E+01 0.  1.
       -4    1    3    3    0  502 -0.58815217917E+03 -0.94241465766E+03  0.10400874058E+03  0.11157454028E+04  0.12699999809E+01 0. -1.
</event>
<event>
 5   0  0.5352212E-06  0.2848715E+04  0.7818609E-02  0.8288302E-01
        1   -1    0    0  501    0  0.00000000000E+00  0.00000000000E+00  0.23225246248E+04  0.23225246248E+04  0.50400001928E-02 0. -1.
       -1   -1    0    0    0  501  0.00000000000E+00  0.00000000000E+00 -0.87352996542E+03  0.87352996544E+03  0.50400001928E-02 0.  1.
    10030    2    1    2    0    0  0.00000000000E+00  0.00000000000E+00  0.14489946594E+04  0.31960545902E+04  0.28487153984E+04 0.  0.
        2    1    3    3  502    0 -0.12842232501E+04 -0.43499713915E+02  0.14139798367E+04  0.19106178477E+04  0.25500000920E-02 0.  1.
       -2    1    3    3    0  502  0.12842232501E+04  0.43499713915E+02  0.35014822675E+02  0.12854367426E+04  0.25500000920E-02 0. -1.
</event>
<event>
 5   0  0.5059249E-06  0.2992449E+04  0.7818609E-02  0.8245890E-01
        1   -1    0    0  501    0  0.00000000000E+00  0.00000000000E+00  0.13741984403E+04  0.13741984403E+04  0.50400001928E-02 0.  1.
       -1   -1    0    0    0  501  0.00000000000E+00  0.00000000000E+00 -0.16290863746E+04  0.16290863747E+04  0.50400001928E-02 0. -1.
    10030    2    1    2    0    0  0.00000000000E+00  0.00000000000E+00 -0.25488793435E+03  0.30032848150E+04  0.29924491342E+04 0.  0.
        1    1    3    3  502    0 -0.51145976561E+03  0.11879319214E+04  0.62755298351E+03  0.14375660294E+04  0.50400001928E-02 0.  1.
       -1    1    3    3    0  502  0.51145976561E+03 -0.11879319214E+04 -0.88244091786E+03  0.15657187855E+04  0.50400001928E-02 0. -1.
</event>
<event>
 5   0  0.5154476E-06  0.2629035E+04  0.7818609E-02  0.8358405E-01
        1   -1    0    0  501    0  0.00000000000E+00  0.00000000000E+00  0.17979275380E+04  0.17979275380E+04  0.50400001928E-02 0.  1.
       -1   -1    0    0    0  501  0.00000000000E+00  0.00000000000E+00 -0.96108208851E+03  0.96108208852E+03  0.50400001928E-02 0. -1.
    10030    2    1    2    0    0  0.00000000000E+00  0.00000000000E+00  0.83684544945E+03  0.27590096265E+04  0.26290347683E+04 0.  0.
        3    1    3    3  502    0 -0.88656161722E+03  0.45747129436E+03  0.13167102642E+04  0.16519677407E+04  0.10100000352E+00 0.  1.
       -3    1    3    3    0  502  0.88656161722E+03 -0.45747129436E+03 -0.47986481473E+03  0.11070418858E+04  0.10100000352E+00 0. -1.
</event>
<event>
 5   0  0.1339837E-05  0.2757880E+04  0.7818609E-02  0.8316466E-01
       -2   -1    0    0    0  501  0.00000000000E+00  0.00000000000E+00  0.63660867170E+03  0.63660867170E+03  0.25500000920E-02 0. -1.
        2   -1    0    0  501    0  0.00000000000E+00  0.00000000000E+00 -0.29868828668E+04  0.29868828668E+04  0.25500000920E-02 0.  1.
    10030    2    1    2    0    0  0.00000000000E+00  0.00000000000E+00 -0.23502741951E+04  0.36234915385E+04  0.27578800078E+04 0.  0.
        5    1    3    3  502    0 -0.21320558204E+02 -0.13002560063E+04 -0.57256947014E+03  0.14209075044E+04  0.46999998093E+01 0. -1.
       -5    1    3    3    0  502  0.21320558204E+02  0.13002560063E+04 -0.17777047250E+04  0.22025840341E+04  0.46999998093E+01 0.  1.
</event>
<event>
 5   0  0.1307832E-05  0.2923321E+04  0.7818609E-02  0.8265972E-01
       -2   -1    0    0    0  501  0.00000000000E+00  0.00000000000E+00  0.12347454839E+04  0.12347454839E+04  0.25500000920E-02 0.  1.
        2   -1    0    0  501    0  0.00000000000E+00  0.00000000000E+00 -0.17302769401E+04  0.17302769401E+04  0.25500000920E-02 0. -1.
    10030    2    1    2    0    0  0.00000000000E+00  0.00000000000E+00 -0.49553145620E+03  0.29650224240E+04  0.29233211508E+04 0.  0.
        4    1    3    3  502    0 -0.11461013545E+04  0.22639206597E+03  0.64320034564E+03  0.13336078808E+04  0.12699999809E+01 0.  1.
       -4    1    3    3    0  502  0.11461013545E+04 -0.22639206597E+03 -0.11387318018E+04  0.16314145432E+04  0.12699999809E+01 0. -1.
</event>
<event>
 5   0  0.5261878E-06  0.2852645E+04  0.7818609E-02  0.8287108E-01
       -1   -1    0    0    0  501  0.00000000000E+00  0.00000000000E+00  0.13013169296E+04  0.13013169296E+04  0.50400001928E-02 0. -1.
        1   -1    0    0  501    0  0.00000000000E+00  0.00000000000E+00 -0.15633365440E+04  0.15633365440E+04  0.50400001928E-02 0.  1.
    10030    2    1    2    0    0  0.00000000000E+00  0.00000000000E+00 -0.26201961433E+03  0.28646534736E+04  0.28526453066E+04 0.  0.
        5    1    3    3  502    0  0.92150107636E+03  0.24835606435E+03 -0.11954383488E+04  0.15296862110E+04  0.46999998093E+01 0.  1.
       -5    1    3    3    0  502 -0.92150107636E+03 -0.24835606435E+03  0.93341873443E+03  0.13349672626E+04  0.46999998093E+01 0. -1.
</event>
<event>
 5   0  0.5261878E-06  0.3051775E+04  0.7818609E-02  0.8229099E-01
       -1   -1    0    0    0  501  0.00000000000E+00  0.00000000000E+00  0.12900219746E+04  0.12900219746E+04  0.50400001928E-02 0.  1.
        1   -1    0    0  501    0  0.00000000000E+00  0.00000000000E+00 -0.18048781536E+04  0.18048781536E+04  0.50400001928E-02 0. -1.
    10030    2    1    2    0    0  0.00000000000E+00  0.00000000000E+00 -0.51485617900E+03  0.30949001282E+04  0.30517748801E+04 0.  0.
        5    1    3    3  502    0  0.82732217330E+03  0.11804101121E+04 -0.76498062356E+03  0.16318846331E+04  0.46999998093E+01 0. -1.
       -5    1    3    3    0  502 -0.82732217330E+03 -0.11804101121E+04  0.25012444457E+03  0.14630154951E+04  0.46999998093E+01 0.  1.
</event>
<event>
 5   0  0.1336899E-05  0.2966565E+04  0.7818609E-02  0.8253343E-01
       -2   -1    0    0    0  501  0.00000000000E+00  0.00000000000E+00  0.18746086551E+04  0.18746086551E+04  0.25500000920E-02 0. -1.
        2   -1    0    0  501    0  0.00000000000E+00  0.00000000000E+00 -0.11736457538E+04  0.11736457538E+04  0.25500000920E-02 0.  1.
    10030    2    1    2    0    0  0.00000000000E+00  0.00000000000E+00  0.70096290126E+03  0.30482544089E+04  0.29665646719E+04 0.  0.
        1    1    3    3  502    0  0.12310677027E+04 -0.27083331593E+03  0.11538339632E+04  0.17088625423E+04  0.50400001928E-02 0. -1.
       -1    1    3    3    0  502 -0.12310677027E+04  0.27083331593E+03 -0.45287106194E+03  0.13393918667E+04  0.50400001928E-02 0.  1.
</event>
<event>
 5   0  0.1307832E-05  0.1840572E+04  0.7818609E-02  0.8685016E-01
        2   -1    0    0  501    0  0.00000000000E+00  0.00000000000E+00  0.12139325777E+04  0.12139325777E+04  0.25500000920E-02 0.  1.
       -2   -1    0    0    0  501  0.00000000000E+00  0.00000000000E+00 -0.69767196586E+03  0.69767196587E+03  0.25500000920E-02 0. -1.
    10030    2    1    2    0    0  0.00000000000E+00  0.00000000000E+00  0.51626061186E+03  0.19116045436E+04  0.18405724413E+04 0.  0.
        4    1    3    3  502    0  0.26674764402E+03  0.69185014040E+03  0.82424814197E+03  0.11086918124E+04  0.12699999809E+01 0.  1.
       -4    1    3    3    0  502 -0.26674764402E+03 -0.69185014040E+03 -0.30798753011E+03  0.80291273123E+03  0.12699999809E+01 0. -1.
</event>
<event>
 5   0  0.1307832E-05  0.2925791E+04  0.7818609E-02  0.8265245E-01
        2   -1    0    0  501    0  0.00000000000E+00  0.00000000000E+00  0.26908576873E+04  0.26908576873E+04  0.25500000920E-02 0.  1.
       -2   -1    0    0    0  501  0.00000000000E+00  0.00000000000E+00 -0.79530886668E+03  0.79530886669E+03  0.25500000920E-02 0. -1.
    10030    2    1    2    0    0  0.00000000000E+00  0.00000000000E+00  0.18955488207E+04  0.34861665540E+04  0.29257908180E+04 0.  0.
        4    1    3    3  502    0 -0.34412137389E+03 -0.68656185013E+02 -0.74441929629E+03  0.82297927877E+03  0.12699999809E+01 0. -1.
       -4    1    3    3    0  502  0.34412137389E+03  0.68656185013E+02  0.26399681169E+04  0.26631872753E+04  0.12699999809E+01 0.  1.
</event>
<event>
 5   0  0.5002240E-06  0.2918060E+04  0.7818609E-02  0.8267524E-01
       -1   -1    0    0    0  501  0.00000000000E+00  0.00000000000E+00  0.16362870228E+04  0.16362870228E+04  0.50400001928E-02 0.  1.
        1   -1    0    0  501    0  0.00000000000E+00  0.00000000000E+00 -0.13009748087E+04  0.13009748087E+04  0.50400001928E-02 0. -1.
    10030    2    1    2    0    0  0.00000000000E+00  0.00000000000E+00  0.33531221409E+03  0.29372618315E+04  0.29180597640E+04 0.  0.
        4    1    3    3  502    0 -0.29886984096E+03 -0.60576055152E+03  0.14694170149E+04  0.16172374607E+04  0.12699999809E+01 0.  1.
       -4    1    3    3    0  502  0.29886984096E+03  0.60576055152E+03 -0.11341048008E+04  0.13200243709E+04  0.12699999809E+01 0. -1.
</event>
<event>
 5   0  0.5154476E-06  0.3087735E+04  0.7818609E-02  0.8219112E-01
       -1   -1    0    0    0  501  0.00000000000E+00  0.00000000000E+00  0.11907600190E+04  0.11907600190E+04  0.50400001928E-02 0. -1.
        1   -1    0    0  501    0  0.00000000000E+00  0.00000000000E+00 -0.20016859591E+04  0.20016859591E+04  0.50400001928E-02 0.  1.
    10030    2    1    2    0    0  0.00000000000E+00  0.00000000000E+00 -0.81092594011E+03  0.31924459780E+04  0.30877354878E+04 0.  0.
        3    1    3    3  502    0  0.90313722752E+03 -0.69018820682E+02 -0.16981037198E+04  0.19245718232E+04  0.10100000352E+00 0.  1.
       -3    1    3    3    0  502 -0.90313722752E+03  0.69018820682E+02  0.88717777972E+03  0.12678741548E+04  0.10100000352E+00 0. -1.
</event>
<event>
 5   0  0.5154476E-06  0.2828635E+04  0.7818609E-02  0.8294433E-01
        1   -1    0    0  501    0  0.00000000000E+00  0.00000000000E+00  0.18056106182E+04  0.18056106182E+04  0.50400001928E-02 0.  1.
       -1   -1    0    0    0  501  0.00000000000E+00  0.00000000000E+00 -0.11078212308E+04  0.11078212308E+04  0.50400001928E-02 0. -1.
    10030    2    1    2    0    0  0.00000000000E+00  0.00000000000E+00  0.69778938738E+03  0.29134318490E+04  0.28286348491E+04 0.  0.
        3    1    3    3  502    0  0.56162410120E+03  0.90878374024E+03 -0.60570342963E+03  0.12280823150E+04  0.10100000352E+00 0. -1.
       -3    1    3    3    0  502 -0.56162410120E+03 -0.90878374024E+03  0.13034928170E+04  0.16853495340E+04  0.10100000352E+00 0.  1.
</event>
<event>
 5   0  0.1307832E-05  0.2799161E+04  0.7818609E-02  0.8303529E-01
        2   -1    0    0  501    0  0.00000000000E+00  0.00000000000E+00  0.13053446625E+04  0.13053446625E+04  0.25500000920E-02 0.  1.
       -2   -1    0    0    0  501  0.00000000000E+00  0.00000000000E+00 -0.15006199024E+04  0.15006199024E+04  0.25500000920E-02 0. -1.
    10030    2    1    2    0    0  0.00000000000E+00  0.00000000000E+00 -0.19527523989E+03  0.28059645648E+04  0.27991614315E+04 0.  0.
        4    1    3    3  502    0 -0.96917775382E+03 -0.56029041643E+03  0.74440017103E+03  0.13443824221E+04  0.12699999809E+01 0.  1.
       -4    1    3    3    0  502  0.96917775382E+03  0.56029041643E+03 -0.93967541092E+03  0.14615821428E+04  0.12699999809E+01 0. -1.
</event>
<event>
 5   0  0.5002240E-06  0.2896627E+04  0.7818609E-02  0.8273882E-01
       -1   -1    0    0    0  501  0.00000000000E+00  0.00000000000E+00  0.90972278341E+03  0.90972278342E+03  0.50400001928E-02 0. -1.
        1   -1    0    0  501    0  0.00000000000E+00  0.00000000000E+00 -0.23057706073E+04  0.23057706073E+04  0.50400001928E-02 0.  1.
    10030    2    1    2    0    0  0.00000000000E+00  0.00000000000E+00 -0.13960478239E+04  0.32154933907E+04  0.28966270418E+04 0.  0.
        4    1    3    3  502    0 -0.71780103896E+03  0.29159762886E+03 -0.20563863979E+04  0.21974972444E+04  0.12699999809E+01 0.  1.
       -4    1    3    3    0  502  0.71780103896E+03 -0.29159762886E+03  0.66033857402E+03  0.10179961463E+04  0.12699999809E+01 0. -1.
</event>
<event>
 5   0  0.1336899E-05  0.2796277E+04  0.7818609E-02  0.8304425E-01
        2   -1    0    0  501    0  0.00000000000E+00  0.00000000000E+00  0.29983587845E+04  0.29983587845E+04  0.25500000920E-02 0.  1.
       -2   -1    0    0    0  501  0.00000000000E+00  0.00000000000E+00 -0.65195387840E+03  0.65195387841E+03  0.25500000920E-02 0. -1.
    10030    2    1    2    0    0  0.00000000000E+00  0.00000000000E+00  0.23464049061E+04  0.36503126629E+04  0.27962772669E+04 0.  0.
        1    1    3    3  502    0 -0.42909065789E+03  0.12615009890E+04  0.62045650734E+03  0.14698536715E+04  0.50400001928E-02 0.  1.
       -1    1    3    3    0  502  0.42909065789E+03 -0.12615009890E+04  0.17259483987E+04  0.21804589914E+04  0.50400001928E-02 0. -1.
</event>
<event>
 5   0  0.5261878E-06  0.2086612E+04  0.7818609E-02  0.8567164E-01
        1   -1    0    0  501    0  0.00000000000E+00  0.00000000000E+00  0.80584976196E+03  0.80584976197E+03  0.50400001928E-02 0. -1.
       -1   -1    0    0    0  501  0.00000000000E+00  0.00000000000E+00 -0.13507318415E+04  0.13507318416E+04  0.50400001928E-02 0.  1.
    10030    2    1    2    0    0  0.00000000000E+00  0.00000000000E+00 -0.54488207959E+03  0.21565816035E+04  0.20866115432E+04 0.  0.
        5    1    3    3  502    0  0.31788399718E+03  0.28371313650E+03 -0.12566994416E+04  0.13269736079E+04  0.46999998093E+01 0.  1.
       -5    1    3    3    0  502 -0.31788399718E+03 -0.28371313650E+03  0.71181736205E+03  0.82960799562E+03  0.46999998093E+01 0. -1.
</event>
<event>
 5   0  0.1385669E-05  0.2878703E+04  0.7818609E-02  0.8279242E-01
        2   -1    0    0  501    0  0.00000000000E+00  0.00000000000E+00  0.10712976059E+04  0.10712976059E+04  0.25500000920E-02 0. -1.
       -2   -1    0    0    0  501  0.00000000000E+00  0.00000000000E+00 -0.19338538106E+04  0.19338538106E+04  0.25500000920E-02 0.  1.
    10030    2    1    2    0    0  0.00000000000E+00  0.00000000000E+00 -0.86255620473E+03  0.30051514164E+04  0.28787031506E+04 0.  0.
        3    1    3    3  502    0 -0.31775895342E+03 -0.93024193652E+03 -0.15288464896E+04  0.18176062313E+04  0.10100000352E+00 0.  1.
       -3    1    3    3    0  502  0.31775895342E+03  0.93024193652E+03  0.66629028488E+03  0.11875451852E+04  0.10100000352E+00 0. -1.
</event>
<event>
 5   0  0.1336899E-05  0.2826978E+04  0.7818609E-02  0.8294941E-01
       -2   -1    0    0    0  501  0.00000000000E+00  0.00000000000E+00  0.99523493056E+03  0.99523493057E+03  0.25500000920E-02 0.  1.
        2   -1    0    0  501    0  0.00000000000E+00  0.00000000000E+00 -0.20075175941E+04  0.20075175941E+04  0.25500000920E-02 0. -1.
    10030    2    1    2    0    0  0.00000000000E+00  0.00000000000E+00 -0.10122826635E+04  0.30027525246E+04  0.28269783397E+04 0.  0.
        1    1    3    3  502    0  0.27057322507E+03  0.44075766832E+03  0.89112647972E+03  0.10303317889E+04  0.50400001928E-02 0.  1.
       -1    1    3    3    0  502 -0.27057322507E+03 -0.44075766832E+03 -0.19034091432E+04  0.19724207357E+04  0.50400001928E-02 0. -1.
</event>
<event>
 5   0  0.5261878E-06  0.2846240E+04  0.7818609E-02  0.8289055E-01
        1   -1    0    0  501    0  0.00000000000E+00  0.00000000000E+00  0.15331197957E+04  0.15331197957E+04  0.50400001928E-02 0. -1.
       -1   -1    0    0    0  501  0.00000000000E+00  0.00000000000E+00 -0.13210124027E+04  0.13210124027E+04  0.50400001928E-02 0.  1.
    10030    2    1    2    0    0  0.00000000000E+00  0.00000000000E+00  0.21210739295E+03  0.28541321984E+04  0.28462398106E+04 0.  0.
        5    1    3    3  502    0  0.32150834485E+03 -0.13688299702E+02 -0.12840417529E+04  0.13237599097E+04  0.46999998093E+01 0.  1.
       -5    1    3    3    0  502 -0.32150834485E+03  0.13688299702E+02  0.14961491458E+04  0.15303722887E+04  0.46999998093E+01 0. -1.
</event>
<event>
 5   0  0.5352212E-06  0.2871500E+04  0.7818609E-02  0.8281408E-01
        1   -1    0    0  501    0  0.00000000000E+00  0.00000000000E+00  0.12996489370E+04  0.12996489370E+04  0.50400001928E-02 0.  1.
       -1   -1    0    0    0  501  0.00000000000E+00  0.00000000000E+00 -0.15861039150E+04  0.15861039150E+04  0.50400001928E-02 0. -1.
    10030    2    1    2    0    0  0.00000000000E+00  0.00000000000E+00 -0.28645497806E+03  0.28857528520E+04  0.28715001425E+04 0.  0.
        2    1    3    3  502    0 -0.12336141965E+04  0.49231698964E+03  0.40463734462E+03  0.13884924864E+04  0.25500000920E-02 0.  1.
       -2    1    3    3    0  502  0.12336141965E+04 -0.49231698964E+03 -0.69109232268E+03  0.14972603656E+04  0.25500000920E-02 0. -1.
</event>
<event>
 5   0  0.1382803E-05  0.2864710E+04  0.7818609E-02  0.8283455E-01
       -2   -1    0    0    0  501  0.00000000000E+00  0.00000000000E+00  0.10354130728E+04  0.10354130728E+04  0.25500000920E-02 0. -1.
        2   -1    0    0  501    0  0.00000000000E+00  0.00000000000E+00 -0.19814704867E+04  0.19814704867E+04  0.25500000920E-02 0.  1.
    10030    2    1    2    0    0  0.00000000000E+00  0.00000000000E+00 -0.94605741384E+03  0.30168835595E+04  0.28647097202E+04 0.  0.
        2    1    3    3  502    0 -0.45116667605E+03 -0.47001083749E+03  0.87034108175E+03  0.10871776099E+04  0.25500000920E-02 0. -1.
       -2    1    3    3    0  502  0.45116667605E+03  0.47001083749E+03 -0.18163984956E+04  0.19297059496E+04  0.25500000920E-02 0.  1.
</event>
<event>
 5   0  0.1382803E-05  0.2888820E+04  0.7818609E-02  0.8276212E-01
        2   -1    0    0  501    0  0.00000000000E+00  0.00000000000E+00  0.15405798456E+04  0.15405798456E+04  0.25500000920E-02 0.  1.
       -2   -1    0    0    0  501  0.00000000000E+00  0.00000000000E+00 -0.13542436697E+04  0.13542436697E+04  0.25500000920E-02 0. -1.
    10030    2    1    2    0    0  0.00000000000E+00  0.00000000000E+00  0.18633617591E+03  0.28948235154E+04  0.28888201769E+04 0.  0.
        2    1    3    3  502    0 -0.21169863286E+03  0.13548854387E+04 -0.36141506572E+03  0.14181508076E+04  0.25500000920E-02 0.  1.
       -2    1    3    3    0  502  0.21169863286E+03 -0.13548854387E+04  0.54775124164E+03  0.14766727078E+04  0.25500000920E-02 0. -1.
</event>
<event>
 5   0  0.5059249E-06  0.2910641E+04  0.7818609E-02  0.8269719E-01
        1   -1    0    0  501    0  0.00000000000E+00  0.00000000000E+00  0.14206141944E+04  0.14206141944E+04  0.50400001928E-02 0.  1.
       -1   -1    0    0    0  501  0.00000000000E+00  0.00000000000E+00 -0.14908745192E+04  0.14908745192E+04  0.50400001928E-02 0. -1.
    10030    2    1    2    0    0  0.00000000000E+00  0.00000000000E+00 -0.70260324767E+02  0.29114887136E+04  0.29106408257E+04 0.  0.
        1    1    3    3  502    0  0.94604754205E+03 -0.10822666800E+04 -0.26246357852E+03  0.14612303886E+04  0.50400001928E-02 0. -1.
       -1    1    3    3    0  502 -0.94604754205E+03  0.10822666800E+04  0.19220325375E+03  0.14502583250E+04  0.50400001928E-02 0.  1.
</event>
<event>
 5   0  0.5352212E-06  0.2835056E+04  0.7818609E-02  0.8292467E-01
        1   -1    0    0  501    0  0.00000000000E+00  0.00000000000E+00  0.24540062520E+04  0.24540062520E+04  0.50400001928E-02 0.  1.
       -1   -1    0    0    0  501  0.00000000000E+00  0.00000000000E+00 -0.81881862769E+03  0.81881862770E+03  0.50400001928E-02 0. -1.
    10030    2    1    2    0    0  0.00000000000E+00  0.00000000000E+00  0.16351876244E+04  0.32728248797E+04  0.28350562828E+04 0.  0.
        2    1    3    3  502    0 -0.26234293426E+03  0.67319787837E+03  0.22254883671E+04  0.23398328297E+04  0.25500000920E-02 0.  1.
       -2    1    3    3    0  502  0.26234293426E+03 -0.67319787837E+03 -0.59030074277E+03  0.93299205008E+03  0.25500000920E-02 0. -1.
</event>
<event>
 5   0  0.1336899E-05  0.2747027E+04  0.7818609E-02  0.8319906E-01
       -2   -1    0    0    0  501  0.00000000000E+00  0.00000000000E+00  0.94317295068E+03  0.94317295068E+03  0.25500000920E-02 0.  1.
        2   -1    0    0  501    0  0.00000000000E+00  0.00000000000E+00 -0.20002055358E+04  0.20002055358E+04  0.25500000920E-02 0. -1.
    10030    2    1    2    0    0  0.00000000000E+00  0.00000000000E+00 -0.10570325851E+04  0.29433784865E+04  0.27470273076E+04 0.  0.
        1    1    3    3  502    0 -0.15623533608E+02  0.70379575729E+03  0.73517670296E+03  0.10178690227E+04  0.50400001928E-02 0.  1.
       -1    1    3    3    0  502  0.15623533608E+02 -0.70379575729E+03 -0.17922092881E+04  0.19255094638E+04  0.50400001928E-02 0. -1.
</event>
<event>
 5   0  0.5002240E-06  0.2935528E+04  0.7818609E-02  0.8262385E-01
        1   -1    0    0  501    0  0.00000000000E+00  0.00000000000E+00  0.13647872685E+04  0.13647872685E+04  0.50400001928E-02 0.  1.
       -1   -1    0    0    0  501  0.00000000000E+00  0.00000000000E+00 -0.15785108500E+04  0.15785108500E+04  0.50400001928E-02 0. -1.
    10030    2    1    2    0    0  0.00000000000E+00  0.00000000000E+00 -0.21372358155E+03  0.29432981186E+04  0.29355282396E+04 0.  0.
        4    1    3    3  502    0  0.19387142424E+03  0.44208438409E+03  0.12829185547E+04  0.13707320536E+04  0.12699999809E+01 0.  1.
       -4    1    3    3    0  502 -0.19387142424E+03 -0.44208438409E+03 -0.14966421363E+04  0.15725660650E+04  0.12699999809E+01 0. -1.
</event>
<event>
 5   0  0.1336899E-05  0.2771656E+04  0.7818609E-02  0.8312123E-01
        2   -1    0    0  501    0  0.00000000000E+00  0.00000000000E+00  0.18291066450E+04  0.18291066450E+04  0.25500000920E-02 0. -1.
       -2   -1    0    0    0  501  0.00000000000E+00  0.00000000000E+00 -0.10499764010E+04  0.10499764010E+04  0.25500000920E-02 0.  1.
    10030    2    1    2    0    0  0.00000000000E+00  0.00000000000E+00  0.77913024404E+03  0.28790830459E+04  0.27716556872E+04 0.  0.
        1    1    3    3  502    0  0.11866875266E+04 -0.43462863309E+03 -0.20114968350E+03  0.12796837616E+04  0.50400001928E-02 0. -1.
       -1    1    3    3    0  502 -0.11866875266E+04  0.43462863309E+03  0.98027992754E+03  0.15993992844E+04  0.50400001928E-02 0.  1.
</event>
<event>
 5   0  0.5059249E-06  0.2927744E+04  0.7818609E-02  0.8264670E-01
        1   -1    0    0  501    0  0.00000000000E+00  0.00000000000E+00  0.22716945577E+04  0.22716945577E+04  0.50400001928E-02 0.  1.
       -1   -1    0    0    0  501  0.00000000000E+00  0.00000000000E+00 -0.94331417507E+03  0.94331417508E+03  0.50400001928E-02 0. -1.
    10030    2    1    2    0    0  0.00000000000E+00  0.00000000000E+00  0.13283803826E+04  0.32150087328E+04  0.29277443042E+04 0.  0.
        1    1    3    3  502    0 -0.25272143081E+03  0.77145460659E+03  0.20018725200E+04  0.21602092301E+04  0.50400001928E-02 0.  1.
       -1    1    3    3    0  502  0.25272143081E+03 -0.77145460659E+03 -0.67349213738E+03  0.10547995026E+04  0.50400001928E-02 0. -1.
</event>
<event>
 5   0  0.1307832E-05  0.2875509E+04  0.7818609E-02  0.8280202E-01
        2   -1    0    0  501    0  0.00000000000E+00  0.00000000000E+00  0.10517836532E+04  0.10517836532E+04  0.25500000920E-02 0.  1.
       -2   -1    0    0    0  501  0.00000000000E+00  0.00000000000E+00 -0.19653638110E+04  0.19653638110E+04  0.25500000920E-02 0. -1.
    10030    2    1    2    0    0  0.00000000000E+00  0.00000000000E+00 -0.91358015780E+03  0.30171474642E+04  0.28755086708E+04 0.  0.
        4    1    3    3  502    0  0.71496914526E+03  0.11947424798E+04 -0.80597520478E+02  0.13946641334E+04  0.12699999809E+01 0.  1.
       -4    1    3    3    0  502 -0.71496914526E+03 -0.11947424798E+04 -0.83298263732E+03  0.16224833308E+04  0.12699999809E+01 0. -1.
</event>
<event>
 5   0  0.5261878E-06  0.2883139E+04  0.7818609E-02  0.8277912E-01
        1   -1    0    0  501    0  0.00000000000E+00  0.00000000000E+00  0.16513950743E+04  0.16513950743E+04  0.50400001928E-02 0.  1.
       -1   -1    0    0    0  501  0.00000000000E+00  0.00000000000E+00 -0.12584039570E+04  0.12584039570E+04  0.50400001928E-02 0. -1.
    10030    2    1    2    0    0  0.00000000000E+00  0.00000000000E+00  0.39299111726E+03  0.29097990313E+04  0.28831386343E+04 0.  0.
        5    1    3    3  502    0  0.25455126046E+03  0.13598356804E+04 -0.21240592438E+03  0.13996741723E+04  0.46999998093E+01 0. -1.
       -5    1    3    3    0  502 -0.25455126046E+03 -0.13598356804E+04  0.60539704164E+03  0.15101248590E+04  0.46999998093E+01 0.  1.
</event>
<event>
 5   0  0.1385669E-05  0.3302693E+04  0.7818609E-02  0.8162211E-01
       -2   -1    0    0    0  501  0.00000000000E+00  0.00000000000E+00  0.19124562552E+04  0.19124562552E+04  0.25500000920E-02 0. -1.
        2   -1    0    0  501    0  0.00000000000E+00  0.00000000000E+00 -0.14258862476E+04  0.14258862476E+04  0.25500000920E-02 0.  1.
    10030    2    1    2    0    0  0.00000000000E+00  0.00000000000E+00  0.48657000762E+03  0.33383425027E+04  0.33026928851E+04 0.  0.
        3    1    3    3  502    0 -0.11826856048E+04 -0.74074719214E+03  0.11357042501E+04  0.17992431176E+04  0.10100000352E+00 0. -1.
       -3    1    3    3    0  502  0.11826856048E+04  0.74074719214E+03 -0.64913424245E+03  0.15390993851E+04  0.10100000352E+00 0.  1.
</event>
<event>
 5   0  0.1382803E-05  0.2352037E+04  0.7818609E-02  0.8457682E-01
       -2   -1    0    0    0  501  0.00000000000E+00  0.00000000000E+00  0.93711784420E+03  0.93711784420E+03  0.25500000920E-02 0. -1.
        2   -1    0    0  501    0  0.00000000000E+00  0.00000000000E+00 -0.14758225227E+04  0.14758225227E+04  0.25500000920E-02 0.  1.
    10030    2    1    2    0    0  0.00000000000E+00  0.00000000000E+00 -0.53870467854E+03  0.24129403669E+04  0.23520370923E+04 0.  0.
        2    1    3    3  502    0 -0.97002992304E+03 -0.59523137238E+02 -0.94870677422E+03  0.13581404931E+04  0.25500000920E-02 0.  1.
       -2    1    3    3    0  502  0.97002992304E+03  0.59523137238E+02  0.41000209567E+03  0.10547998739E+04  0.25500000920E-02 0. -1.
</event>
<event>
 5   0  0.1336899E-05  0.2897243E+04  0.7818609E-02  0.8273698E-01
        2   -1    0    0  501    0  0.00000000000E+00  0.00000000000E+00  0.29246702630E+04  0.29246702630E+04  0.25500000920E-02 0. -1.
       -2   -1    0    0    0  501  0.00000000000E+00  0.00000000000E+00 -0.71751805872E+03  0.71751805872E+03  0.25500000920E-02 0.  1.
    10030    2    1    2    0    0  0.00000000000E+00  0.00000000000E+00  0.22071522043E+04  0.36421883217E+04  0.28972426405E+04 0.  0.
        1    1    3    3  502    0  0.25003087289E+03  0.32812500146E+03  0.28492669628E+04  0.28789761512E+04  0.50400001928E-02 0. -1.
       -1    1    3    3    0  502 -0.25003087289E+03 -0.32812500146E+03 -0.64211475855E+03  0.76321217047E+03  0.50400001928E-02 0.  1.
</event>
<event>
 5   0  0.5352212E-06  0.2751464E+04  0.7818609E-02  0.8318497E-01
        1   -1    0    0  501    0  0.00000000000E+00  0.00000000000E+00  0.86047841272E+03  0.86047841274E+03  0.50400001928E-02 0. -1.
       -1   -1    0    0    0  501  0.00000000000E+00  0.00000000000E+00 -0.21995186637E+04  0.21995186637E+04  0.50400001928E-02 0.  1.
    10030    2    1    2    0    0  0.00000000000E+00  0.00000000000E+00 -0.13390402510E+04  0.30599970765E+04  0.27514638493E+04 0.  0.
        2    1    3    3  502    0 -0.49998691581E+03  0.12801064435E+04 -0.59936829182E+03  0.14993004275E+04  0.25500000920E-02 0.  1.
       -2    1    3    3    0  502  0.49998691581E+03 -0.12801064435E+04 -0.73967195917E+03  0.15606966489E+04  0.25500000920E-02 0. -1.
</event>
<event>
 5   0  0.1382803E-05  0.2740676E+04  0.7818609E-02  0.8321927E-01
       -2   -1    0    0    0  501  0.00000000000E+00  0.00000000000E+00  0.78807904982E+03  0.78807904982E+03  0.25500000920E-02 0.  1.
        2   -1    0    0  501    0  0.00000000000E+00  0.00000000000E+00 -0.23827885118E+04  0.23827885118E+04  0.25500000920E-02 0. -1.
    10030    2    1    2    0    0  0.00000000000E+00  0.00000000000E+00 -0.15947094620E+04  0.31708675616E+04  0.27406756147E+04 0.  0.
        2    1    3    3  502    0 -0.26614791316E+02  0.30733322081E+03  0.74738448490E+03  0.80854537535E+03  0.25500000920E-02 0.  1.
       -2    1    3    3    0  502  0.26614791316E+02 -0.30733322081E+03 -0.23420939469E+04  0.23623221863E+04  0.25500000920E-02 0. -1.
</event>
<event>
 5   0  0.5154476E-06  0.2924923E+04  0.7818609E-02  0.8265500E-01
       -1   -1    0    0    0  501  0.00000000000E+00  0.00000000000E+00  0.18828316104E+04  0.18828316104E+04  0.50400001928E-02 0. -1.
        1   -1    0    0  501    0  0.00000000000E+00  0.00000000000E+00 -0.11359455336E+04  0.11359455336E+04  0.50400001928E-02 0.  1.
    10030    2    1    2    0    0  0.00000000000E+00  0.00000000000E+00  0.74688607673E+03  0.30187771440E+04  0.29249233552E+04 0.  0.
        3    1    3    3  502    0  0.44262797405E+03 -0.16844176760E+03  0.18014965272E+04  0.18627082166E+04  0.10100000352E+00 0. -1.
       -3    1    3    3    0  502 -0.44262797405E+03  0.16844176760E+03 -0.10546104505E+04  0.11560689274E+04  0.10100000352E+00 0.  1.
</event>
<event>
 5   0  0.5002240E-06  0.2988873E+04  0.7818609E-02  0.8246915E-01
        1   -1    0    0  501    0  0.00000000000E+00  0.00000000000E+00  0.31608194303E+04  0.31608194303E+04  0.50400001928E-02 0. -1.
       -1   -1    0    0    0  501  0.00000000000E+00  0.00000000000E+00 -0.70656997859E+03  0.70656997860E+03  0.50400001928E-02 0.  1.
    10030    2    1    2    0    0  0.00000000000E+00  0.00000000000E+00  0.24542494517E+04  0.38673894089E+04  0.29888727756E+04 0.  0.
        4    1    3    3  502    0 -0.40457574461E+03 -0.13287809141E+04  0.19405459388E+04  0.23864325686E+04  0.12699999809E+01 0. -1.
       -4    1    3    3    0  502  0.40457574461E+03  0.13287809141E+04  0.51370351287E+03  0.14809568403E+04  0.12699999809E+01 0.  1.
</event>
<event>
 5   0  0.5352212E-06  0.2704382E+04  0.7818609E-02  0.8333585E-01
        1   -1    0    0  501    0  0.00000000000E+00  0.00000000000E+00  0.16691385059E+04  0.16691385059E+04  0.50400001928E-02 0. -1.
       -1   -1    0    0    0  501  0.00000000000E+00  0.00000000000E+00 -0.10954273027E+04  0.10954273027E+04  0.50400001928E-02 0.  1.
    10030    2    1    2    0    0  0.00000000000E+00  0.00000000000E+00  0.57371120324E+03  0.27645658086E+04  0.27043815495E+04 0.  0.
        2    1    3    3  502    0 -0.12284476110E+04  0.45125332751E+03  0.63458258744E+03  0.14544442783E+04  0.25500000920E-02 0. -1.
       -2    1    3    3    0  502  0.12284476110E+04 -0.45125332751E+03 -0.60871384202E+02  0.13101215302E+04  0.25500000920E-02 0.  1.
</event>
<event>
 5   0  0.5261878E-06  0.2882022E+04  0.7818609E-02  0.8278247E-01
        1   -1    0    0  501    0  0.00000000000E+00  0.00000000000E+00  0.19970328133E+04  0.19970328133E+04  0.50400001928E-02 0.  1.
       -1   -1    0    0    0  501  0.00000000000E+00  0.00000000000E+00 -0.10397988604E+04  0.10397988604E+04  0.50400001928E-02 0. -1.
    10030    2    1    2    0    0  0.00000000000E+00  0.00000000000E+00  0.95723395292E+03  0.30368316738E+04  0.28820218205E+04 0.  0.
        5    1    3    3  502    0  0.21169749982E+03 -0.81034782481E+02  0.19781206643E+04  0.19910715507E+04  0.46999998093E+01 0.  1.
       -5    1    3    3    0  502 -0.21169749982E+03  0.81034782481E+02 -0.10208867114E+04  0.10457601230E+04  0.46999998093E+01 0. -1.
</event>
<event>
 5   0  0.1336899E-05  0.2877415E+04  0.7818609E-02  0.8279629E-01
        2   -1    0    0  501    0  0.00000000000E+00  0.00000000000E+00  0.18402942656E+04  0.18402942656E+04  0.25500000920E-02 0.  1.
       -2   -1    0    0    0  501  0.00000000000E+00  0.00000000000E+00 -0.11247544084E+04  0.11247544084E+04  0.25500000920E-02 0. -1.
    10030    2    1    2    0    0  0.00000000000E+00  0.00000000000E+00  0.71553985720E+03  0.29650486739E+04  0.28774148730E+04 0.  0.
        1    1    3    3  502    0 -0.23909737410E+03  0.86854559803E+02  0.18169359433E+04  0.18346573225E+04  0.50400001928E-02 0.  1.
       -1    1    3    3    0  502  0.23909737410E+03 -0.86854559803E+02 -0.11013960861E+04  0.11303913514E+04  0.50400001928E-02 0. -1.
</event>
<event>
 5   0  0.1307832E-05  0.2852643E+04  0.7818609E-02  0.8287109E-01
       -2   -1    0    0    0  501  0.00000000000E+00  0.00000000000E+00  0.95907287850E+03  0.95907287850E+03  0.25500000920E-02 0.  1.
        2   -1    0    0  501    0  0.00000000000E+00  0.00000000000E+00 -0.21212076416E+04  0.21212076416E+04  0.25500000920E-02 0. -1.
    10030    2    1    2    0    0  0.00000000000E+00  0.00000000000E+00 -0.11621347631E+04  0.30802805201E+04  0.28526427878E+04 0.  0.
        4    1    3    3  502    0  0.13795241196E+04  0.85893986538E+02 -0.96119115023E+03  0.16835541612E+04  0.12699999809E+01 0.  1.
       -4    1    3    3    0  502 -0.13795241196E+04 -0.85893986538E+02 -0.20094361289E+03  0.13967263590E+04  0.12699999809E+01 0. -1.
</event>
<event>
 5   0  0.1385669E-05  0.2915680E+04  0.7818609E-02  0.8268227E-01
        2   -1    0    0  501    0  0.00000000000E+00  0.00000000000E+00  0.25855053470E+04  0.25855053470E+04  0.25500000920E-02 0.  1.
       -2   -1    0    0    0  501  0.00000000000E+00  0.00000000000E+00 -0.82200476740E+03  0.82200476740E+03  0.25500000920E-02 0. -1.
    10030    2    1    2    0    0  0.00000000000E+00  0.00000000000E+00  0.17635005796E+04  0.34075101144E+04  0.29156801755E+04 0.  0.
        3    1    3    3  502    0 -0.12689953404E+04 -0.70429988522E+03  0.10424612266E+04  0.17869283482E+04  0.10100000352E+00 0.  1.
       -3    1    3    3    0  502  0.12689953404E+04  0.70429988522E+03  0.72103935303E+03  0.16205817663E+04  0.10100000352E+00 0. -1.
</event>
<event>
 5   0  0.5352212E-06  0.2808383E+04  0.7818609E-02  0.8300670E-01
       -1   -1    0    0    0  501  0.00000000000E+00  0.00000000000E+00  0.76110281932E+03  0.76110281934E+03  0.50400001928E-02 0. -1.
        1   -1    0    0  501    0  0.00000000000E+00  0.00000000000E+00 -0.25906538413E+04  0.25906538413E+04  0.50400001928E-02 0.  1.
    10030    2    1    2    0    0  0.00000000000E+00  0.00000000000E+00 -0.18295510219E+04  0.33517566606E+04  0.28083831238E+04 0.  0.
        2    1    3    3  502    0 -0.23517740353E+03 -0.72839743092E+00 -0.25669819355E+04  0.25777325693E+04  0.25500000920E-02 0.  1.
       -2    1    3    3    0  502  0.23517740353E+03  0.72839743092E+00  0.73743091354E+03  0.77402409132E+03  0.25500000920E-02 0. -1.
</event>
<event>
 5   0  0.4590125E-06  0.3138988E+04  0.7818609E-02  0.8205119E-01
        4   -1    0    0  501    0  0.00000000000E+00  0.00000000000E+00  0.19022338639E+04  0.19022342879E+04  0.12699999809E+01 0. -1.
       -4   -1    0    0    0  501  0.00000000000E+00  0.00000000000E+00 -0.12949566405E+04  0.12949572633E+04  0.12699999809E+01 0.  1.
    10030    2    1    2    0    0  0.00000000000E+00  0.00000000000E+00  0.60727722344E+03  0.31971915511E+04  0.31389884021E+04 0.  0.
        1    1    3    3  502    0 -0.28417447822E+03  0.12933760002E+04 -0.55444022339E+03  0.14356115677E+04  0.50400001928E-02 0.  1.
       -1    1    3    3    0  502  0.28417447822E+03 -0.12933760002E+04  0.11617174468E+04  0.17615799835E+04  0.50400001928E-02 0. -1.
</event>
<event>
 5   0  0.5261878E-06  0.3068087E+04  0.7818609E-02  0.8224551E-01
        1   -1    0    0  501    0  0.00000000000E+00  0.00000000000E+00  0.16719652006E+04  0.16719652006E+04  0.50400001928E-02 0.  1.
       -1   -1    0    0    0  501  0.00000000000E+00  0.00000000000E+00 -0.14074988989E+04  0.14074988989E+04  0.50400001928E-02 0. -1.
    10030    2    1    2    0    0  0.00000000000E+00  0.00000000000E+00  0.26446630171E+03  0.30794640994E+04  0.30680868167E+04 0.  0.
        5    1    3    3  502    0  0.96531165761E+03  0.78315223734E+02  0.13263116040E+04  0.16422802536E+04  0.46999998093E+01 0.  1.
       -5    1    3    3    0  502 -0.96531165761E+03 -0.78315223734E+02 -0.10618453023E+04  0.14371838458E+04  0.46999998093E+01 0. -1.
</event>
<event>
 5   0  0.5261878E-06  0.2892885E+04  0.7818609E-02  0.8274997E-01
        1   -1    0    0  501    0  0.00000000000E+00  0.00000000000E+00  0.12982458877E+04  0.12982458877E+04  0.50400001928E-02 0. -1.
       -1   -1    0    0    0  501  0.00000000000E+00  0.00000000000E+00 -0.16115561238E+04  0.16115561238E+04  0.50400001928E-02 0.  1.
    10030    2    1    2    0    0  0.00000000000E+00  0.00000000000E+00 -0.31331023609E+03  0.29098020115E+04  0.28928851415E+04 0.  0.
        5    1    3    3  502    0 -0.52413080164E+03 -0.50476753497E+03  0.11007232307E+04  0.13195139568E+04  0.46999998093E+01 0. -1.
       -5    1    3    3    0  502  0.52413080164E+03  0.50476753497E+03 -0.14140334668E+04  0.15902880547E+04  0.46999998093E+01 0.  1.
</event>
<event>
 5   0  0.5002240E-06  0.2963836E+04  0.7818609E-02  0.8254134E-01
        1   -1    0    0  501    0  0.00000000000E+00  0.00000000000E+00  0.16339073955E+04  0.16339073955E+04  0.50400001928E-02 0.  1.
       -1   -1    0    0    0  501  0.00000000000E+00  0.00000000000E+00 -0.13440669089E+04  0.13440669089E+04  0.50400001928E-02 0. -1.
    10030    2    1    2    0    0  0.00000000000E+00  0.00000000000E+00  0.28984048659E+03  0.29779743044E+04  0.29638359351E+04 0.  0.
        4    1    3    3  502    0 -0.11433082281E+04  0.84729765707E+03  0.56042917745E+03  0.15294278342E+04  0.12699999809E+01 0.  1.
       -4    1    3    3    0  502  0.11433082281E+04 -0.84729765707E+03 -0.27058869086E+03  0.14485464703E+04  0.12699999809E+01 0. -1.
</event>
<event>
 5   0  0.5059249E-06  0.2924458E+04  0.7818609E-02  0.8265638E-01
       -1   -1    0    0    0  501  0.00000000000E+00  0.00000000000E+00  0.14051022259E+04  0.14051022259E+04  0.50400001928E-02 0.  1.
        1   -1    0    0  501    0  0.00000000000E+00  0.00000000000E+00 -0.15216780485E+04  0.15216780485E+04  0.50400001928E-02 0. -1.
    10030    2    1    2    0    0  0.00000000000E+00  0.00000000000E+00 -0.11657582256E+03  0.29267802744E+04  0.29244577022E+04 0.  0.
        1    1    3    3  502    0  0.48368279887E+03 -0.13164894012E+04  0.35558594829E+03  0.14469052353E+04  0.50400001928E-02 0. -1.
       -1    1    3    3    0  502 -0.48368279887E+03  0.13164894012E+04 -0.47216177085E+03  0.14798750391E+04  0.50400001928E-02 0.  1.
</event>
<event>
 5   0  0.1307832E-05  0.2873485E+04  0.7818609E-02  0.8280810E-01
       -2   -1    0    0    0  501  0.00000000000E+00  0.00000000000E+00  0.11888726100E+04  0.11888726100E+04  0.25500000920E-02 0. -1.
        2   -1    0    0  501    0  0.00000000000E+00  0.00000000000E+00 -0.17362916335E+04  0.17362916335E+04  0.25500000920E-02 0.  1.
    10030    2    1    2    0    0  0.00000000000E+00  0.00000000000E+00 -0.54741902352E+03  0.29251642436E+04  0.28734853862E+04 0.  0.
        4    1    3    3  502    0  0.99635998177E+03 -0.64024417220E+03  0.55429585095E+03  0.13076281263E+04  0.12699999809E+01 0. -1.
       -4    1    3    3    0  502 -0.99635998177E+03  0.64024417220E+03 -0.11017148745E+04  0.16175361173E+04  0.12699999809E+01 0.  1.
</event>
<event>
 5   0  0.1339837E-05  0.2889393E+04  0.7818609E-02  0.8276040E-01
        2   -1    0    0  501    0  0.00000000000E+00  0.00000000000E+00  0.20649736371E+04  0.20649736371E+04  0.25500000920E-02 0. -1.
       -2   -1    0    0    0  501  0.00000000000E+00  0.00000000000E+00 -0.10107383835E+04  0.10107383835E+04  0.25500000920E-02 0.  1.
    10030    2    1    2    0    0  0.00000000000E+00  0.00000000000E+00  0.10542352536E+04  0.30757120206E+04  0.28893930961E+04 0.  0.
        5    1    3    3  502    0  0.35638311831E+03  0.13747497511E+04  0.24511938270E+03  0.14411979069E+04  0.46999998093E+01 0. -1.
       -5    1    3    3    0  502 -0.35638311831E+03 -0.13747497511E+04  0.80911587093E+03  0.16345141137E+04  0.46999998093E+01 0.  1.
</event>
<event>
 5   0  0.5261878E-06  0.2717528E+04  0.7818609E-02  0.8329340E-01
        1   -1    0    0  501    0  0.00000000000E+00  0.00000000000E+00  0.17870412247E+04  0.17870412247E+04  0.50400001928E-02 0.  1.
       -1   -1    0    0    0  501  0.00000000000E+00  0.00000000000E+00 -0.10331261011E+04  0.10331261011E+04  0.50400001928E-02 0. -1.
    10030    2    1    2    0    0  0.00000000000E+00  0.00000000000E+00  0.75391512361E+03  0.28201673259E+04  0.27175275035E+04 0.  0.
        5    1    3    3  502    0 -0.19559499410E+03 -0.49806469614E+03 -0.91917092130E+03  0.10635897310E+04  0.46999998093E+01 0. -1.
       -5    1    3    3    0  502  0.19559499410E+03  0.49806469614E+03  0.16730860449E+04  0.17565775949E+04  0.46999998093E+01 0.  1.
</event>
<event>
 5   0  0.1336899E-05  0.2908147E+04  0.7818609E-02  0.8270458E-01
        2   -1    0    0  501    0  0.00000000000E+00  0.00000000000E+00  0.23755429677E+04  0.23755429677E+04  0.25500000920E-02 0. -1.
       -2   -1    0    0    0  501  0.00000000000E+00  0.00000000000E+00 -0.89004079018E+03  0.89004079018E+03  0.25500000920E-02 0.  1.
    10030    2    1    2    0    0  0.00000000000E+00  0.00000000000E+00  0.14855021775E+04  0.32655837578E+04  0.29081472728E+04 0.  0.
        1    1    3    3  502    0  0.82516521038E+03  0.92980571766E+03 -0.10420334923E+03  0.12475153847E+04  0.50400001928E-02 0.  1.
       -1    1    3    3    0  502 -0.82516521038E+03 -0.92980571766E+03  0.15897055267E+04  0.20180683731E+04  0.50400001928E-02 0. -1.
</event>
<event>
 5   0  0.1382803E-05  0.2759859E+04  0.7818609E-02  0.8315840E-01
        2   -1    0    0  501    0  0.00000000000E+00  0.00000000000E+00  0.24525279521E+04  0.24525279521E+04  0.25500000920E-02 0.  1.
       -2   -1    0    0    0  501  0.00000000000E+00  0.00000000000E+00 -0.77642544337E+03  0.77642544337E+03  0.25500000920E-02 0. -1.
    10030    2    1    2    0    0  0.00000000000E+00  0.00000000000E+00  0.16761025087E+04  0.32289533955E+04  0.27598587664E+04 0.  0.
        2    1    3    3  502    0 -0.12169930587E+04 -0.59366013305E+03  0.11491416502E+04  0.17759591749E+04  0.25500000920E-02 0.  1.
       -2    1    3    3    0  502  0.12169930587E+04  0.59366013305E+03  0.52696085847E+03  0.14529942206E+04  0.25500000920E-02 0. -1.
</event>
<event>
 5   0  0.1382803E-05  0.2604636E+04  0.7818609E-02  0.8366628E-01
       -2   -1    0    0    0  501  0.00000000000E+00  0.00000000000E+00  0.18744220972E+04  0.18744220972E+04  0.25500000920E-02 0. -1.
        2   -1    0    0  501    0  0.00000000000E+00  0.00000000000E+00 -0.90482916084E+03  0.90482916084E+03  0.25500000920E-02 0.  1.
    10030    2    1    2    0    0  0.00000000000E+00  0.00000000000E+00  0.96959293638E+03  0.27792512581E+04  0.26046356930E+04 0.  0.
        2    1    3    3  502    0  0.28482391303E+03 -0.99981465395E+03 -0.35218614280E+03  0.10976288457E+04  0.25500000920E-02 0.  1.
       -2    1    3    3    0  502 -0.28482391303E+03  0.99981465395E+03  0.13217790792E+04  0.16816224124E+04  0.25500000920E-02 0. -1.
</event>
<event>
 5   0  0.5002240E-06  0.2829362E+04  0.7818609E-02  0.8294210E-01
       -1   -1    0    0    0  501  0.00000000000E+00  0.00000000000E+00  0.20470076821E+04  0.20470076821E+04  0.50400001928E-02 0. -1.
        1   -1    0    0  501    0  0.00000000000E+00  0.00000000000E+00 -0.97768174143E+03  0.97768174144E+03  0.50400001928E-02 0.  1.
    10030    2    1    2    0    0  0.00000000000E+00  0.00000000000E+00  0.10693259406E+04  0.30246894235E+04  0.28293617905E+04 0.  0.
        4    1    3    3  502    0 -0.15804746557E+03  0.69282721538E+03  0.18423573782E+04  0.19746571535E+04  0.12699999809E+01 0. -1.
       -4    1    3    3    0  502  0.15804746557E+03 -0.69282721538E+03 -0.77303143758E+03  0.10500322700E+04  0.12699999809E+01 0.  1.
</event>
<event>
 5   0  0.5059249E-06  0.2813080E+04  0.7818609E-02  0.8299219E-01
       -1   -1    0    0    0  501  0.00000000000E+00  0.00000000000E+00  0.21481796434E+04  0.21481796434E+04  0.50400001928E-02 0. -1.
        1   -1    0    0  501    0  0.00000000000E+00  0.00000000000E+00 -0.92094468380E+03  0.92094468381E+03  0.50400001928E-02 0.  1.
    10030    2    1    2    0    0  0.00000000000E+00  0.00000000000E+00  0.12272349596E+04  0.30691243272E+04  0.28130798940E+04 0.  0.
        1    1    3    3  502    0 -0.13135848474E+04  0.49956238870E+03  0.55106780312E+03  0.15095507461E+04  0.50400001928E-02 0. -1.
       -1    1    3    3    0  502  0.13135848474E+04 -0.49956238870E+03  0.67616715650E+03  0.15595735811E+04  0.50400001928E-02 0.  1.
</event>
<event>
 5   0  0.1339837E-05  0.2888150E+04  0.7818609E-02  0.8276412E-01
       -2   -1    0    0    0  501  0.00000000000E+00  0.00000000000E+00  0.11341195038E+04  0.11341195038E+04  0.25500000920E-02 0. -1.
        2   -1    0    0  501    0  0.00000000000E+00  0.00000000000E+00 -0.18387420079E+04  0.18387420079E+04  0.25500000920E-02 0.  1.
    10030    2    1    2    0    0  0.00000000000E+00  0.00000000000E+00 -0.70462250411E+03  0.29728615116E+04  0.28881503933E+04 0.  0.
        5    1    3    3  502    0  0.35836213207E+03 -0.40600302222E+03  0.10256349541E+04  0.11598323245E+04  0.46999998093E+01 0. -1.
       -5    1    3    3    0  502 -0.35836213207E+03  0.40600302222E+03 -0.17302574582E+04  0.18130291872E+04  0.46999998093E+01 0.  1.
</event>
<event>
 5   0  0.5261878E-06  0.2293166E+04  0.7818609E-02  0.8480621E-01
       -1   -1    0    0    0  501  0.00000000000E+00  0.00000000000E+00  0.14020386330E+04  0.14020386330E+04  0.50400001928E-02 0.  1.
        1   -1    0    0  501    0  0.00000000000E+00  0.00000000000E+00 -0.93767192830E+03  0.93767192832E+03  0.50400001928E-02 0. -1.
    10030    2    1    2    0    0  0.00000000000E+00  0.00000000000E+00  0.46436670474E+03  0.23397105614E+04  0.22931657320E+04 0.  0.
        5    1    3    3  502    0  0.37962121267E+03  0.25478867156E+03  0.13050008152E+04  0.13827793570E+04  0.46999998093E+01 0.  1.
       -5    1    3    3    0  502 -0.37962121267E+03 -0.25478867156E+03 -0.84063411049E+03  0.95693120441E+03  0.46999998093E+01 0. -1.
</event>
<event>
 5   0  0.1382803E-05  0.2770801E+04  0.7818609E-02  0.8312391E-01
       -2   -1    0    0    0  501  0.00000000000E+00  0.00000000000E+00  0.77552738162E+03  0.77552738162E+03  0.25500000920E-02 0.  1.
        2   -1    0    0  501    0  0.00000000000E+00  0.00000000000E+00 -0.24748765223E+04  0.24748765223E+04  0.25500000920E-02 0. -1.
    10030    2    1    2    0    0  0.00000000000E+00  0.00000000000E+00 -0.16993491406E+04  0.32504039039E+04  0.27708009738E+04 0.  0.
        2    1    3    3  502    0  0.66704457102E+03 -0.96101529466E+03 -0.17203233997E+04  0.20803873331E+04  0.25500000920E-02 0. -1.
       -2    1    3    3    0  502 -0.66704457102E+03  0.96101529466E+03  0.20974259039E+02  0.11700165708E+04  0.25500000920E-02 0.  1.
</event>
<event>
 5   0  0.1307832E-05  0.2918463E+04  0.7818609E-02  0.8267405E-01
        2   -1    0    0  501    0  0.00000000000E+00  0.00000000000E+00  0.13430917468E+04  0.13430917468E+04  0.25500000920E-02 0.  1.
       -2   -1    0    0    0  501  0.00000000000E+00  0.00000000000E+00 -0.15854140751E+04  0.15854140751E+04  0.25500000920E-02 0. -1.
    10030    2    1    2    0    0  0.00000000000E+00  0.00000000000E+00 -0.24232232827E+03  0.29285058218E+04  0.29184629924E+04 0.  0.
        4    1    3    3  502    0  0.88193983386E+03  0.11397703854E+04 -0.35099200087E+03  0.14832705079E+04  0.12699999809E+01 0.  1.
       -4    1    3    3    0  502 -0.88193983386E+03 -0.11397703854E+04  0.10866967259E+03  0.14452353139E+04  0.12699999809E+01 0. -1.
</event>
<event>
 5   0  0.5002240E-06  0.2795976E+04  0.7818609E-02  0.8304519E-01
       -1   -1    0    0    0  501  0.00000000000E+00  0.00000000000E+00  0.79599219228E+03  0.79599219229E+03  0.50400001928E-02 0.  1.
        1   -1    0    0  501    0  0.00000000000E+00  0.00000000000E+00 -0.24552637765E+04  0.24552637765E+04  0.50400001928E-02 0. -1.
    10030    2    1    2    0    0  0.00000000000E+00  0.00000000000E+00 -0.16592715842E+04  0.32512559688E+04  0.27959762489E+04 0.  0.
        4    1    3    3  502    0  0.65338527997E+03 -0.84680794832E+03 -0.18764273423E+04  0.21598558306E+04  0.12699999809E+01 0. -1.
       -4    1    3    3    0  502 -0.65338527997E+03  0.84680794832E+03  0.21715575805E+03  0.10914001382E+04  0.12699999809E+01 0.  1.
</event>
<event>
 5   0  0.1339837E-05  0.2895828E+04  0.7818609E-02  0.8274120E-01
        2   -1    0    0  501    0  0.00000000000E+00  0.00000000000E+00  0.21532361866E+04  0.21532361866E+04  0.25500000920E-02 0. -1.
       -2   -1    0    0    0  501  0.00000000000E+00  0.00000000000E+00 -0.97363014191E+03  0.97363014191E+03  0.25500000920E-02 0.  1.
    10030    2    1    2    0    0  0.00000000000E+00  0.00000000000E+00  0.11796060447E+04  0.31268663285E+04  0.28958284852E+04 0.  0.
        5    1    3    3  502    0  0.59559057387E+03 -0.89684026021E+01 -0.83519350208E+03  0.10258551749E+04  0.46999998093E+01 0.  1.
       -5    1    3    3    0  502 -0.59559057387E+03  0.89684026021E+01  0.20147995468E+04  0.21010111536E+04  0.46999998093E+01 0. -1.
</event>
<event>
 5   0  0.1385669E-05  0.2881523E+04  0.7818609E-02  0.8278396E-01
       -2   -1    0    0    0  501  0.00000000000E+00  0.00000000000E+00  0.18817852773E+04  0.18817852773E+04  0.25500000920E-02 0.  1.
        2   -1    0    0  501    0  0.00000000000E+00  0.00000000000E+00 -0.11030982640E+04  0.11030982640E+04  0.25500000920E-02 0. -1.
    10030    2    1    2    0    0  0.00000000000E+00  0.00000000000E+00  0.77868701336E+03  0.29848835413E+04  0.28815232587E+04 0.  0.
        3    1    3    3  502    0 -0.33808607100E+03  0.18095347264E+03  0.18279531720E+04  0.18677417273E+04  0.10100000352E+00 0.  1.
       -3    1    3    3    0  502  0.33808607100E+03 -0.18095347264E+03 -0.10492661587E+04  0.11171418140E+04  0.10100000352E+00 0. -1.
</event>
<event>
 5   0  0.1307832E-05  0.2899212E+04  0.7818609E-02  0.8273112E-01
       -2   -1    0    0    0  501  0.00000000000E+00  0.00000000000E+00  0.11159133571E+04  0.11159133571E+04  0.25500000920E-02 0.  1.
        2   -1    0    0  501    0  0.00000000000E+00  0.00000000000E+00 -0.18830825257E+04  0.18830825257E+04  0.25500000920E-02 0. -1.
    10030    2    1    2    0    0  0.00000000000E+00  0.00000000000E+00 -0.76716916857E+03  0.29989958828E+04  0.28992115776E+04 0.  0.
        4    1    3    3  502    0  0.15331859033E+03  0.10572819611E+04 -0.13971047376E+04  0.17587651907E+04  0.12699999809E+01 0. -1.
       -4    1    3    3    0  502 -0.15331859033E+03 -0.10572819611E+04  0.62993556904E+03  0.12402306920E+04  0.12699999809E+01 0.  1.
</event>
<event>
 5   0  0.5352212E-06  0.2927764E+04  0.7818609E-02  0.8264665E-01
        1   -1    0    0  501    0  0.00000000000E+00  0.00000000000E+00  0.20304390180E+04  0.20304390180E+04  0.50400001928E-02 0. -1.
       -1   -1    0    0    0  501  0.00000000000E+00  0.00000000000E+00 -0.10554122508E+04  0.10554122508E+04  0.50400001928E-02 0.  1.
    10030    2    1    2    0    0  0.00000000000E+00  0.00000000000E+00  0.97502676721E+03  0.30858512688E+04  0.29277637980E+04 0.  0.
        2    1    3    3  502    0  0.30787113121E+03  0.45498207948E+03 -0.94264571144E+03  0.10910427413E+04  0.25500000920E-02 0.  1.
       -2    1    3    3    0  502 -0.30787113121E+03 -0.45498207948E+03  0.19176724786E+04  0.19948085275E+04  0.25500000920E-02 0. -1.
</event>
<event>
 5   0  0.1385669E-05  0.2940070E+04  0.7818609E-02  0.8261054E-01
        2   -1    0    0  501    0  0.00000000000E+00  0.00000000000E+00  0.11257365927E+04  0.11257365927E+04  0.25500000920E-02 0. -1.
       -2   -1    0    0    0  501  0.00000000000E+00  0.00000000000E+00 -0.19196339736E+04  0.19196339736E+04  0.25500000920E-02 0.  1.
    10030    2    1    2    0    0  0.00000000000E+00  0.00000000000E+00 -0.79389738086E+03  0.30453705663E+04  0.29400695289E+04 0.  0.
        3    1    3    3  502    0  0.82660659857E+03 -0.57651873898E+03 -0.15054893601E+04  0.18116706513E+04  0.10100000352E+00 0.  1.
       -3    1    3    3    0  502 -0.82660659857E+03  0.57651873898E+03  0.71159197925E+03  0.12336999150E+04  0.10100000352E+00 0. -1.
</event>
<event>
 5   0  0.5154476E-06  0.2846035E+04  0.7818609E-02  0.8289117E-01
        1   -1    0    0  501    0  0.00000000000E+00  0.00000000000E+00  0.29965512777E+04  0.29965512777E+04  0.50400001928E-02 0. -1.
       -1   -1    0    0    0  501  0.00000000000E+00  0.00000000000E+00 -0.67577001117E+03  0.67577001119E+03  0.50400001928E-02 0.  1.
    10030    2    1    2    0    0  0.00000000000E+00  0.00000000000E+00  0.23207812665E+04  0.36723212889E+04  0.28460354815E+04 0.  0.
        3    1    3    3  502    0 -0.95499221008E+01  0.12502450062E+04  0.28355962551E+03  0.12820334817E+04  0.10100000352E+00 0. -1.
       -3    1    3    3    0  502  0.95499221008E+01 -0.12502450062E+04  0.20372216410E+04  0.23902878073E+04  0.10100000352E+00 0.  1.
</event>
<event>
 5   0  0.1307832E-05  0.2947167E+04  0.7818609E-02  0.8258981E-01
       -2   -1    0    0    0  501  0.00000000000E+00  0.00000000000E+00  0.10440479790E+04  0.10440479790E+04  0.25500000920E-02 0. -1.
        2   -1    0    0  501    0  0.00000000000E+00  0.00000000000E+00 -0.20798351149E+04  0.20798351149E+04  0.25500000920E-02 0.  1.
    10030    2    1    2    0    0  0.00000000000E+00  0.00000000000E+00 -0.10357871359E+04  0.31238830939E+04  0.29471665364E+04 0.  0.
        4    1    3    3  502    0  0.13470481498E+04 -0.13043183872E+03 -0.11358564494E+04  0.17668397406E+04  0.12699999809E+01 0.  1.
       -4    1    3    3    0  502 -0.13470481498E+04  0.13043183872E+03  0.10006931351E+03  0.13570433533E+04  0.12699999809E+01 0. -1.
</event>
<event>
 5   0  0.5059249E-06  0.1906852E+04  0.7818609E-02  0.8651453E-01
       -1   -1    0    0    0  501  0.00000000000E+00  0.00000000000E+00  0.83002527345E+03  0.83002527346E+03  0.50400001928E-02 0. -1.
        1   -1    0    0  501    0  0.00000000000E+00  0.00000000000E+00 -0.10951732582E+04  0.10951732582E+04  0.50400001928E-02 0.  1.
    10030    2    1    2    0    0  0.00000000000E+00  0.00000000000E+00 -0.26514798478E+03  0.19251985317E+04  0.19068523626E+04 0.  0.
        1    1    3    3  502    0  0.33464949514E+03  0.26770698793E+02 -0.10335241636E+04  0.10866826361E+04  0.50400001928E-02 0.  1.
       -1    1    3    3    0  502 -0.33464949514E+03 -0.26770698793E+02  0.76837617882E+03  0.83851589557E+03  0.50400001928E-02 0. -1.
</event>
<event>
 5   0  0.1339837E-05  0.2790207E+04  0.7818609E-02  0.8306315E-01
       -2   -1    0    0    0  501  0.00000000000E+00  0.00000000000E+00  0.97553808008E+03  0.97553808008E+03  0.25500000920E-02 0.  1.
        2   -1    0    0  501    0  0.00000000000E+00  0.00000000000E+00 -0.19951176617E+04  0.19951176617E+04  0.25500000920E-02 0. -1.
    10030    2    1    2    0    0  0.00000000000E+00  0.00000000000E+00 -0.10195795816E+04  0.29706557418E+04  0.27902066255E+04 0.  0.
        5    1    3    3  502    0  0.11343176521E+04  0.81091063982E+03 -0.46171937409E+03  0.14688292862E+04  0.46999998093E+01 0.  1.
       -5    1    3    3    0  502 -0.11343176521E+04 -0.81091063982E+03 -0.55786020751E+03  0.15018264556E+04  0.46999998093E+01 0. -1.
</event>
<event>
 5   0  0.5261878E-06  0.2933152E+04  0.7818609E-02  0.8263082E-01
        1   -1    0    0  501    0  0.00000000000E+00  0.00000000000E+00  0.14121569542E+04  0.14121569542E+04  0.50400001928E-02 0. -1.
       -1   -1    0    0    0  501  0.00000000000E+00  0.00000000000E+00 -0.15230916804E+04  0.15230916805E+04  0.50400001928E-02 0.  1.
    10030    2    1    2    0    0  0.00000000000E+00  0.00000000000E+00 -0.11093472628E+03  0.29352486346E+04  0.29331515531E+04 0.  0.
        5    1    3    3  502    0 -0.10218932578E+04 -0.82571228995E+03 -0.70766624767E+03  0.14922735085E+04  0.46999998093E+01 0.  1.
       -5    1    3    3    0  502  0.10218932578E+04  0.82571228995E+03  0.59673152139E+03  0.14429751261E+04  0.46999998093E+01 0. -1.
</event>
<event>
 5   0  0.5261878E-06  0.1933101E+04  0.7818609E-02  0.8638553E-01
        1   -1    0    0  501    0  0.00000000000E+00  0.00000000000E+00  0.12558588988E+04  0.12558588988E+04  0.50400001928E-02 0. -1.
       -1   -1    0    0    0  501  0.00000000000E+00  0.00000000000E+00 -0.74388939496E+03  0.74388939497E+03  0.50400001928E-02 0.  1.
    10030    2    1    2    0    0  0.00000000000E+00  0.00000000000E+00  0.51196950381E+03  0.19997482937E+04  0.19331012559E+04 0.  0.
        5    1    3    3  502    0  0.27735570227E+03 -0.20044431523E+03 -0.67911237079E+03  0.76047341258E+03  0.46999998093E+01 0.  1.
       -5    1    3    3    0  502 -0.27735570227E+03  0.20044431523E+03  0.11910818746E+04  0.12392748812E+04  0.46999998093E+01 0. -1.
</event>
<event>
 5   0  0.1339837E-05  0.2877070E+04  0.7818609E-02  0.8279733E-01
       -2   -1    0    0    0  501  0.00000000000E+00  0.00000000000E+00  0.77078427756E+03  0.77078427756E+03  0.25500000920E-02 0. -1.
        2   -1    0    0  501    0  0.00000000000E+00  0.00000000000E+00 -0.26847750419E+04  0.26847750419E+04  0.25500000920E-02 0.  1.
    10030    2    1    2    0    0  0.00000000000E+00  0.00000000000E+00 -0.19139907644E+04  0.34555593195E+04  0.28770696141E+04 0.  0.
        5    1    3    3  502    0 -0.49292740462E+03  0.13512595909E+04 -0.93067050980E+03  0.17131986446E+04  0.46999998093E+01 0.  1.
       -5    1    3    3    0  502  0.49292740462E+03 -0.13512595909E+04 -0.98332025458E+03  0.17423606749E+04  0.46999998093E+01 0. -1.
</event>
<event>
 5   0  0.5002240E-06  0.2272149E+04  0.7818609E-02  0.8488984E-01
       -1   -1    0    0    0  501  0.00000000000E+00  0.00000000000E+00  0.73600432022E+03  0.73600432024E+03  0.50400001928E-02 0.  1.
        1   -1    0    0  501    0  0.00000000000E+00  0.00000000000E+00 -0.17536107657E+04  0.17536107657E+04  0.50400001928E-02 0. -1.
    10030    2    1    2    0    0  0.00000000000E+00  0.00000000000E+00 -0.10176064454E+04  0.24896150859E+04  0.22721488503E+04 0.  0.
        4    1    3    3  502    0 -0.85323277837E+02 -0.11246109500E+04 -0.35923331313E+03  0.11836722675E+04  0.12699999809E+01 0.  1.
       -4    1    3    3    0  502  0.85323277837E+02  0.11246109500E+04 -0.65837313230E+03  0.13059428184E+04  0.12699999809E+01 0. -1.
</event>
<event>
 5   0  0.5002240E-06  0.2926384E+04  0.7818609E-02  0.8265070E-01
       -1   -1    0    0    0  501  0.00000000000E+00  0.00000000000E+00  0.90251442099E+03  0.90251442101E+03  0.50400001928E-02 0. -1.
        1   -1    0    0  501    0  0.00000000000E+00  0.00000000000E+00 -0.23721850637E+04  0.23721850637E+04  0.50400001928E-02 0.  1.
    10030    2    1    2    0    0  0.00000000000E+00  0.00000000000E+00 -0.14696706427E+04  0.32746994847E+04  0.29263842736E+04 0.  0.
        4    1    3    3  502    0 -0.84384345888E+03  0.20414296642E+03 -0.20528099549E+04  0.22288509277E+04  0.12699999809E+01 0.  1.
       -4    1    3    3    0  502  0.84384345888E+03 -0.20414296642E+03  0.58313931224E+03  0.10458485570E+04  0.12699999809E+01 0. -1.
</event>
<event>
 5   0  0.5261878E-06  0.2876755E+04  0.7818609E-02  0.8279827E-01
       -1   -1    0    0    0  501  0.00000000000E+00  0.00000000000E+00  0.11417947691E+04  0.11417947691E+04  0.50400001928E-02 0.  1.
        1   -1    0    0  501    0  0.00000000000E+00  0.00000000000E+00 -0.18119984809E+04  0.18119984809E+04  0.50400001928E-02 0. -1.
    10030    2    1    2    0    0  0.00000000000E+00  0.00000000000E+00 -0.67020371173E+03  0.29537932500E+04  0.28767553856E+04 0.  0.
        5    1    3    3  502    0  0.30188606163E+03  0.13895483700E+04 -0.11267092808E+03  0.14264279494E+04  0.46999998093E+01 0. -1.
       -5    1    3    3    0  502 -0.30188606163E+03 -0.13895483700E+04 -0.55753278365E+03  0.15273653006E+04  0.46999998093E+01 0.  1.
</event>
<event>
 5   0  0.5002240E-06  0.2843664E+04  0.7818609E-02  0.8289839E-01
       -1   -1    0    0    0  501  0.00000000000E+00  0.00000000000E+00  0.72565284541E+03  0.72565284542E+03  0.50400001928E-02 0. -1.
        1   -1    0    0  501    0  0.00000000000E+00  0.00000000000E+00 -0.27859143410E+04  0.27859143410E+04  0.50400001928E-02 0.  1.
    10030    2    1    2    0    0  0.00000000000E+00  0.00000000000E+00 -0.20602614956E+04  0.35115671865E+04  0.28436643041E+04 0.  0.
        4    1    3    3  502    0 -0.10865574350E+04  0.15692119457E+03  0.85619951200E+02  0.11011647060E+04  0.12699999809E+01 0. -1.
       -4    1    3    3    0  502  0.10865574350E+04 -0.15692119457E+03 -0.21458814468E+04  0.24104024804E+04  0.12699999809E+01 0.  1.
</event>
<event>
 5   0  0.5002240E-06  0.2865423E+04  0.7818609E-02  0.8283240E-01
       -1   -1    0    0    0  501  0.00000000000E+00  0.00000000000E+00  0.20468027346E+04  0.20468027346E+04  0.50400001928E-02 0. -1.
        1   -1    0    0  501    0  0.00000000000E+00  0.00000000000E+00 -0.10028629502E+04  0.10028629502E+04  0.50400001928E-02 0.  1.
    10030    2    1    2    0    0  0.00000000000E+00  0.00000000000E+00  0.10439397844E+04  0.30496656847E+04  0.28654232698E+04 0.  0.
        4    1    3    3  502    0 -0.70323958023E+02  0.21951023120E+03 -0.98299892115E+03  0.10096626628E+04  0.12699999809E+01 0.  1.
       -4    1    3    3    0  502  0.70323958023E+02 -0.21951023120E+03  0.20269387056E+04  0.20400030220E+04  0.12699999809E+01 0. -1.
</event>
<event>
 5   0  0.5002240E-06  0.2623403E+04  0.7818609E-02  0.8360295E-01
        1   -1    0    0  501    0  0.00000000000E+00  0.00000000000E+00  0.16327123294E+04  0.16327123294E+04  0.50400001928E-02 0.  1.
       -1   -1    0    0    0  501  0.00000000000E+00  0.00000000000E+00 -0.10538055081E+04  0.10538055082E+04  0.50400001928E-02 0. -1.
    10030    2    1    2    0    0  0.00000000000E+00  0.00000000000E+00  0.57890682122E+03  0.26865178375E+04  0.26234033208E+04 0.  0.
        4    1    3    3  502    0  0.91120031880E+03  0.68426330860E+03 -0.37583566396E+03  0.11998984772E+04  0.12699999809E+01 0. -1.
       -4    1    3    3    0  502 -0.91120031880E+03 -0.68426330860E+03  0.95474248518E+03  0.14866193603E+04  0.12699999809E+01 0.  1.
</event>
<event>
 5   0  0.5059249E-06  0.1836312E+04  0.7818609E-02  0.8687224E-01
       -1   -1    0    0    0  501  0.00000000000E+00  0.00000000000E+00  0.12250944107E+04  0.12250944108E+04  0.50400001928E-02 0. -1.
        1   -1    0    0  501    0  0.00000000000E+00  0.00000000000E+00 -0.68811911849E+03  0.68811911850E+03  0.50400001928E-02 0.  1.
    10030    2    1    2    0    0  0.00000000000E+00  0.00000000000E+00  0.53697529226E+03  0.19132135293E+04  0.18363124854E+04 0.  0.
        1    1    3    3  502    0  0.16282601422E+03 -0.84348095416E+03 -0.69181219558E+02  0.86183436465E+03  0.50400001928E-02 0.  1.
       -1    1    3    3    0  502 -0.16282601422E+03  0.84348095416E+03  0.60615651182E+03  0.10513791646E+04  0.50400001928E-02 0. -1.
</event>
<event>
 5   0  0.1382803E-05  0.2601461E+04  0.7818609E-02  0.8367705E-01
       -2   -1    0    0    0  501  0.00000000000E+00  0.00000000000E+00  0.84799729847E+03  0.84799729847E+03  0.25500000920E-02 0.  1.
        2   -1    0    0  501    0  0.00000000000E+00  0.00000000000E+00 -0.19951710517E+04  0.19951710517E+04  0.25500000920E-02 0. -1.
    10030    2    1    2    0    0  0.00000000000E+00  0.00000000000E+00 -0.11471737532E+04  0.28431683501E+04  0.26014608679E+04 0.  0.
        2    1    3    3  502    0  0.12226576796E+04 -0.41393126203E+03 -0.39848620430E+03  0.13509338052E+04  0.25500000920E-02 0.  1.
       -2    1    3    3    0  502 -0.12226576796E+04  0.41393126203E+03 -0.74868754889E+03  0.14922345449E+04  0.25500000920E-02 0. -1.
</event>
<event>
 5   0  0.5059249E-06  0.2821606E+04  0.7818609E-02  0.8296592E-01
       -1   -1    0    0    0  501  0.00000000000E+00  0.00000000000E+00  0.97235724250E+03  0.97235724251E+03  0.50400001928E-02 0. -1.
        1   -1    0    0  501    0  0.00000000000E+00  0.00000000000E+00 -0.20469477092E+04  0.20469477092E+04  0.50400001928E-02 0.  1.
    10030    2    1    2    0    0  0.00000000000E+00  0.00000000000E+00 -0.10745904667E+04  0.30193049517E+04  0.28216055218E+04 0.  0.
        1    1    3    3  502    0  0.12583344476E+04 -0.53985731702E+03 -0.17360974358E+03  0.13802144209E+04  0.50400001928E-02 0. -1.
       -1    1    3    3    0  502 -0.12583344476E+04  0.53985731702E+03 -0.90098072314E+03  0.16390905308E+04  0.50400001928E-02 0.  1.
</event>
<event>
 5   0  0.5002240E-06  0.2940366E+04  0.7818609E-02  0.8260968E-01
        1   -1    0    0  501    0  0.00000000000E+00  0.00000000000E+00  0.31647023842E+04  0.31647023842E+04  0.50400001928E-02 0.  1.
       -1   -1    0    0    0  501  0.00000000000E+00  0.00000000000E+00 -0.68298322865E+03  0.68298322867E+03  0.50400001928E-02 0. -1.
    10030    2    1    2    0    0  0.00000000000E+00  0.00000000000E+00  0.24817191555E+04  0.38476856128E+04  0.29403664072E+04 0.  0.
        4    1    3    3  502    0 -0.37838086413E+03 -0.14069116839E+04  0.98288641589E+03  0.17574526691E+04  0.12699999809E+01 0. -1.
       -4    1    3    3    0  502  0.37838086413E+03  0.14069116839E+04  0.14988327396E+04  0.20902329437E+04  0.12699999809E+01 0.  1.
</event>
<event>
 5   0  0.1339837E-05  0.2721965E+04  0.7818609E-02  0.8327913E-01
       -2   -1    0    0    0  501  0.00000000000E+00  0.00000000000E+00  0.10139319040E+04  0.10139319040E+04  0.25500000920E-02 0. -1.
        2   -1    0    0  501    0  0.00000000000E+00  0.00000000000E+00 -0.18268225741E+04  0.18268225741E+04  0.25500000920E-02 0.  1.
    10030    2    1    2    0    0  0.00000000000E+00  0.00000000000E+00 -0.81289067005E+03  0.28407544781E+04  0.27219652392E+04 0.  0.
        5    1    3    3  502    0 -0.77767867525E+02  0.11988827779E+04 -0.10737913952E+04  0.16113403758E+04  0.46999998093E+01 0. -1.
       -5    1    3    3    0  502  0.77767867525E+02 -0.11988827779E+04  0.26090072514E+03  0.12294141023E+04  0.46999998093E+01 0.  1.
</event>
<event>
 5   0  0.1339837E-05  0.2862921E+04  0.7818609E-02  0.8283996E-01
        2   -1    0    0  501    0  0.00000000000E+00  0.00000000000E+00  0.13690936217E+04  0.13690936217E+04  0.25500000920E-02 0.  1.
       -2   -1    0    0    0  501  0.00000000000E+00  0.00000000000E+00 -0.14966685285E+04  0.14966685285E+04  0.25500000920E-02 0. -1.
    10030    2    1    2    0    0  0.00000000000E+00  0.00000000000E+00 -0.12757490676E+03  0.28657621502E+04  0.28629211210E+04 0.  0.
        5    1    3    3  502    0 -0.23134416901E+03  0.11561111657E+04  0.74877180841E+03  0.13967084388E+04  0.46999998093E+01 0.  1.
       -5    1    3    3    0  502  0.23134416901E+03 -0.11561111657E+04 -0.87634671517E+03  0.14690537114E+04  0.46999998093E+01 0. -1.
</event>
<event>
 5   0  0.5154476E-06  0.2908155E+04  0.7818609E-02  0.8270455E-01
       -1   -1    0    0    0  501  0.00000000000E+00  0.00000000000E+00  0.10535750174E+04  0.10535750174E+04  0.50400001928E-02 0. -1.
        1   -1    0    0  501    0  0.00000000000E+00  0.00000000000E+00 -0.20068261550E+04  0.20068261550E+04  0.50400001928E-02 0.  1.
    10030    2    1    2    0    0  0.00000000000E+00  0.00000000000E+00 -0.95325113761E+03  0.30604011724E+04  0.29081553612E+04 0.  0.
        3    1    3    3  502    0 -0.56158137384E+02  0.12753269494E+04 -0.12092989335E+04  0.17584130587E+04  0.10100000352E+00 0.  1.
       -3    1    3    3    0  502  0.56158137384E+02 -0.12753269494E+04  0.25604779591E+03  0.13019881137E+04  0.10100000352E+00 0. -1.
</event>
<event>
 5   0  0.5002240E-06  0.2878050E+04  0.7818609E-02  0.8279438E-01
       -1   -1    0    0    0  501  0.00000000000E+00  0.00000000000E+00  0.12596648656E+04  0.12596648656E+04  0.50400001928E-02 0. -1.
        1   -1    0    0  501    0  0.00000000000E+00  0.00000000000E+00 -0.16439231881E+04  0.16439231881E+04  0.50400001928E-02 0.  1.
    10030    2    1    2    0    0  0.00000000000E+00  0.00000000000E+00 -0.38425832249E+03  0.29035880536E+04  0.28780495352E+04 0.  0.
        4    1    3    3  502    0 -0.91603139392E+02 -0.69488913122E+03  0.10758160488E+04  0.12839952584E+04  0.12699999809E+01 0. -1.
       -4    1    3    3    0  502  0.91603139392E+02  0.69488913122E+03 -0.14600743713E+04  0.16195927952E+04  0.12699999809E+01 0.  1.
</event>
<event>
 5   0  0.5002240E-06  0.2902648E+04  0.7818609E-02  0.8272090E-01
        1   -1    0    0  501    0  0.00000000000E+00  0.00000000000E+00  0.15840579925E+04  0.15840579925E+04  0.50400001928E-02 0. -1.
       -1   -1    0    0    0  501  0.00000000000E+00  0.00000000000E+00 -0.13297123834E+04  0.13297123834E+04  0.50400001928E-02 0.  1.
    10030    2    1    2    0    0  0.00000000000E+00  0.00000000000E+00  0.25434560914E+03  0.29137703760E+04  0.29026481211E+04 0.  0.
        4    1    3    3  502    0 -0.17413117262E+03  0.83511775667E+02 -0.13167560643E+04  0.13308433520E+04  0.12699999809E+01 0.  1.
       -4    1    3    3    0  502  0.17413117262E+03 -0.83511775667E+02  0.15711016734E+04  0.15829270239E+04  0.12699999809E+01 0. -1.
</event>
<event>
 5   0  0.1307832E-05  0.1856378E+04  0.7818609E-02  0.8676880E-01
       -2   -1    0    0    0  501  0.00000000000E+00  0.00000000000E+00  0.16214420229E+04  0.16214420229E+04  0.25500000920E-02 0.  1.
        2   -1    0    0  501    0  0.00000000000E+00  0.00000000000E+00 -0.53133881883E+03  0.53133881884E+03  0.25500000920E-02 0. -1.
    10030    2    1    2    0    0  0.00000000000E+00  0.00000000000E+00  0.10901032041E+04  0.21527808417E+04  0.18563782904E+04 0.  0.
        4    1    3    3  502    0 -0.89887876391E+03  0.20835547995E+03  0.66181826433E+03  0.11355175323E+04  0.12699999809E+01 0.  1.
       -4    1    3    3    0  502  0.89887876391E+03 -0.20835547995E+03  0.42828493975E+03  0.10172633095E+04  0.12699999809E+01 0. -1.
</event>
<event>
 5   0  0.5261878E-06  0.2856997E+04  0.7818609E-02  0.8285788E-01
       -1   -1    0    0    0  501  0.00000000000E+00  0.00000000000E+00  0.15795502740E+04  0.15795502740E+04  0.50400001928E-02 0.  1.
        1   -1    0    0  501    0  0.00000000000E+00  0.00000000000E+00 -0.12918917232E+04  0.12918917232E+04  0.50400001928E-02 0. -1.
    10030    2    1    2    0    0  0.00000000000E+00  0.00000000000E+00  0.28765855084E+03  0.28714419972E+04  0.28569969726E+04 0.  0.
        5    1    3    3  502    0  0.13389006460E+04 -0.34961168792E+03  0.50016743649E+03  0.14714186443E+04  0.46999998093E+01 0.  1.
       -5    1    3    3    0  502 -0.13389006460E+04  0.34961168792E+03 -0.21250888565E+03  0.14000233529E+04  0.46999998093E+01 0. -1.
</event>
<event>
 5   0  0.5154476E-06  0.2875906E+04  0.7818609E-02  0.8280082E-01
       -1   -1    0    0    0  501  0.00000000000E+00  0.00000000000E+00  0.17432695468E+04  0.17432695468E+04  0.50400001928E-02 0. -1.
        1   -1    0    0  501    0  0.00000000000E+00  0.00000000000E+00 -0.11861099175E+04  0.11861099175E+04  0.50400001928E-02 0.  1.
    10030    2    1    2    0    0  0.00000000000E+00  0.00000000000E+00  0.55715962929E+03  0.29293794644E+04  0.28759063256E+04 0.  0.
        3    1    3    3  502    0 -0.80764510762E+03  0.44750652758E+02 -0.93239721576E+03  0.12343653507E+04  0.10100000352E+00 0.  1.
       -3    1    3    3    0  502  0.80764510762E+03 -0.44750652758E+02  0.14895568450E+04  0.16950141137E+04  0.10100000352E+00 0. -1.
</event>
<event>
 5   0  0.1382803E-05  0.2837728E+04  0.7818609E-02  0.8291650E-01
       -2   -1    0    0    0  501  0.00000000000E+00  0.00000000000E+00  0.10472176909E+04  0.10472176909E+04  0.25500000920E-02 0. -1.
        2   -1    0    0  501    0  0.00000000000E+00  0.00000000000E+00 -0.19224040979E+04  0.19224040979E+04  0.25500000920E-02 0.  1.
    10030    2    1    2    0    0  0.00000000000E+00  0.00000000000E+00 -0.87518640699E+03  0.29696217888E+04  0.28377283735E+04 0.  0.
        2    1    3    3  502    0 -0.93624212669E+03  0.99126309066E+03 -0.84829268913E+03  0.16058494080E+04  0.25500000920E-02 0. -1.
       -2    1    3    3    0  502  0.93624212669E+03 -0.99126309066E+03 -0.26893717855E+02  0.13637723808E+04  0.25500000920E-02 0.  1.
</event>
<event>
 5   0  0.1339837E-05  0.2915518E+04  0.7818609E-02  0.8268275E-01
        2   -1    0    0  501    0  0.00000000000E+00  0.00000000000E+00  0.17864381954E+04  0.17864381954E+04  0.25500000920E-02 0. -1.
       -2   -1    0    0    0  501  0.00000000000E+00  0.00000000000E+00 -0.11895519457E+04  0.11895519457E+04  0.25500000920E-02 0.  1.
    10030    2    1    2    0    0  0.00000000000E+00  0.00000000000E+00  0.59688624968E+03  0.29759901411E+04  0.29155178142E+04 0.  0.
        5    1    3    3  502    0  0.46811100157E+03 -0.12369094738E+04 -0.32743542269E+03  0.13624643123E+04  0.46999998093E+01 0.  1.
       -5    1    3    3    0  502 -0.46811100157E+03  0.12369094738E+04  0.92432167237E+03  0.16135258288E+04  0.46999998093E+01 0. -1.
</event>
<event>
 5   0  0.1385669E-05  0.2946313E+04  0.7818609E-02  0.8259230E-01
        2   -1    0    0  501    0  0.00000000000E+00  0.00000000000E+00  0.16425054465E+04  0.16425054465E+04  0.25500000920E-02 0.  1.
       -2   -1    0    0    0  501  0.00000000000E+00  0.00000000000E+00 -0.13212679028E+04  0.13212679028E+04  0.25500000920E-02 0. -1.
    10030    2    1    2    0    0  0.00000000000E+00  0.00000000000E+00  0.32123754366E+03  0.29637733492E+04  0.29463127645E+04 0.  0.
        3    1    3    3  502    0  0.10004776550E+03 -0.76337523713E+03 -0.11027855166E+04  0.13449487774E+04  0.10100000352E+00 0. -1.
       -3    1    3    3    0  502 -0.10004776550E+03  0.76337523713E+03  0.14240230603E+04  0.16188245718E+04  0.10100000352E+00 0.  1.
</event>
<event>
 5   0  0.5352212E-06  0.2881734E+04  0.7818609E-02  0.8278333E-01
       -1   -1    0    0    0  501  0.00000000000E+00  0.00000000000E+00  0.13512410806E+04  0.13512410806E+04  0.50400001928E-02 0.  1.
        1   -1    0    0  501    0  0.00000000000E+00  0.00000000000E+00 -0.15364379310E+04  0.15364379311E+04  0.50400001928E-02 0. -1.
    10030    2    1    2    0    0  0.00000000000E+00  0.00000000000E+00 -0.18519685044E+03  0.28876790117E+04  0.28817342350E+04 0.  0.
        2    1    3    3  502    0 -0.55941637052E+03 -0.83744731025E+02  0.12353289826E+04  0.13586749247E+04  0.25500000920E-02 0.  1.
       -2    1    3    3    0  502  0.55941637052E+03  0.83744731025E+02 -0.14205258331E+04  0.15290040870E+04  0.25500000920E-02 0. -1.
</event>
<event>
 5   0  0.1385669E-05  0.2925403E+04  0.7818609E-02  0.8265359E-01
       -2   -1    0    0    0  501  0.00000000000E+00  0.00000000000E+00  0.22742257524E+04  0.22742257524E+04  0.25500000920E-02 0. -1.
        2   -1    0    0  501    0  0.00000000000E+00  0.00000000000E+00 -0.94075751568E+03  0.94075751568E+03  0.25500000920E-02 0.  1.
    10030    2    1    2    0    0  0.00000000000E+00  0.00000000000E+00  0.13334682367E+04  0.32149832681E+04  0.29254025151E+04 0.  0.
        3    1    3    3  502    0 -0.13212366846E+04  0.42719017334E+03  0.16151358019E+03  0.13979429415E+04  0.10100000352E+00 0.  1.
       -3    1    3    3    0  502  0.13212366846E+04 -0.42719017334E+03  0.11719546565E+04  0.18170403265E+04  0.10100000352E+00 0. -1.
</event>
<event>
 5   0  0.5261878E-06  0.2910352E+04  0.7818609E-02  0.8269804E-01
       -1   -1    0    0    0  501  0.00000000000E+00  0.00000000000E+00  0.16371190363E+04  0.16371190363E+04  0.50400001928E-02 0. -1.
        1   -1    0    0  501    0  0.00000000000E+00  0.00000000000E+00 -0.12934535466E+04  0.12934535466E+04  0.50400001928E-02 0.  1.
    10030    2    1    2    0    0  0.00000000000E+00  0.00000000000E+00  0.34366548972E+03  0.29305725829E+04  0.29103521599E+04 0.  0.
        5    1    3    3  502    0  0.72152002562E+03 -0.60305229304E+03 -0.94640172244E+03  0.13341519875E+04  0.46999998093E+01 0.  1.
       -5    1    3    3    0  502 -0.72152002562E+03  0.60305229304E+03  0.12900672122E+04  0.15964205954E+04  0.46999998093E+01 0. -1.
</event>
<event>
 5   0  0.5154476E-06  0.2853454E+04  0.7818609E-02  0.8286863E-01
        1   -1    0    0  501    0  0.00000000000E+00  0.00000000000E+00  0.10579776910E+04  0.10579776911E+04  0.50400001928E-02 0.  1.
       -1   -1    0    0    0  501  0.00000000000E+00  0.00000000000E+00 -0.19240006856E+04  0.19240006856E+04  0.50400001928E-02 0. -1.
    10030    2    1    2    0    0  0.00000000000E+00  0.00000000000E+00 -0.86602299452E+03  0.29819783766E+04  0.28534539091E+04 0.  0.
        3    1    3    3  502    0  0.11966264307E+04 -0.46811190392E+03 -0.10810268789E+04  0.16791851275E+04  0.10100000352E+00 0. -1.
       -3    1    3    3    0  502 -0.11966264307E+04  0.46811190392E+03  0.21500388442E+03  0.13027932491E+04  0.10100000352E+00 0.  1.
</event>
<event>
 5   0  0.5002240E-06  0.2907686E+04  0.7818609E-02  0.8270594E-01
        1   -1    0    0  501    0  0.00000000000E+00  0.00000000000E+00  0.18614649956E+04  0.18614649956E+04  0.50400001928E-02 0. -1.
       -1   -1    0    0    0  501  0.00000000000E+00  0.00000000000E+00 -0.11354814692E+04  0.11354814692E+04  0.50400001928E-02 0.  1.
    10030    2    1    2    0    0  0.00000000000E+00  0.00000000000E+00  0.72598352641E+03  0.29969464648E+04  0.29076856832E+04 0.  0.
        4    1    3    3  502    0  0.71820788003E+03  0.31967926068E+02 -0.93945068391E+03  0.11829681769E+04  0.12699999809E+01 0.  1.
       -4    1    3    3    0  502 -0.71820788003E+03 -0.31967926068E+02  0.16654342103E+04  0.18139782879E+04  0.12699999809E+01 0. -1.
</event>
<event>
 5   0  0.1307832E-05  0.1772503E+04  0.7818609E-02  0.8721060E-01
        2   -1    0    0  501    0  0.00000000000E+00  0.00000000000E+00  0.16162431320E+04  0.16162431320E+04  0.25500000920E-02 0.  1.
       -2   -1    0    0    0  501  0.00000000000E+00  0.00000000000E+00 -0.48596741360E+03  0.48596741361E+03  0.25500000920E-02 0. -1.
    10030    2    1    2    0    0  0.00000000000E+00  0.00000000000E+00  0.11302757184E+04  0.21022105456E+04  0.17725027443E+04 0.  0.
        4    1    3    3  502    0  0.62426710155E+03 -0.62318861374E+03  0.46334495324E+03  0.99637524104E+03  0.12699999809E+01 0.  1.
       -4    1    3    3    0  502 -0.62426710155E+03  0.62318861374E+03  0.66693076512E+03  0.11058353045E+04  0.12699999809E+01 0. -1.
</event>
<event>
 5   0  0.5002240E-06  0.2910321E+04  0.7818609E-02  0.8269813E-01
        1   -1    0    0  501    0  0.00000000000E+00  0.00000000000E+00  0.15146432140E+04  0.15146432140E+04  0.50400001928E-02 0.  1.
       -1   -1    0    0    0  501  0.00000000000E+00  0.00000000000E+00 -0.13980135186E+04  0.13980135186E+04  0.50400001928E-02 0. -1.
    10030    2    1    2    0    0  0.00000000000E+00  0.00000000000E+00  0.11662969544E+03  0.29126567326E+04  0.29103207308E+04 0.  0.
        4    1    3    3  502    0  0.32436423126E+03 -0.96379046960E+03 -0.98337883762E+03  0.14146164763E+04  0.12699999809E+01 0. -1.
       -4    1    3    3    0  502 -0.32436423126E+03  0.96379046960E+03  0.11000085331E+04  0.14980402563E+04  0.12699999809E+01 0.  1.
</event>
<event>
 5   0  0.1339837E-05  0.2890607E+04  0.7818609E-02  0.8275678E-01
        2   -1    0    0  501    0  0.00000000000E+00  0.00000000000E+00  0.18760524972E+04  0.18760524972E+04  0.25500000920E-02 0.  1.
       -2   -1    0    0    0  501  0.00000000000E+00  0.00000000000E+00 -0.11134557753E+04  0.11134557753E+04  0.25500000920E-02 0. -1.
    10030    2    1    2    0    0  0.00000000000E+00  0.00000000000E+00  0.76259672190E+03  0.29895082726E+04  0.28906065024E+04 0.  0.
        5    1    3    3  502    0  0.73273152274E+03  0.64397893213E+03 -0.72162043929E+03  0.12134094519E+04  0.46999998093E+01 0. -1.
       -5    1    3    3    0  502 -0.73273152274E+03 -0.64397893213E+03  0.14842171612E+04  0.17760988207E+04  0.46999998093E+01 0.  1.
</event>
<event>
 5   0  0.5154476E-06  0.1819858E+04  0.7818609E-02  0.8695810E-01
       -1   -1    0    0    0  501  0.00000000000E+00  0.00000000000E+00  0.12029979461E+04  0.12029979461E+04  0.50400001928E-02 0. -1.
        1   -1    0    0  501    0  0.00000000000E+00  0.00000000000E+00 -0.68825593190E+03  0.68825593192E+03  0.50400001928E-02 0.  1.
    10030    2    1    2    0    0  0.00000000000E+00  0.00000000000E+00  0.51474201417E+03  0.18912538780E+04  0.18198576565E+04 0.  0.
        3    1    3    3  502    0  0.88664880769E+02 -0.29500972776E+03 -0.63241911889E+03  0.70345302096E+03  0.10100000352E+00 0.  1.
       -3    1    3    3    0  502 -0.88664880769E+02  0.29500972776E+03  0.11471611331E+04  0.11878008570E+04  0.10100000352E+00 0. -1.
</event>
<event>
 5   0  0.1382803E-05  0.2478558E+04  0.7818609E-02  0.8410664E-01
        2   -1    0    0  501    0  0.00000000000E+00  0.00000000000E+00  0.89425132430E+03  0.89425132430E+03  0.25500000920E-02 0.  1.
       -2   -1    0    0    0  501  0.00000000000E+00  0.00000000000E+00 -0.17174288678E+04  0.17174288678E+04  0.25500000920E-02 0. -1.
    10030    2    1    2    0    0  0.00000000000E+00  0.00000000000E+00 -0.82317754354E+03  0.26116801921E+04  0.24785584838E+04 0.  0.
        2    1    3    3  502    0  0.66473654873E+03  0.10381012323E+03  0.68505984624E+03  0.96018655158E+03  0.25500000920E-02 0.  1.
       -2    1    3    3    0  502 -0.66473654873E+03 -0.10381012323E+03 -0.15082373898E+04  0.16514936406E+04  0.25500000920E-02 0. -1.
</event>
<event>
 5   0  0.1307832E-05  0.1838341E+04  0.7818609E-02  0.8686172E-01
        2   -1    0    0  501    0  0.00000000000E+00  0.00000000000E+00  0.58081592249E+03  0.58081592249E+03  0.25500000920E-02 0. -1.
       -2   -1    0    0    0  501  0.00000000000E+00  0.00000000000E+00 -0.14546333004E+04  0.14546333004E+04  0.25500000920E-02 0.  1.
    10030    2    1    2    0    0  0.00000000000E+00  0.00000000000E+00 -0.87381737791E+03  0.20354492229E+04  0.18383407543E+04 0.  0.
        4    1    3    3  502    0 -0.15710398156E+03 -0.16791176582E+03  0.54845351927E+03  0.59470908672E+03  0.12699999809E+01 0. -1.
       -4    1    3    3    0  502  0.15710398156E+03  0.16791176582E+03 -0.14222708972E+04  0.14407401362E+04  0.12699999809E+01 0.  1.
</event>
<event>
 5   0  0.1382803E-05  0.1782342E+04  0.7818609E-02  0.8715747E-01
        2   -1    0    0  501    0  0.00000000000E+00  0.00000000000E+00  0.10907269106E+04  0.10907269106E+04  0.25500000920E-02 0. -1.
       -2   -1    0    0    0  501  0.00000000000E+00  0.00000000000E+00 -0.72812488166E+03  0.72812488166E+03  0.25500000920E-02 0.  1.
    10030    2    1    2    0    0  0.00000000000E+00  0.00000000000E+00  0.36260202890E+03  0.18188517922E+04  0.17823416089E+04 0.  0.
        2    1    3    3  502    0 -0.82646595686E+03 -0.17938912395E+03  0.46805343696E+03  0.96659218676E+03  0.25500000920E-02 0. -1.
       -2    1    3    3    0  502  0.82646595686E+03  0.17938912395E+03 -0.10545140806E+03  0.85225960547E+03  0.25500000920E-02 0.  1.
</event>
<event>
 5   0  0.5002240E-06  0.2953831E+04  0.7818609E-02  0.8257039E-01
        1   -1    0    0  501    0  0.00000000000E+00  0.00000000000E+00  0.23934675843E+04  0.23934675843E+04  0.50400001928E-02 0. -1.
       -1   -1    0    0    0  501  0.00000000000E+00  0.00000000000E+00 -0.91134670154E+03  0.91134670155E+03  0.50400001928E-02 0.  1.
    10030    2    1    2    0    0  0.00000000000E+00  0.00000000000E+00  0.14821208828E+04  0.33048142859E+04  0.29538305898E+04 0.  0.
        4    1    3    3  502    0  0.12936161764E+04 -0.56705903648E+03  0.25817652574E+03  0.14358466123E+04  0.12699999809E+01 0.  1.
       -4    1    3    3    0  502 -0.12936161764E+04  0.56705903648E+03  0.12239443570E+04  0.18689676736E+04  0.12699999809E+01 0. -1.
</event>
<event>
 5   0  0.1339837E-05  0.2888363E+04  0.7818609E-02  0.8276348E-01
        2   -1    0    0  501    0  0.00000000000E+00  0.00000000000E+00  0.14783672771E+04  0.14783672771E+04  0.25500000920E-02 0.  1.
       -2   -1    0    0    0  501  0.00000000000E+00  0.00000000000E+00 -0.14107858107E+04  0.14107858107E+04  0.25500000920E-02 0. -1.
    10030    2    1    2    0    0  0.00000000000E+00  0.00000000000E+00  0.67581466373E+02  0.28891530878E+04  0.28883625655E+04 0.  0.
        5    1    3    3  502    0  0.50646328697E+03  0.26943596332E+03  0.13594974581E+04  0.14755867402E+04  0.46999998093E+01 0.  1.
       -5    1    3    3    0  502 -0.50646328697E+03 -0.26943596332E+03 -0.12919159917E+04  0.14135663476E+04  0.46999998093E+01 0. -1.
</event>
<event>
 5   0  0.5352212E-06  0.2911509E+04  0.7818609E-02  0.8269461E-01
       -1   -1    0    0    0  501  0.00000000000E+00  0.00000000000E+00  0.19069558772E+04  0.19069558772E+04  0.50400001928E-02 0. -1.
        1   -1    0    0  501    0  0.00000000000E+00  0.00000000000E+00 -0.11113112988E+04  0.11113112988E+04  0.50400001928E-02 0.  1.
    10030    2    1    2    0    0  0.00000000000E+00  0.00000000000E+00  0.79564457840E+03  0.30182671761E+04  0.29115093081E+04 0.  0.
        2    1    3    3  502    0  0.36116447762E+03 -0.62245789862E+03  0.17096585957E+04  0.18549463952E+04  0.25500000920E-02 0. -1.
       -2    1    3    3    0  502 -0.36116447762E+03  0.62245789862E+03 -0.91401401725E+03  0.11633207809E+04  0.25500000920E-02 0.  1.
</event>
<event>
 5   0  0.5059249E-06  0.2918696E+04  0.7818609E-02  0.8267336E-01
       -1   -1    0    0    0  501  0.00000000000E+00  0.00000000000E+00  0.79699386564E+03  0.79699386565E+03  0.50400001928E-02 0. -1.
        1   -1    0    0  501    0  0.00000000000E+00  0.00000000000E+00 -0.26721624713E+04  0.26721624713E+04  0.50400001928E-02 0.  1.
    10030    2    1    2    0    0  0.00000000000E+00  0.00000000000E+00 -0.18751686056E+04  0.34691563369E+04  0.29186963512E+04 0.  0.
        1    1    3    3  502    0 -0.90835499650E+03  0.67104643276E+02  0.41767024873E+03  0.10020280782E+04  0.50400001928E-02 0. -1.
       -1    1    3    3    0  502  0.90835499650E+03 -0.67104643276E+02 -0.22928388544E+04  0.24671282587E+04  0.50400001928E-02 0.  1.
</event>
<event>
 5   0  0.5261878E-06  0.2407802E+04  0.7818609E-02  0.8436588E-01
       -1   -1    0    0    0  501  0.00000000000E+00  0.00000000000E+00  0.19673990903E+04  0.19673990903E+04  0.50400001928E-02 0. -1.
        1   -1    0    0  501    0  0.00000000000E+00  0.00000000000E+00 -0.73669747783E+03  0.73669747785E+03  0.50400001928E-02 0.  1.
    10030    2    1    2    0    0  0.00000000000E+00  0.00000000000E+00  0.12307016124E+04  0.27040965681E+04  0.24078022740E+04 0.  0.
        5    1    3    3  502    0  0.95485750080E+03 -0.73038425756E+03  0.68762752263E+03  0.13849432156E+04  0.46999998093E+01 0. -1.
       -5    1    3    3    0  502 -0.95485750080E+03  0.73038425756E+03  0.54307408982E+03  0.13191533526E+04  0.46999998093E+01 0.  1.
</event>
<event>
 5   0  0.5002240E-06  0.2874739E+04  0.7818609E-02  0.8280433E-01
        1   -1    0    0  501    0  0.00000000000E+00  0.00000000000E+00  0.71274016634E+03  0.71274016635E+03  0.50400001928E-02 0. -1.
       -1   -1    0    0    0  501  0.00000000000E+00  0.00000000000E+00 -0.28987162897E+04  0.28987162897E+04  0.50400001928E-02 0.  1.
    10030    2    1    2    0    0  0.00000000000E+00  0.00000000000E+00 -0.21859761234E+04  0.36114564561E+04  0.28747393138E+04 0.  0.
        4    1    3    3  502    0 -0.12709894662E+04 -0.62410639071E+03 -0.78243982495E+03  0.16177566883E+04  0.12699999809E+01 0. -1.
       -4    1    3    3    0  502  0.12709894662E+04  0.62410639071E+03 -0.14035362984E+04  0.19936997678E+04  0.12699999809E+01 0.  1.
</event>
<event>
 5   0  0.1336899E-05  0.2285427E+04  0.7818609E-02  0.8483689E-01
       -2   -1    0    0    0  501  0.00000000000E+00  0.00000000000E+00  0.11656523680E+04  0.11656523680E+04  0.25500000920E-02 0.  1.
        2   -1    0    0  501    0  0.00000000000E+00  0.00000000000E+00 -0.11202259225E+04  0.11202259225E+04  0.25500000920E-02 0. -1.
    10030    2    1    2    0    0  0.00000000000E+00  0.00000000000E+00  0.45426445514E+02  0.22858782904E+04  0.22854268741E+04 0.  0.
        1    1    3    3  502    0 -0.23210134342E+03 -0.44731475882E+03  0.10485046382E+04  0.11633243329E+04  0.50400001928E-02 0.  1.
       -1    1    3    3    0  502  0.23210134342E+03  0.44731475882E+03 -0.10030781927E+04  0.11225539576E+04  0.50400001928E-02 0. -1.
</event>
<event>
 5   0  0.5059249E-06  0.2912847E+04  0.7818609E-02  0.8269065E-01
        1   -1    0    0  501    0  0.00000000000E+00  0.00000000000E+00  0.13179651116E+04  0.13179651117E+04  0.50400001928E-02 0. -1.
       -1   -1    0    0    0  501  0.00000000000E+00  0.00000000000E+00 -0.16094280652E+04  0.16094280652E+04  0.50400001928E-02 0.  1.
    10030    2    1    2    0    0  0.00000000000E+00  0.00000000000E+00 -0.29146295353E+03  0.29273931768E+04  0.29128474314E+04 0.  0.
        1    1    3    3  502    0  0.11386025991E+04  0.85457539374E+03  0.16313866419E+03  0.14329442439E+04  0.50400001928E-02 0. -1.
       -1    1    3    3    0  502 -0.11386025991E+04 -0.85457539374E+03 -0.45460161772E+03  0.14944489329E+04  0.50400001928E-02 0.  1.
</event>
<event>
 5   0  0.1385669E-05  0.2896970E+04  0.7818609E-02  0.8273780E-01
        2   -1    0    0  501    0  0.00000000000E+00  0.00000000000E+00  0.80939573637E+03  0.80939573637E+03  0.25500000920E-02 0. -1.
       -2   -1    0    0    0  501  0.00000000000E+00  0.00000000000E+00 -0.25921911550E+04  0.25921911550E+04  0.25500000920E-02 0.  1.
    10030    2    1    2    0    0  0.00000000000E+00  0.00000000000E+00 -0.17827954186E+04  0.34015868913E+04  0.28969697746E+04 0.  0.
        3    1    3    3  502    0 -0.35672103030E+03 -0.55484837522E+03 -0.24056002508E+04  0.24943975605E+04  0.10100000352E+00 0.  1.
       -3    1    3    3    0  502  0.35672103030E+03  0.55484837522E+03  0.62280483215E+03  0.90718933090E+03  0.10100000352E+00 0. -1.
</event>
<event>
 5   0  0.1336899E-05  0.2842656E+04  0.7818609E-02  0.8290146E-01
        2   -1    0    0  501    0  0.00000000000E+00  0.00000000000E+00  0.15875395349E+04  0.15875395349E+04  0.25500000920E-02 0.  1.
       -2   -1    0    0    0  501  0.00000000000E+00  0.00000000000E+00 -0.12725181749E+04  0.12725181749E+04  0.25500000920E-02 0. -1.
    10030    2    1    2    0    0  0.00000000000E+00  0.00000000000E+00  0.31502135998E+03  0.28600577099E+04  0.28426557383E+04 0.  0.
        1    1    3    3  502    0 -0.59415408381E+03  0.92975766126E+03 -0.74391180176E+03  0.13307415800E+04  0.50400001928E-02 0. -1.
       -1    1    3    3    0  502  0.59415408381E+03 -0.92975766126E+03  0.10589331617E+04  0.15293161299E+04  0.50400001928E-02 0.  1.
</event>
<event>
 5   0  0.1336899E-05  0.2879375E+04  0.7818609E-02  0.8279041E-01
        2   -1    0    0  501    0  0.00000000000E+00  0.00000000000E+00  0.21878619761E+04  0.21878619761E+04  0.25500000920E-02 0. -1.
       -2   -1    0    0    0  501  0.00000000000E+00  0.00000000000E+00 -0.94736337546E+03  0.94736337546E+03  0.25500000920E-02 0.  1.
    10030    2    1    2    0    0  0.00000000000E+00  0.00000000000E+00  0.12404986006E+04  0.31352253515E+04  0.28793751452E+04 0.  0.
        1    1    3    3  502    0  0.32532869790E+02  0.42250730212E+03 -0.87791923613E+03  0.97483998336E+03  0.50400001928E-02 0.  1.
       -1    1    3    3    0  502 -0.32532869790E+02 -0.42250730212E+03  0.21184178368E+04  0.21603853682E+04  0.50400001928E-02 0. -1.
</event>
<event>
 5   0  0.1339837E-05  0.2898837E+04  0.7818609E-02  0.8273224E-01
       -2   -1    0    0    0  501  0.00000000000E+00  0.00000000000E+00  0.93299949181E+03  0.93299949182E+03  0.25500000920E-02 0. -1.
        2   -1    0    0  501    0  0.00000000000E+00  0.00000000000E+00 -0.22516772318E+04  0.22516772318E+04  0.25500000920E-02 0.  1.
    10030    2    1    2    0    0  0.00000000000E+00  0.00000000000E+00 -0.13186777400E+04  0.31846767236E+04  0.28988368102E+04 0.  0.
        5    1    3    3  502    0 -0.79308682288E+03  0.50189646199E+03  0.55406273831E+03  0.10899056726E+04  0.46999998093E+01 0. -1.
       -5    1    3    3    0  502  0.79308682288E+03 -0.50189646199E+03 -0.18727404783E+04  0.20947710510E+04  0.46999998093E+01 0.  1.
</event>
<event>
 5   0  0.5261878E-06  0.2019409E+04  0.7818609E-02  0.8597600E-01
       -1   -1    0    0    0  501  0.00000000000E+00  0.00000000000E+00  0.93507634604E+03  0.93507634605E+03  0.50400001928E-02 0.  1.
        1   -1    0    0  501    0  0.00000000000E+00  0.00000000000E+00 -0.10902884803E+04  0.10902884803E+04  0.50400001928E-02 0. -1.
    10030    2    1    2    0    0  0.00000000000E+00  0.00000000000E+00 -0.15521213421E+03  0.20253648263E+04  0.20194087930E+04 0.  0.
        5    1    3    3  502    0 -0.65768819191E+03  0.85747267868E+02 -0.84114935741E+03  0.10711959126E+04  0.46999998093E+01 0. -1.
       -5    1    3    3    0  502  0.65768819191E+03 -0.85747267868E+02  0.68593722320E+03  0.95416891371E+03  0.46999998093E+01 0.  1.
</event>
<event>
 5   0  0.1385669E-05  0.2833471E+04  0.7818609E-02  0.8292952E-01
       -2   -1    0    0    0  501  0.00000000000E+00  0.00000000000E+00  0.78208784217E+03  0.78208784218E+03  0.25500000920E-02 0. -1.
        2   -1    0    0  501    0  0.00000000000E+00  0.00000000000E+00 -0.25663867178E+04  0.25663867178E+04  0.25500000920E-02 0.  1.
    10030    2    1    2    0    0  0.00000000000E+00  0.00000000000E+00 -0.17842988757E+04  0.33484745600E+04  0.28334712635E+04 0.  0.
        3    1    3    3  502    0 -0.23514331736E+03  0.13541068832E+04 -0.12985123763E+04  0.18907755637E+04  0.10100000352E+00 0. -1.
       -3    1    3    3    0  502  0.23514331736E+03 -0.13541068832E+04 -0.48578649939E+03  0.14576989963E+04  0.10100000352E+00 0.  1.
</event>
<event>
 5   0  0.5352212E-06  0.2002654E+04  0.7818609E-02  0.8605381E-01
       -1   -1    0    0    0  501  0.00000000000E+00  0.00000000000E+00  0.13608364398E+04  0.13608364398E+04  0.50400001928E-02 0.  1.
        1   -1    0    0  501    0  0.00000000000E+00  0.00000000000E+00 -0.73679380168E+03  0.73679380170E+03  0.50400001928E-02 0. -1.
    10030    2    1    2    0    0  0.00000000000E+00  0.00000000000E+00  0.62404263815E+03  0.20976302415E+04  0.20026540930E+04 0.  0.
        2    1    3    3  502    0 -0.37692599448E+03  0.27705241781E+03  0.12393473256E+04  0.13246935650E+04  0.25500000920E-02 0.  1.
       -2    1    3    3    0  502  0.37692599448E+03 -0.27705241781E+03 -0.61530468749E+03  0.77293667656E+03  0.25500000920E-02 0. -1.
</event>
<event>
 5   0  0.5059249E-06  0.2844433E+04  0.7818609E-02  0.8289605E-01
        1   -1    0    0  501    0  0.00000000000E+00  0.00000000000E+00  0.15240211187E+04  0.15240211187E+04  0.50400001928E-02 0.  1.
       -1   -1    0    0    0  501  0.00000000000E+00  0.00000000000E+00 -0.13272121054E+04  0.13272121054E+04  0.50400001928E-02 0. -1.
    10030    2    1    2    0    0  0.00000000000E+00  0.00000000000E+00  0.19680901325E+03  0.28512332241E+04  0.28444326518E+04 0.  0.
        1    1    3    3  502    0 -0.61272296434E+03  0.12834147515E+04  0.10922022123E+03  0.14263631768E+04  0.50400001928E-02 0.  1.
       -1    1    3    3    0  502  0.61272296434E+03 -0.12834147515E+04  0.87588792018E+02  0.14248700473E+04  0.50400001928E-02 0. -1.
</event>
<event>
 5   0  0.5154476E-06  0.2853885E+04  0.7818609E-02  0.8286732E-01
        1   -1    0    0  501    0  0.00000000000E+00  0.00000000000E+00  0.23107547083E+04  0.23107547083E+04  0.50400001928E-02 0.  1.
       -1   -1    0    0    0  501  0.00000000000E+00  0.00000000000E+00 -0.88116892009E+03  0.88116892011E+03  0.50400001928E-02 0. -1.
    10030    2    1    2    0    0  0.00000000000E+00  0.00000000000E+00  0.14295857882E+04  0.31919236284E+04  0.28538852331E+04 0.  0.
        3    1    3    3  502    0  0.25233556999E+03  0.42778665806E+03 -0.78137624589E+03  0.92586365764E+03  0.10100000352E+00 0. -1.
       -3    1    3    3    0  502 -0.25233556999E+03 -0.42778665806E+03  0.22109620341E+04  0.22660599707E+04  0.10100000352E+00 0.  1.
</event>
<event>
 5   0  0.5154476E-06  0.2691971E+04  0.7818609E-02  0.8337615E-01
        1   -1    0    0  501    0  0.00000000000E+00  0.00000000000E+00  0.19113737175E+04  0.19113737175E+04  0.50400001928E-02 0. -1.
       -1   -1    0    0    0  501  0.00000000000E+00  0.00000000000E+00 -0.94784049881E+03  0.94784049883E+03  0.50400001928E-02 0.  1.
    10030    2    1    2    0    0  0.00000000000E+00  0.00000000000E+00  0.96353321868E+03  0.28592142163E+04  0.26919713355E+04 0.  0.
        3    1    3    3  502    0  0.15489499557E+03  0.10250840121E+04  0.13935190233E+04  0.17368606651E+04  0.10100000352E+00 0. -1.
       -3    1    3    3    0  502 -0.15489499557E+03 -0.10250840121E+04 -0.42998580465E+03  0.11223535512E+04  0.10100000352E+00 0.  1.
</event>
<event>
 5   0  0.1382803E-05  0.2871543E+04  0.7818609E-02  0.8281395E-01
        2   -1    0    0  501    0  0.00000000000E+00  0.00000000000E+00  0.12161318437E+04  0.12161318437E+04  0.25500000920E-02 0. -1.
       -2   -1    0    0    0  501  0.00000000000E+00  0.00000000000E+00 -0.16950794237E+04  0.16950794237E+04  0.25500000920E-02 0.  1.
    10030    2    1    2    0    0  0.00000000000E+00  0.00000000000E+00 -0.47894758007E+03  0.29112112674E+04  0.28715431842E+04 0.  0.
        2    1    3    3  502    0  0.65578875077E+03 -0.23420367660E+03  0.10334707015E+04  0.12461829475E+04  0.25500000920E-02 0. -1.
       -2    1    3    3    0  502 -0.65578875077E+03  0.23420367660E+03 -0.15124182815E+04  0.16650283199E+04  0.25500000920E-02 0.  1.
</event>
<event>
 5   0  0.5261878E-06  0.2633258E+04  0.7818609E-02  0.8356991E-01
       -1   -1    0    0    0  501  0.00000000000E+00  0.00000000000E+00  0.10356639808E+04  0.10356639808E+04  0.50400001928E-02 0. -1.
        1   -1    0    0  501    0  0.00000000000E+00  0.00000000000E+00 -0.16738163825E+04  0.16738163825E+04  0.50400001928E-02 0.  1.
    10030    2    1    2    0    0  0.00000000000E+00  0.00000000000E+00 -0.63815240170E+03  0.27094803633E+04  0.26332575551E+04 0.  0.
        5    1    3    3  502    0 -0.12144297037E+03  0.15017927818E+03  0.10210001373E+04  0.10391176936E+04  0.46999998093E+01 0. -1.
       -5    1    3    3    0  502  0.12144297037E+03 -0.15017927818E+03 -0.16591525390E+04  0.16703626697E+04  0.46999998093E+01 0.  1.
</event>
<event>
 5   0  0.1339837E-05  0.2816567E+04  0.7818609E-02  0.8298143E-01
        2   -1    0    0  501    0  0.00000000000E+00  0.00000000000E+00  0.14876571185E+04  0.14876571185E+04  0.25500000920E-02 0. -1.
       -2   -1    0    0    0  501  0.00000000000E+00  0.00000000000E+00 -0.13331448519E+04  0.13331448519E+04  0.25500000920E-02 0.  1.
    10030    2    1    2    0    0  0.00000000000E+00  0.00000000000E+00  0.15451226663E+03  0.28208019704E+04  0.28165670089E+04 0.  0.
        5    1    3    3  502    0 -0.37760492949E+03 -0.39087293840E+03 -0.12238790465E+04  0.13391299964E+04  0.46999998093E+01 0.  1.
       -5    1    3    3    0  502  0.37760492949E+03  0.39087293840E+03  0.13783913131E+04  0.14816719741E+04  0.46999998093E+01 0. -1.
</event>
<event>
 5   0  0.5352212E-06  0.2809147E+04  0.7818609E-02  0.8300434E-01
       -1   -1    0    0    0  501  0.00000000000E+00  0.00000000000E+00  0.19717514484E+04  0.19717514484E+04  0.50400001928E-02 0.  1.
        1   -1    0    0  501    0  0.00000000000E+00  0.00000000000E+00 -0.10005452366E+04  0.10005452366E+04  0.50400001928E-02 0. -1.
    10030    2    1    2    0    0  0.00000000000E+00  0.00000000000E+00  0.97120621180E+03  0.29722966850E+04  0.28091468594E+04 0.  0.
        2    1    3    3  502    0 -0.68027281485E+03 -0.63240156218E+03  0.16004196276E+04  0.18504177428E+04  0.25500000920E-02 0.  1.
       -2    1    3    3    0  502  0.68027281485E+03  0.63240156218E+03 -0.62921341577E+03  0.11218789422E+04  0.25500000920E-02 0. -1.
</event>
<event>
 5   0  0.1339837E-05  0.2980541E+04  0.7818609E-02  0.8249309E-01
        2   -1    0    0  501    0  0.00000000000E+00  0.00000000000E+00  0.13846647242E+04  0.13846647242E+04  0.25500000920E-02 0. -1.
       -2   -1    0    0    0  501  0.00000000000E+00  0.00000000000E+00 -0.16039306806E+04  0.16039306806E+04  0.25500000920E-02 0.  1.
    10030    2    1    2    0    0  0.00000000000E+00  0.00000000000E+00 -0.21926595637E+03  0.29885954048E+04  0.29805410472E+04 0.  0.
        5    1    3    3  502    0 -0.66398930959E+03  0.14884018503E+03 -0.14390547682E+04  0.15918341370E+04  0.46999998093E+01 0.  1.
       -5    1    3    3    0  502  0.66398930959E+03 -0.14884018503E+03  0.12197888118E+04  0.13967612678E+04  0.46999998093E+01 0. -1.
</event>
<event>
 5   0  0.5059249E-06  0.2876907E+04  0.7818609E-02  0.8279782E-01
       -1   -1    0    0    0  501  0.00000000000E+00  0.00000000000E+00  0.16395576187E+04  0.16395576187E+04  0.50400001928E-02 0. -1.
        1   -1    0    0  501    0  0.00000000000E+00  0.00000000000E+00 -0.12620164494E+04  0.12620164495E+04  0.50400001928E-02 0.  1.
    10030    2    1    2    0    0  0.00000000000E+00  0.00000000000E+00  0.37754116925E+03  0.29015740682E+04  0.28769071481E+04 0.  0.
        1    1    3    3  502    0  0.83192918859E+03  0.27098031593E+02 -0.99444986139E+03  0.12968311397E+04  0.50400001928E-02 0.  1.
       -1    1    3    3    0  502 -0.83192918859E+03 -0.27098031593E+02  0.13719910306E+04  0.16047429284E+04  0.50400001928E-02 0. -1.
</event>
<event>
 5   0  0.5352212E-06  0.2688948E+04  0.7818609E-02  0.8338600E-01
        1   -1    0    0  501    0  0.00000000000E+00  0.00000000000E+00  0.28612426336E+04  0.28612426336E+04  0.50400001928E-02 0.  1.
       -1   -1    0    0    0  501  0.00000000000E+00  0.00000000000E+00 -0.63175715980E+03  0.63175715982E+03  0.50400001928E-02 0. -1.
    10030    2    1    2    0    0  0.00000000000E+00  0.00000000000E+00  0.22294854738E+04  0.34929997934E+04  0.26889481362E+04 0.  0.
        2    1    3    3  502    0 -0.57629752714E+03  0.70928062330E+03  0.23957200562E+04  0.25641124059E+04  0.25500000920E-02 0.  1.
       -2    1    3    3    0  502  0.57629752714E+03 -0.70928062330E+03 -0.16623458237E+03  0.92888738756E+03  0.25500000920E-02 0. -1.
</event>
<event>
 5   0  0.1336899E-05  0.2925224E+04  0.7818609E-02  0.8265412E-01
        2   -1    0    0  501    0  0.00000000000E+00  0.00000000000E+00  0.14828993769E+04  0.14828993769E+04  0.25500000920E-02 0.  1.
       -2   -1    0    0    0  501  0.00000000000E+00  0.00000000000E+00 -0.14426022919E+04  0.14426022919E+04  0.25500000920E-02 0. -1.
    10030    2    1    2    0    0  0.00000000000E+00  0.00000000000E+00  0.40297085026E+02  0.29255016688E+04  0.29252241211E+04 0.  0.
        1    1    3    3  502    0 -0.78799045072E+02  0.59063963434E+03 -0.13157062982E+04  0.14443502104E+04  0.50400001928E-02 0. -1.
       -1    1    3    3    0  502  0.78799045072E+02 -0.59063963434E+03  0.13560033832E+04  0.14811514583E+04  0.50400001928E-02 0.  1.
</event>
<event>
 5   0  0.1336899E-05  0.2887326E+04  0.7818609E-02  0.8276658E-01
        2   -1    0    0  501    0  0.00000000000E+00  0.00000000000E+00  0.11587537328E+04  0.11587537328E+04  0.25500000920E-02 0.  1.
       -2   -1    0    0    0  501  0.00000000000E+00  0.00000000000E+00 -0.17986250121E+04  0.17986250121E+04  0.25500000920E-02 0. -1.
    10030    2    1    2    0    0  0.00000000000E+00  0.00000000000E+00 -0.63987127932E+03  0.29573787449E+04  0.28873264080E+04 0.  0.
        1    1    3    3  502    0  0.45143356354E+03  0.11706861297E+04  0.41143704609E+03  0.13204464092E+04  0.50400001928E-02 0.  1.
       -1    1    3    3    0  502 -0.45143356354E+03 -0.11706861297E+04 -0.10513083254E+04  0.16369323357E+04  0.50400001928E-02 0. -1.
</event>
<event>
 5   0  0.5261878E-06  0.2888234E+04  0.7818609E-02  0.8276387E-01
       -1   -1    0    0    0  501  0.00000000000E+00  0.00000000000E+00  0.11772183332E+04  0.11772183333E+04  0.50400001928E-02 0. -1.
        1   -1    0    0  501    0  0.00000000000E+00  0.00000000000E+00 -0.17715267444E+04  0.17715267444E+04  0.50400001928E-02 0.  1.
    10030    2    1    2    0    0  0.00000000000E+00  0.00000000000E+00 -0.59430841118E+03  0.29487450777E+04  0.28882338973E+04 0.  0.
        5    1    3    3  502    0  0.28281607388E+03  0.21050768593E+03 -0.17269059485E+04  0.17625335919E+04  0.46999998093E+01 0.  1.
       -5    1    3    3    0  502 -0.28281607388E+03 -0.21050768593E+03  0.11325975373E+04  0.11862114858E+04  0.46999998093E+01 0. -1.
</event>
<event>
 5   0  0.5002240E-06  0.2883942E+04  0.7818609E-02  0.8277671E-01
       -1   -1    0    0    0  501  0.00000000000E+00  0.00000000000E+00  0.85505639401E+03  0.85505639403E+03  0.50400001928E-02 0. -1.
        1   -1    0    0  501    0  0.00000000000E+00  0.00000000000E+00 -0.24317458755E+04  0.24317458755E+04  0.50400001928E-02 0.  1.
    10030    2    1    2    0    0  0.00000000000E+00  0.00000000000E+00 -0.15766894815E+04  0.32868022696E+04  0.28839416496E+04 0.  0.
        4    1    3    3  502    0 -0.13231569081E+04  0.14111324403E+03 -0.14214849762E+04  0.19471205154E+04  0.12699999809E+01 0.  1.
       -4    1    3    3    0  502  0.13231569081E+04 -0.14111324403E+03 -0.15520450530E+03  0.13396817541E+04  0.12699999809E+01 0. -1.
</event>
<event>
 5   0  0.1339837E-05  0.2944721E+04  0.7818609E-02  0.8259695E-01
        2   -1    0    0  501    0  0.00000000000E+00  0.00000000000E+00  0.15645250320E+04  0.15645250320E+04  0.25500000920E-02 0.  1.
       -2   -1    0    0    0  501  0.00000000000E+00  0.00000000000E+00 -0.13856257159E+04  0.13856257159E+04  0.25500000920E-02 0. -1.
    10030    2    1    2    0    0  0.00000000000E+00  0.00000000000E+00  0.17889931608E+03  0.29501507480E+04  0.29447214589E+04 0.  0.
        5    1    3    3  502    0  0.79674270860E+03  0.64189980857E+03  0.11501697666E+04  0.15393982233E+04  0.46999998093E+01 0.  1.
       -5    1    3    3    0  502 -0.79674270860E+03 -0.64189980857E+03 -0.97127045048E+03  0.14107525247E+04  0.46999998093E+01 0. -1.
</event>
<event>
 5   0  0.5261878E-06  0.2897484E+04  0.7818609E-02  0.8273627E-01
        1   -1    0    0  501    0  0.00000000000E+00  0.00000000000E+00  0.21408575975E+04  0.21408575975E+04  0.50400001928E-02 0. -1.
       -1   -1    0    0    0  501  0.00000000000E+00  0.00000000000E+00 -0.98037951905E+03  0.98037951906E+03  0.50400001928E-02 0.  1.
    10030    2    1    2    0    0  0.00000000000E+00  0.00000000000E+00  0.11604780785E+04  0.31212371166E+04  0.28974836958E+04 0.  0.
        5    1    3    3  502    0  0.10544293164E+04  0.95986285825E+03  0.30418184851E+03  0.14579803074E+04  0.46999998093E+01 0.  1.
       -5    1    3    3    0  502 -0.10544293164E+04 -0.95986285825E+03  0.85629622996E+03  0.16632568092E+04  0.46999998093E+01 0. -1.
</event>
<event>
 5   0  0.5352212E-06  0.2889567E+04  0.7818609E-02  0.8275988E-01
       -1   -1    0    0    0  501  0.00000000000E+00  0.00000000000E+00  0.16642948963E+04  0.16642948963E+04  0.50400001928E-02 0.  1.
        1   -1    0    0  501    0  0.00000000000E+00  0.00000000000E+00 -0.12542240761E+04  0.12542240761E+04  0.50400001928E-02 0. -1.
    10030    2    1    2    0    0  0.00000000000E+00  0.00000000000E+00  0.41007082020E+03  0.29185189724E+04  0.28895665617E+04 0.  0.
        2    1    3    3  502    0  0.11421172283E+04  0.62474148329E+03 -0.42787310502E+03  0.13703317402E+04  0.25500000920E-02 0. -1.
       -2    1    3    3    0  502 -0.11421172283E+04 -0.62474148329E+03  0.83794392521E+03  0.15481872322E+04  0.25500000920E-02 0.  1.
</event>
<event>
 5   0  0.1339837E-05  0.2881910E+04  0.7818609E-02  0.8278280E-01
        2   -1    0    0  501    0  0.00000000000E+00  0.00000000000E+00  0.13460821366E+04  0.13460821366E+04  0.25500000920E-02 0.  1.
       -2   -1    0    0    0  501  0.00000000000E+00  0.00000000000E+00 -0.15425140384E+04  0.15425140384E+04  0.25500000920E-02 0. -1.
    10030    2    1    2    0    0  0.00000000000E+00  0.00000000000E+00 -0.19643190180E+03  0.28885961749E+04  0.28819095006E+04 0.  0.
        5    1    3    3  502    0 -0.81814753512E+03  0.10905084138E+04 -0.56594040308E+03  0.14761045423E+04  0.46999998093E+01 0.  1.
       -5    1    3    3    0  502  0.81814753512E+03 -0.10905084138E+04  0.36950850127E+03  0.14124916327E+04  0.46999998093E+01 0. -1.
</event>
<event>
 5   0  0.1336899E-05  0.2925606E+04  0.7818609E-02  0.8265299E-01
        2   -1    0    0  501    0  0.00000000000E+00  0.00000000000E+00  0.22440319544E+04  0.22440319544E+04  0.25500000920E-02 0.  1.
       -2   -1    0    0    0  501  0.00000000000E+00  0.00000000000E+00 -0.95354815759E+03  0.95354815759E+03  0.25500000920E-02 0. -1.
    10030    2    1    2    0    0  0.00000000000E+00  0.00000000000E+00  0.12904837968E+04  0.31975801120E+04  0.29256059445E+04 0.  0.
        1    1    3    3  502    0 -0.13357244644E+04  0.59627005907E+03  0.63460541577E+03  0.15944973696E+04  0.50400001928E-02 0. -1.
       -1    1    3    3    0  502  0.13357244644E+04 -0.59627005907E+03  0.65587838101E+03  0.16030827423E+04  0.50400001928E-02 0.  1.
</event>
<event>
 5   0  0.5352212E-06  0.2847463E+04  0.7818609E-02  0.8288682E-01
       -1   -1    0    0    0  501  0.00000000000E+00  0.00000000000E+00  0.96928881044E+03  0.96928881045E+03  0.50400001928E-02 0.  1.
        1   -1    0    0  501    0  0.00000000000E+00  0.00000000000E+00 -0.20912363988E+04  0.20912363988E+04  0.50400001928E-02 0. -1.
    10030    2    1    2    0    0  0.00000000000E+00  0.00000000000E+00 -0.11219475884E+04  0.30605252093E+04  0.28474634617E+04 0.  0.
        2    1    3    3  502    0 -0.27768279933E+03  0.68999213452E+03  0.74387236229E+03  0.10519234640E+04  0.25500000920E-02 0.  1.
       -2    1    3    3    0  502  0.27768279933E+03 -0.68999213452E+03 -0.18658199507E+04  0.20086017453E+04  0.25500000920E-02 0. -1.
</event>
<event>
 5   0  0.5261878E-06  0.2979310E+04  0.7818609E-02  0.8249664E-01
       -1   -1    0    0    0  501  0.00000000000E+00  0.00000000000E+00  0.15710529684E+04  0.15710529684E+04  0.50400001928E-02 0. -1.
        1   -1    0    0  501    0  0.00000000000E+00  0.00000000000E+00 -0.14124745535E+04  0.14124745535E+04  0.50400001928E-02 0.  1.
    10030    2    1    2    0    0  0.00000000000E+00  0.00000000000E+00  0.15857841496E+03  0.29835275219E+04  0.29793102155E+04 0.  0.
        5    1    3    3  502    0 -0.10289173172E+04  0.32331781925E+03  0.11082869095E+04  0.15464563433E+04  0.46999998093E+01 0. -1.
       -5    1    3    3    0  502  0.10289173172E+04 -0.32331781925E+03 -0.94970849455E+03  0.14370711786E+04  0.46999998093E+01 0.  1.
</event>
<event>
 5   0  0.5154476E-06  0.2950222E+04  0.7818609E-02  0.8258090E-01
       -1   -1    0    0    0  501  0.00000000000E+00  0.00000000000E+00  0.14109966142E+04  0.14109966142E+04  0.50400001928E-02 0.  1.
        1   -1    0    0  501    0  0.00000000000E+00  0.00000000000E+00 -0.15421383019E+04  0.15421383019E+04  0.50400001928E-02 0. -1.
    10030    2    1    2    0    0  0.00000000000E+00  0.00000000000E+00 -0.13114168769E+03  0.29531349160E+04  0.29502216341E+04 0.  0.
        3    1    3    3  502    0  0.92662760682E+03 -0.40866597428E+03 -0.11391528102E+04  0.15242426760E+04  0.10100000352E+00 0. -1.
       -3    1    3    3    0  502 -0.92662760682E+03  0.40866597428E+03  0.10080111225E+04  0.14288922400E+04  0.10100000352E+00 0.  1.
</event>
<event>
 5   0  0.5154476E-06  0.2910995E+04  0.7818609E-02  0.8269614E-01
       -1   -1    0    0    0  501  0.00000000000E+00  0.00000000000E+00  0.21793461791E+04  0.21793461791E+04  0.50400001928E-02 0. -1.
        1   -1    0    0  501    0  0.00000000000E+00  0.00000000000E+00 -0.97206796768E+03  0.97206796770E+03  0.50400001928E-02 0.  1.
    10030    2    1    2    0    0  0.00000000000E+00  0.00000000000E+00  0.12072782115E+04  0.31514141468E+04  0.29109947518E+04 0.  0.
        3    1    3    3  502    0 -0.75233716073E+02  0.13549079199E+04  0.11734529011E+04  0.17939975766E+04  0.10100000352E+00 0. -1.
       -3    1    3    3    0  502  0.75233716073E+02 -0.13549079199E+04  0.33825310340E+02  0.13574165703E+04  0.10100000352E+00 0.  1.
</event>
<event>
 5   0  0.5261878E-06  0.2728097E+04  0.7818609E-02  0.8325946E-01
       -1   -1    0    0    0  501  0.00000000000E+00  0.00000000000E+00  0.10849122322E+04  0.10849122322E+04  0.50400001928E-02 0. -1.
        1   -1    0    0  501    0  0.00000000000E+00  0.00000000000E+00 -0.17150033489E+04  0.17150033489E+04  0.50400001928E-02 0.  1.
    10030    2    1    2    0    0  0.00000000000E+00  0.00000000000E+00 -0.63009111667E+03  0.27999155811E+04  0.27280968542E+04 0.  0.
        5    1    3    3  502    0 -0.43344164690E+03 -0.90468831016E+03  0.63355548922E+03  0.11864852497E+04  0.46999998093E+01 0.  1.
       -5    1    3    3    0  502  0.43344164690E+03  0.90468831016E+03 -0.12636466059E+04  0.16134303314E+04  0.46999998093E+01 0. -1.
</event>
<event>
 5   0  0.5002240E-06  0.2967053E+04  0.7818609E-02  0.8253202E-01
       -1   -1    0    0    0  501  0.00000000000E+00  0.00000000000E+00  0.13215847440E+04  0.13215847440E+04  0.50400001928E-02 0.  1.
        1   -1    0    0  501    0  0.00000000000E+00  0.00000000000E+00 -0.16653124245E+04  0.16653124245E+04  0.50400001928E-02 0. -1.
    10030    2    1    2    0    0  0.00000000000E+00  0.00000000000E+00 -0.34372768052E+03  0.29868971685E+04  0.29670534166E+04 0.  0.
        4    1    3    3  502    0  0.94457014833E+03 -0.90088177482E+02  0.97616719897E+03  0.13613348809E+04  0.12699999809E+01 0.  1.
       -4    1    3    3    0  502 -0.94457014833E+03  0.90088177482E+02 -0.13198948795E+04  0.16255622875E+04  0.12699999809E+01 0. -1.
</event>
<event>
 5   0  0.5154476E-06  0.2894264E+04  0.7818609E-02  0.8274586E-01
       -1   -1    0    0    0  501  0.00000000000E+00  0.00000000000E+00  0.17958958475E+04  0.17958958475E+04  0.50400001928E-02 0.  1.
        1   -1    0    0  501    0  0.00000000000E+00  0.00000000000E+00 -0.11660982642E+04  0.11660982642E+04  0.50400001928E-02 0. -1.
    10030    2    1    2    0    0  0.00000000000E+00  0.00000000000E+00  0.62979758327E+03  0.29619941118E+04  0.28942640035E+04 0.  0.
        3    1    3    3  502    0 -0.31516475685E+03 -0.71626519725E+03 -0.93089082318E+03  0.12161095311E+04  0.10100000352E+00 0. -1.
       -3    1    3    3    0  502  0.31516475685E+03  0.71626519725E+03  0.15606884065E+04  0.17458845807E+04  0.10100000352E+00 0.  1.
</event>
<event>
 5   0  0.1307832E-05  0.2855676E+04  0.7818609E-02  0.8286189E-01
        2   -1    0    0  501    0  0.00000000000E+00  0.00000000000E+00  0.13803500206E+04  0.13803500206E+04  0.25500000920E-02 0. -1.
       -2   -1    0    0    0  501  0.00000000000E+00  0.00000000000E+00 -0.14769601834E+04  0.14769601834E+04  0.25500000920E-02 0.  1.
    10030    2    1    2    0    0  0.00000000000E+00  0.00000000000E+00 -0.96610162818E+02  0.28573102039E+04  0.28556764659E+04 0.  0.
        4    1    3    3  502    0  0.73306646889E+03  0.51330041834E+03  0.10649214925E+04  0.13910151564E+04  0.12699999809E+01 0. -1.
       -4    1    3    3    0  502 -0.73306646889E+03 -0.51330041834E+03 -0.11615316553E+04  0.14662950475E+04  0.12699999809E+01 0.  1.
</event>
<event>
 5   0  0.5154476E-06  0.2829832E+04  0.7818609E-02  0.8294066E-01
        1   -1    0    0  501    0  0.00000000000E+00  0.00000000000E+00  0.13065554470E+04  0.13065554470E+04  0.50400001928E-02 0. -1.
       -1   -1    0    0    0  501  0.00000000000E+00  0.00000000000E+00 -0.15322633251E+04  0.15322633251E+04  0.50400001928E-02 0.  1.
    10030    2    1    2    0    0  0.00000000000E+00  0.00000000000E+00 -0.22570787807E+03  0.28388187721E+04  0.28298317926E+04 0.  0.
        3    1    3    3  502    0  0.97664887304E+03 -0.65817146023E+03  0.67382670580E+03  0.13568622376E+04  0.10100000352E+00 0.  1.
       -3    1    3    3    0  502 -0.97664887304E+03  0.65817146023E+03 -0.89953458386E+03  0.14819565345E+04  0.10100000352E+00 0. -1.
</event>
<event>
 5   0  0.1385669E-05  0.2899305E+04  0.7818609E-02  0.8273084E-01
       -2   -1    0    0    0  501  0.00000000000E+00  0.00000000000E+00  0.87344869397E+03  0.87344869397E+03  0.25500000920E-02 0.  1.
        2   -1    0    0  501    0  0.00000000000E+00  0.00000000000E+00 -0.24059709543E+04  0.24059709543E+04  0.25500000920E-02 0. -1.
    10030    2    1    2    0    0  0.00000000000E+00  0.00000000000E+00 -0.15325222603E+04  0.32794196483E+04  0.28993048738E+04 0.  0.
        3    1    3    3  502    0  0.56802392517E+03 -0.22545299573E+02  0.74211488096E+03  0.93482296551E+03  0.10100000352E+00 0.  1.
       -3    1    3    3    0  502 -0.56802392517E+03  0.22545299573E+02 -0.22746371413E+04  0.23445966828E+04  0.10100000352E+00 0. -1.
</event>
<event>
 5   0  0.1385669E-05  0.2904098E+04  0.7818609E-02  0.8271659E-01
        2   -1    0    0  501    0  0.00000000000E+00  0.00000000000E+00  0.20418164008E+04  0.20418164008E+04  0.25500000920E-02 0. -1.
       -2   -1    0    0    0  501  0.00000000000E+00  0.00000000000E+00 -0.10326326345E+04  0.10326326345E+04  0.25500000920E-02 0.  1.
    10030    2    1    2    0    0  0.00000000000E+00  0.00000000000E+00  0.10091837663E+04  0.30744490353E+04  0.29040979660E+04 0.  0.
        3    1    3    3  502    0 -0.12489944337E+04  0.62243765330E+03  0.92941693725E+03  0.16766727710E+04  0.10100000352E+00 0. -1.
       -3    1    3    3    0  502  0.12489944337E+04 -0.62243765330E+03  0.79766829014E+02  0.13977762642E+04  0.10100000352E+00 0.  1.
</event>
<event>
 5   0  0.1339837E-05  0.2913586E+04  0.7818609E-02  0.8268847E-01
       -2   -1    0    0    0  501  0.00000000000E+00  0.00000000000E+00  0.97391664434E+03  0.97391664434E+03  0.25500000920E-02 0.  1.
        2   -1    0    0  501    0  0.00000000000E+00  0.00000000000E+00 -0.21790842956E+04  0.21790842956E+04  0.25500000920E-02 0. -1.
    10030    2    1    2    0    0  0.00000000000E+00  0.00000000000E+00 -0.12051676513E+04  0.31530009399E+04  0.29135864256E+04 0.  0.
        5    1    3    3  502    0  0.96762063572E+03  0.84453581643E+03 -0.13466065670E+04  0.18608873626E+04  0.46999998093E+01 0. -1.
       -5    1    3    3    0  502 -0.96762063572E+03 -0.84453581643E+03  0.14143891574E+03  0.12921135774E+04  0.46999998093E+01 0.  1.
</event>
<event>
 5   0  0.1339837E-05  0.2894704E+04  0.7818609E-02  0.8274455E-01
       -2   -1    0    0    0  501  0.00000000000E+00  0.00000000000E+00  0.23753105687E+04  0.23753105687E+04  0.25500000920E-02 0.  1.
        2   -1    0    0  501    0  0.00000000000E+00  0.00000000000E+00 -0.88191724993E+03  0.88191724993E+03  0.25500000920E-02 0. -1.
    10030    2    1    2    0    0  0.00000000000E+00  0.00000000000E+00  0.14933933187E+04  0.32572278186E+04  0.28947036908E+04 0.  0.
        5    1    3    3  502    0 -0.12745910486E+04 -0.62757938662E+03  0.43574203613E+03  0.14860455712E+04  0.46999998093E+01 0.  1.
       -5    1    3    3    0  502  0.12745910486E+04  0.62757938662E+03  0.10576512826E+04  0.17711822474E+04  0.46999998093E+01 0. -1.
</event>
<event>
 5   0  0.5261878E-06  0.2822978E+04  0.7818609E-02  0.8296170E-01
        1   -1    0    0  501    0  0.00000000000E+00  0.00000000000E+00  0.17754273110E+04  0.17754273111E+04  0.50400001928E-02 0. -1.
       -1   -1    0    0    0  501  0.00000000000E+00  0.00000000000E+00 -0.11221529806E+04  0.11221529806E+04  0.50400001928E-02 0.  1.
    10030    2    1    2    0    0  0.00000000000E+00  0.00000000000E+00  0.65327433047E+03  0.28975802916E+04  0.28229778950E+04 0.  0.
        5    1    3    3  502    0 -0.89243777677E+03 -0.40342710959E+03 -0.71662882558E+03  0.12135804802E+04  0.46999998093E+01 0.  1.
       -5    1    3    3    0  502  0.89243777677E+03  0.40342710959E+03  0.13699031561E+04  0.16839998115E+04  0.46999998093E+01 0. -1.
</event>
<event>
 5   0  0.5352212E-06  0.2956174E+04  0.7818609E-02  0.8256358E-01
        1   -1    0    0  501    0  0.00000000000E+00  0.00000000000E+00  0.18291129839E+04  0.18291129839E+04  0.50400001928E-02 0. -1.
       -1   -1    0    0    0  501  0.00000000000E+00  0.00000000000E+00 -0.11944264693E+04  0.11944264693E+04  0.50400001928E-02 0.  1.
    10030    2    1    2    0    0  0.00000000000E+00  0.00000000000E+00  0.63468651458E+03  0.30235394533E+04  0.29561738538E+04 0.  0.
        2    1    3    3  502    0 -0.12506781940E+04  0.43217749950E+03 -0.35627560099E+03  0.13703669727E+04  0.25500000920E-02 0.  1.
       -2    1    3    3    0  502  0.12506781940E+04 -0.43217749950E+03  0.99096211557E+03  0.16531724806E+04  0.25500000920E-02 0. -1.
</event>
<event>
 5   0  0.1339837E-05  0.2824920E+04  0.7818609E-02  0.8295573E-01
        2   -1    0    0  501    0  0.00000000000E+00  0.00000000000E+00  0.24236420316E+04  0.24236420316E+04  0.25500000920E-02 0.  1.
       -2   -1    0    0    0  501  0.00000000000E+00  0.00000000000E+00 -0.82315925578E+03  0.82315925579E+03  0.25500000920E-02 0. -1.
    10030    2    1    2    0    0  0.00000000000E+00  0.00000000000E+00  0.16004827758E+04  0.32468012874E+04  0.28249200846E+04 0.  0.
        5    1    3    3  502    0 -0.15323196873E+03  0.14040621255E+04  0.81435504557E+03  0.16303578499E+04  0.46999998093E+01 0.  1.
       -5    1    3    3    0  502  0.15323196873E+03 -0.14040621255E+04  0.78612773025E+03  0.16164434375E+04  0.46999998093E+01 0. -1.
</event>
<event>
 5   0  0.1336899E-05  0.2794820E+04  0.7818609E-02  0.8304878E-01
        2   -1    0    0  501    0  0.00000000000E+00  0.00000000000E+00  0.22076390366E+04  0.22076390366E+04  0.25500000920E-02 0. -1.
       -2   -1    0    0    0  501  0.00000000000E+00  0.00000000000E+00 -0.88454469354E+03  0.88454469354E+03  0.25500000920E-02 0.  1.
    10030    2    1    2    0    0  0.00000000000E+00  0.00000000000E+00  0.13230943431E+04  0.30921837301E+04  0.27948204916E+04 0.  0.
        1    1    3    3  502    0 -0.29700661879E+03 -0.59977348170E+03 -0.69568084882E+03  0.96535641314E+03  0.50400001928E-02 0.  1.
       -1    1    3    3    0  502  0.29700661879E+03  0.59977348170E+03  0.20187751919E+04  0.21268273170E+04  0.50400001928E-02 0. -1.
</event>
<event>
 5   0  0.5352212E-06  0.2617563E+04  0.7818609E-02  0.8362260E-01
        1   -1    0    0  501    0  0.00000000000E+00  0.00000000000E+00  0.18845531887E+04  0.18845531888E+04  0.50400001928E-02 0. -1.
       -1   -1    0    0    0  501  0.00000000000E+00  0.00000000000E+00 -0.90892031044E+03  0.90892031045E+03  0.50400001928E-02 0.  1.
    10030    2    1    2    0    0  0.00000000000E+00  0.00000000000E+00  0.97563287831E+03  0.27934734992E+04  0.26175627361E+04 0.  0.
        2    1    3    3  502    0 -0.81221001867E+03 -0.10262517324E+04  0.49375230734E+03  0.13988098776E+04  0.25500000920E-02 0. -1.
       -2    1    3    3    0  502  0.81221001867E+03  0.10262517324E+04  0.48188057097E+03  0.13946636216E+04  0.25500000920E-02 0.  1.
</event>
<event>
 5   0  0.1336899E-05  0.2842081E+04  0.7818609E-02  0.8290322E-01
       -2   -1    0    0    0  501  0.00000000000E+00  0.00000000000E+00  0.10692792862E+04  0.10692792862E+04  0.25500000920E-02 0.  1.
        2   -1    0    0  501    0  0.00000000000E+00  0.00000000000E+00 -0.18885205190E+04  0.18885205190E+04  0.25500000920E-02 0. -1.
    10030    2    1    2    0    0  0.00000000000E+00  0.00000000000E+00 -0.81924123279E+03  0.29577998053E+04  0.28420808381E+04 0.  0.
        1    1    3    3  502    0  0.85446074251E+03 -0.34373181777E+02 -0.15907630817E+04  0.18060486865E+04  0.50400001928E-02 0. -1.
       -1    1    3    3    0  502 -0.85446074251E+03  0.34373181777E+02  0.77152184890E+03  0.11517511187E+04  0.50400001928E-02 0.  1.
</event>
<event>
 5   0  0.5002240E-06  0.2867852E+04  0.7818609E-02  0.8282507E-01
       -1   -1    0    0    0  501  0.00000000000E+00  0.00000000000E+00  0.15751329589E+04  0.15751329589E+04  0.50400001928E-02 0.  1.
        1   -1    0    0  501    0  0.00000000000E+00  0.00000000000E+00 -0.13053778160E+04  0.13053778160E+04  0.50400001928E-02 0. -1.
    10030    2    1    2    0    0  0.00000000000E+00  0.00000000000E+00  0.26975514292E+03  0.28805107749E+04  0.28678518942E+04 0.  0.
        4    1    3    3  502    0 -0.91797268851E+03 -0.27987177849E+03 -0.93525476452E+03  0.13400392370E+04  0.12699999809E+01 0. -1.
       -4    1    3    3    0  502  0.91797268851E+03  0.27987177849E+03  0.12050099074E+04  0.15404715379E+04  0.12699999809E+01 0.  1.
</event>
<event>
 5   0  0.1385669E-05  0.1998991E+04  0.7818609E-02  0.8607092E-01
        2   -1    0    0  501    0  0.00000000000E+00  0.00000000000E+00  0.79325168374E+03  0.79325168375E+03  0.25500000920E-02 0.  1.
       -2   -1    0    0    0  501  0.00000000000E+00  0.00000000000E+00 -0.12593629017E+04  0.12593629017E+04  0.25500000920E-02 0. -1.
    10030    2    1    2    0    0  0.00000000000E+00  0.00000000000E+00 -0.46611121794E+03  0.20526145854E+04  0.19989914879E+04 0.  0.
        3    1    3    3  502    0 -0.40836628442E+03  0.65466280299E+03 -0.88542928539E+03  0.11744494189E+04  0.10100000352E+00 0. -1.
       -3    1    3    3    0  502  0.40836628442E+03 -0.65466280299E+03  0.41931806744E+03  0.87816516656E+03  0.10100000352E+00 0.  1.
</event>
<event>
 5   0  0.5002240E-06  0.2769483E+04  0.7818609E-02  0.8312806E-01
       -1   -1    0    0    0  501  0.00000000000E+00  0.00000000000E+00  0.11801152626E+04  0.11801152626E+04  0.50400001928E-02 0. -1.
        1   -1    0    0  501    0  0.00000000000E+00  0.00000000000E+00 -0.16248490953E+04  0.16248490953E+04  0.50400001928E-02 0.  1.
    10030    2    1    2    0    0  0.00000000000E+00  0.00000000000E+00 -0.44473383265E+03  0.28049643579E+04  0.27694831408E+04 0.  0.
        4    1    3    3  502    0  0.75987163898E+03  0.78315422013E+03 -0.10857981682E+04  0.15393812767E+04  0.12699999809E+01 0.  1.
       -4    1    3    3    0  502 -0.75987163898E+03 -0.78315422013E+03  0.64106433554E+03  0.12655830812E+04  0.12699999809E+01 0. -1.
</event>
<event>
 5   0  0.1385669E-05  0.2904429E+04  0.7818609E-02  0.8271561E-01
        2   -1    0    0  501    0  0.00000000000E+00  0.00000000000E+00  0.21322399195E+04  0.21322399195E+04  0.25500000920E-02 0.  1.
       -2   -1    0    0    0  501  0.00000000000E+00  0.00000000000E+00 -0.98906614968E+03  0.98906614968E+03  0.25500000920E-02 0. -1.
    10030    2    1    2    0    0  0.00000000000E+00  0.00000000000E+00  0.11431737698E+04  0.31213060692E+04  0.29044285685E+04 0.  0.
        3    1    3    3  502    0  0.74062952469E+03  0.85464411073E+03  0.15506458770E+04  0.19192319545E+04  0.10100000352E+00 0.  1.
       -3    1    3    3    0  502 -0.74062952469E+03 -0.85464411073E+03 -0.40747210724E+03  0.12020741147E+04  0.10100000352E+00 0. -1.
</event>
<event>
 5   0  0.1307832E-05  0.2917780E+04  0.7818609E-02  0.8267607E-01
       -2   -1    0    0    0  501  0.00000000000E+00  0.00000000000E+00  0.15408276433E+04  0.15408276433E+04  0.25500000920E-02 0. -1.
        2   -1    0    0  501    0  0.00000000000E+00  0.00000000000E+00 -0.13813100652E+04  0.13813100652E+04  0.25500000920E-02 0.  1.
    10030    2    1    2    0    0  0.00000000000E+00  0.00000000000E+00  0.15951757808E+03  0.29221377085E+04  0.29177804801E+04 0.  0.
        4    1    3    3  502    0 -0.19900241513E+03  0.14445430699E+04  0.12513071975E+03  0.14635456782E+04  0.12699999809E+01 0.  1.
       -4    1    3    3    0  502  0.19900241513E+03 -0.14445430699E+04  0.34386858325E+02  0.14585920304E+04  0.12699999809E+01 0. -1.
</event>
<event>
 5   0  0.1382803E-05  0.2980361E+04  0.7818609E-02  0.8249361E-01
       -2   -1    0    0    0  501  0.00000000000E+00  0.00000000000E+00  0.97732005692E+03  0.97732005692E+03  0.25500000920E-02 0. -1.
        2   -1    0    0  501    0  0.00000000000E+00  0.00000000000E+00 -0.22721704064E+04  0.22721704064E+04  0.25500000920E-02 0.  1.
    10030    2    1    2    0    0  0.00000000000E+00  0.00000000000E+00 -0.12948503494E+04  0.32494904633E+04  0.29803608579E+04 0.  0.
        2    1    3    3  502    0 -0.10638477920E+04  0.10342987831E+04 -0.79807468837E+03  0.16847757434E+04  0.25500000920E-02 0.  1.
       -2    1    3    3    0  502  0.10638477920E+04 -0.10342987831E+04 -0.49677566108E+03  0.15647147199E+04  0.25500000920E-02 0. -1.
</event>
<event>
 5   0  0.1382803E-05  0.2888942E+04  0.7818609E-02  0.8276175E-01
       -2   -1    0    0    0  501  0.00000000000E+00  0.00000000000E+00  0.10169780736E+04  0.10169780736E+04  0.25500000920E-02 0.  1.
        2   -1    0    0  501    0  0.00000000000E+00  0.00000000000E+00 -0.20516635958E+04  0.20516635958E+04  0.25500000920E-02 0. -1.
    10030    2    1    2    0    0  0.00000000000E+00  0.00000000000E+00 -0.10346855222E+04  0.30686416694E+04  0.28889422918E+04 0.  0.
        2    1    3    3  502    0 -0.12180446371E+04 -0.49876045814E+03 -0.11494221060E+04  0.17474455385E+04  0.25500000920E-02 0.  1.
       -2    1    3    3    0  502  0.12180446371E+04  0.49876045814E+03  0.11473658378E+03  0.13211961309E+04  0.25500000920E-02 0. -1.
</event>
<event>
 5   0  0.5002240E-06  0.2907795E+04  0.7818609E-02  0.8270562E-01
        1   -1    0    0  501    0  0.00000000000E+00  0.00000000000E+00  0.19331789988E+04  0.19331789988E+04  0.50400001928E-02 0. -1.
       -1   -1    0    0    0  501  0.00000000000E+00  0.00000000000E+00 -0.10934416524E+04  0.10934416524E+04  0.50400001928E-02 0.  1.
    10030    2    1    2    0    0  0.00000000000E+00  0.00000000000E+00  0.83973734640E+03  0.30266206513E+04  0.29077953428E+04 0.  0.
        4    1    3    3  502    0 -0.11891821413E+04 -0.76560770237E+03  0.69192347804E+02  0.14160150115E+04  0.12699999809E+01 0.  1.
       -4    1    3    3    0  502  0.11891821413E+04  0.76560770237E+03  0.77054499860E+03  0.16106056397E+04  0.12699999809E+01 0. -1.
</event>
<event>
 5   0  0.1382803E-05  0.2932661E+04  0.7818609E-02  0.8263226E-01
       -2   -1    0    0    0  501  0.00000000000E+00  0.00000000000E+00  0.12738647441E+04  0.12738647441E+04  0.25500000920E-02 0.  1.
        2   -1    0    0  501    0  0.00000000000E+00  0.00000000000E+00 -0.16878752654E+04  0.16878752654E+04  0.25500000920E-02 0. -1.
    10030    2    1    2    0    0  0.00000000000E+00  0.00000000000E+00 -0.41401052122E+03  0.29617400095E+04  0.29326607666E+04 0.  0.
        2    1    3    3  502    0 -0.19649335802E+02  0.80842556651E+03  0.10283105856E+04  0.13081898385E+04  0.25500000920E-02 0.  1.
       -2    1    3    3    0  502  0.19649335802E+02 -0.80842556651E+03 -0.14423211068E+04  0.16535501710E+04  0.25500000920E-02 0. -1.
</event>
<event>
 5   0  0.1339837E-05  0.1953363E+04  0.7818609E-02  0.8628741E-01
       -2   -1    0    0    0  501  0.00000000000E+00  0.00000000000E+00  0.81975618929E+03  0.81975618930E+03  0.25500000920E-02 0. -1.
        2   -1    0    0  501    0  0.00000000000E+00  0.00000000000E+00 -0.11636472474E+04  0.11636472474E+04  0.25500000920E-02 0.  1.
    10030    2    1    2    0    0  0.00000000000E+00  0.00000000000E+00 -0.34389105806E+03  0.19834034367E+04  0.19533632874E+04 0.  0.
        5    1    3    3  502    0 -0.41305993131E+03  0.77700725347E+03 -0.60216683712E+03  0.10662953477E+04  0.46999998093E+01 0.  1.
       -5    1    3    3    0  502  0.41305993131E+03 -0.77700725347E+03  0.25827577906E+03  0.91710808896E+03  0.46999998093E+01 0. -1.
</event>
<event>
 5   0  0.1339837E-05  0.2908481E+04  0.7818609E-02  0.8270359E-01
       -2   -1    0    0    0  501  0.00000000000E+00  0.00000000000E+00  0.79835619039E+03  0.79835619039E+03  0.25500000920E-02 0. -1.
        2   -1    0    0  501    0  0.00000000000E+00  0.00000000000E+00 -0.26489628765E+04  0.26489628765E+04  0.25500000920E-02 0.  1.
    10030    2    1    2    0    0  0.00000000000E+00  0.00000000000E+00 -0.18506066861E+04  0.34473190669E+04  0.29084813292E+04 0.  0.
        5    1    3    3  502    0 -0.44004445319E+03 -0.11202607503E+04 -0.18927074268E+04  0.22429861263E+04  0.46999998093E+01 0.  1.
       -5    1    3    3    0  502  0.44004445319E+03  0.11202607503E+04  0.42100740662E+02  0.12043329406E+04  0.46999998093E+01 0. -1.
</event>
<event>
 5   0  0.1385669E-05  0.3292869E+04  0.7818609E-02  0.8164712E-01
        2   -1    0    0  501    0  0.00000000000E+00  0.00000000000E+00  0.15937463761E+04  0.15937463761E+04  0.25500000920E-02 0.  1.
       -2   -1    0    0    0  501  0.00000000000E+00  0.00000000000E+00 -0.17008646900E+04  0.17008646900E+04  0.25500000920E-02 0. -1.
    10030    2    1    2    0    0  0.00000000000E+00  0.00000000000E+00 -0.10711831393E+03  0.32946110661E+04  0.32928692266E+04 0.  0.
        3    1    3    3  502    0 -0.49427428453E+02  0.42372944661E+03 -0.16446069903E+04  0.16990355728E+04  0.10100000352E+00 0. -1.
       -3    1    3    3    0  502  0.49427428453E+02 -0.42372944661E+03  0.15374886764E+04  0.15955754933E+04  0.10100000352E+00 0.  1.
</event>
<event>
 5   0  0.5261878E-06  0.2853953E+04  0.7818609E-02  0.8286711E-01
       -1   -1    0    0    0  501  0.00000000000E+00  0.00000000000E+00  0.12986710002E+04  0.12986710002E+04  0.50400001928E-02 0. -1.
        1   -1    0    0  501    0  0.00000000000E+00  0.00000000000E+00 -0.15679582635E+04  0.15679582635E+04  0.50400001928E-02 0.  1.
    10030    2    1    2    0    0  0.00000000000E+00  0.00000000000E+00 -0.26928726328E+03  0.28666292637E+04  0.28539529963E+04 0.  0.
        5    1    3    3  502    0 -0.86671835151E+03  0.90407128228E+03  0.55227568636E+03  0.13687863632E+04  0.46999998093E+01 0. -1.
       -5    1    3    3    0  502  0.86671835151E+03 -0.90407128228E+03 -0.82156294964E+03  0.14978429005E+04  0.46999998093E+01 0.  1.
</event>
<event>
 5   0  0.5059249E-06  0.2913597E+04  0.7818609E-02  0.8268844E-01
       -1   -1    0    0    0  501  0.00000000000E+00  0.00000000000E+00  0.13932396609E+04  0.13932396609E+04  0.50400001928E-02 0.  1.
        1   -1    0    0  501    0  0.00000000000E+00  0.00000000000E+00 -0.15232565805E+04  0.15232565805E+04  0.50400001928E-02 0. -1.
    10030    2    1    2    0    0  0.00000000000E+00  0.00000000000E+00 -0.13001691962E+03  0.29164962414E+04  0.29135967337E+04 0.  0.
        1    1    3    3  502    0 -0.70202109214E+03  0.37630754341E+03 -0.12859848011E+04  0.15126790439E+04  0.50400001928E-02 0. -1.
       -1    1    3    3    0  502  0.70202109214E+03 -0.37630754341E+03  0.11559678815E+04  0.14038171975E+04  0.50400001928E-02 0.  1.
</event>
<event>
 5   0  0.1385669E-05  0.3229594E+04  0.7818609E-02  0.8181045E-01
       -2   -1    0    0    0  501  0.00000000000E+00  0.00000000000E+00  0.21174542889E+04  0.21174542889E+04  0.25500000920E-02 0.  1.
        2   -1    0    0  501    0  0.00000000000E+00  0.00000000000E+00 -0.12314642258E+04  0.12314642258E+04  0.25500000920E-02 0. -1.
    10030    2    1    2    0    0  0.00000000000E+00  0.00000000000E+00  0.88599006310E+03  0.33489185146E+04  0.32295939103E+04 0.  0.
        3    1    3    3  502    0  0.68410702715E+03  0.17576979705E+03 -0.10627836801E+04  0.12760903600E+04  0.10100000352E+00 0. -1.
       -3    1    3    3    0  502 -0.68410702715E+03 -0.17576979705E+03  0.19487737432E+04  0.20728281546E+04  0.10100000352E+00 0.  1.
</event>
<event>
 5   0  0.5352212E-06  0.2762301E+04  0.7818609E-02  0.8315069E-01
       -1   -1    0    0    0  501  0.00000000000E+00  0.00000000000E+00  0.81677430344E+03  0.81677430345E+03  0.50400001928E-02 0. -1.
        1   -1    0    0  501    0  0.00000000000E+00  0.00000000000E+00 -0.23355002363E+04  0.23355002363E+04  0.50400001928E-02 0.  1.
    10030    2    1    2    0    0  0.00000000000E+00  0.00000000000E+00 -0.15187259329E+04  0.31522745398E+04  0.27623009095E+04 0.  0.
        2    1    3    3  502    0  0.12054662804E+04 -0.62652832789E+03 -0.10432613157E+04  0.17129158975E+04  0.25500000920E-02 0.  1.
       -2    1    3    3    0  502 -0.12054662804E+04  0.62652832789E+03 -0.47546461712E+03  0.14393586423E+04  0.25500000920E-02 0. -1.
</event>
<event>
 5   0  0.1307832E-05  0.2922639E+04  0.7818609E-02  0.8266174E-01
       -2   -1    0    0    0  501  0.00000000000E+00  0.00000000000E+00  0.10607640728E+04  0.10607640728E+04  0.25500000920E-02 0. -1.
        2   -1    0    0  501    0  0.00000000000E+00  0.00000000000E+00 -0.20131283790E+04  0.20131283790E+04  0.25500000920E-02 0.  1.
    10030    2    1    2    0    0  0.00000000000E+00  0.00000000000E+00 -0.95236430615E+03  0.30738924518E+04  0.29226387108E+04 0.  0.
        4    1    3    3  502    0  0.12757318823E+04 -0.68509856886E+03 -0.68282076180E+03  0.16009677355E+04  0.12699999809E+01 0.  1.
       -4    1    3    3    0  502 -0.12757318823E+04  0.68509856886E+03 -0.26954354435E+03  0.14729247163E+04  0.12699999809E+01 0. -1.
</event>
<event>
 5   0  0.4590125E-06  0.1946484E+04  0.7818609E-02  0.8632058E-01
        3   -1    0    0  501    0  0.00000000000E+00  0.00000000000E+00  0.41248558090E+03  0.41248559327E+03  0.10100000352E+00 0.  1.
       -3   -1    0    0    0  501  0.00000000000E+00  0.00000000000E+00 -0.22963230565E+04  0.22963230587E+04  0.10100000352E+00 0. -1.
    10030    2    1    2    0    0  0.00000000000E+00  0.00000000000E+00 -0.18838374756E+04  0.27088086520E+04  0.19464841840E+04 0.  0.
        3    1    3    3  502    0 -0.25904629394E+03 -0.20361177794E+03  0.33250709844E+03  0.46810652552E+03  0.10100000352E+00 0.  1.
       -3    1    3    3    0  502  0.25904629394E+03  0.20361177794E+03 -0.22163445741E+04  0.22407021265E+04  0.10100000352E+00 0. -1.
</event>
<event>
 5   0  0.5002240E-06  0.2888037E+04  0.7818609E-02  0.8276446E-01
        1   -1    0    0  501    0  0.00000000000E+00  0.00000000000E+00  0.12683144916E+04  0.12683144916E+04  0.50400001928E-02 0. -1.
       -1   -1    0    0    0  501  0.00000000000E+00  0.00000000000E+00 -0.16440629690E+04  0.16440629690E+04  0.50400001928E-02 0.  1.
    10030    2    1    2    0    0  0.00000000000E+00  0.00000000000E+00 -0.37574847737E+03  0.29123774607E+04  0.28880366263E+04 0.  0.
        4    1    3    3  502    0  0.43455044480E+03 -0.48361440876E+03  0.11123609373E+04  0.12884352732E+04  0.12699999809E+01 0. -1.
       -4    1    3    3    0  502 -0.43455044480E+03  0.48361440876E+03 -0.14881094147E+04  0.16239421875E+04  0.12699999809E+01 0.  1.
</event>
<event>
 5   0  0.1307832E-05  0.2885719E+04  0.7818609E-02  0.8277139E-01
        2   -1    0    0  501    0  0.00000000000E+00  0.00000000000E+00  0.12477634650E+04  0.12477634650E+04  0.25500000920E-02 0.  1.
       -2   -1    0    0    0  501  0.00000000000E+00  0.00000000000E+00 -0.16684603052E+04  0.16684603052E+04  0.25500000920E-02 0. -1.
    10030    2    1    2    0    0  0.00000000000E+00  0.00000000000E+00 -0.42069684018E+03  0.29162237703E+04  0.28857191906E+04 0.  0.
        4    1    3    3  502    0 -0.80667860974E+03 -0.11515871153E+04 -0.53774676997E+03  0.15053426404E+04  0.12699999809E+01 0. -1.
       -4    1    3    3    0  502  0.80667860974E+03  0.11515871153E+04  0.11704992979E+03  0.14108811298E+04  0.12699999809E+01 0.  1.
</event>
<event>
 5   0  0.1336899E-05  0.2786220E+04  0.7818609E-02  0.8307559E-01
       -2   -1    0    0    0  501  0.00000000000E+00  0.00000000000E+00  0.62407950256E+03  0.62407950256E+03  0.25500000920E-02 0.  1.
        2   -1    0    0  501    0  0.00000000000E+00  0.00000000000E+00 -0.31097879663E+04  0.31097879663E+04  0.25500000920E-02 0. -1.
    10030    2    1    2    0    0  0.00000000000E+00  0.00000000000E+00 -0.24857084637E+04  0.37338674688E+04  0.27862196088E+04 0.  0.
        1    1    3    3  502    0  0.90910472182E+03  0.17387357423E+03  0.15244872409E+03  0.93805331861E+03  0.50400001928E-02 0.  1.
       -1    1    3    3    0  502 -0.90910472182E+03 -0.17387357423E+03 -0.26381571878E+04  0.27958141502E+04  0.50400001928E-02 0. -1.
</event>
<event>
 5   0  0.1382803E-05  0.2809671E+04  0.7818609E-02  0.8300272E-01
        2   -1    0    0  501    0  0.00000000000E+00  0.00000000000E+00  0.12757526554E+04  0.12757526554E+04  0.25500000920E-02 0. -1.
       -2   -1    0    0    0  501  0.00000000000E+00  0.00000000000E+00 -0.15469793353E+04  0.15469793353E+04  0.25500000920E-02 0.  1.
    10030    2    1    2    0    0  0.00000000000E+00  0.00000000000E+00 -0.27122667983E+03  0.28227319907E+04  0.28096711515E+04 0.  0.
        2    1    3    3  502    0 -0.11247925668E+04 -0.19184758661E+03  0.68770773336E+03  0.13322558843E+04  0.25500000920E-02 0. -1.
       -2    1    3    3    0  502  0.11247925668E+04  0.19184758661E+03 -0.95893441319E+03  0.14904761064E+04  0.25500000920E-02 0.  1.
</event>
<event>
 5   0  0.5154476E-06  0.2952454E+04  0.7818609E-02  0.8257440E-01
       -1   -1    0    0    0  501  0.00000000000E+00  0.00000000000E+00  0.99015538016E+03  0.99015538018E+03  0.50400001928E-02 0.  1.
        1   -1    0    0  501    0  0.00000000000E+00  0.00000000000E+00 -0.22009135356E+04  0.22009135357E+04  0.50400001928E-02 0. -1.
    10030    2    1    2    0    0  0.00000000000E+00  0.00000000000E+00 -0.12107581555E+04  0.31910689158E+04  0.29524541511E+04 0.  0.
        3    1    3    3  502    0 -0.12241245176E+04 -0.71639736553E+03 -0.10477766435E+04  0.17633893288E+04  0.10100000352E+00 0. -1.
       -3    1    3    3    0  502  0.12241245176E+04  0.71639736553E+03 -0.16298151197E+03  0.14276795871E+04  0.10100000352E+00 0.  1.
</event>
<event>
 5   0  0.4590125E-06  0.2885369E+04  0.7818609E-02  0.8277244E-01
       -3   -1    0    0    0  501  0.00000000000E+00  0.00000000000E+00  0.15573630864E+04  0.15573630897E+04  0.10100000352E+00 0.  1.
        3   -1    0    0  501    0  0.00000000000E+00  0.00000000000E+00 -0.13364500127E+04  0.13364500165E+04  0.10100000352E+00 0. -1.
    10030    2    1    2    0    0  0.00000000000E+00  0.00000000000E+00  0.22091307375E+03  0.28938131062E+04  0.28853685566E+04 0.  0.
        1    1    3    3  502    0 -0.10400834569E+04 -0.39745536266E+03  0.10305255139E+04  0.15171444221E+04  0.50400001928E-02 0.  1.
       -1    1    3    3    0  502  0.10400834569E+04  0.39745536266E+03 -0.80961244015E+03  0.13766686841E+04  0.50400001928E-02 0. -1.
</event>
<event>
 5   0  0.5059249E-06  0.2900387E+04  0.7818609E-02  0.8272762E-01
       -1   -1    0    0    0  501  0.00000000000E+00  0.00000000000E+00  0.18153965968E+04  0.18153965968E+04  0.50400001928E-02 0. -1.
        1   -1    0    0  501    0  0.00000000000E+00  0.00000000000E+00 -0.11584581637E+04  0.11584581638E+04  0.50400001928E-02 0.  1.
    10030    2    1    2    0    0  0.00000000000E+00  0.00000000000E+00  0.65693843305E+03  0.29738547606E+04  0.29003868763E+04 0.  0.
        1    1    3    3  502    0 -0.83763371773E+03 -0.11208263636E+04  0.71914434321E+03  0.15732293440E+04  0.50400001928E-02 0. -1.
       -1    1    3    3    0  502  0.83763371773E+03  0.11208263636E+04 -0.62205910164E+02  0.14006254166E+04  0.50400001928E-02 0.  1.
</event>
<event>
 5   0  0.5352212E-06  0.2587161E+04  0.7818609E-02  0.8372575E-01
        1   -1    0    0  501    0  0.00000000000E+00  0.00000000000E+00  0.10379017630E+04  0.10379017630E+04  0.50400001928E-02 0.  1.
       -1   -1    0    0    0  501  0.00000000000E+00  0.00000000000E+00 -0.16122442166E+04  0.16122442166E+04  0.50400001928E-02 0. -1.
    10030    2    1    2    0    0  0.00000000000E+00  0.00000000000E+00 -0.57434245360E+03  0.26501459796E+04  0.25871614675E+04 0.  0.
        2    1    3    3  502    0  0.69781416521E+03  0.79541517565E+03  0.47506895666E+03  0.11598794870E+04  0.25500000920E-02 0.  1.
       -2    1    3    3    0  502 -0.69781416521E+03 -0.79541517565E+03 -0.10494114103E+04  0.14902664925E+04  0.25500000920E-02 0. -1.
</event>
<event>
 5   0  0.1382803E-05  0.2837812E+04  0.7818609E-02  0.8291625E-01
        2   -1    0    0  501    0  0.00000000000E+00  0.00000000000E+00  0.15324230423E+04  0.15324230423E+04  0.25500000920E-02 0. -1.
       -2   -1    0    0    0  501  0.00000000000E+00  0.00000000000E+00 -0.13137975139E+04  0.13137975139E+04  0.25500000920E-02 0.  1.
    10030    2    1    2    0    0  0.00000000000E+00  0.00000000000E+00  0.21862552840E+03  0.28462205563E+04  0.28378115394E+04 0.  0.
        2    1    3    3  502    0  0.18466069101E+02 -0.32114873695E+03 -0.12767432224E+04  0.13166437495E+04  0.25500000920E-02 0.  1.
       -2    1    3    3    0  502 -0.18466069101E+02  0.32114873695E+03  0.14953687508E+04  0.15295768068E+04  0.25500000920E-02 0. -1.
</event>
<event>
 5   0  0.1339837E-05  0.2898284E+04  0.7818609E-02  0.8273388E-01
        2   -1    0    0  501    0  0.00000000000E+00  0.00000000000E+00  0.12520916946E+04  0.12520916946E+04  0.25500000920E-02 0.  1.
       -2   -1    0    0    0  501  0.00000000000E+00  0.00000000000E+00 -0.16772040450E+04  0.16772040450E+04  0.25500000920E-02 0. -1.
    10030    2    1    2    0    0  0.00000000000E+00  0.00000000000E+00 -0.42511235034E+03  0.29292957396E+04  0.28982844960E+04 0.  0.
        5    1    3    3  502    0  0.13367643080E+04  0.23430612799E+03 -0.72608022123E+03  0.15391727500E+04  0.46999998093E+01 0. -1.
       -5    1    3    3    0  502 -0.13367643080E+04 -0.23430612799E+03  0.30096787089E+03  0.13901229895E+04  0.46999998093E+01 0.  1.
</event>
<event>
 5   0  0.5059249E-06  0.2930618E+04  0.7818609E-02  0.8263826E-01
        1   -1    0    0  501    0  0.00000000000E+00  0.00000000000E+00  0.24849320969E+04  0.24849320969E+04  0.50400001928E-02 0.  1.
       -1   -1    0    0    0  501  0.00000000000E+00  0.00000000000E+00 -0.86405983409E+03  0.86405983410E+03  0.50400001928E-02 0. -1.
    10030    2    1    2    0    0  0.00000000000E+00  0.00000000000E+00  0.16208722629E+04  0.33489919311E+04  0.29306176929E+04 0.  0.
        1    1    3    3  502    0 -0.48529807920E+03  0.41704615440E+03  0.23168380904E+04  0.24035765971E+04  0.50400001928E-02 0.  1.
       -1    1    3    3    0  502  0.48529807920E+03 -0.41704615440E+03 -0.69596582758E+03  0.94541533400E+03  0.50400001928E-02 0. -1.
</event>
<event>
 5   0  0.1336899E-05  0.2648980E+04  0.7818609E-02  0.8351751E-01
       -2   -1    0    0    0  501  0.00000000000E+00  0.00000000000E+00  0.12238892608E+04  0.12238892608E+04  0.25500000920E-02 0.  1.
        2   -1    0    0  501    0  0.00000000000E+00  0.00000000000E+00 -0.14333603081E+04  0.14333603081E+04  0.25500000920E-02 0. -1.
    10030    2    1    2    0    0  0.00000000000E+00  0.00000000000E+00 -0.20947104727E+03  0.26572495689E+04  0.26489803985E+04 0.  0.
        1    1    3    3  502    0 -0.33356265550E+03 -0.12270809112E+04 -0.47640891920E+03  0.13579238071E+04  0.50400001928E-02 0. -1.
       -1    1    3    3    0  502  0.33356265550E+03  0.12270809112E+04  0.26693787193E+03  0.12993257618E+04  0.50400001928E-02 0.  1.
</event>
<event>
 5   0  0.5059249E-06  0.2165869E+04  0.7818609E-02  0.8532770E-01
       -1   -1    0    0    0  501  0.00000000000E+00  0.00000000000E+00  0.14554006160E+04  0.14554006160E+04  0.50400001928E-02 0.  1.
        1   -1    0    0  501    0  0.00000000000E+00  0.00000000000E+00 -0.80579024014E+03  0.80579024016E+03  0.50400001928E-02 0. -1.
    10030    2    1    2    0    0  0.00000000000E+00  0.00000000000E+00  0.64961037584E+03  0.22611908561E+04  0.21658694438E+04 0.  0.
        1    1    3    3  502    0  0.49549326696E+03 -0.96292412096E+03  0.32131570458E+03  0.11295929454E+04  0.50400001928E-02 0.  1.
       -1    1    3    3    0  502 -0.49549326696E+03  0.96292412096E+03  0.32829467126E+03  0.11315979107E+04  0.50400001928E-02 0. -1.
</event>
<event>
 5   0  0.1339837E-05  0.2762737E+04  0.7818609E-02  0.8314931E-01
       -2   -1    0    0    0  501  0.00000000000E+00  0.00000000000E+00  0.10438679214E+04  0.10438679214E+04  0.25500000920E-02 0. -1.
        2   -1    0    0  501    0  0.00000000000E+00  0.00000000000E+00 -0.18279891139E+04  0.18279891139E+04  0.25500000920E-02 0.  1.
    10030    2    1    2    0    0  0.00000000000E+00  0.00000000000E+00 -0.78412119245E+03  0.28718570353E+04  0.27627371910E+04 0.  0.
        5    1    3    3  502    0  0.99235943900E+03 -0.91946329933E+03 -0.68231506150E+03  0.15151785202E+04  0.46999998093E+01 0.  1.
       -5    1    3    3    0  502 -0.99235943900E+03  0.91946329933E+03 -0.10180613094E+03  0.13566785151E+04  0.46999998093E+01 0. -1.
</event>
<event>
 5   0  0.1307832E-05  0.2820033E+04  0.7818609E-02  0.8297076E-01
       -2   -1    0    0    0  501  0.00000000000E+00  0.00000000000E+00  0.78004050374E+03  0.78004050374E+03  0.25500000920E-02 0.  1.
        2   -1    0    0  501    0  0.00000000000E+00  0.00000000000E+00 -0.25487729748E+04  0.25487729748E+04  0.25500000920E-02 0. -1.
    10030    2    1    2    0    0  0.00000000000E+00  0.00000000000E+00 -0.17687324711E+04  0.33288134786E+04  0.28200327340E+04 0.  0.
        4    1    3    3  502    0 -0.24284573093E+03  0.93020486245E+03  0.33317465065E+03  0.10174783024E+04  0.12699999809E+01 0.  1.
       -4    1    3    3    0  502  0.24284573093E+03 -0.93020486245E+03 -0.21019071217E+04  0.23113351761E+04  0.12699999809E+01 0. -1.
</event>
<event>
 5   0  0.1339837E-05  0.2908510E+04  0.7818609E-02  0.8270350E-01
       -2   -1    0    0    0  501  0.00000000000E+00  0.00000000000E+00  0.94760849793E+03  0.94760849793E+03  0.25500000920E-02 0. -1.
        2   -1    0    0  501    0  0.00000000000E+00  0.00000000000E+00 -0.22317841043E+04  0.22317841043E+04  0.25500000920E-02 0.  1.
    10030    2    1    2    0    0  0.00000000000E+00  0.00000000000E+00 -0.12841756063E+04  0.31793926022E+04  0.29085099847E+04 0.  0.
        5    1    3    3  502    0 -0.11602383638E+03  0.20635143016E+03  0.92639567024E+03  0.95617648537E+03  0.46999998093E+01 0. -1.
       -5    1    3    3    0  502  0.11602383638E+03 -0.20635143016E+03 -0.22105712766E+04  0.22232161168E+04  0.46999998093E+01 0.  1.
</event>
<event>
 5   0  0.1339837E-05  0.3006596E+04  0.7818609E-02  0.8241850E-01
        2   -1    0    0  501    0  0.00000000000E+00  0.00000000000E+00  0.16845930092E+04  0.16845930092E+04  0.25500000920E-02 0. -1.
       -2   -1    0    0    0  501  0.00000000000E+00  0.00000000000E+00 -0.13415137308E+04  0.13415137308E+04  0.25500000920E-02 0.  1.
    10030    2    1    2    0    0  0.00000000000E+00  0.00000000000E+00  0.34307927835E+03  0.30261067400E+04  0.30065958509E+04 0.  0.
        5    1    3    3  502    0 -0.96800158750E+03  0.11350970835E+04  0.35824300957E+03  0.15342205207E+04  0.46999998093E+01 0.  1.
       -5    1    3    3    0  502  0.96800158750E+03 -0.11350970835E+04 -0.15163731218E+02  0.14918862192E+04  0.46999998093E+01 0. -1.
</event>
<event>
 5   0  0.1339837E-05  0.2863862E+04  0.7818609E-02  0.8283711E-01
        2   -1    0    0  501    0  0.00000000000E+00  0.00000000000E+00  0.20693808889E+04  0.20693808889E+04  0.25500000920E-02 0.  1.
       -2   -1    0    0    0  501  0.00000000000E+00  0.00000000000E+00 -0.99084068885E+03  0.99084068885E+03  0.25500000920E-02 0. -1.
    10030    2    1    2    0    0  0.00000000000E+00  0.00000000000E+00  0.10785402001E+04  0.30602215778E+04  0.28638622771E+04 0.  0.
        5    1    3    3  502    0  0.94326355330E+03  0.55191863851E+03  0.15279344734E+04  0.18785542738E+04  0.46999998093E+01 0.  1.
       -5    1    3    3    0  502 -0.94326355330E+03 -0.55191863851E+03 -0.44939427330E+03  0.11816673040E+04  0.46999998093E+01 0. -1.
</event>
<event>
 5   0  0.1336899E-05  0.2773799E+04  0.7818609E-02  0.8311449E-01
       -2   -1    0    0    0  501  0.00000000000E+00  0.00000000000E+00  0.21300847361E+04  0.21300847361E+04  0.25500000920E-02 0.  1.
        2   -1    0    0  501    0  0.00000000000E+00  0.00000000000E+00 -0.90301128952E+03  0.90301128952E+03  0.25500000920E-02 0. -1.
    10030    2    1    2    0    0  0.00000000000E+00  0.00000000000E+00  0.12270734465E+04  0.30330960256E+04  0.27737992460E+04 0.  0.
        1    1    3    3  502    0 -0.66391971180E+03  0.57657896119E+03  0.17862956386E+04  0.19910009520E+04  0.50400001928E-02 0.  1.
       -1    1    3    3    0  502  0.66391971180E+03 -0.57657896119E+03 -0.55922219211E+03  0.10420950736E+04  0.50400001928E-02 0. -1.
</event>
<event>
 5   0  0.5352212E-06  0.2893538E+04  0.7818609E-02  0.8274803E-01
       -1   -1    0    0    0  501  0.00000000000E+00  0.00000000000E+00  0.11434517101E+04  0.11434517101E+04  0.50400001928E-02 0.  1.
        1   -1    0    0  501    0  0.00000000000E+00  0.00000000000E+00 -0.18305459326E+04  0.18305459326E+04  0.50400001928E-02 0. -1.
    10030    2    1    2    0    0  0.00000000000E+00  0.00000000000E+00 -0.68709422249E+03  0.29739976427E+04  0.28935382334E+04 0.  0.
        2    1    3    3  502    0  0.24375148680E+02  0.64845302867E+03  0.98548883049E+03  0.11799464875E+04  0.25500000920E-02 0.  1.
       -2    1    3    3    0  502 -0.24375148680E+02 -0.64845302867E+03 -0.16725830530E+04  0.17940511552E+04  0.25500000920E-02 0. -1.
</event>
<event>
 5   0  0.1307832E-05  0.2918882E+04  0.7818609E-02  0.8267282E-01
        2   -1    0    0  501    0  0.00000000000E+00  0.00000000000E+00  0.18206332741E+04  0.18206332741E+04  0.25500000920E-02 0. -1.
       -2   -1    0    0    0  501  0.00000000000E+00  0.00000000000E+00 -0.11699050329E+04  0.11699050329E+04  0.25500000920E-02 0.  1.
    10030    2    1    2    0    0  0.00000000000E+00  0.00000000000E+00  0.65072824117E+03  0.29905383071E+04  0.29188819987E+04 0.  0.
        4    1    3    3  502    0 -0.29040237933E+03 -0.39044866740E+03  0.17350719016E+04  0.18020154884E+04  0.12699999809E+01 0. -1.
       -4    1    3    3    0  502  0.29040237933E+03  0.39044866740E+03 -0.10843436604E+04  0.11885228187E+04  0.12699999809E+01 0.  1.
</event>
<event>
 5   0  0.5154476E-06  0.2950012E+04  0.7818609E-02  0.8258151E-01
        1   -1    0    0  501    0  0.00000000000E+00  0.00000000000E+00  0.25806229234E+04  0.25806229234E+04  0.50400001928E-02 0. -1.
       -1   -1    0    0    0  501  0.00000000000E+00  0.00000000000E+00 -0.84306862663E+03  0.84306862665E+03  0.50400001928E-02 0.  1.
    10030    2    1    2    0    0  0.00000000000E+00  0.00000000000E+00  0.17375542968E+04  0.34236915501E+04  0.29500116772E+04 0.  0.
        3    1    3    3  502    0 -0.13888647016E+04 -0.26918489092E+03  0.13532177401E+04  0.19577037384E+04  0.10100000352E+00 0.  1.
       -3    1    3    3    0  502  0.13888647016E+04  0.26918489092E+03  0.38433655664E+03  0.14659878117E+04  0.10100000352E+00 0. -1.
</event>
<event>
 5   0  0.1385669E-05  0.2876131E+04  0.7818609E-02  0.8280015E-01
        2   -1    0    0  501    0  0.00000000000E+00  0.00000000000E+00  0.21530510127E+04  0.21530510127E+04  0.25500000920E-02 0.  1.
       -2   -1    0    0    0  501  0.00000000000E+00  0.00000000000E+00 -0.96051226772E+03  0.96051226772E+03  0.25500000920E-02 0. -1.
    10030    2    1    2    0    0  0.00000000000E+00  0.00000000000E+00  0.11925387449E+04  0.31135632804E+04  0.28761306721E+04 0.  0.
        3    1    3    3  502    0 -0.87648749946E+03 -0.11300777206E+04  0.43307329509E+03  0.14942752359E+04  0.10100000352E+00 0.  1.
       -3    1    3    3    0  502  0.87648749946E+03  0.11300777206E+04  0.75946544985E+03  0.16192880445E+04  0.10100000352E+00 0. -1.
</event>
<event>
 5   0  0.5002240E-06  0.2915413E+04  0.7818609E-02  0.8268306E-01
        1   -1    0    0  501    0  0.00000000000E+00  0.00000000000E+00  0.17672259660E+04  0.17672259660E+04  0.50400001928E-02 0.  1.
       -1   -1    0    0    0  501  0.00000000000E+00  0.00000000000E+00 -0.12023973359E+04  0.12023973359E+04  0.50400001928E-02 0. -1.
    10030    2    1    2    0    0  0.00000000000E+00  0.00000000000E+00  0.56482863009E+03  0.29696233020E+04  0.29154126936E+04 0.  0.
        4    1    3    3  502    0  0.10262814996E+04  0.47814038430E+03  0.12176561562E+04  0.16626966264E+04  0.12699999809E+01 0.  1.
       -4    1    3    3    0  502 -0.10262814996E+04 -0.47814038430E+03 -0.65282752616E+03  0.13069266756E+04  0.12699999809E+01 0. -1.
</event>
<event>
 5   0  0.1336899E-05  0.2751510E+04  0.7818609E-02  0.8318483E-01
        2   -1    0    0  501    0  0.00000000000E+00  0.00000000000E+00  0.13380147092E+04  0.13380147092E+04  0.25500000920E-02 0.  1.
       -2   -1    0    0    0  501  0.00000000000E+00  0.00000000000E+00 -0.14145600969E+04  0.14145600969E+04  0.25500000920E-02 0. -1.
    10030    2    1    2    0    0  0.00000000000E+00  0.00000000000E+00 -0.76545387757E+02  0.27525748061E+04  0.27515102883E+04 0.  0.
        1    1    3    3  502    0  0.13713550425E+04 -0.10531362343E+03 -0.69853954461E+02  0.13771656352E+04  0.50400001928E-02 0. -1.
       -1    1    3    3    0  502 -0.13713550425E+04  0.10531362343E+03 -0.66914332954E+01  0.13754091708E+04  0.50400001928E-02 0.  1.
</event>
<event>
 5   0  0.5261878E-06  0.2838428E+04  0.7818609E-02  0.8291436E-01
        1   -1    0    0  501    0  0.00000000000E+00  0.00000000000E+00  0.21859827253E+04  0.21859827253E+04  0.50400001928E-02 0. -1.
       -1   -1    0    0    0  501  0.00000000000E+00  0.00000000000E+00 -0.92140180098E+03  0.92140180099E+03  0.50400001928E-02 0.  1.
    10030    2    1    2    0    0  0.00000000000E+00  0.00000000000E+00  0.12645809243E+04  0.31073845263E+04  0.28384280297E+04 0.  0.
        5    1    3    3  502    0  0.36254288788E+03  0.10558972188E+04  0.15915549147E+04  0.19440744376E+04  0.46999998093E+01 0. -1.
       -5    1    3    3    0  502 -0.36254288788E+03 -0.10558972188E+04 -0.32697399041E+03  0.11633100887E+04  0.46999998093E+01 0.  1.
</event>
<event>
 5   0  0.5002240E-06  0.3062499E+04  0.7818609E-02  0.8226106E-01
        1   -1    0    0  501    0  0.00000000000E+00  0.00000000000E+00  0.14954123882E+04  0.14954123882E+04  0.50400001928E-02 0. -1.
       -1   -1    0    0    0  501  0.00000000000E+00  0.00000000000E+00 -0.15679450554E+04  0.15679450554E+04  0.50400001928E-02 0.  1.
    10030    2    1    2    0    0  0.00000000000E+00  0.00000000000E+00 -0.72532667158E+02  0.30633574436E+04  0.30624986269E+04 0.  0.
        4    1    3    3  502    0 -0.14889926376E+04 -0.32699911319E+03 -0.18016546775E+03  0.15350858946E+04  0.12699999809E+01 0.  1.
       -4    1    3    3    0  502  0.14889926376E+04  0.32699911319E+03  0.10763280059E+03  0.15282715491E+04  0.12699999809E+01 0. -1.
</event>
<event>
 5   0  0.1385669E-05  0.2839939E+04  0.7818609E-02  0.8290975E-01
       -2   -1    0    0    0  501  0.00000000000E+00  0.00000000000E+00  0.11954663673E+04  0.11954663673E+04  0.25500000920E-02 0.  1.
        2   -1    0    0  501    0  0.00000000000E+00  0.00000000000E+00 -0.16866335042E+04  0.16866335042E+04  0.25500000920E-02 0. -1.
    10030    2    1    2    0    0  0.00000000000E+00  0.00000000000E+00 -0.49116713687E+03  0.28820998716E+04  0.28399391742E+04 0.  0.
        3    1    3    3  502    0 -0.10015252372E+04  0.91180196796E+03  0.18721922876E+03  0.13672917316E+04  0.10100000352E+00 0.  1.
       -3    1    3    3    0  502  0.10015252372E+04 -0.91180196796E+03 -0.67838636563E+03  0.15148081399E+04  0.10100000352E+00 0. -1.
</event>
<event>
 5   0  0.5261878E-06  0.2855510E+04  0.7818609E-02  0.8286239E-01
        1   -1    0    0  501    0  0.00000000000E+00  0.00000000000E+00  0.11512276596E+04  0.11512276596E+04  0.50400001928E-02 0.  1.
       -1   -1    0    0    0  501  0.00000000000E+00  0.00000000000E+00 -0.17707048009E+04  0.17707048009E+04  0.50400001928E-02 0. -1.
    10030    2    1    2    0    0  0.00000000000E+00  0.00000000000E+00 -0.61947714136E+03  0.29219324605E+04  0.28555100026E+04 0.  0.
        5    1    3    3  502    0  0.10231209810E+04 -0.93353051049E+03  0.45034347137E+02  0.13857510376E+04  0.46999998093E+01 0.  1.
       -5    1    3    3    0  502 -0.10231209810E+04  0.93353051049E+03 -0.66451148849E+03  0.15361814229E+04  0.46999998093E+01 0. -1.
</event>
<event>
 5   0  0.5154476E-06  0.2900015E+04  0.7818609E-02  0.8272873E-01
       -1   -1    0    0    0  501  0.00000000000E+00  0.00000000000E+00  0.13283746163E+04  0.13283746163E+04  0.50400001928E-02 0.  1.
        1   -1    0    0  501    0  0.00000000000E+00  0.00000000000E+00 -0.15827776010E+04  0.15827776010E+04  0.50400001928E-02 0. -1.
    10030    2    1    2    0    0  0.00000000000E+00  0.00000000000E+00 -0.25440298477E+03  0.29111522173E+04  0.29000148885E+04 0.  0.
        3    1    3    3  502    0  0.61658233146E+03  0.92230254625E+03 -0.10644389980E+04  0.15374804548E+04  0.10100000352E+00 0. -1.
       -3    1    3    3    0  502 -0.61658233146E+03 -0.92230254625E+03  0.81003601320E+03  0.13736717625E+04  0.10100000352E+00 0.  1.
</event>
<event>
 5   0  0.5352212E-06  0.2743550E+04  0.7818609E-02  0.8321011E-01
        1   -1    0    0  501    0  0.00000000000E+00  0.00000000000E+00  0.24403860861E+04  0.24403860861E+04  0.50400001928E-02 0.  1.
       -1   -1    0    0    0  501  0.00000000000E+00  0.00000000000E+00 -0.77109357889E+03  0.77109357891E+03  0.50400001928E-02 0. -1.
    10030    2    1    2    0    0  0.00000000000E+00  0.00000000000E+00  0.16692925073E+04  0.32114796651E+04  0.27435495556E+04 0.  0.
        2    1    3    3  502    0  0.20328608734E+03  0.48743082723E+03  0.23166151153E+04  0.23760512699E+04  0.25500000920E-02 0.  1.
       -2    1    3    3    0  502 -0.20328608734E+03 -0.48743082723E+03 -0.64732260802E+03  0.83542839520E+03  0.25500000920E-02 0. -1.
</event>
<event>
 5   0  0.1382803E-05  0.3025279E+04  0.7818609E-02  0.8236549E-01
        2   -1    0    0  501    0  0.00000000000E+00  0.00000000000E+00  0.12211882773E+04  0.12211882773E+04  0.25500000920E-02 0.  1.
       -2   -1    0    0    0  501  0.00000000000E+00  0.00000000000E+00 -0.18736489424E+04  0.18736489424E+04  0.25500000920E-02 0. -1.
    10030    2    1    2    0    0  0.00000000000E+00  0.00000000000E+00 -0.65246066507E+03  0.30948372197E+04  0.30252789123E+04 0.  0.
        2    1    3    3  502    0 -0.56088058628E+02 -0.94174379286E+03 -0.15358083350E+04  0.18024246124E+04  0.25500000920E-02 0. -1.
       -2    1    3    3    0  502  0.56088058628E+02  0.94174379286E+03  0.88334766988E+03  0.12924126073E+04  0.25500000920E-02 0.  1.
</event>
<event>
 5   0  0.5352212E-06  0.2816107E+04  0.7818609E-02  0.8298285E-01
        1   -1    0    0  501    0  0.00000000000E+00  0.00000000000E+00  0.13675601000E+04  0.13675601000E+04  0.50400001928E-02 0. -1.
       -1   -1    0    0    0  501  0.00000000000E+00  0.00000000000E+00 -0.14497454153E+04  0.14497454153E+04  0.50400001928E-02 0.  1.
    10030    2    1    2    0    0  0.00000000000E+00  0.00000000000E+00 -0.82185315292E+02  0.28173055153E+04  0.28161065216E+04 0.  0.
        2    1    3    3  502    0  0.12804123470E+04  0.55327205095E+03 -0.23365381334E+03  0.14142700751E+04  0.25500000920E-02 0. -1.
       -2    1    3    3    0  502 -0.12804123470E+04 -0.55327205095E+03  0.15146849805E+03  0.14030354403E+04  0.25500000920E-02 0.  1.
</event>
<event>
 5   0  0.5352212E-06  0.2548342E+04  0.7818609E-02  0.8385963E-01
        1   -1    0    0  501    0  0.00000000000E+00  0.00000000000E+00  0.14969667703E+04  0.14969667703E+04  0.50400001928E-02 0. -1.
       -1   -1    0    0    0  501  0.00000000000E+00  0.00000000000E+00 -0.10845340881E+04  0.10845340881E+04  0.50400001928E-02 0.  1.
    10030    2    1    2    0    0  0.00000000000E+00  0.00000000000E+00  0.41243268215E+03  0.25815008584E+04  0.25483418069E+04 0.  0.
        2    1    3    3  502    0  0.10454127633E+04  0.29715661766E+03 -0.46751021123E+03  0.11831127160E+04  0.25500000920E-02 0.  1.
       -2    1    3    3    0  502 -0.10454127633E+04 -0.29715661766E+03  0.87994289338E+03  0.13983881424E+04  0.25500000920E-02 0. -1.
</event>
<event>
 5   0  0.5154476E-06  0.2895852E+04  0.7818609E-02  0.8274113E-01
       -1   -1    0    0    0  501  0.00000000000E+00  0.00000000000E+00  0.78200005501E+03  0.78200005503E+03  0.50400001928E-02 0.  1.
        1   -1    0    0  501    0  0.00000000000E+00  0.00000000000E+00 -0.26809326135E+04  0.26809326135E+04  0.50400001928E-02 0. -1.
    10030    2    1    2    0    0  0.00000000000E+00  0.00000000000E+00 -0.18989325585E+04  0.34629326686E+04  0.28958518272E+04 0.  0.
        3    1    3    3  502    0 -0.94431020478E+03  0.71915308458E+03  0.42122006788E+02  0.11877193252E+04  0.10100000352E+00 0.  1.
       -3    1    3    3    0  502  0.94431020478E+03 -0.71915308458E+03 -0.19410545653E+04  0.22752133433E+04  0.10100000352E+00 0. -1.
</event>
<event>
 5   0  0.1336899E-05  0.2897383E+04  0.7818609E-02  0.8273657E-01
       -2   -1    0    0    0  501  0.00000000000E+00  0.00000000000E+00  0.11425463882E+04  0.11425463882E+04  0.25500000920E-02 0. -1.
        2   -1    0    0  501    0  0.00000000000E+00  0.00000000000E+00 -0.18368681180E+04  0.18368681181E+04  0.25500000920E-02 0.  1.
    10030    2    1    2    0    0  0.00000000000E+00  0.00000000000E+00 -0.69432172981E+03  0.29794145063E+04  0.28973829805E+04 0.  0.
        1    1    3    3  502    0  0.14259038632E+04 -0.12167829248E+03 -0.11562019256E+03  0.14357490947E+04  0.50400001928E-02 0. -1.
       -1    1    3    3    0  502 -0.14259038632E+04  0.12167829248E+03 -0.57870153725E+03  0.15436654116E+04  0.50400001928E-02 0.  1.
</event>
<event>
 5   0  0.1307832E-05  0.2903683E+04  0.7818609E-02  0.8271783E-01
        2   -1    0    0  501    0  0.00000000000E+00  0.00000000000E+00  0.21078055840E+04  0.21078055840E+04  0.25500000920E-02 0.  1.
       -2   -1    0    0    0  501  0.00000000000E+00  0.00000000000E+00 -0.10000180552E+04  0.10000180552E+04  0.25500000920E-02 0. -1.
    10030    2    1    2    0    0  0.00000000000E+00  0.00000000000E+00  0.11077875288E+04  0.31078236392E+04  0.29036829309E+04 0.  0.
        4    1    3    3  502    0  0.10757189248E+04 -0.40852553514E+03 -0.39365949156E+03  0.12161553052E+04  0.12699999809E+01 0. -1.
       -4    1    3    3    0  502 -0.10757189248E+04  0.40852553514E+03  0.15014470203E+04  0.18916683340E+04  0.12699999809E+01 0.  1.
</event>
<event>
 5   0  0.5059249E-06  0.2899766E+04  0.7818609E-02  0.8272947E-01
       -1   -1    0    0    0  501  0.00000000000E+00  0.00000000000E+00  0.17988510700E+04  0.17988510700E+04  0.50400001928E-02 0.  1.
        1   -1    0    0  501    0  0.00000000000E+00  0.00000000000E+00 -0.11686129756E+04  0.11686129756E+04  0.50400001928E-02 0. -1.
    10030    2    1    2    0    0  0.00000000000E+00  0.00000000000E+00  0.63023809443E+03  0.29674640456E+04  0.28997659917E+04 0.  0.
        1    1    3    3  502    0 -0.12327660801E+04 -0.33305856372E+03  0.10178236477E+04  0.16329743393E+04  0.50400001928E-02 0.  1.
       -1    1    3    3    0  502  0.12327660801E+04  0.33305856372E+03 -0.38758555323E+03  0.13344897063E+04  0.50400001928E-02 0. -1.
</event>
<event>
 5   0  0.1336899E-05  0.2873812E+04  0.7818609E-02  0.8280712E-01
        2   -1    0    0  501    0  0.00000000000E+00  0.00000000000E+00  0.12982606261E+04  0.12982606261E+04  0.25500000920E-02 0.  1.
       -2   -1    0    0    0  501  0.00000000000E+00  0.00000000000E+00 -0.15903577437E+04  0.15903577437E+04  0.25500000920E-02 0. -1.
    10030    2    1    2    0    0  0.00000000000E+00  0.00000000000E+00 -0.29209711753E+03  0.28886183698E+04  0.28738119911E+04 0.  0.
        1    1    3    3  502    0 -0.10439070404E+04  0.96723659961E+03 -0.34559162415E+03  0.14644869816E+04  0.50400001928E-02 0. -1.
       -1    1    3    3    0  502  0.10439070404E+04 -0.96723659961E+03  0.53494506621E+02  0.14241313882E+04  0.50400001928E-02 0.  1.
</event>
<event>
 5   0  0.1307832E-05  0.2829557E+04  0.7818609E-02  0.8294150E-01
       -2   -1    0    0    0  501  0.00000000000E+00  0.00000000000E+00  0.81233574952E+03  0.81233574952E+03  0.25500000920E-02 0. -1.
        2   -1    0    0  501    0  0.00000000000E+00  0.00000000000E+00 -0.24640042171E+04  0.24640042171E+04  0.25500000920E-02 0.  1.
    10030    2    1    2    0    0  0.00000000000E+00  0.00000000000E+00 -0.16516684676E+04  0.32763399667E+04  0.28295573594E+04 0.  0.
        4    1    3    3  502    0 -0.90390282954E+03 -0.91868519249E+03 -0.15015691940E+04  0.19788214839E+04  0.12699999809E+01 0. -1.
       -4    1    3    3    0  502  0.90390282954E+03  0.91868519249E+03 -0.15009927365E+03  0.12975184827E+04  0.12699999809E+01 0.  1.
</event>
<event>
 5   0  0.1339837E-05  0.2848396E+04  0.7818609E-02  0.8288399E-01
       -2   -1    0    0    0  501  0.00000000000E+00  0.00000000000E+00  0.11588454072E+04  0.11588454072E+04  0.25500000920E-02 0. -1.
        2   -1    0    0  501    0  0.00000000000E+00  0.00000000000E+00 -0.17503111579E+04  0.17503111579E+04  0.25500000920E-02 0.  1.
    10030    2    1    2    0    0  0.00000000000E+00  0.00000000000E+00 -0.59146575070E+03  0.29091565651E+04  0.28483960726E+04 0.  0.
        5    1    3    3  502    0  0.11813626549E+03 -0.13595865656E+04  0.12024648277E+03  0.13700047858E+04  0.46999998093E+01 0. -1.
       -5    1    3    3    0  502 -0.11813626549E+03  0.13595865656E+04 -0.71171223347E+03  0.15391517793E+04  0.46999998093E+01 0.  1.
</event>
<event>
 5   0  0.1336899E-05  0.2916419E+04  0.7818609E-02  0.8268009E-01
       -2   -1    0    0    0  501  0.00000000000E+00  0.00000000000E+00  0.17146276534E+04  0.17146276534E+04  0.25500000920E-02 0. -1.
        2   -1    0    0  501    0  0.00000000000E+00  0.00000000000E+00 -0.12401381642E+04  0.12401381642E+04  0.25500000920E-02 0.  1.
    10030    2    1    2    0    0  0.00000000000E+00  0.00000000000E+00  0.47448948926E+03  0.29547658176E+04  0.29164191677E+04 0.  0.
        1    1    3    3  502    0 -0.10649794960E+04  0.97355206844E+03  0.23784581400E+02  0.14431045226E+04  0.50400001928E-02 0. -1.
       -1    1    3    3    0  502  0.10649794960E+04 -0.97355206844E+03  0.45070490786E+03  0.15116612950E+04  0.50400001928E-02 0.  1.
</event>
<event>
 5   0  0.1339837E-05  0.2835825E+04  0.7818609E-02  0.8292232E-01
       -2   -1    0    0    0  501  0.00000000000E+00  0.00000000000E+00  0.11321740178E+04  0.11321740178E+04  0.25500000920E-02 0. -1.
        2   -1    0    0  501    0  0.00000000000E+00  0.00000000000E+00 -0.17757658715E+04  0.17757658715E+04  0.25500000920E-02 0.  1.
    10030    2    1    2    0    0  0.00000000000E+00  0.00000000000E+00 -0.64359185372E+03  0.29079398893E+04  0.28358250873E+04 0.  0.
        5    1    3    3  502    0 -0.83620531533E+03 -0.22167534610E+03  0.83019351405E+03  0.11990090280E+04  0.46999998093E+01 0. -1.
       -5    1    3    3    0  502  0.83620531533E+03  0.22167534610E+03 -0.14737853678E+04  0.17089308613E+04  0.46999998093E+01 0.  1.
</event>
<event>
 5   0  0.1336899E-05  0.2901809E+04  0.7818609E-02  0.8272340E-01
       -2   -1    0    0    0  501  0.00000000000E+00  0.00000000000E+00  0.12056974060E+04  0.12056974060E+04  0.25500000920E-02 0. -1.
        2   -1    0    0  501    0  0.00000000000E+00  0.00000000000E+00 -0.17459798682E+04  0.17459798682E+04  0.25500000920E-02 0.  1.
    10030    2    1    2    0    0  0.00000000000E+00  0.00000000000E+00 -0.54028246222E+03  0.29516772741E+04  0.29018086759E+04 0.  0.
        1    1    3    3  502    0 -0.79174343455E+03  0.10131120106E+04  0.41362358239E+03  0.13506805989E+04  0.50400001928E-02 0. -1.
       -1    1    3    3    0  502  0.79174343455E+03 -0.10131120106E+04 -0.95390604462E+03  0.16009966753E+04  0.50400001928E-02 0.  1.
</event>
<event>
 5   0  0.5002240E-06  0.2441083E+04  0.7818609E-02  0.8424281E-01
       -1   -1    0    0    0  501  0.00000000000E+00  0.00000000000E+00  0.76380951560E+03  0.76380951562E+03  0.50400001928E-02 0. -1.
        1   -1    0    0  501    0  0.00000000000E+00  0.00000000000E+00 -0.19503833699E+04  0.19503833699E+04  0.50400001928E-02 0.  1.
    10030    2    1    2    0    0  0.00000000000E+00  0.00000000000E+00 -0.11865738543E+04  0.27141928855E+04  0.24410828556E+04 0.  0.
        4    1    3    3  502    0 -0.45059801507E+02 -0.90660415714E+03  0.31394113588E+03  0.96048015760E+03  0.12699999809E+01 0. -1.
       -4    1    3    3    0  502  0.45059801507E+02  0.90660415714E+03 -0.15005149901E+04  0.17537127279E+04  0.12699999809E+01 0.  1.
</event>
<event>
 5   0  0.5154476E-06  0.2909704E+04  0.7818609E-02  0.8269996E-01
       -1   -1    0    0    0  501  0.00000000000E+00  0.00000000000E+00  0.95404899359E+03  0.95404899360E+03  0.50400001928E-02 0.  1.
        1   -1    0    0  501    0  0.00000000000E+00  0.00000000000E+00 -0.22185381483E+04  0.22185381483E+04  0.50400001928E-02 0. -1.
    10030    2    1    2    0    0  0.00000000000E+00  0.00000000000E+00 -0.12644891547E+04  0.31725871419E+04  0.29097038252E+04 0.  0.
        3    1    3    3  502    0  0.13408903392E+04 -0.32085126874E+03 -0.11385950567E+04  0.17881082607E+04  0.10100000352E+00 0. -1.
       -3    1    3    3    0  502 -0.13408903392E+04  0.32085126874E+03 -0.12589409798E+03  0.13844788812E+04  0.10100000352E+00 0.  1.
</event>
<event>
 5   0  0.1336899E-05  0.2922701E+04  0.7818609E-02  0.8266155E-01
       -2   -1    0    0    0  501  0.00000000000E+00  0.00000000000E+00  0.14664128799E+04  0.14664128799E+04  0.25500000920E-02 0. -1.
        2   -1    0    0  501    0  0.00000000000E+00  0.00000000000E+00 -0.14563056900E+04  0.14563056900E+04  0.25500000920E-02 0.  1.
    10030    2    1    2    0    0  0.00000000000E+00  0.00000000000E+00  0.10107189826E+02  0.29227185699E+04  0.29227010938E+04 0.  0.
        1    1    3    3  502    0 -0.11965818618E+04 -0.23673398599E+03  0.80985297028E+03  0.14641423993E+04  0.50400001928E-02 0. -1.
       -1    1    3    3    0  502  0.11965818618E+04  0.23673398599E+03 -0.79974578045E+03  0.14585761706E+04  0.50400001928E-02 0.  1.
</event>
<event>
 5   0  0.5352212E-06  0.2943450E+04  0.7818609E-02  0.8260066E-01
       -1   -1    0    0    0  501  0.00000000000E+00  0.00000000000E+00  0.13964046128E+04  0.13964046128E+04  0.50400001928E-02 0. -1.
        1   -1    0    0  501    0  0.00000000000E+00  0.00000000000E+00 -0.15511077168E+04  0.15511077168E+04  0.50400001928E-02 0.  1.
    10030    2    1    2    0    0  0.00000000000E+00  0.00000000000E+00 -0.15470310400E+03  0.29475123296E+04  0.29434496569E+04 0.  0.
        2    1    3    3  502    0  0.59682212991E+03 -0.10981901171E+04  0.70073815421E+03  0.14329173559E+04  0.25500000920E-02 0. -1.
       -2    1    3    3    0  502 -0.59682212991E+03  0.10981901171E+04 -0.85544125821E+03  0.15145949737E+04  0.25500000920E-02 0.  1.
</event>
<event>
 5   0  0.1382803E-05  0.2818417E+04  0.7818609E-02  0.8297573E-01
        2   -1    0    0  501    0  0.00000000000E+00  0.00000000000E+00  0.80078202255E+03  0.80078202255E+03  0.25500000920E-02 0.  1.
       -2   -1    0    0    0  501  0.00000000000E+00  0.00000000000E+00 -0.24799116559E+04  0.24799116559E+04  0.25500000920E-02 0. -1.
    10030    2    1    2    0    0  0.00000000000E+00  0.00000000000E+00 -0.16791296333E+04  0.32806936784E+04  0.28184170533E+04 0.  0.
        2    1    3    3  502    0  0.34269613968E+03 -0.22445204608E+03 -0.24090718004E+04  0.24436542932E+04  0.25500000920E-02 0. -1.
       -2    1    3    3    0  502 -0.34269613968E+03  0.22445204608E+03  0.72994216708E+03  0.83703938523E+03  0.25500000920E-02 0.  1.
</event>
<event>
 5   0  0.5002240E-06  0.2904791E+04  0.7818609E-02  0.8271453E-01
       -1   -1    0    0    0  501  0.00000000000E+00  0.00000000000E+00  0.10219109268E+04  0.10219109268E+04  0.50400001928E-02 0. -1.
        1   -1    0    0  501    0  0.00000000000E+00  0.00000000000E+00 -0.20642237470E+04  0.20642237470E+04  0.50400001928E-02 0.  1.
    10030    2    1    2    0    0  0.00000000000E+00  0.00000000000E+00 -0.10423128201E+04  0.30861346738E+04  0.29047910785E+04 0.  0.
        4    1    3    3  502    0  0.28952555487E+03 -0.47715008063E+03  0.90343149643E+03  0.10619262347E+04  0.12699999809E+01 0. -1.
       -4    1    3    3    0  502 -0.28952555487E+03  0.47715008063E+03 -0.19457443166E+04  0.20242084391E+04  0.12699999809E+01 0.  1.
</event>
<event>
 5   0  0.1339837E-05  0.2799231E+04  0.7818609E-02  0.8303507E-01
        2   -1    0    0  501    0  0.00000000000E+00  0.00000000000E+00  0.19514151891E+04  0.19514151891E+04  0.25500000920E-02 0.  1.
       -2   -1    0    0    0  501  0.00000000000E+00  0.00000000000E+00 -0.10038472973E+04  0.10038472973E+04  0.25500000920E-02 0. -1.
    10030    2    1    2    0    0  0.00000000000E+00  0.00000000000E+00  0.94756789186E+03  0.29552624864E+04  0.27992305110E+04 0.  0.
        5    1    3    3  502    0 -0.38325457027E+03 -0.11936551521E+04  0.11307264528E+04  0.16882716277E+04  0.46999998093E+01 0. -1.
       -5    1    3    3    0  502  0.38325457027E+03  0.11936551521E+04 -0.18315856097E+03  0.12669908587E+04  0.46999998093E+01 0.  1.
</event>
<event>
 5   0  0.5002240E-06  0.2912819E+04  0.7818609E-02  0.8269074E-01
        1   -1    0    0  501    0  0.00000000000E+00  0.00000000000E+00  0.20166871183E+04  0.20166871183E+04  0.50400001928E-02 0.  1.
       -1   -1    0    0    0  501  0.00000000000E+00  0.00000000000E+00 -0.10517885531E+04  0.10517885531E+04  0.50400001928E-02 0. -1.
    10030    2    1    2    0    0  0.00000000000E+00  0.00000000000E+00  0.96489856517E+03  0.30684756714E+04  0.29128188590E+04 0.  0.
        4    1    3    3  502    0  0.15659394403E+03 -0.77269101015E+03  0.17724508131E+04  0.19398857076E+04  0.12699999809E+01 0.  1.
       -4    1    3    3    0  502 -0.15659394403E+03  0.77269101015E+03 -0.80755224797E+03  0.11285899639E+04  0.12699999809E+01 0. -1.
</event>
<event>
 5   0  0.1336899E-05  0.2534305E+04  0.7818609E-02  0.8390865E-01
       -2   -1    0    0    0  501  0.00000000000E+00  0.00000000000E+00  0.73032189352E+03  0.73032189353E+03  0.25500000920E-02 0. -1.
        2   -1    0    0  501    0  0.00000000000E+00  0.00000000000E+00 -0.21985860785E+04  0.21985860785E+04  0.25500000920E-02 0.  1.
    10030    2    1    2    0    0  0.00000000000E+00  0.00000000000E+00 -0.14682641850E+04  0.29289079720E+04  0.25343050708E+04 0.  0.
        1    1    3    3  502    0  0.94312000011E+03  0.78761051461E+03 -0.10919713215E+04  0.16438391114E+04  0.50400001928E-02 0.  1.
       -1    1    3    3    0  502 -0.94312000011E+03 -0.78761051461E+03 -0.37629286351E+03  0.12850688606E+04  0.50400001928E-02 0. -1.
</event>
<event>
 5   0  0.5352212E-06  0.2908176E+04  0.7818609E-02  0.8270449E-01
       -1   -1    0    0    0  501  0.00000000000E+00  0.00000000000E+00  0.95145356289E+03  0.95145356290E+03  0.50400001928E-02 0.  1.
        1   -1    0    0  501    0  0.00000000000E+00  0.00000000000E+00 -0.22222548941E+04  0.22222548941E+04  0.50400001928E-02 0. -1.
    10030    2    1    2    0    0  0.00000000000E+00  0.00000000000E+00 -0.12708013312E+04  0.31737084570E+04  0.29081762922E+04 0.  0.
        2    1    3    3  502    0 -0.11101530386E+04  0.33863835888E+03  0.32050849655E+03  0.12040936025E+04  0.25500000920E-02 0. -1.
       -2    1    3    3    0  502  0.11101530386E+04 -0.33863835888E+03 -0.15913098277E+04  0.19696148545E+04  0.25500000920E-02 0.  1.
</event>
<event>
 5   0  0.5352212E-06  0.2943760E+04  0.7818609E-02  0.8259975E-01
        1   -1    0    0  501    0  0.00000000000E+00  0.00000000000E+00  0.10602268756E+04  0.10602268757E+04  0.50400001928E-02 0.  1.
       -1   -1    0    0    0  501  0.00000000000E+00  0.00000000000E+00 -0.20433651161E+04  0.20433651161E+04  0.50400001928E-02 0. -1.
    10030    2    1    2    0    0  0.00000000000E+00  0.00000000000E+00 -0.98313824044E+03  0.31035919917E+04  0.29437599174E+04 0.  0.
        2    1    3    3  502    0  0.83914583504E+03 -0.10174933987E+04 -0.11804782898E+04  0.17700247291E+04  0.25500000920E-02 0. -1.
       -2    1    3    3    0  502 -0.83914583504E+03  0.10174933987E+04  0.19734004940E+03  0.13335672626E+04  0.25500000920E-02 0.  1.
</event>
<event>
 5   0  0.5154476E-06  0.2881924E+04  0.7818609E-02  0.8278276E-01
        1   -1    0    0  501    0  0.00000000000E+00  0.00000000000E+00  0.14251236260E+04  0.14251236260E+04  0.50400001928E-02 0. -1.
       -1   -1    0    0    0  501  0.00000000000E+00  0.00000000000E+00 -0.14569767074E+04  0.14569767074E+04  0.50400001928E-02 0.  1.
    10030    2    1    2    0    0  0.00000000000E+00  0.00000000000E+00 -0.31853081463E+02  0.28821003334E+04  0.28819243073E+04 0.  0.
        3    1    3    3  502    0 -0.92473276875E+02  0.73023647849E+03  0.12229288843E+04  0.14273582899E+04  0.10100000352E+00 0. -1.
       -3    1    3    3    0  502  0.92473276875E+02 -0.73023647849E+03 -0.12547819657E+04  0.14547420435E+04  0.10100000352E+00 0.  1.
</event>
<event>
 5   0  0.5261878E-06  0.2897852E+04  0.7818609E-02  0.8273517E-01
        1   -1    0    0  501    0  0.00000000000E+00  0.00000000000E+00  0.11224765294E+04  0.11224765294E+04  0.50400001928E-02 0.  1.
       -1   -1    0    0    0  501  0.00000000000E+00  0.00000000000E+00 -0.18703166542E+04  0.18703166542E+04  0.50400001928E-02 0. -1.
    10030    2    1    2    0    0  0.00000000000E+00  0.00000000000E+00 -0.74784012482E+03  0.29927931836E+04  0.28978519954E+04 0.  0.
        5    1    3    3  502    0 -0.90204525777E+03 -0.67408309741E+03  0.56770278858E+03  0.12611035705E+04  0.46999998093E+01 0. -1.
       -5    1    3    3    0  502  0.90204525777E+03  0.67408309741E+03 -0.13155429134E+04  0.17316896131E+04  0.46999998093E+01 0.  1.
</event>
<event>
 5   0  0.5002240E-06  0.2646012E+04  0.7818609E-02  0.8352738E-01
        1   -1    0    0  501    0  0.00000000000E+00  0.00000000000E+00  0.14995435275E+04  0.14995435275E+04  0.50400001928E-02 0. -1.
       -1   -1    0    0    0  501  0.00000000000E+00  0.00000000000E+00 -0.11672518909E+04  0.11672518910E+04  0.50400001928E-02 0.  1.
    10030    2    1    2    0    0  0.00000000000E+00  0.00000000000E+00  0.33229163652E+03  0.26667954184E+04  0.26460121073E+04 0.  0.
        4    1    3    3  502    0  0.75415436776E+03 -0.52090748943E+03  0.11277098568E+04  0.14532118074E+04  0.12699999809E+01 0. -1.
       -4    1    3    3    0  502 -0.75415436776E+03  0.52090748943E+03 -0.79541822031E+03  0.12135836111E+04  0.12699999809E+01 0.  1.
</event>
<event>
 5   0  0.1307832E-05  0.2125230E+04  0.7818609E-02  0.8550210E-01
       -2   -1    0    0    0  501  0.00000000000E+00  0.00000000000E+00  0.94541669842E+03  0.94541669843E+03  0.25500000920E-02 0. -1.
        2   -1    0    0  501    0  0.00000000000E+00  0.00000000000E+00 -0.11943416780E+04  0.11943416780E+04  0.25500000920E-02 0.  1.
    10030    2    1    2    0    0  0.00000000000E+00  0.00000000000E+00 -0.24892497953E+03  0.21397583764E+04  0.21252299320E+04 0.  0.
        4    1    3    3  502    0  0.93421535493E+02  0.17370241546E+03  0.92682531857E+03  0.94757949349E+03  0.12699999809E+01 0. -1.
       -4    1    3    3    0  502 -0.93421535493E+02 -0.17370241546E+03 -0.11757502981E+04  0.11921788829E+04  0.12699999809E+01 0.  1.
</event>
<event>
 5   0  0.1336899E-05  0.2871688E+04  0.7818609E-02  0.8281351E-01
       -2   -1    0    0    0  501  0.00000000000E+00  0.00000000000E+00  0.93098830735E+03  0.93098830735E+03  0.25500000920E-02 0.  1.
        2   -1    0    0  501    0  0.00000000000E+00  0.00000000000E+00 -0.22144728662E+04  0.22144728662E+04  0.25500000920E-02 0. -1.
    10030    2    1    2    0    0  0.00000000000E+00  0.00000000000E+00 -0.12834845588E+04  0.31454611735E+04  0.28716882459E+04 0.  0.
        1    1    3    3  502    0  0.34077848122E+03  0.11647794864E+04 -0.14822342420E+04  0.19156877547E+04  0.50400001928E-02 0. -1.
       -1    1    3    3    0  502 -0.34077848122E+03 -0.11647794864E+04  0.19874968320E+03  0.12297734189E+04  0.50400001928E-02 0.  1.
</event>
<event>
 5   0  0.1339837E-05  0.2920847E+04  0.7818609E-02  0.8266702E-01
       -2   -1    0    0    0  501  0.00000000000E+00  0.00000000000E+00  0.75653576334E+03  0.75653576334E+03  0.25500000920E-02 0. -1.
        2   -1    0    0  501    0  0.00000000000E+00  0.00000000000E+00 -0.28192138424E+04  0.28192138424E+04  0.25500000920E-02 0.  1.
    10030    2    1    2    0    0  0.00000000000E+00  0.00000000000E+00 -0.20626780791E+04  0.35757496057E+04  0.29208465186E+04 0.  0.
        5    1    3    3  502    0 -0.75936242615E+03 -0.86836610064E+03 -0.21277638509E+04  0.24203495769E+04  0.46999998093E+01 0.  1.
       -5    1    3    3    0  502  0.75936242615E+03  0.86836610064E+03  0.65085771861E+02  0.11554000289E+04  0.46999998093E+01 0. -1.
</event>
<event>
 5   0  0.1382803E-05  0.2801534E+04  0.7818609E-02  0.8302792E-01
        2   -1    0    0  501    0  0.00000000000E+00  0.00000000000E+00  0.20828734231E+04  0.20828734231E+04  0.25500000920E-02 0.  1.
       -2   -1    0    0    0  501  0.00000000000E+00  0.00000000000E+00 -0.94203881028E+03  0.94203881029E+03  0.25500000920E-02 0. -1.
    10030    2    1    2    0    0  0.00000000000E+00  0.00000000000E+00  0.11408346128E+04  0.30249122334E+04  0.28015335811E+04 0.  0.
        2    1    3    3  502    0  0.52021897450E+03 -0.12519912163E+04  0.19014561327E+03  0.13690380350E+04  0.25500000920E-02 0.  1.
       -2    1    3    3    0  502 -0.52021897450E+03  0.12519912163E+04  0.95068899952E+03  0.16558741984E+04  0.25500000920E-02 0. -1.
</event>
<event>
 5   0  0.5352212E-06  0.2945741E+04  0.7818609E-02  0.8259397E-01
       -1   -1    0    0    0  501  0.00000000000E+00  0.00000000000E+00  0.12017103028E+04  0.12017103028E+04  0.50400001928E-02 0. -1.
        1   -1    0    0  501    0  0.00000000000E+00  0.00000000000E+00 -0.18052166951E+04  0.18052166951E+04  0.50400001928E-02 0.  1.
    10030    2    1    2    0    0  0.00000000000E+00  0.00000000000E+00 -0.60350639225E+03  0.30069269979E+04  0.29457409943E+04 0.  0.
        2    1    3    3  502    0 -0.49970063551E+03 -0.12089778968E+04  0.38907519538E+03  0.13648105318E+04  0.25500000920E-02 0. -1.
       -2    1    3    3    0  502  0.49970063551E+03  0.12089778968E+04 -0.99258158763E+03  0.16421164661E+04  0.25500000920E-02 0.  1.
</event>
<event>
 5   0  0.5059249E-06  0.2568410E+04  0.7818609E-02  0.8379011E-01
       -1   -1    0    0    0  501  0.00000000000E+00  0.00000000000E+00  0.13625046849E+04  0.13625046849E+04  0.50400001928E-02 0.  1.
        1   -1    0    0  501    0  0.00000000000E+00  0.00000000000E+00 -0.12104054325E+04  0.12104054325E+04  0.50400001928E-02 0. -1.
    10030    2    1    2    0    0  0.00000000000E+00  0.00000000000E+00  0.15209925238E+03  0.25729101174E+04  0.25684104597E+04 0.  0.
        1    1    3    3  502    0 -0.99536092849E+02 -0.10646135559E+04  0.78854360601E+03  0.13285746030E+04  0.50400001928E-02 0.  1.
       -1    1    3    3    0  502  0.99536092849E+02  0.10646135559E+04 -0.63644435363E+03  0.12443355144E+04  0.50400001928E-02 0. -1.
</event>
<event>
 5   0  0.1339837E-05  0.2881173E+04  0.7818609E-02  0.8278501E-01
       -2   -1    0    0    0  501  0.00000000000E+00  0.00000000000E+00  0.10959823325E+04  0.10959823325E+04  0.25500000920E-02 0. -1.
        2   -1    0    0  501    0  0.00000000000E+00  0.00000000000E+00 -0.18935430245E+04  0.18935430245E+04  0.25500000920E-02 0.  1.
    10030    2    1    2    0    0  0.00000000000E+00  0.00000000000E+00 -0.79756069200E+03  0.29895253570E+04  0.28811731643E+04 0.  0.
        5    1    3    3  502    0 -0.14358572104E+02 -0.10518596737E+02 -0.18934209705E+04  0.18935104623E+04  0.46999998093E+01 0.  1.
       -5    1    3    3    0  502  0.14358572104E+02  0.10518596737E+02  0.10958602785E+04  0.10960148947E+04  0.46999998093E+01 0. -1.
</event>
<event>
 5   0  0.1336899E-05  0.2812447E+04  0.7818609E-02  0.8299414E-01
        2   -1    0    0  501    0  0.00000000000E+00  0.00000000000E+00  0.15154275672E+04  0.15154275672E+04  0.25500000920E-02 0. -1.
       -2   -1    0    0    0  501  0.00000000000E+00  0.00000000000E+00 -0.13048888258E+04  0.13048888258E+04  0.25500000920E-02 0.  1.
    10030    2    1    2    0    0  0.00000000000E+00  0.00000000000E+00  0.21053874143E+03  0.28203163930E+04  0.28124469764E+04 0.  0.
        1    1    3    3  502    0 -0.51528230904E+03 -0.74618221706E+03 -0.97252199088E+03  0.13297002601E+04  0.50400001928E-02 0.  1.
       -1    1    3    3    0  502  0.51528230904E+03  0.74618221706E+03  0.11830607323E+04  0.14906161328E+04  0.50400001928E-02 0. -1.
</event>
<event>
 5   0  0.5261878E-06  0.2882023E+04  0.7818609E-02  0.8278246E-01
        1   -1    0    0  501    0  0.00000000000E+00  0.00000000000E+00  0.21389037729E+04  0.21389037729E+04  0.50400001928E-02 0.  1.
       -1   -1    0    0    0  501  0.00000000000E+00  0.00000000000E+00 -0.97083086237E+03  0.97083086239E+03  0.50400001928E-02 0. -1.
    10030    2    1    2    0    0  0.00000000000E+00  0.00000000000E+00  0.11680729105E+04  0.31097346353E+04  0.28820227580E+04 0.  0.
        5    1    3    3  502    0 -0.94221588460E+03 -0.93902467066E+03 -0.13772325493E+02  0.13303194625E+04  0.46999998093E+01 0. -1.
       -5    1    3    3    0  502  0.94221588460E+03  0.93902467066E+03  0.11818452360E+04  0.17794151728E+04  0.46999998093E+01 0.  1.
</event>
<event>
 5   0  0.5154476E-06  0.2953747E+04  0.7818609E-02  0.8257063E-01
        1   -1    0    0  501    0  0.00000000000E+00  0.00000000000E+00  0.16650856390E+04  0.16650856390E+04  0.50400001928E-02 0.  1.
       -1   -1    0    0    0  501  0.00000000000E+00  0.00000000000E+00 -0.13099358188E+04  0.13099358188E+04  0.50400001928E-02 0. -1.
    10030    2    1    2    0    0  0.00000000000E+00  0.00000000000E+00  0.35514982020E+03  0.29750214578E+04  0.29537469898E+04 0.  0.
        3    1    3    3  502    0  0.48006140956E+03  0.84966388357E+03 -0.93890700530E+03  0.13542282108E+04  0.10100000352E+00 0. -1.
       -3    1    3    3    0  502 -0.48006140956E+03 -0.84966388357E+03  0.12940568255E+04  0.16207932471E+04  0.10100000352E+00 0.  1.
</event>
<event>
 5   0  0.1339837E-05  0.2940510E+04  0.7818609E-02  0.8260925E-01
       -2   -1    0    0    0  501  0.00000000000E+00  0.00000000000E+00  0.17359324958E+04  0.17359324958E+04  0.25500000920E-02 0.  1.
        2   -1    0    0  501    0  0.00000000000E+00  0.00000000000E+00 -0.12452387651E+04  0.12452387651E+04  0.25500000920E-02 0. -1.
    10030    2    1    2    0    0  0.00000000000E+00  0.00000000000E+00  0.49069373072E+03  0.29811712609E+04  0.29405104573E+04 0.  0.
        5    1    3    3  502    0  0.10010893266E+04  0.52147564024E+01  0.13370004309E+04  0.16702692225E+04  0.46999998093E+01 0.  1.
       -5    1    3    3    0  502 -0.10010893266E+04 -0.52147564024E+01 -0.84630670014E+03  0.13109020384E+04  0.46999998093E+01 0. -1.
</event>
<event>
 5   0  0.5154476E-06  0.2920198E+04  0.7818609E-02  0.8266893E-01
       -1   -1    0    0    0  501  0.00000000000E+00  0.00000000000E+00  0.13259034635E+04  0.13259034635E+04  0.50400001928E-02 0.  1.
        1   -1    0    0  501    0  0.00000000000E+00  0.00000000000E+00 -0.16078766067E+04  0.16078766068E+04  0.50400001928E-02 0. -1.
    10030    2    1    2    0    0  0.00000000000E+00  0.00000000000E+00 -0.28197314323E+03  0.29337800703E+04  0.29201980493E+04 0.  0.
        3    1    3    3  502    0  0.74174988236E+03 -0.37970048234E+03  0.10635577106E+04  0.13511181881E+04  0.10100000352E+00 0.  1.
       -3    1    3    3    0  502 -0.74174988236E+03  0.37970048234E+03 -0.13455308539E+04  0.15826618821E+04  0.10100000352E+00 0. -1.
</event>
<event>
 5   0  0.1385669E-05  0.2968348E+04  0.7818609E-02  0.8252827E-01
       -2   -1    0    0    0  501  0.00000000000E+00  0.00000000000E+00  0.13128804914E+04  0.13128804914E+04  0.25500000920E-02 0.  1.
        2   -1    0    0  501    0  0.00000000000E+00  0.00000000000E+00 -0.16778163523E+04  0.16778163523E+04  0.25500000920E-02 0. -1.
    10030    2    1    2    0    0  0.00000000000E+00  0.00000000000E+00 -0.36493586083E+03  0.29906968437E+04  0.29683479292E+04 0.  0.
        3    1    3    3  502    0 -0.49030993869E+03  0.73169884609E+03 -0.13860268032E+04  0.16422111152E+04  0.10100000352E+00 0. -1.
       -3    1    3    3    0  502  0.49030993869E+03 -0.73169884609E+03  0.10210909424E+04  0.13484857286E+04  0.10100000352E+00 0.  1.
</event>
<event>
 5   0  0.5352212E-06  0.2898109E+04  0.7818609E-02  0.8273440E-01
        1   -1    0    0  501    0  0.00000000000E+00  0.00000000000E+00  0.13878817144E+04  0.13878817144E+04  0.50400001928E-02 0. -1.
       -1   -1    0    0    0  501  0.00000000000E+00  0.00000000000E+00 -0.15129232630E+04  0.15129232630E+04  0.50400001928E-02 0.  1.
    10030    2    1    2    0    0  0.00000000000E+00  0.00000000000E+00 -0.12504154865E+03  0.29008049774E+04  0.28981087157E+04 0.  0.
        2    1    3    3  502    0 -0.43358926641E+03  0.13219943162E+04  0.34293621823E+03  0.14329249365E+04  0.25500000920E-02 0. -1.
       -2    1    3    3    0  502  0.43358926641E+03 -0.13219943162E+04 -0.46797776688E+03  0.14678800408E+04  0.25500000920E-02 0.  1.
</event>
<event>
 5   0  0.1336899E-05  0.2813464E+04  0.7818609E-02  0.8299100E-01
       -2   -1    0    0    0  501  0.00000000000E+00  0.00000000000E+00  0.98505678841E+03  0.98505678841E+03  0.25500000920E-02 0. -1.
        2   -1    0    0  501    0  0.00000000000E+00  0.00000000000E+00 -0.20089151627E+04  0.20089151627E+04  0.25500000920E-02 0.  1.
    10030    2    1    2    0    0  0.00000000000E+00  0.00000000000E+00 -0.10238583743E+04  0.29939719511E+04  0.28134644255E+04 0.  0.
        1    1    3    3  502    0  0.12023055125E+04 -0.41142568423E+03  0.13017901432E+03  0.12774021351E+04  0.50400001928E-02 0. -1.
       -1    1    3    3    0  502 -0.12023055125E+04  0.41142568423E+03 -0.11540373886E+04  0.17165698160E+04  0.50400001928E-02 0.  1.
</event>
<event>
 5   0  0.5352212E-06  0.2849702E+04  0.7818609E-02  0.8288002E-01
       -1   -1    0    0    0  501  0.00000000000E+00  0.00000000000E+00  0.94743108083E+03  0.94743108084E+03  0.50400001928E-02 0.  1.
        1   -1    0    0  501    0  0.00000000000E+00  0.00000000000E+00 -0.21428479332E+04  0.21428479332E+04  0.50400001928E-02 0. -1.
    10030    2    1    2    0    0  0.00000000000E+00  0.00000000000E+00 -0.11954168523E+04  0.30902790140E+04  0.28497022535E+04 0.  0.
        2    1    3    3  502    0  0.19004299117E+03 -0.12525193243E+04  0.10948066399E+03  0.12715765852E+04  0.25500000920E-02 0.  1.
       -2    1    3    3    0  502 -0.19004299117E+03  0.12525193243E+04 -0.13048975163E+04  0.18187024288E+04  0.25500000920E-02 0. -1.
</event>
<event>
 5   0  0.1307832E-05  0.2940781E+04  0.7818609E-02  0.8260846E-01
        2   -1    0    0  501    0  0.00000000000E+00  0.00000000000E+00  0.18223876472E+04  0.18223876472E+04  0.25500000920E-02 0.  1.
       -2   -1    0    0    0  501  0.00000000000E+00  0.00000000000E+00 -0.11863819798E+04  0.11863819798E+04  0.25500000920E-02 0. -1.
    10030    2    1    2    0    0  0.00000000000E+00  0.00000000000E+00  0.63600566744E+03  0.30087696270E+04  0.29407807568E+04 0.  0.
        4    1    3    3  502    0 -0.11282624329E+04  0.43049972933E+03 -0.54028398541E+03  0.13229567386E+04  0.12699999809E+01 0. -1.
       -4    1    3    3    0  502  0.11282624329E+04 -0.43049972933E+03  0.11762896529E+04  0.16858128884E+04  0.12699999809E+01 0.  1.
</event>
<event>
 5   0  0.5002240E-06  0.2908521E+04  0.7818609E-02  0.8270347E-01
        1   -1    0    0  501    0  0.00000000000E+00  0.00000000000E+00  0.16971037596E+04  0.16971037596E+04  0.50400001928E-02 0.  1.
       -1   -1    0    0    0  501  0.00000000000E+00  0.00000000000E+00 -0.12461659611E+04  0.12461659611E+04  0.50400001928E-02 0. -1.
    10030    2    1    2    0    0  0.00000000000E+00  0.00000000000E+00  0.45093779853E+03  0.29432697207E+04  0.29085205433E+04 0.  0.
        4    1    3    3  502    0  0.18224629499E+03 -0.92988152144E+03 -0.89087829463E+03  0.13005995174E+04  0.12699999809E+01 0. -1.
       -4    1    3    3    0  502 -0.18224629499E+03  0.92988152144E+03  0.13418160932E+04  0.16426702033E+04  0.12699999809E+01 0.  1.
</event>
<event>
 5   0  0.4590125E-06  0.2163890E+04  0.7818609E-02  0.8533610E-01
       -4   -1    0    0    0  501  0.00000000000E+00  0.00000000000E+00  0.82223658007E+03  0.82223756087E+03  0.12699999809E+01 0. -1.
        4   -1    0    0  501    0  0.00000000000E+00  0.00000000000E+00 -0.14236822973E+04  0.14236828638E+04  0.12699999809E+01 0.  1.
    10030    2    1    2    0    0  0.00000000000E+00  0.00000000000E+00 -0.60144571725E+03  0.22459204246E+04  0.21638903861E+04 0.  0.
        4    1    3    3  502    0  0.67637768593E+02 -0.33017316103E+03  0.76636358126E+03  0.83720005708E+03  0.12699999809E+01 0. -1.
       -4    1    3    3    0  502 -0.67637768593E+02  0.33017316103E+03 -0.13678092985E+04  0.14087203676E+04  0.12699999809E+01 0.  1.
</event>
<event>
 5   0  0.5154476E-06  0.2966040E+04  0.7818609E-02  0.8253495E-01
        1   -1    0    0  501    0  0.00000000000E+00  0.00000000000E+00  0.18280068978E+04  0.18280068978E+04  0.50400001928E-02 0.  1.
       -1   -1    0    0    0  501  0.00000000000E+00  0.00000000000E+00 -0.12031399681E+04  0.12031399681E+04  0.50400001928E-02 0. -1.
    10030    2    1    2    0    0  0.00000000000E+00  0.00000000000E+00  0.62486692976E+03  0.30311468659E+04  0.29660398923E+04 0.  0.
        3    1    3    3  502    0 -0.14118814642E+04  0.26795551961E+03  0.68672247198E+03  0.15927326182E+04  0.10100000352E+00 0.  1.
       -3    1    3    3    0  502  0.14118814642E+04 -0.26795551961E+03 -0.61855542223E+02  0.14384142476E+04  0.10100000352E+00 0. -1.
</event>
<event>
 5   0  0.5352212E-06  0.2978620E+04  0.7818609E-02  0.8249862E-01
       -1   -1    0    0    0  501  0.00000000000E+00  0.00000000000E+00  0.12823629035E+04  0.12823629035E+04  0.50400001928E-02 0.  1.
        1   -1    0    0  501    0  0.00000000000E+00  0.00000000000E+00 -0.17296544753E+04  0.17296544753E+04  0.50400001928E-02 0. -1.
    10030    2    1    2    0    0  0.00000000000E+00  0.00000000000E+00 -0.44729157181E+03  0.30120173789E+04  0.29786203082E+04 0.  0.
        2    1    3    3  502    0 -0.60756065506E+03 -0.10523377284E+04 -0.10944047047E+04  0.16353184100E+04  0.25500000920E-02 0.  1.
       -2    1    3    3    0  502  0.60756065506E+03  0.10523377284E+04  0.64711313290E+03  0.13766989689E+04  0.25500000920E-02 0. -1.
</event>
<event>
 5   0  0.5154476E-06  0.2862577E+04  0.7818609E-02  0.8284100E-01
        1   -1    0    0  501    0  0.00000000000E+00  0.00000000000E+00  0.14052578853E+04  0.14052578853E+04  0.50400001928E-02 0. -1.
       -1   -1    0    0    0  501  0.00000000000E+00  0.00000000000E+00 -0.14578010415E+04  0.14578010415E+04  0.50400001928E-02 0.  1.
    10030    2    1    2    0    0  0.00000000000E+00  0.00000000000E+00 -0.52543156213E+02  0.28630589268E+04  0.28625767475E+04 0.  0.
        3    1    3    3  502    0  0.10046608693E+04  0.97545291667E+03 -0.32252164555E+03  0.14369662756E+04  0.10100000352E+00 0.  1.
       -3    1    3    3    0  502 -0.10046608693E+04 -0.97545291667E+03  0.26997848934E+03  0.14260926512E+04  0.10100000352E+00 0. -1.
</event>
<event>
 5   0  0.5261878E-06  0.2926928E+04  0.7818609E-02  0.8264910E-01
       -1   -1    0    0    0  501  0.00000000000E+00  0.00000000000E+00  0.17347148537E+04  0.17347148537E+04  0.50400001928E-02 0.  1.
        1   -1    0    0  501    0  0.00000000000E+00  0.00000000000E+00 -0.12346276730E+04  0.12346276730E+04  0.50400001928E-02 0. -1.
    10030    2    1    2    0    0  0.00000000000E+00  0.00000000000E+00  0.50008718071E+03  0.29693425267E+04  0.29269280573E+04 0.  0.
        5    1    3    3  502    0  0.13156007955E+04 -0.43717846512E+03 -0.22555089663E+03  0.14045731595E+04  0.46999998093E+01 0. -1.
       -5    1    3    3    0  502 -0.13156007955E+04  0.43717846512E+03  0.72563807733E+03  0.15647693672E+04  0.46999998093E+01 0.  1.
</event>
<event>
 5   0  0.5261878E-06  0.2866237E+04  0.7818609E-02  0.8282994E-01
        1   -1    0    0  501    0  0.00000000000E+00  0.00000000000E+00  0.25541977312E+04  0.25541977312E+04  0.50400001928E-02 0.  1.
       -1   -1    0    0    0  501  0.00000000000E+00  0.00000000000E+00 -0.80409933914E+03  0.80409933916E+03  0.50400001928E-02 0. -1.
    10030    2    1    2    0    0  0.00000000000E+00  0.00000000000E+00  0.17500983920E+04  0.33582970703E+04  0.28662370507E+04 0.  0.
        5    1    3    3  502    0 -0.12201828328E+04  0.64404743332E+03  0.13290838659E+04  0.19157581409E+04  0.46999998093E+01 0.  1.
       -5    1    3    3    0  502  0.12201828328E+04 -0.64404743332E+03  0.42101452610E+03  0.14425389294E+04  0.46999998093E+01 0. -1.
</event>
<event>
 5   0  0.5261878E-06  0.2861616E+04  0.7818609E-02  0.8284390E-01
       -1   -1    0    0    0  501  0.00000000000E+00  0.00000000000E+00  0.11614372022E+04  0.11614372022E+04  0.50400001928E-02 0.  1.
        1   -1    0    0  501    0  0.00000000000E+00  0.00000000000E+00 -0.17626532031E+04  0.17626532031E+04  0.50400001928E-02 0. -1.
    10030    2    1    2    0    0  0.00000000000E+00  0.00000000000E+00 -0.60121600093E+03  0.29240904053E+04  0.28616156308E+04 0.  0.
        5    1    3    3  502    0 -0.68540907222E+03 -0.32196683866E+03  0.93987275519E+03  0.12069925963E+04  0.46999998093E+01 0.  1.
       -5    1    3    3    0  502  0.68540907222E+03  0.32196683866E+03 -0.15410887561E+04  0.17170978090E+04  0.46999998093E+01 0. -1.
</event>
<event>
 5   0  0.1307832E-05  0.2937646E+04  0.7818609E-02  0.8261764E-01
       -2   -1    0    0    0  501  0.00000000000E+00  0.00000000000E+00  0.20950342973E+04  0.20950342973E+04  0.25500000920E-02 0. -1.
        2   -1    0    0  501    0  0.00000000000E+00  0.00000000000E+00 -0.10297878786E+04  0.10297878786E+04  0.25500000920E-02 0.  1.
    10030    2    1    2    0    0  0.00000000000E+00  0.00000000000E+00  0.10652464187E+04  0.31248221759E+04  0.29376459451E+04 0.  0.
        4    1    3    3  502    0  0.86571661037E+03  0.58174081351E+03  0.16327094805E+04  0.19374285752E+04  0.12699999809E+01 0.  1.
       -4    1    3    3    0  502 -0.86571661037E+03 -0.58174081351E+03 -0.56746306178E+03  0.11873936007E+04  0.12699999809E+01 0. -1.
</event>
<event>
 5   0  0.5002240E-06  0.2816068E+04  0.7818609E-02  0.8298297E-01
       -1   -1    0    0    0  501  0.00000000000E+00  0.00000000000E+00  0.16129212494E+04  0.16129212494E+04  0.50400001928E-02 0.  1.
        1   -1    0    0  501    0  0.00000000000E+00  0.00000000000E+00 -0.12291731774E+04  0.12291731774E+04  0.50400001928E-02 0. -1.
    10030    2    1    2    0    0  0.00000000000E+00  0.00000000000E+00  0.38374807200E+03  0.28420944268E+04  0.28160678521E+04 0.  0.
        4    1    3    3  502    0 -0.13173028953E+04 -0.31190446154E+03  0.58273440471E+03  0.14738223469E+04  0.12699999809E+01 0. -1.
       -4    1    3    3    0  502  0.13173028953E+04  0.31190446154E+03 -0.19898633271E+03  0.13682720798E+04  0.12699999809E+01 0.  1.
</event>
<event>
 5   0  0.1385669E-05  0.2925527E+04  0.7818609E-02  0.8265323E-01
       -2   -1    0    0    0  501  0.00000000000E+00  0.00000000000E+00  0.13938510181E+04  0.13938510181E+04  0.25500000920E-02 0. -1.
        2   -1    0    0  501    0  0.00000000000E+00  0.00000000000E+00 -0.15350832449E+04  0.15350832449E+04  0.25500000920E-02 0.  1.
    10030    2    1    2    0    0  0.00000000000E+00  0.00000000000E+00 -0.14123222677E+03  0.29289342629E+04  0.29255271960E+04 0.  0.
        3    1    3    3  502    0 -0.63088532804E+03 -0.93505223795E+03 -0.10030107338E+04  0.15094268870E+04  0.10100000352E+00 0.  1.
       -3    1    3    3    0  502  0.63088532804E+03  0.93505223795E+03  0.86177850707E+03  0.14195073759E+04  0.10100000352E+00 0. -1.
</event>
<event>
 5   0  0.1336899E-05  0.3006253E+04  0.7818609E-02  0.8241948E-01
       -2   -1    0    0    0  501  0.00000000000E+00  0.00000000000E+00  0.18276979094E+04  0.18276979094E+04  0.25500000920E-02 0.  1.
        2   -1    0    0  501    0  0.00000000000E+00  0.00000000000E+00 -0.12361941084E+04  0.12361941084E+04  0.25500000920E-02 0. -1.
    10030    2    1    2    0    0  0.00000000000E+00  0.00000000000E+00  0.59150380094E+03  0.30638920178E+04  0.30062530749E+04 0.  0.
        1    1    3    3  502    0 -0.10944898589E+04 -0.24134147483E+03  0.13165724192E+04  0.17290218893E+04  0.50400001928E-02 0. -1.
       -1    1    3    3    0  502  0.10944898589E+04  0.24134147483E+03 -0.72506861823E+03  0.13348701285E+04  0.50400001928E-02 0.  1.
</event>
<event>
 5   0  0.5002240E-06  0.2926198E+04  0.7818609E-02  0.8265125E-01
       -1   -1    0    0    0  501  0.00000000000E+00  0.00000000000E+00  0.11862862527E+04  0.11862862527E+04  0.50400001928E-02 0.  1.
        1   -1    0    0  501    0  0.00000000000E+00  0.00000000000E+00 -0.18045042204E+04  0.18045042204E+04  0.50400001928E-02 0. -1.
    10030    2    1    2    0    0  0.00000000000E+00  0.00000000000E+00 -0.61821796775E+03  0.29907904732E+04  0.29261979083E+04 0.  0.
        4    1    3    3  502    0  0.10476756594E+04  0.61882749988E+02  0.73280657997E+03  0.12800237727E+04  0.12699999809E+01 0.  1.
       -4    1    3    3    0  502 -0.10476756594E+04 -0.61882749988E+02 -0.13510245477E+04  0.17107667005E+04  0.12699999809E+01 0. -1.
</event>
<event>
 5   0  0.1336899E-05  0.2549700E+04  0.7818609E-02  0.8385491E-01
        2   -1    0    0  501    0  0.00000000000E+00  0.00000000000E+00  0.12013522927E+04  0.12013522927E+04  0.25500000920E-02 0.  1.
       -2   -1    0    0    0  501  0.00000000000E+00  0.00000000000E+00 -0.13528440139E+04  0.13528440139E+04  0.25500000920E-02 0. -1.
    10030    2    1    2    0    0  0.00000000000E+00  0.00000000000E+00 -0.15149172120E+03  0.25541963066E+04  0.25496997923E+04 0.  0.
        1    1    3    3  502    0  0.73090120044E+03  0.98808923167E+03 -0.41502494397E+03  0.12972211063E+04  0.50400001928E-02 0. -1.
       -1    1    3    3    0  502 -0.73090120044E+03 -0.98808923167E+03  0.26353322277E+03  0.12569752003E+04  0.50400001928E-02 0.  1.
</event>
<event>
 5   0  0.1336899E-05  0.2909295E+04  0.7818609E-02  0.8270117E-01
        2   -1    0    0  501    0  0.00000000000E+00  0.00000000000E+00  0.11668527170E+04  0.11668527170E+04  0.25500000920E-02 0.  1.
       -2   -1    0    0    0  501  0.00000000000E+00  0.00000000000E+00 -0.18134241893E+04  0.18134241893E+04  0.25500000920E-02 0. -1.
    10030    2    1    2    0    0  0.00000000000E+00  0.00000000000E+00 -0.64657147230E+03  0.29802769062E+04  0.29092947202E+04 0.  0.
        1    1    3    3  502    0  0.11479651115E+04  0.62036748664E+03  0.33529906338E+03  0.13472583930E+04  0.50400001928E-02 0. -1.
       -1    1    3    3    0  502 -0.11479651115E+04 -0.62036748664E+03 -0.98187053568E+03  0.16330185132E+04  0.50400001928E-02 0.  1.
</event>
<event>
 5   0  0.5352212E-06  0.2838960E+04  0.7818609E-02  0.8291274E-01
        1   -1    0    0  501    0  0.00000000000E+00  0.00000000000E+00  0.17375054597E+04  0.17375054597E+04  0.50400001928E-02 0. -1.
       -1   -1    0    0    0  501  0.00000000000E+00  0.00000000000E+00 -0.11596648160E+04  0.11596648160E+04  0.50400001928E-02 0.  1.
    10030    2    1    2    0    0  0.00000000000E+00  0.00000000000E+00  0.57784064374E+03  0.28971702757E+04  0.28389603374E+04 0.  0.
        2    1    3    3  502    0 -0.11490600756E+04 -0.77516845225E+03 -0.23458529433E+02  0.13862811725E+04  0.25500000920E-02 0. -1.
       -2    1    3    3    0  502  0.11490600756E+04  0.77516845225E+03  0.60129917317E+03  0.15108891032E+04  0.25500000920E-02 0.  1.
</event>
<event>
 5   0  0.1336899E-05  0.2966502E+04  0.7818609E-02  0.8253361E-01
       -2   -1    0    0    0  501  0.00000000000E+00  0.00000000000E+00  0.17817100542E+04  0.17817100542E+04  0.25500000920E-02 0. -1.
        2   -1    0    0  501    0  0.00000000000E+00  0.00000000000E+00 -0.12347879847E+04  0.12347879847E+04  0.25500000920E-02 0.  1.
    10030    2    1    2    0    0  0.00000000000E+00  0.00000000000E+00  0.54692206949E+03  0.30164980389E+04  0.29665024303E+04 0.  0.
        1    1    3    3  502    0  0.12925678705E+04  0.65761252522E+03 -0.42988303387E+02  0.14508735050E+04  0.50400001928E-02 0.  1.
       -1    1    3    3    0  502 -0.12925678705E+04 -0.65761252522E+03  0.58991037288E+03  0.15656245339E+04  0.50400001928E-02 0. -1.
</event>
<event>
 5   0  0.5002240E-06  0.2903299E+04  0.7818609E-02  0.8271897E-01
       -1   -1    0    0    0  501  0.00000000000E+00  0.00000000000E+00  0.12092684472E+04  0.12092684473E+04  0.50400001928E-02 0. -1.
        1   -1    0    0  501    0  0.00000000000E+00  0.00000000000E+00 -0.17426121922E+04  0.17426121922E+04  0.50400001928E-02 0.  1.
    10030    2    1    2    0    0  0.00000000000E+00  0.00000000000E+00 -0.53334374492E+03  0.29518806394E+04  0.29032987719E+04 0.  0.
        4    1    3    3  502    0 -0.75389352912E+03  0.11381757361E+04 -0.76837065804E+03  0.15665869080E+04  0.12699999809E+01 0.  1.
       -4    1    3    3    0  502  0.75389352912E+03 -0.11381757361E+04  0.23502691312E+03  0.13852937314E+04  0.12699999809E+01 0. -1.
</event>
<event>
 5   0  0.5352212E-06  0.2886429E+04  0.7818609E-02  0.8276927E-01
       -1   -1    0    0    0  501  0.00000000000E+00  0.00000000000E+00  0.13028446710E+04  0.13028446710E+04  0.50400001928E-02 0.  1.
        1   -1    0    0  501    0  0.00000000000E+00  0.00000000000E+00 -0.15987084684E+04  0.15987084684E+04  0.50400001928E-02 0. -1.
    10030    2    1    2    0    0  0.00000000000E+00  0.00000000000E+00 -0.29586379737E+03  0.29015531394E+04  0.28864294958E+04 0.  0.
        2    1    3    3  502    0  0.87041712911E+03  0.53316093062E+03 -0.11735631310E+04  0.15553575084E+04  0.25500000920E-02 0. -1.
       -2    1    3    3    0  502 -0.87041712911E+03 -0.53316093062E+03  0.87769933360E+03  0.13461956310E+04  0.25500000920E-02 0.  1.
</event>
<event>
 5   0  0.5002240E-06  0.1871726E+04  0.7818609E-02  0.8669059E-01
        1   -1    0    0  501    0  0.00000000000E+00  0.00000000000E+00  0.12400973153E+04  0.12400973153E+04  0.50400001928E-02 0. -1.
       -1   -1    0    0    0  501  0.00000000000E+00  0.00000000000E+00 -0.70626704289E+03  0.70626704291E+03  0.50400001928E-02 0.  1.
    10030    2    1    2    0    0  0.00000000000E+00  0.00000000000E+00  0.53383027242E+03  0.19463643582E+04  0.18717263302E+04 0.  0.
        4    1    3    3  502    0  0.89475205448E+03  0.64620454198E+02  0.54415724647E+03  0.10492215037E+04  0.12699999809E+01 0.  1.
       -4    1    3    3    0  502 -0.89475205448E+03 -0.64620454198E+02 -0.10326974044E+02  0.89714285451E+03  0.12699999809E+01 0. -1.
</event>
<event>
 5   0  0.1336899E-05  0.2894286E+04  0.7818609E-02  0.8274580E-01
        2   -1    0    0  501    0  0.00000000000E+00  0.00000000000E+00  0.10204830780E+04  0.10204830780E+04  0.25500000920E-02 0. -1.
       -2   -1    0    0    0  501  0.00000000000E+00  0.00000000000E+00 -0.20521872947E+04  0.20521872947E+04  0.25500000920E-02 0.  1.
    10030    2    1    2    0    0  0.00000000000E+00  0.00000000000E+00 -0.10317042167E+04  0.30726703727E+04  0.28942856854E+04 0.  0.
        1    1    3    3  502    0 -0.90947805642E+03  0.11256346833E+04 -0.51126962471E+03  0.15347965352E+04  0.50400001928E-02 0. -1.
       -1    1    3    3    0  502  0.90947805642E+03 -0.11256346833E+04 -0.52043459199E+03  0.15378738375E+04  0.50400001928E-02 0.  1.
</event>
<event>
 5   0  0.5059249E-06  0.2895534E+04  0.7818609E-02  0.8274208E-01
        1   -1    0    0  501    0  0.00000000000E+00  0.00000000000E+00  0.21351851261E+04  0.21351851261E+04  0.50400001928E-02 0. -1.
       -1   -1    0    0    0  501  0.00000000000E+00  0.00000000000E+00 -0.98166144071E+03  0.98166144072E+03  0.50400001928E-02 0.  1.
    10030    2    1    2    0    0  0.00000000000E+00  0.00000000000E+00  0.11535236854E+04  0.31168465669E+04  0.28955337381E+04 0.  0.
        1    1    3    3  502    0 -0.11526297064E+04 -0.48621069602E+02 -0.36479953650E+03  0.12099578300E+04  0.50400001928E-02 0. -1.
       -1    1    3    3    0  502  0.11526297064E+04  0.48621069602E+02  0.15183232219E+04  0.19068887369E+04  0.50400001928E-02 0.  1.
</event>
<event>
 5   0  0.5002240E-06  0.2853238E+04  0.7818609E-02  0.8286928E-01
        1   -1    0    0  501    0  0.00000000000E+00  0.00000000000E+00  0.15437800257E+04  0.15437800257E+04  0.50400001928E-02 0.  1.
       -1   -1    0    0    0  501  0.00000000000E+00  0.00000000000E+00 -0.13183494148E+04  0.13183494148E+04  0.50400001928E-02 0. -1.
    10030    2    1    2    0    0  0.00000000000E+00  0.00000000000E+00  0.22543061098E+03  0.28621294405E+04  0.28532378053E+04 0.  0.
        4    1    3    3  502    0  0.88228708767E+03 -0.51110867664E+02  0.12361147103E+04  0.15195473062E+04  0.12699999809E+01 0.  1.
       -4    1    3    3    0  502 -0.88228708767E+03  0.51110867664E+02 -0.10106840993E+04  0.13425821343E+04  0.12699999809E+01 0. -1.
</event>
<event>
 5   0  0.1382803E-05  0.2914277E+04  0.7818609E-02  0.8268642E-01
        2   -1    0    0  501    0  0.00000000000E+00  0.00000000000E+00  0.25787286700E+04  0.25787286700E+04  0.25500000920E-02 0. -1.
       -2   -1    0    0    0  501  0.00000000000E+00  0.00000000000E+00 -0.82337200781E+03  0.82337200781E+03  0.25500000920E-02 0.  1.
    10030    2    1    2    0    0  0.00000000000E+00  0.00000000000E+00  0.17553566622E+04  0.34021006778E+04  0.29142772707E+04 0.  0.
        2    1    3    3  502    0 -0.31110386192E+03 -0.12583598700E+04  0.10068535942E+03  0.13001510362E+04  0.25500000920E-02 0.  1.
       -2    1    3    3    0  502  0.31110386192E+03  0.12583598700E+04  0.16546713027E+04  0.21019496415E+04  0.25500000920E-02 0. -1.
</event>
<event>
 5   0  0.1382803E-05  0.2377047E+04  0.7818609E-02  0.8448147E-01
        2   -1    0    0  501    0  0.00000000000E+00  0.00000000000E+00  0.76901229995E+03  0.76901229995E+03  0.25500000920E-02 0. -1.
       -2   -1    0    0    0  501  0.00000000000E+00  0.00000000000E+00 -0.18368867585E+04  0.18368867585E+04  0.25500000920E-02 0.  1.
    10030    2    1    2    0    0  0.00000000000E+00  0.00000000000E+00 -0.10678744586E+04  0.26058990585E+04  0.23770473373E+04 0.  0.
        2    1    3    3  502    0 -0.40358717749E+03 -0.46202884614E+03 -0.16498980269E+04  0.17602604249E+04  0.25500000920E-02 0.  1.
       -2    1    3    3    0  502  0.40358717749E+03  0.46202884614E+03  0.58202356829E+03  0.84563863355E+03  0.25500000920E-02 0. -1.
</event>
<event>
 5   0  0.1339837E-05  0.2855834E+04  0.7818609E-02  0.8286141E-01
       -2   -1    0    0    0  501  0.00000000000E+00  0.00000000000E+00  0.80614666389E+03  0.80614666390E+03  0.25500000920E-02 0. -1.
        2   -1    0    0  501    0  0.00000000000E+00  0.00000000000E+00 -0.25292506927E+04  0.25292506927E+04  0.25500000920E-02 0.  1.
    10030    2    1    2    0    0  0.00000000000E+00  0.00000000000E+00 -0.17231040288E+04  0.33353973566E+04  0.28558340345E+04 0.  0.
        5    1    3    3  502    0  0.13968777270E+04  0.38797895325E+02 -0.51874638471E+03  0.14906014097E+04  0.46999998093E+01 0. -1.
       -5    1    3    3    0  502 -0.13968777270E+04 -0.38797895325E+02 -0.12043576441E+04  0.18447959469E+04  0.46999998093E+01 0.  1.
</event>
<event>
 5   0  0.1336899E-05  0.2924549E+04  0.7818609E-02  0.8265611E-01
        2   -1    0    0  501    0  0.00000000000E+00  0.00000000000E+00  0.21429444600E+04  0.21429444600E+04  0.25500000920E-02 0. -1.
       -2   -1    0    0    0  501  0.00000000000E+00  0.00000000000E+00 -0.99780773304E+03  0.99780773305E+03  0.25500000920E-02 0.  1.
    10030    2    1    2    0    0  0.00000000000E+00  0.00000000000E+00  0.11451367269E+04  0.31407521930E+04  0.29245488908E+04 0.  0.
        1    1    3    3  502    0 -0.71802041936E+03  0.12479919098E+04  0.29832888905E+03  0.14703867708E+04  0.50400001928E-02 0.  1.
       -1    1    3    3    0  502  0.71802041936E+03 -0.12479919098E+04  0.84680783789E+03  0.16703654223E+04  0.50400001928E-02 0. -1.
</event>
<event>
 5   0  0.5154476E-06  0.2919252E+04  0.7818609E-02  0.8267172E-01
       -1   -1    0    0    0  501  0.00000000000E+00  0.00000000000E+00  0.11423500619E+04  0.11423500619E+04  0.50400001928E-02 0.  1.
        1   -1    0    0  501    0  0.00000000000E+00  0.00000000000E+00 -0.18650223884E+04  0.18650223884E+04  0.50400001928E-02 0. -1.
    10030    2    1    2    0    0  0.00000000000E+00  0.00000000000E+00 -0.72267232650E+03  0.30073724503E+04  0.29192522610E+04 0.  0.
        3    1    3    3  502    0 -0.41291100982E+03  0.16008444233E+03  0.10714690422E+04  0.11593827881E+04  0.10100000352E+00 0.  1.
       -3    1    3    3    0  502  0.41291100982E+03 -0.16008444233E+03 -0.17941413687E+04  0.18479896623E+04  0.10100000352E+00 0. -1.
</event>
<event>
 5   0  0.1307832E-05  0.2870211E+04  0.7818609E-02  0.8281796E-01
        2   -1    0    0  501    0  0.00000000000E+00  0.00000000000E+00  0.17311230304E+04  0.17311230304E+04  0.25500000920E-02 0.  1.
       -2   -1    0    0    0  501  0.00000000000E+00  0.00000000000E+00 -0.11897060139E+04  0.11897060139E+04  0.25500000920E-02 0. -1.
    10030    2    1    2    0    0  0.00000000000E+00  0.00000000000E+00  0.54141701655E+03  0.29208290443E+04  0.28702107798E+04 0.  0.
        4    1    3    3  502    0 -0.12164331435E+04  0.75937730687E+03  0.32793530004E+03  0.14710223182E+04  0.12699999809E+01 0.  1.
       -4    1    3    3    0  502  0.12164331435E+04 -0.75937730687E+03  0.21348171651E+03  0.14498067261E+04  0.12699999809E+01 0. -1.
</event>
<event>
 5   0  0.1339837E-05  0.2871567E+04  0.7818609E-02  0.8281388E-01
       -2   -1    0    0    0  501  0.00000000000E+00  0.00000000000E+00  0.11954279949E+04  0.11954279949E+04  0.25500000920E-02 0.  1.
        2   -1    0    0  501    0  0.00000000000E+00  0.00000000000E+00 -0.17244649119E+04  0.17244649119E+04  0.25500000920E-02 0. -1.
    10030    2    1    2    0    0  0.00000000000E+00  0.00000000000E+00 -0.52903691699E+03  0.29198929068E+04  0.28715665633E+04 0.  0.
        5    1    3    3  502    0 -0.10429240022E+04  0.24791586165E+03 -0.12357361515E+04  0.16359152408E+04  0.46999998093E+01 0. -1.
       -5    1    3    3    0  502  0.10429240022E+04 -0.24791586165E+03  0.70669923448E+03  0.12839776660E+04  0.46999998093E+01 0.  1.
</event>
<event>
 5   0  0.1336899E-05  0.2081513E+04  0.7818609E-02  0.8569431E-01
        2   -1    0    0  501    0  0.00000000000E+00  0.00000000000E+00  0.18090300257E+04  0.18090300257E+04  0.25500000920E-02 0.  1.
       -2   -1    0    0    0  501  0.00000000000E+00  0.00000000000E+00 -0.59875936803E+03  0.59875936804E+03  0.25500000920E-02 0. -1.
    10030    2    1    2    0    0  0.00000000000E+00  0.00000000000E+00  0.12102706577E+04  0.24077893938E+04  0.20815125990E+04 0.  0.
        1    1    3    3  502    0  0.10157878667E+04  0.22654570279E+03  0.61100284707E+03  0.12068439935E+04  0.50400001928E-02 0.  1.
       -1    1    3    3    0  502 -0.10157878667E+04 -0.22654570279E+03  0.59926781064E+03  0.12009454003E+04  0.50400001928E-02 0. -1.
</event>
<event>
 5   0  0.5059249E-06  0.2142210E+04  0.7818609E-02  0.8542874E-01
        1   -1    0    0  501    0  0.00000000000E+00  0.00000000000E+00  0.16041827404E+04  0.16041827404E+04  0.50400001928E-02 0. -1.
       -1   -1    0    0    0  501  0.00000000000E+00  0.00000000000E+00 -0.71517157281E+03  0.71517157283E+03  0.50400001928E-02 0.  1.
    10030    2    1    2    0    0  0.00000000000E+00  0.00000000000E+00  0.88901116760E+03  0.23193543133E+04  0.21422099744E+04 0.  0.
        1    1    3    3  502    0 -0.84098627117E+03  0.21678226545E+03  0.11232538907E+04  0.14198421609E+04  0.50400001928E-02 0. -1.
       -1    1    3    3    0  502  0.84098627117E+03 -0.21678226545E+03 -0.23424272307E+03  0.89951215236E+03  0.50400001928E-02 0.  1.
</event>
<event>
 5   0  0.4590125E-06  0.2731689E+04  0.7818609E-02  0.8324796E-01
        4   -1    0    0  501    0  0.00000000000E+00  0.00000000000E+00  0.19433896092E+04  0.19433900242E+04  0.12699999809E+01 0.  1.
       -4   -1    0    0    0  501  0.00000000000E+00  0.00000000000E+00 -0.95993596979E+03  0.95993680990E+03  0.12699999809E+01 0. -1.
    10030    2    1    2    0    0  0.00000000000E+00  0.00000000000E+00  0.98345363940E+03  0.29033268341E+04  0.27316891559E+04 0.  0.
        1    1    3    3  502    0 -0.47346770347E+02 -0.13588423338E+04  0.62963806059E+03  0.14983785544E+04  0.50400001928E-02 0. -1.
       -1    1    3    3    0  502  0.47346770347E+02  0.13588423338E+04  0.35381557881E+03  0.14049482797E+04  0.50400001928E-02 0.  1.
</event>
<event>
 5   0  0.5352212E-06  0.2757693E+04  0.7818609E-02  0.8316525E-01
       -1   -1    0    0    0  501  0.00000000000E+00  0.00000000000E+00  0.83291268908E+03  0.83291268910E+03  0.50400001928E-02 0.  1.
        1   -1    0    0  501    0  0.00000000000E+00  0.00000000000E+00 -0.22826140644E+04  0.22826140644E+04  0.50400001928E-02 0. -1.
    10030    2    1    2    0    0  0.00000000000E+00  0.00000000000E+00 -0.14497013753E+04  0.31155267535E+04  0.27576933974E+04 0.  0.
        2    1    3    3  502    0  0.12263395876E+04  0.48891175214E+03 -0.11743109496E+04  0.17669039849E+04  0.25500000920E-02 0.  1.
       -2    1    3    3    0  502 -0.12263395876E+04 -0.48891175214E+03 -0.27539042573E+03  0.13486227686E+04  0.25500000920E-02 0. -1.
</event>
<event>
 5   0  0.1382803E-05  0.2883366E+04  0.7818609E-02  0.8277844E-01
       -2   -1    0    0    0  501  0.00000000000E+00  0.00000000000E+00  0.11752697530E+04  0.11752697530E+04  0.25500000920E-02 0.  1.
        2   -1    0    0  501    0  0.00000000000E+00  0.00000000000E+00 -0.17684876647E+04  0.17684876647E+04  0.25500000920E-02 0. -1.
    10030    2    1    2    0    0  0.00000000000E+00  0.00000000000E+00 -0.59321791163E+03  0.29437574177E+04  0.28833661307E+04 0.  0.
        2    1    3    3  502    0 -0.68705939488E+03 -0.74243109519E+03 -0.13453510379E+04  0.16832183335E+04  0.25500000920E-02 0. -1.
       -2    1    3    3    0  502  0.68705939488E+03  0.74243109519E+03  0.75213312623E+03  0.12605390842E+04  0.25500000920E-02 0.  1.
</event>
<event>
 5   0  0.1307832E-05  0.2852530E+04  0.7818609E-02  0.8287143E-01
        2   -1    0    0  501    0  0.00000000000E+00  0.00000000000E+00  0.16744559787E+04  0.16744559787E+04  0.25500000920E-02 0.  1.
       -2   -1    0    0    0  501  0.00000000000E+00  0.00000000000E+00 -0.12148610007E+04  0.12148610007E+04  0.25500000920E-02 0. -1.
    10030    2    1    2    0    0  0.00000000000E+00  0.00000000000E+00  0.45959497806E+03  0.28893169794E+04  0.28525295903E+04 0.  0.
        4    1    3    3  502    0 -0.10353692952E+04  0.11938365665E+02  0.12233128498E+04  0.16026939956E+04  0.12699999809E+01 0.  1.
       -4    1    3    3    0  502  0.10353692952E+04 -0.11938365665E+02 -0.76371787176E+03  0.12866229838E+04  0.12699999809E+01 0. -1.
</event>
<event>
 5   0  0.1339837E-05  0.3004323E+04  0.7818609E-02  0.8242498E-01
       -2   -1    0    0    0  501  0.00000000000E+00  0.00000000000E+00  0.20313295461E+04  0.20313295461E+04  0.25500000920E-02 0.  1.
        2   -1    0    0  501    0  0.00000000000E+00  0.00000000000E+00 -0.11108431775E+04  0.11108431775E+04  0.25500000920E-02 0. -1.
    10030    2    1    2    0    0  0.00000000000E+00  0.00000000000E+00  0.92048636860E+03  0.31421727236E+04  0.30043225976E+04 0.  0.
        5    1    3    3  502    0  0.48631540386E+03 -0.93311240185E+03  0.15814702942E+04  0.18995451582E+04  0.46999998093E+01 0.  1.
       -5    1    3    3    0  502 -0.48631540386E+03  0.93311240185E+03 -0.66098392560E+03  0.12426275654E+04  0.46999998093E+01 0. -1.
</event>
<event>
 5   0  0.5002240E-06  0.2823620E+04  0.7818609E-02  0.8295973E-01
        1   -1    0    0  501    0  0.00000000000E+00  0.00000000000E+00  0.13391495134E+04  0.13391495134E+04  0.50400001928E-02 0. -1.
       -1   -1    0    0    0  501  0.00000000000E+00  0.00000000000E+00 -0.14884128167E+04  0.14884128168E+04  0.50400001928E-02 0.  1.
    10030    2    1    2    0    0  0.00000000000E+00  0.00000000000E+00 -0.14926330337E+03  0.28275623301E+04  0.28236198748E+04 0.  0.
        4    1    3    3  502    0 -0.72492225596E+03 -0.38385809199E+03 -0.12252992811E+04  0.14745233986E+04  0.12699999809E+01 0.  1.
       -4    1    3    3    0  502  0.72492225596E+03  0.38385809199E+03  0.10760359777E+04  0.13530389315E+04  0.12699999809E+01 0. -1.
</event>
<event>
 5   0  0.5002240E-06  0.2869301E+04  0.7818609E-02  0.8282070E-01
       -1   -1    0    0    0  501  0.00000000000E+00  0.00000000000E+00  0.13387661601E+04  0.13387661601E+04  0.50400001928E-02 0. -1.
        1   -1    0    0  501    0  0.00000000000E+00  0.00000000000E+00 -0.15374022982E+04  0.15374022982E+04  0.50400001928E-02 0.  1.
    10030    2    1    2    0    0  0.00000000000E+00  0.00000000000E+00 -0.19863613816E+03  0.28761684583E+04  0.28693010795E+04 0.  0.
        4    1    3    3  502    0  0.18618784969E+03 -0.13463925984E+04 -0.55952648908E+03  0.14698674938E+04  0.12699999809E+01 0.  1.
       -4    1    3    3    0  502 -0.18618784969E+03  0.13463925984E+04  0.36089035092E+03  0.14063009645E+04  0.12699999809E+01 0. -1.
</event>
<event>
 5   0  0.1382803E-05  0.2704033E+04  0.7818609E-02  0.8333697E-01
       -2   -1    0    0    0  501  0.00000000000E+00  0.00000000000E+00  0.28841764338E+04  0.28841764338E+04  0.25500000920E-02 0. -1.
        2   -1    0    0  501    0  0.00000000000E+00  0.00000000000E+00 -0.63378545085E+03  0.63378545085E+03  0.25500000920E-02 0.  1.
    10030    2    1    2    0    0  0.00000000000E+00  0.00000000000E+00  0.22503909830E+04  0.35179618847E+04  0.27040333293E+04 0.  0.
        2    1    3    3  502    0  0.10048731082E+04 -0.49367707463E+03  0.21112700617E+04  0.23897590446E+04  0.25500000920E-02 0. -1.
       -2    1    3    3    0  502 -0.10048731082E+04  0.49367707463E+03  0.13912092126E+03  0.11282028401E+04  0.25500000920E-02 0.  1.
</event>
<event>
 5   0  0.1336899E-05  0.2890550E+04  0.7818609E-02  0.8275695E-01
       -2   -1    0    0    0  501  0.00000000000E+00  0.00000000000E+00  0.11915800392E+04  0.11915800392E+04  0.25500000920E-02 0. -1.
        2   -1    0    0  501    0  0.00000000000E+00  0.00000000000E+00 -0.17529828942E+04  0.17529828942E+04  0.25500000920E-02 0.  1.
    10030    2    1    2    0    0  0.00000000000E+00  0.00000000000E+00 -0.56140285492E+03  0.29445629334E+04  0.28905497234E+04 0.  0.
        1    1    3    3  502    0  0.13221337445E+04 -0.42653852949E+03  0.12530177041E+03  0.13948739330E+04  0.50400001928E-02 0.  1.
       -1    1    3    3    0  502 -0.13221337445E+04  0.42653852949E+03 -0.68670462533E+03  0.15496890004E+04  0.50400001928E-02 0. -1.
</event>
<event>
 5   0  0.1307832E-05  0.2872309E+04  0.7818609E-02  0.8281164E-01
        2   -1    0    0  501    0  0.00000000000E+00  0.00000000000E+00  0.19302728300E+04  0.19302728300E+04  0.25500000920E-02 0. -1.
       -2   -1    0    0    0  501  0.00000000000E+00  0.00000000000E+00 -0.10685224040E+04  0.10685224040E+04  0.25500000920E-02 0.  1.
    10030    2    1    2    0    0  0.00000000000E+00  0.00000000000E+00  0.86175042599E+03  0.29987952341E+04  0.28723090118E+04 0.  0.
        4    1    3    3  502    0  0.53331446252E+03 -0.11973020869E+04 -0.18198532826E+03  0.13232826138E+04  0.12699999809E+01 0.  1.
       -4    1    3    3    0  502 -0.53331446252E+03  0.11973020869E+04  0.10437357542E+04  0.16755126203E+04  0.12699999809E+01 0. -1.
</event>
<event>
 5   0  0.5352212E-06  0.2842650E+04  0.7818609E-02  0.8290148E-01
       -1   -1    0    0    0  501  0.00000000000E+00  0.00000000000E+00  0.12944129618E+04  0.12944129618E+04  0.50400001928E-02 0. -1.
        1   -1    0    0  501    0  0.00000000000E+00  0.00000000000E+00 -0.15606804336E+04  0.15606804337E+04  0.50400001928E-02 0.  1.
    10030    2    1    2    0    0  0.00000000000E+00  0.00000000000E+00 -0.26626747185E+03  0.28550933955E+04  0.28426501597E+04 0.  0.
        2    1    3    3  502    0 -0.86405366709E+03 -0.11268853724E+04 -0.19427384422E+03  0.14332486555E+04  0.25500000920E-02 0. -1.
       -2    1    3    3    0  502  0.86405366709E+03  0.11268853724E+04 -0.71993627629E+02  0.14218447399E+04  0.25500000920E-02 0.  1.
</event>
<event>
 5   0  0.1339837E-05  0.2839923E+04  0.7818609E-02  0.8290980E-01
        2   -1    0    0  501    0  0.00000000000E+00  0.00000000000E+00  0.32472399833E+04  0.32472399833E+04  0.25500000920E-02 0. -1.
       -2   -1    0    0    0  501  0.00000000000E+00  0.00000000000E+00 -0.62092423690E+03  0.62092423691E+03  0.25500000920E-02 0.  1.
    10030    2    1    2    0    0  0.00000000000E+00  0.00000000000E+00  0.26263157464E+04  0.38681642202E+04  0.28399225403E+04 0.  0.
        5    1    3    3  502    0  0.84093766910E+01 -0.78381738350E+03  0.29258285828E+04  0.30290155817E+04  0.46999998093E+01 0. -1.
       -5    1    3    3    0  502 -0.84093766910E+01  0.78381738350E+03 -0.29951283643E+03  0.83914863848E+03  0.46999998093E+01 0.  1.
</event>
<event>
 5   0  0.5002240E-06  0.2035239E+04  0.7818609E-02  0.8590320E-01
       -1   -1    0    0    0  501  0.00000000000E+00  0.00000000000E+00  0.16146395774E+04  0.16146395774E+04  0.50400001928E-02 0. -1.
        1   -1    0    0  501    0  0.00000000000E+00  0.00000000000E+00 -0.64135010357E+03  0.64135010359E+03  0.50400001928E-02 0.  1.
    10030    2    1    2    0    0  0.00000000000E+00  0.00000000000E+00  0.97328947384E+03  0.22559896810E+04  0.20352388167E+04 0.  0.
        4    1    3    3  502    0 -0.35072350573E+03  0.47695803098E+02 -0.57091726935E+03  0.67173656179E+03  0.12699999809E+01 0.  1.
       -4    1    3    3    0  502  0.35072350573E+03 -0.47695803098E+02  0.15442067432E+04  0.15842531192E+04  0.12699999809E+01 0. -1.
</event>
<event>
 5   0  0.5059249E-06  0.2829230E+04  0.7818609E-02  0.8294251E-01
       -1   -1    0    0    0  501  0.00000000000E+00  0.00000000000E+00  0.77145944368E+03  0.77145944370E+03  0.50400001928E-02 0.  1.
        1   -1    0    0  501    0  0.00000000000E+00  0.00000000000E+00 -0.25939601718E+04  0.25939601718E+04  0.50400001928E-02 0. -1.
    10030    2    1    2    0    0  0.00000000000E+00  0.00000000000E+00 -0.18225007281E+04  0.33654196155E+04  0.28292296274E+04 0.  0.
        1    1    3    3  502    0  0.24376773197E+03 -0.10119044804E+04 -0.20508071879E+04  0.22998224946E+04  0.50400001928E-02 0. -1.
       -1    1    3    3    0  502 -0.24376773197E+03  0.10119044804E+04  0.22830645980E+03  0.10655971209E+04  0.50400001928E-02 0.  1.
</event>
<event>
 5   0  0.5059249E-06  0.2927030E+04  0.7818609E-02  0.8264880E-01
        1   -1    0    0  501    0  0.00000000000E+00  0.00000000000E+00  0.22409012128E+04  0.22409012128E+04  0.50400001928E-02 0. -1.
       -1   -1    0    0    0  501  0.00000000000E+00  0.00000000000E+00 -0.95581004195E+03  0.95581004197E+03  0.50400001928E-02 0.  1.
    10030    2    1    2    0    0  0.00000000000E+00  0.00000000000E+00  0.12850911709E+04  0.31967112548E+04  0.29270298135E+04 0.  0.
        1    1    3    3  502    0 -0.16148570049E+03  0.44199702749E+03  0.21560241789E+04  0.22067802935E+04  0.50400001928E-02 0. -1.
       -1    1    3    3    0  502  0.16148570049E+03 -0.44199702749E+03 -0.87093300799E+03  0.98993096133E+03  0.50400001928E-02 0.  1.
</event>
<event>
 5   0  0.5352212E-06  0.2872289E+04  0.7818609E-02  0.8281170E-01
       -1   -1    0    0    0  501  0.00000000000E+00  0.00000000000E+00  0.12770140817E+04  0.12770140817E+04  0.50400001928E-02 0.  1.
        1   -1    0    0  501    0  0.00000000000E+00  0.00000000000E+00 -0.16151048041E+04  0.16151048041E+04  0.50400001928E-02 0. -1.
    10030    2    1    2    0    0  0.00000000000E+00  0.00000000000E+00 -0.33809072240E+03  0.28921188858E+04  0.28722893853E+04 0.  0.
        2    1    3    3  502    0 -0.11426794238E+04 -0.35075111803E+02 -0.10442787526E+04  0.15483748391E+04  0.25500000920E-02 0. -1.
       -2    1    3    3    0  502  0.11426794238E+04  0.35075111803E+02  0.70618803018E+03  0.13437440467E+04  0.25500000920E-02 0.  1.
</event>
<event>
 5   0  0.5059249E-06  0.2828022E+04  0.7818609E-02  0.8294621E-01
        1   -1    0    0  501    0  0.00000000000E+00  0.00000000000E+00  0.24997249817E+04  0.24997249817E+04  0.50400001928E-02 0. -1.
       -1   -1    0    0    0  501  0.00000000000E+00  0.00000000000E+00 -0.79985901311E+03  0.79985901312E+03  0.50400001928E-02 0.  1.
    10030    2    1    2    0    0  0.00000000000E+00  0.00000000000E+00  0.16998659686E+04  0.32995839949E+04  0.28280223174E+04 0.  0.
        1    1    3    3  502    0 -0.10724197091E+04  0.51079060990E+03  0.17449394018E+04  0.21108776838E+04  0.50400001928E-02 0. -1.
       -1    1    3    3    0  502  0.10724197091E+04 -0.51079060990E+03 -0.45073433227E+02  0.11887063111E+04  0.50400001928E-02 0.  1.
</event>
<event>
 5   0  0.1336899E-05  0.2844314E+04  0.7818609E-02  0.8289641E-01
       -2   -1    0    0    0  501  0.00000000000E+00  0.00000000000E+00  0.13426312873E+04  0.13426312873E+04  0.25500000920E-02 0.  1.
        2   -1    0    0  501    0  0.00000000000E+00  0.00000000000E+00 -0.15063928681E+04  0.15063928681E+04  0.25500000920E-02 0. -1.
    10030    2    1    2    0    0  0.00000000000E+00  0.00000000000E+00 -0.16376158077E+03  0.28490241554E+04  0.28443137630E+04 0.  0.
        1    1    3    3  502    0 -0.14039216646E+04  0.19979791675E+03 -0.18983193665E+03  0.14307170972E+04  0.50400001928E-02 0.  1.
       -1    1    3    3    0  502  0.14039216646E+04 -0.19979791675E+03  0.26070355883E+02  0.14183070582E+04  0.50400001928E-02 0. -1.
</event>
<event>
 5   0  0.5059249E-06  0.2871927E+04  0.7818609E-02  0.8281279E-01
       -1   -1    0    0    0  501  0.00000000000E+00  0.00000000000E+00  0.10951731710E+04  0.10951731710E+04  0.50400001928E-02 0.  1.
        1   -1    0    0  501    0  0.00000000000E+00  0.00000000000E+00 -0.18827989024E+04  0.18827989024E+04  0.50400001928E-02 0. -1.
    10030    2    1    2    0    0  0.00000000000E+00  0.00000000000E+00 -0.78762573143E+03  0.29779720735E+04  0.28719267709E+04 0.  0.
        1    1    3    3  502    0  0.87195654917E+03  0.32926220289E+03 -0.15265168861E+04  0.17885680377E+04  0.50400001928E-02 0. -1.
       -1    1    3    3    0  502 -0.87195654917E+03 -0.32926220289E+03  0.73889115465E+03  0.11894040358E+04  0.50400001928E-02 0.  1.
</event>
<event>
 5   0  0.1307832E-05  0.2708411E+04  0.7818609E-02  0.8332281E-01
       -2   -1    0    0    0  501  0.00000000000E+00  0.00000000000E+00  0.11863295957E+04  0.11863295957E+04  0.25500000920E-02 0.  1.
        2   -1    0    0  501    0  0.00000000000E+00  0.00000000000E+00 -0.15458377202E+04  0.15458377202E+04  0.25500000920E-02 0. -1.
    10030    2    1    2    0    0  0.00000000000E+00  0.00000000000E+00 -0.35950812447E+03  0.27321673159E+04  0.27084113703E+04 0.  0.
        4    1    3    3  502    0  0.41585687782E+03 -0.12787918601E+04 -0.34123895244E+03  0.13873324042E+04  0.12699999809E+01 0. -1.
       -4    1    3    3    0  502 -0.41585687782E+03  0.12787918601E+04 -0.18269172034E+02  0.13448349117E+04  0.12699999809E+01 0.  1.
</event>
<event>
 5   0  0.1385669E-05  0.2860009E+04  0.7818609E-02  0.8284876E-01
       -2   -1    0    0    0  501  0.00000000000E+00  0.00000000000E+00  0.14019779933E+04  0.14019779933E+04  0.25500000920E-02 0.  1.
        2   -1    0    0  501    0  0.00000000000E+00  0.00000000000E+00 -0.14585913335E+04  0.14585913335E+04  0.25500000920E-02 0. -1.
    10030    2    1    2    0    0  0.00000000000E+00  0.00000000000E+00 -0.56613340224E+02  0.28605693268E+04  0.28600090564E+04 0.  0.
        3    1    3    3  502    0  0.17435758425E+03 -0.14190783719E+04 -0.13023490684E+01  0.14297502226E+04  0.10100000352E+00 0. -1.
       -3    1    3    3    0  502 -0.17435758425E+03  0.14190783719E+04 -0.55310991155E+02  0.14308191041E+04  0.10100000352E+00 0.  1.
</event>
<event>
 5   0  0.1382803E-05  0.2922104E+04  0.7818609E-02  0.8266331E-01
       -2   -1    0    0    0  501  0.00000000000E+00  0.00000000000E+00  0.10907034564E+04  0.10907034564E+04  0.25500000920E-02 0.  1.
        2   -1    0    0  501    0  0.00000000000E+00  0.00000000000E+00 -0.19571529540E+04  0.19571529540E+04  0.25500000920E-02 0. -1.
    10030    2    1    2    0    0  0.00000000000E+00  0.00000000000E+00 -0.86644949764E+03  0.30478564104E+04  0.29221043730E+04 0.  0.
        2    1    3    3  502    0 -0.12294809443E+04 -0.40485732981E+03 -0.11399842362E+04  0.17248469233E+04  0.25500000920E-02 0. -1.
       -2    1    3    3    0  502  0.12294809443E+04  0.40485732981E+03  0.27353473860E+03  0.13230094871E+04  0.25500000920E-02 0.  1.
</event>
<event>
 5   0  0.5261878E-06  0.2957811E+04  0.7818609E-02  0.8255882E-01
       -1   -1    0    0    0  501  0.00000000000E+00  0.00000000000E+00  0.14973498542E+04  0.14973498542E+04  0.50400001928E-02 0.  1.
        1   -1    0    0  501    0  0.00000000000E+00  0.00000000000E+00 -0.14606879710E+04  0.14606879710E+04  0.50400001928E-02 0. -1.
    10030    2    1    2    0    0  0.00000000000E+00  0.00000000000E+00  0.36661883285E+02  0.29580378252E+04  0.29578106230E+04 0.  0.
        5    1    3    3  502    0  0.10063420496E+04  0.10724473992E+04  0.17413471041E+03  0.14809499425E+04  0.46999998093E+01 0.  1.
       -5    1    3    3    0  502 -0.10063420496E+04 -0.10724473992E+04 -0.13747282712E+03  0.14770878827E+04  0.46999998093E+01 0. -1.
</event>
<event>
 5   0  0.5059249E-06  0.3017111E+04  0.7818609E-02  0.8238861E-01
        1   -1    0    0  501    0  0.00000000000E+00  0.00000000000E+00  0.19204002129E+04  0.19204002129E+04  0.50400001928E-02 0. -1.
       -1   -1    0    0    0  501  0.00000000000E+00  0.00000000000E+00 -0.11850344701E+04  0.11850344701E+04  0.50400001928E-02 0.  1.
    10030    2    1    2    0    0  0.00000000000E+00  0.00000000000E+00  0.73536574275E+03  0.31054346830E+04  0.30171114986E+04 0.  0.
        1    1    3    3  502    0 -0.61437853041E+03  0.86311289998E+03 -0.73768063137E+03  0.12909676877E+04  0.50400001928E-02 0.  1.
       -1    1    3    3    0  502  0.61437853041E+03 -0.86311289998E+03  0.14730463741E+04  0.18144669953E+04  0.50400001928E-02 0. -1.
</event>
<event>
 5   0  0.1307832E-05  0.2937622E+04  0.7818609E-02  0.8261771E-01
       -2   -1    0    0    0  501  0.00000000000E+00  0.00000000000E+00  0.91873130039E+03  0.91873130040E+03  0.25500000920E-02 0. -1.
        2   -1    0    0  501    0  0.00000000000E+00  0.00000000000E+00 -0.23482449046E+04  0.23482449046E+04  0.25500000920E-02 0.  1.
    10030    2    1    2    0    0  0.00000000000E+00  0.00000000000E+00 -0.14295136042E+04  0.32669762050E+04  0.29376222323E+04 0.  0.
        4    1    3    3  502    0  0.66223511360E+03 -0.11114380830E+03  0.73803267836E+03  0.99779864654E+03  0.12699999809E+01 0. -1.
       -4    1    3    3    0  502 -0.66223511360E+03  0.11114380830E+03 -0.21675462826E+04  0.22691775585E+04  0.12699999809E+01 0.  1.
</event>
<event>
 5   0  0.1307832E-05  0.2838919E+04  0.7818609E-02  0.8291286E-01
        2   -1    0    0  501    0  0.00000000000E+00  0.00000000000E+00  0.14687591092E+04  0.14687591092E+04  0.25500000920E-02 0. -1.
       -2   -1    0    0    0  501  0.00000000000E+00  0.00000000000E+00 -0.13718144421E+04  0.13718144421E+04  0.25500000920E-02 0.  1.
    10030    2    1    2    0    0  0.00000000000E+00  0.00000000000E+00  0.96944667103E+02  0.28405735512E+04  0.28389187786E+04 0.  0.
        4    1    3    3  502    0  0.52214149583E+03  0.11419339671E+04 -0.61389420524E+03  0.13976811636E+04  0.12699999809E+01 0. -1.
       -4    1    3    3    0  502 -0.52214149583E+03 -0.11419339671E+04  0.71083887234E+03  0.14428923876E+04  0.12699999809E+01 0.  1.
</event>
<event>
 5   0  0.1339837E-05  0.2898894E+04  0.7818609E-02  0.8273207E-01
       -2   -1    0    0    0  501  0.00000000000E+00  0.00000000000E+00  0.10764937722E+04  0.10764937722E+04  0.25500000920E-02 0.  1.
        2   -1    0    0  501    0  0.00000000000E+00  0.00000000000E+00 -0.19516102569E+04  0.19516102569E+04  0.25500000920E-02 0. -1.
    10030    2    1    2    0    0  0.00000000000E+00  0.00000000000E+00 -0.87511648473E+03  0.30281040291E+04  0.28988937803E+04 0.  0.
        5    1    3    3  502    0  0.62347321093E+03 -0.10532913964E+04 -0.12485208403E+04  0.17484187111E+04  0.46999998093E+01 0. -1.
       -5    1    3    3    0  502 -0.62347321093E+03  0.10532913964E+04  0.37340435555E+03  0.12796853181E+04  0.46999998093E+01 0.  1.
</event>
<event>
 5   0  0.1385669E-05  0.2961757E+04  0.7818609E-02  0.8254736E-01
       -2   -1    0    0    0  501  0.00000000000E+00  0.00000000000E+00  0.80315457695E+03  0.80315457695E+03  0.25500000920E-02 0. -1.
        2   -1    0    0  501    0  0.00000000000E+00  0.00000000000E+00 -0.27304853944E+04  0.27304853944E+04  0.25500000920E-02 0.  1.
    10030    2    1    2    0    0  0.00000000000E+00  0.00000000000E+00 -0.19273308174E+04  0.35336399713E+04  0.29617574795E+04 0.  0.
        3    1    3    3  502    0  0.14190394860E+04 -0.17570731295E+02 -0.45886043212E+03  0.14914874119E+04  0.10100000352E+00 0. -1.
       -3    1    3    3    0  502 -0.14190394860E+04  0.17570731295E+02 -0.14684703853E+04  0.20421525595E+04  0.10100000352E+00 0.  1.
</event>
<event>
 5   0  0.1307832E-05  0.2910636E+04  0.7818609E-02  0.8269720E-01
        2   -1    0    0  501    0  0.00000000000E+00  0.00000000000E+00  0.23185095411E+04  0.23185095411E+04  0.25500000920E-02 0. -1.
       -2   -1    0    0    0  501  0.00000000000E+00  0.00000000000E+00 -0.91349627410E+03  0.91349627411E+03  0.25500000920E-02 0.  1.
    10030    2    1    2    0    0  0.00000000000E+00  0.00000000000E+00  0.14050132670E+04  0.32320058152E+04  0.29106355507E+04 0.  0.
        4    1    3    3  502    0  0.88429144130E+03  0.85090988432E+03 -0.16612352390E+03  0.12383931615E+04  0.12699999809E+01 0.  1.
       -4    1    3    3    0  502 -0.88429144130E+03 -0.85090988432E+03  0.15711367909E+04  0.19936126537E+04  0.12699999809E+01 0. -1.
</event>
<event>
 5   0  0.5261878E-06  0.1905873E+04  0.7818609E-02  0.8651938E-01
       -1   -1    0    0    0  501  0.00000000000E+00  0.00000000000E+00  0.57268129817E+03  0.57268129819E+03  0.50400001928E-02 0.  1.
        1   -1    0    0  501    0  0.00000000000E+00  0.00000000000E+00 -0.15856781613E+04  0.15856781613E+04  0.50400001928E-02 0. -1.
    10030    2    1    2    0    0  0.00000000000E+00  0.00000000000E+00 -0.10129968631E+04  0.21583594595E+04  0.19058732675E+04 0.  0.
        5    1    3    3  502    0  0.73848999704E+03  0.48965870489E+03 -0.10943122283E+03  0.89282159782E+03  0.46999998093E+01 0.  1.
       -5    1    3    3    0  502 -0.73848999704E+03 -0.48965870489E+03 -0.90356564028E+03  0.12655378617E+04  0.46999998093E+01 0. -1.
</event>
<event>
 5   0  0.5352212E-06  0.2894045E+04  0.7818609E-02  0.8274652E-01
        1   -1    0    0  501    0  0.00000000000E+00  0.00000000000E+00  0.15765861327E+04  0.15765861327E+04  0.50400001928E-02 0. -1.
       -1   -1    0    0    0  501  0.00000000000E+00  0.00000000000E+00 -0.13281062489E+04  0.13281062489E+04  0.50400001928E-02 0.  1.
    10030    2    1    2    0    0  0.00000000000E+00  0.00000000000E+00  0.24847988381E+03  0.29046923815E+04  0.28940448474E+04 0.  0.
        2    1    3    3  502    0 -0.92370449325E+03  0.68253933254E+03  0.10076965027E+04  0.15279208661E+04  0.25500000920E-02 0. -1.
       -2    1    3    3    0  502  0.92370449325E+03 -0.68253933254E+03 -0.75921661894E+03  0.13767715155E+04  0.25500000920E-02 0.  1.
</event>
<event>
 5   0  0.1307832E-05  0.2814144E+04  0.7818609E-02  0.8298891E-01
       -2   -1    0    0    0  501  0.00000000000E+00  0.00000000000E+00  0.91698908005E+03  0.91698908005E+03  0.25500000920E-02 0.  1.
        2   -1    0    0  501    0  0.00000000000E+00  0.00000000000E+00 -0.21590788471E+04  0.21590788471E+04  0.25500000920E-02 0. -1.
    10030    2    1    2    0    0  0.00000000000E+00  0.00000000000E+00 -0.12420897671E+04  0.30760679272E+04  0.28141440800E+04 0.  0.
        4    1    3    3  502    0 -0.12571016054E+04 -0.27587181378E+03  0.60625200933E+00  0.12870165828E+04  0.12699999809E+01 0.  1.
       -4    1    3    3    0  502  0.12571016054E+04  0.27587181378E+03 -0.12426960191E+04  0.17890513444E+04  0.12699999809E+01 0. -1.
</event>
<event>
 5   0  0.1385669E-05  0.2880511E+04  0.7818609E-02  0.8278700E-01
       -2   -1    0    0    0  501  0.00000000000E+00  0.00000000000E+00  0.17413520582E+04  0.17413520582E+04  0.25500000920E-02 0. -1.
        2   -1    0    0  501    0  0.00000000000E+00  0.00000000000E+00 -0.11912210551E+04  0.11912210551E+04  0.25500000920E-02 0.  1.
    10030    2    1    2    0    0  0.00000000000E+00  0.00000000000E+00  0.55013100312E+03  0.29325731133E+04  0.28805105354E+04 0.  0.
        3    1    3    3  502    0 -0.12781068268E+04  0.48981133995E+03  0.73134333491E+03  0.15518812111E+04  0.10100000352E+00 0. -1.
       -3    1    3    3    0  502  0.12781068268E+04 -0.48981133995E+03 -0.18121233179E+03  0.13806919023E+04  0.10100000352E+00 0.  1.
</event>
<event>
 5   0  0.5261878E-06  0.2928708E+04  0.7818609E-02  0.8264387E-01
        1   -1    0    0  501    0  0.00000000000E+00  0.00000000000E+00  0.15565073542E+04  0.15565073542E+04  0.50400001928E-02 0.  1.
       -1   -1    0    0    0  501  0.00000000000E+00  0.00000000000E+00 -0.13776566961E+04  0.13776566961E+04  0.50400001928E-02 0. -1.
    10030    2    1    2    0    0  0.00000000000E+00  0.00000000000E+00  0.17885065808E+03  0.29341640502E+04  0.29287080967E+04 0.  0.
        5    1    3    3  502    0  0.47590910730E+03  0.23959811979E+03  0.14559362213E+04  0.15503770857E+04  0.46999998093E+01 0.  1.
       -5    1    3    3    0  502 -0.47590910730E+03 -0.23959811979E+03 -0.12770855632E+04  0.13837869645E+04  0.46999998093E+01 0. -1.
</event>
<event>
 5   0  0.1382803E-05  0.2034132E+04  0.7818609E-02  0.8590827E-01
       -2   -1    0    0    0  501  0.00000000000E+00  0.00000000000E+00  0.71331228846E+03  0.71331228846E+03  0.25500000920E-02 0.  1.
        2   -1    0    0  501    0  0.00000000000E+00  0.00000000000E+00 -0.14501691563E+04  0.14501691563E+04  0.25500000920E-02 0. -1.
    10030    2    1    2    0    0  0.00000000000E+00  0.00000000000E+00 -0.73685686784E+03  0.21634814448E+04  0.20341322273E+04 0.  0.
        2    1    3    3  502    0  0.13471670218E+03 -0.37464534322E+03  0.62698881866E+03  0.74271306827E+03  0.25500000920E-02 0.  1.
       -2    1    3    3    0  502 -0.13471670218E+03  0.37464534322E+03 -0.13638456865E+04  0.14207683765E+04  0.25500000920E-02 0. -1.
</event>
<event>
 5   0  0.1307832E-05  0.2850049E+04  0.7818609E-02  0.8287896E-01
       -2   -1    0    0    0  501  0.00000000000E+00  0.00000000000E+00  0.93662087895E+03  0.93662087896E+03  0.25500000920E-02 0.  1.
        2   -1    0    0  501    0  0.00000000000E+00  0.00000000000E+00 -0.21681072522E+04  0.21681072522E+04  0.25500000920E-02 0. -1.
    10030    2    1    2    0    0  0.00000000000E+00  0.00000000000E+00 -0.12314863733E+04  0.31047281312E+04  0.28500487857E+04 0.  0.
        4    1    3    3  502    0  0.12531015472E+04  0.52694906664E+03 -0.15004467680E+03  0.13676453576E+04  0.12699999809E+01 0.  1.
       -4    1    3    3    0  502 -0.12531015472E+04 -0.52694906664E+03 -0.10814416965E+04  0.17370827735E+04  0.12699999809E+01 0. -1.
</event>
<event>
 5   0  0.5059249E-06  0.2944114E+04  0.7818609E-02  0.8259872E-01
       -1   -1    0    0    0  501  0.00000000000E+00  0.00000000000E+00  0.10676861307E+04  0.10676861308E+04  0.50400001928E-02 0.  1.
        1   -1    0    0  501    0  0.00000000000E+00  0.00000000000E+00 -0.20295780839E+04  0.20295780839E+04  0.50400001928E-02 0. -1.
    10030    2    1    2    0    0  0.00000000000E+00  0.00000000000E+00 -0.96189195313E+03  0.30972642146E+04  0.29441143806E+04 0.  0.
        1    1    3    3  502    0  0.94126238172E+03  0.10915581049E+04 -0.79563579396E+03  0.16463627438E+04  0.50400001928E-02 0. -1.
       -1    1    3    3    0  502 -0.94126238172E+03 -0.10915581049E+04 -0.16625615917E+03  0.14509014708E+04  0.50400001928E-02 0.  1.
</event>
<event>
 5   0  0.1382803E-05  0.2145430E+04  0.7818609E-02  0.8541491E-01
        2   -1    0    0  501    0  0.00000000000E+00  0.00000000000E+00  0.18230788152E+04  0.18230788152E+04  0.25500000920E-02 0. -1.
       -2   -1    0    0    0  501  0.00000000000E+00  0.00000000000E+00 -0.63119453225E+03  0.63119453225E+03  0.25500000920E-02 0.  1.
    10030    2    1    2    0    0  0.00000000000E+00  0.00000000000E+00  0.11918842830E+04  0.24542733475E+04  0.21454299150E+04 0.  0.
        2    1    3    3  502    0 -0.91815648145E+03 -0.52668074929E+03  0.39677107959E+03  0.11304119717E+04  0.25500000920E-02 0. -1.
       -2    1    3    3    0  502  0.91815648145E+03  0.52668074929E+03  0.79511320338E+03  0.13238613758E+04  0.25500000920E-02 0.  1.
</event>
<event>
 5   0  0.5261878E-06  0.2841471E+04  0.7818609E-02  0.8290508E-01
        1   -1    0    0  501    0  0.00000000000E+00  0.00000000000E+00  0.16626757840E+04  0.16626757840E+04  0.50400001928E-02 0.  1.
       -1   -1    0    0    0  501  0.00000000000E+00  0.00000000000E+00 -0.12140007912E+04  0.12140007912E+04  0.50400001928E-02 0. -1.
    10030    2    1    2    0    0  0.00000000000E+00  0.00000000000E+00  0.44867499288E+03  0.28766765752E+04  0.28414712508E+04 0.  0.
        5    1    3    3  502    0 -0.13668683711E+04  0.10776873913E+03 -0.15246249277E+03  0.13795688264E+04  0.46999998093E+01 0.  1.
       -5    1    3    3    0  502  0.13668683711E+04 -0.10776873913E+03  0.60113748565E+03  0.14971077488E+04  0.46999998093E+01 0. -1.
</event>
<event>
 5   0  0.4590125E-06  0.2870543E+04  0.7818609E-02  0.8281696E-01
        3   -1    0    0  501    0  0.00000000000E+00  0.00000000000E+00  0.11388990241E+04  0.11388990286E+04  0.10100000352E+00 0. -1.
       -3   -1    0    0    0  501  0.00000000000E+00  0.00000000000E+00 -0.18087687546E+04  0.18087687574E+04  0.10100000352E+00 0.  1.
    10030    2    1    2    0    0  0.00000000000E+00  0.00000000000E+00 -0.66986973049E+03  0.29476677860E+04  0.28705434888E+04 0.  0.
        3    1    3    3  502    0 -0.74667091378E+03  0.12122740763E+04 -0.14873719801E+03  0.14315197008E+04  0.10100000352E+00 0.  1.
       -3    1    3    3    0  502  0.74667091378E+03 -0.12122740763E+04 -0.52113253247E+03  0.15161480852E+04  0.10100000352E+00 0. -1.
</event>
<event>
 5   0  0.5059249E-06  0.3013903E+04  0.7818609E-02  0.8239772E-01
        1   -1    0    0  501    0  0.00000000000E+00  0.00000000000E+00  0.15486096822E+04  0.15486096822E+04  0.50400001928E-02 0.  1.
       -1   -1    0    0    0  501  0.00000000000E+00  0.00000000000E+00 -0.14664137112E+04  0.14664137112E+04  0.50400001928E-02 0. -1.
    10030    2    1    2    0    0  0.00000000000E+00  0.00000000000E+00  0.82195970928E+02  0.30150233934E+04  0.30139027664E+04 0.  0.
        1    1    3    3  502    0 -0.88493848304E+03 -0.31317151511E+03 -0.11381999364E+04  0.14753615191E+04  0.50400001928E-02 0. -1.
       -1    1    3    3    0  502  0.88493848304E+03  0.31317151511E+03  0.12203959073E+04  0.15396618744E+04  0.50400001928E-02 0.  1.
</event>
<event>
 5   0  0.1339837E-05  0.3060599E+04  0.7818609E-02  0.8226635E-01
       -2   -1    0    0    0  501  0.00000000000E+00  0.00000000000E+00  0.13418618061E+04  0.13418618061E+04  0.25500000920E-02 0. -1.
        2   -1    0    0  501    0  0.00000000000E+00  0.00000000000E+00 -0.17451996075E+04  0.17451996075E+04  0.25500000920E-02 0.  1.
    10030    2    1    2    0    0  0.00000000000E+00  0.00000000000E+00 -0.40333780138E+03  0.30870614136E+04  0.30605990899E+04 0.  0.
        5    1    3    3  502    0  0.56409973331E+03  0.15884770386E+03 -0.16275226531E+04  0.17298246091E+04  0.46999998093E+01 0.  1.
       -5    1    3    3    0  502 -0.56409973331E+03 -0.15884770386E+03  0.12241848517E+04  0.13572368044E+04  0.46999998093E+01 0. -1.
</event>
<event>
 5   0  0.5261878E-06  0.2875287E+04  0.7818609E-02  0.8280269E-01
        1   -1    0    0  501    0  0.00000000000E+00  0.00000000000E+00  0.12143349155E+04  0.12143349156E+04  0.50400001928E-02 0.  1.
       -1   -1    0    0    0  501  0.00000000000E+00  0.00000000000E+00 -0.17020170936E+04  0.17020170936E+04  0.50400001928E-02 0. -1.
    10030    2    1    2    0    0  0.00000000000E+00  0.00000000000E+00 -0.48768217805E+03  0.29163520092E+04  0.28752869656E+04 0.  0.
        5    1    3    3  502    0  0.27212982623E+02 -0.14210383968E+04 -0.24638748406E+02  0.14215202529E+04  0.46999998093E+01 0. -1.
       -5    1    3    3    0  502 -0.27212982623E+02  0.14210383968E+04 -0.46304342965E+03  0.14948317562E+04  0.46999998093E+01 0.  1.
</event>
<event>
 5   0  0.1385669E-05  0.1857594E+04  0.7818609E-02  0.8676257E-01
       -2   -1    0    0    0  501  0.00000000000E+00  0.00000000000E+00  0.86187852058E+03  0.86187852059E+03  0.25500000920E-02 0. -1.
        2   -1    0    0  501    0  0.00000000000E+00  0.00000000000E+00 -0.10009115961E+04  0.10009115961E+04  0.25500000920E-02 0.  1.
    10030    2    1    2    0    0  0.00000000000E+00  0.00000000000E+00 -0.13903307556E+03  0.18627901167E+04  0.18575943645E+04 0.  0.
        3    1    3    3  502    0  0.86722618492E+03 -0.16988819958E+03  0.21715179144E+03  0.90999899280E+03  0.10100000352E+00 0.  1.
       -3    1    3    3    0  502 -0.86722618492E+03  0.16988819958E+03 -0.35618486700E+03  0.95279112393E+03  0.10100000352E+00 0. -1.
</event>
<event>
 5   0  0.5059249E-06  0.2903990E+04  0.7818609E-02  0.8271691E-01
        1   -1    0    0  501    0  0.00000000000E+00  0.00000000000E+00  0.10360103106E+04  0.10360103106E+04  0.50400001928E-02 0.  1.
       -1   -1    0    0    0  501  0.00000000000E+00  0.00000000000E+00 -0.20350078210E+04  0.20350078210E+04  0.50400001928E-02 0. -1.
    10030    2    1    2    0    0  0.00000000000E+00  0.00000000000E+00 -0.99899751036E+03  0.30710181316E+04  0.29039897278E+04 0.  0.
        1    1    3    3  502    0 -0.12915055520E+04 -0.58584802208E+03 -0.82900409176E+03  0.16426966488E+04  0.50400001928E-02 0. -1.
       -1    1    3    3    0  502  0.12915055520E+04  0.58584802208E+03 -0.16999341860E+03  0.14283214828E+04  0.50400001928E-02 0.  1.
</event>
<event>
 5   0  0.5154476E-06  0.2871411E+04  0.7818609E-02  0.8281435E-01
       -1   -1    0    0    0  501  0.00000000000E+00  0.00000000000E+00  0.18272798812E+04  0.18272798812E+04  0.50400001928E-02 0.  1.
        1   -1    0    0  501    0  0.00000000000E+00  0.00000000000E+00 -0.11280428244E+04  0.11280428244E+04  0.50400001928E-02 0. -1.
    10030    2    1    2    0    0  0.00000000000E+00  0.00000000000E+00  0.69923705684E+03  0.29553227056E+04  0.28714107739E+04 0.  0.
        3    1    3    3  502    0 -0.73085376093E+03 -0.37912696778E+03 -0.86091842232E+03  0.11912451543E+04  0.10100000352E+00 0. -1.
       -3    1    3    3    0  502  0.73085376093E+03  0.37912696778E+03  0.15601554792E+04  0.17640775513E+04  0.10100000352E+00 0.  1.
</event>
<event>
 5   0  0.1385669E-05  0.2920384E+04  0.7818609E-02  0.8266838E-01
       -2   -1    0    0    0  501  0.00000000000E+00  0.00000000000E+00  0.12021342208E+04  0.12021342208E+04  0.25500000920E-02 0. -1.
        2   -1    0    0  501    0  0.00000000000E+00  0.00000000000E+00 -0.17736462666E+04  0.17736462666E+04  0.25500000920E-02 0.  1.
    10030    2    1    2    0    0  0.00000000000E+00  0.00000000000E+00 -0.57151204575E+03  0.29757804874E+04  0.29203841341E+04 0.  0.
        3    1    3    3  502    0  0.77070716766E+03 -0.10558190040E+04 -0.94880459076E+03  0.16152317076E+04  0.10100000352E+00 0.  1.
       -3    1    3    3    0  502 -0.77070716766E+03  0.10558190040E+04  0.37729254501E+03  0.13605487798E+04  0.10100000352E+00 0. -1.
</event>
<event>
 5   0  0.1339837E-05  0.2908269E+04  0.7818609E-02  0.8270421E-01
        2   -1    0    0  501    0  0.00000000000E+00  0.00000000000E+00  0.27030205627E+04  0.27030205627E+04  0.25500000920E-02 0. -1.
       -2   -1    0    0    0  501  0.00000000000E+00  0.00000000000E+00 -0.78227564360E+03  0.78227564360E+03  0.25500000920E-02 0.  1.
    10030    2    1    2    0    0  0.00000000000E+00  0.00000000000E+00  0.19207449191E+04  0.34852962063E+04  0.29082690043E+04 0.  0.
        5    1    3    3  502    0 -0.23765124368E+02 -0.11739825563E+04 -0.67528187242E+02  0.11761725935E+04  0.46999998093E+01 0.  1.
       -5    1    3    3    0  502  0.23765124368E+02  0.11739825563E+04  0.19882731064E+04  0.23091236128E+04  0.46999998093E+01 0. -1.
</event>
<event>
 5   0  0.1339837E-05  0.2872441E+04  0.7818609E-02  0.8281125E-01
        2   -1    0    0  501    0  0.00000000000E+00  0.00000000000E+00  0.13185353664E+04  0.13185353664E+04  0.25500000920E-02 0. -1.
       -2   -1    0    0    0  501  0.00000000000E+00  0.00000000000E+00 -0.15644097243E+04  0.15644097243E+04  0.25500000920E-02 0.  1.
    10030    2    1    2    0    0  0.00000000000E+00  0.00000000000E+00 -0.24587435796E+03  0.28829450907E+04  0.28724411563E+04 0.  0.
        5    1    3    3  502    0  0.61776337403E+03 -0.11642196948E+04 -0.69569763168E+03  0.14903208946E+04  0.46999998093E+01 0. -1.
       -5    1    3    3    0  502 -0.61776337403E+03  0.11642196948E+04  0.44982327372E+03  0.13926241962E+04  0.46999998093E+01 0.  1.
</event>
<event>
 5   0  0.5002240E-06  0.2969032E+04  0.7818609E-02  0.8252630E-01
        1   -1    0    0  501    0  0.00000000000E+00  0.00000000000E+00  0.13285362370E+04  0.13285362370E+04  0.50400001928E-02 0. -1.
       -1   -1    0    0    0  501  0.00000000000E+00  0.00000000000E+00 -0.16588089961E+04  0.16588089961E+04  0.50400001928E-02 0.  1.
    10030    2    1    2    0    0  0.00000000000E+00  0.00000000000E+00 -0.33027275905E+03  0.29873452331E+04  0.29690320723E+04 0.  0.
        4    1    3    3  502    0 -0.12349911139E+04 -0.49528715139E+03  0.49715904909E+03  0.14204510364E+04  0.12699999809E+01 0.  1.
       -4    1    3    3    0  502  0.12349911139E+04  0.49528715139E+03 -0.82743180814E+03  0.15668941967E+04  0.12699999809E+01 0. -1.
</event>
<event>
 5   0  0.5261878E-06  0.2919996E+04  0.7818609E-02  0.8266953E-01
       -1   -1    0    0    0  501  0.00000000000E+00  0.00000000000E+00  0.81324796310E+03  0.81324796311E+03  0.50400001928E-02 0.  1.
        1   -1    0    0  501    0  0.00000000000E+00  0.00000000000E+00 -0.26210877848E+04  0.26210877848E+04  0.50400001928E-02 0. -1.
    10030    2    1    2    0    0  0.00000000000E+00  0.00000000000E+00 -0.18078398217E+04  0.34343357479E+04  0.29199960973E+04 0.  0.
        5    1    3    3  502    0 -0.65478809391E+03  0.11599083711E+04 -0.20074974512E+03  0.13470179759E+04  0.46999998093E+01 0.  1.
       -5    1    3    3    0  502  0.65478809391E+03 -0.11599083711E+04 -0.16070900766E+04  0.20873177720E+04  0.46999998093E+01 0. -1.
</event>
<event>
 5   0  0.5002240E-06  0.1843023E+04  0.7818609E-02  0.8683749E-01
        1   -1    0    0  501    0  0.00000000000E+00  0.00000000000E+00  0.10630815175E+04  0.10630815176E+04  0.50400001928E-02 0. -1.
       -1   -1    0    0    0  501  0.00000000000E+00  0.00000000000E+00 -0.79879441918E+03  0.79879441919E+03  0.50400001928E-02 0.  1.
    10030    2    1    2    0    0  0.00000000000E+00  0.00000000000E+00  0.26428709837E+03  0.18618759368E+04  0.18430231506E+04 0.  0.
        4    1    3    3  502    0 -0.18368002477E+03  0.71572002308E+02  0.10415300721E+04  0.10600223615E+04  0.12699999809E+01 0. -1.
       -4    1    3    3    0  502  0.18368002477E+03 -0.71572002308E+02 -0.77724297370E+03  0.80185357522E+03  0.12699999809E+01 0.  1.
</event>
<event>
 5   0  0.5059249E-06  0.2471505E+04  0.7818609E-02  0.8413208E-01
        1   -1    0    0  501    0  0.00000000000E+00  0.00000000000E+00  0.21552569353E+04  0.21552569353E+04  0.50400001928E-02 0.  1.
       -1   -1    0    0    0  501  0.00000000000E+00  0.00000000000E+00 -0.70853909132E+03  0.70853909134E+03  0.50400001928E-02 0. -1.
    10030    2    1    2    0    0  0.00000000000E+00  0.00000000000E+00  0.14467178439E+04  0.28637960266E+04  0.24715046353E+04 0.  0.
        1    1    3    3  502    0 -0.86309922243E+02 -0.10628063729E+04 -0.33650050991E+00  0.10663052576E+04  0.50400001928E-02 0. -1.
       -1    1    3    3    0  502  0.86309922243E+02  0.10628063729E+04  0.14470543445E+04  0.17974907691E+04  0.50400001928E-02 0.  1.
</event>
<event>
 5   0  0.5002240E-06  0.2918412E+04  0.7818609E-02  0.8267420E-01
       -1   -1    0    0    0  501  0.00000000000E+00  0.00000000000E+00  0.14362383571E+04  0.14362383571E+04  0.50400001928E-02 0.  1.
        1   -1    0    0  501    0  0.00000000000E+00  0.00000000000E+00 -0.14825409812E+04  0.14825409812E+04  0.50400001928E-02 0. -1.
    10030    2    1    2    0    0  0.00000000000E+00  0.00000000000E+00 -0.46302624080E+02  0.29187793384E+04  0.29184120499E+04 0.  0.
        4    1    3    3  502    0  0.87389832311E+03 -0.35666328564E+03 -0.11361137353E+04  0.14770453652E+04  0.12699999809E+01 0. -1.
       -4    1    3    3    0  502 -0.87389832311E+03  0.35666328564E+03  0.10898111112E+04  0.14417339732E+04  0.12699999809E+01 0.  1.
</event>
<event>
 5   0  0.1385669E-05  0.2960737E+04  0.7818609E-02  0.8255032E-01
        2   -1    0    0  501    0  0.00000000000E+00  0.00000000000E+00  0.25873534305E+04  0.25873534305E+04  0.25500000920E-02 0. -1.
       -2   -1    0    0    0  501  0.00000000000E+00  0.00000000000E+00 -0.84700082875E+03  0.84700082875E+03  0.25500000920E-02 0.  1.
    10030    2    1    2    0    0  0.00000000000E+00  0.00000000000E+00  0.17403526018E+04  0.34343542593E+04  0.29607367326E+04 0.  0.
        3    1    3    3  502    0  0.35975267562E+03  0.84055258714E+02  0.25330204719E+04  0.25598203053E+04  0.10100000352E+00 0. -1.
       -3    1    3    3    0  502 -0.35975267562E+03 -0.84055258714E+02 -0.79266787013E+03  0.87453395398E+03  0.10100000352E+00 0.  1.
</event>
<event>
 5   0  0.1339837E-05  0.2905390E+04  0.7818609E-02  0.8271276E-01
       -2   -1    0    0    0  501  0.00000000000E+00  0.00000000000E+00  0.16309093353E+04  0.16309093353E+04  0.25500000920E-02 0.  1.
        2   -1    0    0  501    0  0.00000000000E+00  0.00000000000E+00 -0.12939543955E+04  0.12939543955E+04  0.25500000920E-02 0. -1.
    10030    2    1    2    0    0  0.00000000000E+00  0.00000000000E+00  0.33695493977E+03  0.29248637307E+04  0.29053896833E+04 0.  0.
        5    1    3    3  502    0 -0.56706685185E+03 -0.12609586639E+04 -0.28028916178E+03  0.14107323172E+04  0.46999998093E+01 0. -1.
       -5    1    3    3    0  502  0.56706685185E+03  0.12609586639E+04  0.61724410155E+03  0.15141314135E+04  0.46999998093E+01 0.  1.
</event>
<event>
 5   0  0.1339837E-05  0.2885803E+04  0.7818609E-02  0.8277114E-01
       -2   -1    0    0    0  501  0.00000000000E+00  0.00000000000E+00  0.18483754224E+04  0.18483754224E+04  0.25500000920E-02 0.  1.
        2   -1    0    0  501    0  0.00000000000E+00  0.00000000000E+00 -0.11263755164E+04  0.11263755164E+04  0.25500000920E-02 0. -1.
    10030    2    1    2    0    0  0.00000000000E+00  0.00000000000E+00  0.72199990602E+03  0.29747509388E+04  0.28858030569E+04 0.  0.
        5    1    3    3  502    0  0.99934452744E+03  0.77695743938E+03 -0.35287008481E+03  0.13141125271E+04  0.46999998093E+01 0. -1.
       -5    1    3    3    0  502 -0.99934452744E+03 -0.77695743938E+03  0.10748699908E+04  0.16606384117E+04  0.46999998093E+01 0.  1.
</event>
<event>
 5   0  0.5059249E-06  0.2895089E+04  0.7818609E-02  0.8274340E-01
       -1   -1    0    0    0  501  0.00000000000E+00  0.00000000000E+00  0.94748238523E+03  0.94748238524E+03  0.50400001928E-02 0. -1.
        1   -1    0    0  501    0  0.00000000000E+00  0.00000000000E+00 -0.22115300392E+04  0.22115300392E+04  0.50400001928E-02 0.  1.
    10030    2    1    2    0    0  0.00000000000E+00  0.00000000000E+00 -0.12640476539E+04  0.31590124244E+04  0.28950894677E+04 0.  0.
        1    1    3    3  502    0  0.13082300772E+03  0.98734047176E+03  0.51417963705E+03  0.11208642048E+04  0.50400001928E-02 0.  1.
       -1    1    3    3    0  502 -0.13082300772E+03 -0.98734047176E+03 -0.17782272910E+04  0.20381482196E+04  0.50400001928E-02 0. -1.
</event>
<event>
 5   0  0.1336899E-05  0.2898708E+04  0.7818609E-02  0.8273262E-01
        2   -1    0    0  501    0  0.00000000000E+00  0.00000000000E+00  0.26657514668E+04  0.26657514668E+04  0.25500000920E-02 0.  1.
       -2   -1    0    0    0  501  0.00000000000E+00  0.00000000000E+00 -0.78800579097E+03  0.78800579098E+03  0.25500000920E-02 0. -1.
    10030    2    1    2    0    0  0.00000000000E+00  0.00000000000E+00  0.18777456758E+04  0.34537572578E+04  0.28987083973E+04 0.  0.
        1    1    3    3  502    0 -0.85673669204E+03 -0.97939498345E+03  0.17836105152E+03  0.13134020549E+04  0.50400001928E-02 0. -1.
       -1    1    3    3    0  502  0.85673669204E+03  0.97939498345E+03  0.16993846243E+04  0.21403552029E+04  0.50400001928E-02 0.  1.
</event>
<event>
 5   0  0.1336899E-05  0.2914368E+04  0.7818609E-02  0.8268615E-01
        2   -1    0    0  501    0  0.00000000000E+00  0.00000000000E+00  0.15142360896E+04  0.15142360896E+04  0.25500000920E-02 0.  1.
       -2   -1    0    0    0  501  0.00000000000E+00  0.00000000000E+00 -0.14022816777E+04  0.14022816777E+04  0.25500000920E-02 0. -1.
    10030    2    1    2    0    0  0.00000000000E+00  0.00000000000E+00  0.11195441197E+03  0.29165177673E+04  0.29143682157E+04 0.  0.
        1    1    3    3  502    0  0.42438249499E+03  0.35898780195E+03 -0.12920177055E+04  0.14065143068E+04  0.50400001928E-02 0. -1.
       -1    1    3    3    0  502 -0.42438249499E+03 -0.35898780195E+03  0.14039721175E+04  0.15100034605E+04  0.50400001928E-02 0.  1.
</event>
<event>
 5   0  0.5059249E-06  0.2499916E+04  0.7818609E-02  0.8403015E-01
       -1   -1    0    0    0  501  0.00000000000E+00  0.00000000000E+00  0.15180026534E+04  0.15180026534E+04  0.50400001928E-02 0. -1.
        1   -1    0    0  501    0  0.00000000000E+00  0.00000000000E+00 -0.10292439242E+04  0.10292439243E+04  0.50400001928E-02 0.  1.
    10030    2    1    2    0    0  0.00000000000E+00  0.00000000000E+00  0.48875872914E+03  0.25472465776E+04  0.24999160050E+04 0.  0.
        1    1    3    3  502    0 -0.34635984489E+03 -0.22476160490E+03  0.14465094699E+04  0.15042847362E+04  0.50400001928E-02 0. -1.
       -1    1    3    3    0  502  0.34635984489E+03  0.22476160490E+03 -0.95775074075E+03  0.10429618414E+04  0.50400001928E-02 0.  1.
</event>
<event>
 5   0  0.1307832E-05  0.2702711E+04  0.7818609E-02  0.8334126E-01
        2   -1    0    0  501    0  0.00000000000E+00  0.00000000000E+00  0.14325315150E+04  0.14325315150E+04  0.25500000920E-02 0.  1.
       -2   -1    0    0    0  501  0.00000000000E+00  0.00000000000E+00 -0.12747791511E+04  0.12747791512E+04  0.25500000920E-02 0. -1.
    10030    2    1    2    0    0  0.00000000000E+00  0.00000000000E+00  0.15775236386E+03  0.27073106662E+04  0.27027107198E+04 0.  0.
        4    1    3    3  502    0 -0.99215982361E+03 -0.18274701665E+03  0.97950715089E+03  0.14061342252E+04  0.12699999809E+01 0. -1.
       -4    1    3    3    0  502  0.99215982361E+03  0.18274701665E+03 -0.82175478703E+03  0.13011764410E+04  0.12699999809E+01 0.  1.
</event>
<event>
 5   0  0.5352212E-06  0.2757998E+04  0.7818609E-02  0.8316428E-01
        1   -1    0    0  501    0  0.00000000000E+00  0.00000000000E+00  0.15633133383E+04  0.15633133384E+04  0.50400001928E-02 0. -1.
       -1   -1    0    0    0  501  0.00000000000E+00  0.00000000000E+00 -0.12164150217E+04  0.12164150218E+04  0.50400001928E-02 0.  1.
    10030    2    1    2    0    0  0.00000000000E+00  0.00000000000E+00  0.34689831660E+03  0.27797283601E+04  0.27579977001E+04 0.  0.
        2    1    3    3  502    0  0.68093311451E+03 -0.10687767407E+04 -0.37460378946E+03  0.13214694953E+04  0.25500000920E-02 0. -1.
       -2    1    3    3    0  502 -0.68093311451E+03  0.10687767407E+04  0.72150210606E+03  0.14582588648E+04  0.25500000920E-02 0.  1.
</event>
<event>
 5   0  0.1382803E-05  0.2887320E+04  0.7818609E-02  0.8276660E-01
        2   -1    0    0  501    0  0.00000000000E+00  0.00000000000E+00  0.12278094733E+04  0.12278094733E+04  0.25500000920E-02 0. -1.
       -2   -1    0    0    0  501  0.00000000000E+00  0.00000000000E+00 -0.16974577337E+04  0.16974577337E+04  0.25500000920E-02 0.  1.
    10030    2    1    2    0    0  0.00000000000E+00  0.00000000000E+00 -0.46964826040E+03  0.29252672071E+04  0.28873203398E+04 0.  0.
        2    1    3    3  502    0  0.13448989025E+04  0.68770027132E+02  0.29227522915E+03  0.13780084122E+04  0.25500000920E-02 0.  1.
       -2    1    3    3    0  502 -0.13448989025E+04 -0.68770027132E+02 -0.76192348955E+03  0.15472587949E+04  0.25500000920E-02 0. -1.
</event>
<event>
 5   0  0.5059249E-06  0.2909132E+04  0.7818609E-02  0.8270166E-01
        1   -1    0    0  501    0  0.00000000000E+00  0.00000000000E+00  0.73093751360E+03  0.73093751362E+03  0.50400001928E-02 0. -1.
       -1   -1    0    0    0  501  0.00000000000E+00  0.00000000000E+00 -0.28945860959E+04  0.28945860959E+04  0.50400001928E-02 0.  1.
    10030    2    1    2    0    0  0.00000000000E+00  0.00000000000E+00 -0.21636485823E+04  0.36255236095E+04  0.29091315294E+04 0.  0.
        1    1    3    3  502    0  0.74027545002E+03  0.78783396833E+03 -0.22946510074E+04  0.25365554103E+04  0.50400001928E-02 0.  1.
       -1    1    3    3    0  502 -0.74027545002E+03 -0.78783396833E+03  0.13100242511E+03  0.10889681992E+04  0.50400001928E-02 0. -1.
</event>
<event>
 5   0  0.1382803E-05  0.3190769E+04  0.7818609E-02  0.8191259E-01
       -2   -1    0    0    0  501  0.00000000000E+00  0.00000000000E+00  0.15203872982E+04  0.15203872982E+04  0.25500000920E-02 0.  1.
        2   -1    0    0  501    0  0.00000000000E+00  0.00000000000E+00 -0.16740807386E+04  0.16740807386E+04  0.25500000920E-02 0. -1.
    10030    2    1    2    0    0  0.00000000000E+00  0.00000000000E+00 -0.15369344035E+03  0.31944680368E+04  0.31907686166E+04 0.  0.
        2    1    3    3  502    0  0.12215799809E+04 -0.95458692496E+03 -0.45378987924E+03  0.16153696486E+04  0.25500000920E-02 0. -1.
       -2    1    3    3    0  502 -0.12215799809E+04  0.95458692496E+03  0.30009643889E+03  0.15790983882E+04  0.25500000920E-02 0.  1.
</event>
<event>
 5   0  0.1339837E-05  0.2911773E+04  0.7818609E-02  0.8269383E-01
       -2   -1    0    0    0  501  0.00000000000E+00  0.00000000000E+00  0.20886157636E+04  0.20886157636E+04  0.25500000920E-02 0.  1.
        2   -1    0    0  501    0  0.00000000000E+00  0.00000000000E+00 -0.10148372248E+04  0.10148372248E+04  0.25500000920E-02 0. -1.
    10030    2    1    2    0    0  0.00000000000E+00  0.00000000000E+00  0.10737785388E+04  0.31034529884E+04  0.29117726733E+04 0.  0.
        5    1    3    3  502    0  0.51779759527E+03  0.18796968607E+03 -0.89946604848E+03  0.10547550497E+04  0.46999998093E+01 0. -1.
       -5    1    3    3    0  502 -0.51779759527E+03 -0.18796968607E+03  0.19732445873E+04  0.20486979387E+04  0.46999998093E+01 0.  1.
</event>
<event>
 5   0  0.1339837E-05  0.2875526E+04  0.7818609E-02  0.8280197E-01
       -2   -1    0    0    0  501  0.00000000000E+00  0.00000000000E+00  0.10292588138E+04  0.10292588138E+04  0.25500000920E-02 0.  1.
        2   -1    0    0  501    0  0.00000000000E+00  0.00000000000E+00 -0.20083987391E+04  0.20083987391E+04  0.25500000920E-02 0. -1.
    10030    2    1    2    0    0  0.00000000000E+00  0.00000000000E+00 -0.97913992535E+03  0.30376575529E+04  0.28755257633E+04 0.  0.
        5    1    3    3  502    0  0.10084341788E+04 -0.58848638141E+03 -0.13758524925E+04  0.18045076573E+04  0.46999998093E+01 0. -1.
       -5    1    3    3    0  502 -0.10084341788E+04  0.58848638141E+03  0.39671256710E+03  0.12331498956E+04  0.46999998093E+01 0.  1.
</event>
<event>
 5   0  0.1339837E-05  0.2901872E+04  0.7818609E-02  0.8272321E-01
       -2   -1    0    0    0  501  0.00000000000E+00  0.00000000000E+00  0.17346906651E+04  0.17346906651E+04  0.25500000920E-02 0.  1.
        2   -1    0    0  501    0  0.00000000000E+00  0.00000000000E+00 -0.12135967212E+04  0.12135967212E+04  0.25500000920E-02 0. -1.
    10030    2    1    2    0    0  0.00000000000E+00  0.00000000000E+00  0.52109394393E+03  0.29482873863E+04  0.29018717431E+04 0.  0.
        5    1    3    3  502    0  0.10531908124E+04  0.99758484442E+03  0.23169549937E+03  0.14690443505E+04  0.46999998093E+01 0. -1.
       -5    1    3    3    0  502 -0.10531908124E+04 -0.99758484442E+03  0.28939844455E+03  0.14792430358E+04  0.46999998093E+01 0.  1.
</event>
<event>
 5   0  0.5059249E-06  0.2915894E+04  0.7818609E-02  0.8268164E-01
       -1   -1    0    0    0  501  0.00000000000E+00  0.00000000000E+00  0.12103940712E+04  0.12103940712E+04  0.50400001928E-02 0.  1.
        1   -1    0    0  501    0  0.00000000000E+00  0.00000000000E+00 -0.17561301819E+04  0.17561301819E+04  0.50400001928E-02 0. -1.
    10030    2    1    2    0    0  0.00000000000E+00  0.00000000000E+00 -0.54573611064E+03  0.29665242531E+04  0.29158940725E+04 0.  0.
        1    1    3    3  502    0  0.17869958238E+03  0.14190692089E+04 -0.56047548065E+03  0.15361717758E+04  0.50400001928E-02 0. -1.
       -1    1    3    3    0  502 -0.17869958238E+03 -0.14190692089E+04  0.14739370009E+02  0.14303524773E+04  0.50400001928E-02 0.  1.
</event>
<event>
 5   0  0.5059249E-06  0.2820981E+04  0.7818609E-02  0.8296784E-01
        1   -1    0    0  501    0  0.00000000000E+00  0.00000000000E+00  0.19777626888E+04  0.19777626888E+04  0.50400001928E-02 0. -1.
       -1   -1    0    0    0  501  0.00000000000E+00  0.00000000000E+00 -0.10059265631E+04  0.10059265631E+04  0.50400001928E-02 0.  1.
    10030    2    1    2    0    0  0.00000000000E+00  0.00000000000E+00  0.97183612565E+03  0.29836892519E+04  0.28209814067E+04 0.  0.
        1    1    3    3  502    0 -0.86621452087E+01  0.38449002661E+03 -0.94940028933E+03  0.10243380901E+04  0.50400001928E-02 0.  1.
       -1    1    3    3    0  502  0.86621452087E+01 -0.38449002661E+03  0.19212364150E+04  0.19593511619E+04  0.50400001928E-02 0. -1.
</event>
<event>
 5   0  0.5154476E-06  0.2910421E+04  0.7818609E-02  0.8269784E-01
       -1   -1    0    0    0  501  0.00000000000E+00  0.00000000000E+00  0.15446970930E+04  0.15446970930E+04  0.50400001928E-02 0. -1.
        1   -1    0    0  501    0  0.00000000000E+00  0.00000000000E+00 -0.13709083186E+04  0.13709083186E+04  0.50400001928E-02 0.  1.
    10030    2    1    2    0    0  0.00000000000E+00  0.00000000000E+00  0.17378877438E+03  0.29156054117E+04  0.29104213404E+04 0.  0.
        3    1    3    3  502    0 -0.11345691924E+04 -0.33008395935E+03  0.93778084055E+03  0.15085209935E+04  0.10100000352E+00 0. -1.
       -3    1    3    3    0  502  0.11345691924E+04  0.33008395935E+03 -0.76399206617E+03  0.14070844182E+04  0.10100000352E+00 0.  1.
</event>
<event>
 5   0  0.1336899E-05  0.2937759E+04  0.7818609E-02  0.8261731E-01
        2   -1    0    0  501    0  0.00000000000E+00  0.00000000000E+00  0.14710595071E+04  0.14710595071E+04  0.25500000920E-02 0.  1.
       -2   -1    0    0    0  501  0.00000000000E+00  0.00000000000E+00 -0.14667029225E+04  0.14667029225E+04  0.25500000920E-02 0. -1.
    10030    2    1    2    0    0  0.00000000000E+00  0.00000000000E+00  0.43565846352E+01  0.29377624296E+04  0.29377591993E+04 0.  0.
        1    1    3    3  502    0 -0.32608658885E+03  0.10913592958E+04  0.92965421873E+03  0.14702566247E+04  0.50400001928E-02 0.  1.
       -1    1    3    3    0  502  0.32608658885E+03 -0.10913592958E+04 -0.92529763410E+03  0.14675058050E+04  0.50400001928E-02 0. -1.
</event>
<event>
 5   0  0.5261878E-06  0.2254436E+04  0.7818609E-02  0.8496106E-01
        1   -1    0    0  501    0  0.00000000000E+00  0.00000000000E+00  0.17355514213E+04  0.17355514213E+04  0.50400001928E-02 0. -1.
       -1   -1    0    0    0  501  0.00000000000E+00  0.00000000000E+00 -0.73211318278E+03  0.73211318279E+03  0.50400001928E-02 0.  1.
    10030    2    1    2    0    0  0.00000000000E+00  0.00000000000E+00  0.10034382385E+04  0.24676646041E+04  0.22544356943E+04 0.  0.
        5    1    3    3  502    0 -0.43683439901E+03 -0.83317890753E+03 -0.17796832374E+03  0.95744775229E+03  0.46999998093E+01 0.  1.
       -5    1    3    3    0  502  0.43683439901E+03  0.83317890753E+03  0.11814065622E+04  0.15102168518E+04  0.46999998093E+01 0. -1.
</event>
<event>
 5   0  0.1336899E-05  0.2862462E+04  0.7818609E-02  0.8284135E-01
       -2   -1    0    0    0  501  0.00000000000E+00  0.00000000000E+00  0.13621711948E+04  0.13621711948E+04  0.25500000920E-02 0.  1.
        2   -1    0    0  501    0  0.00000000000E+00  0.00000000000E+00 -0.15037916662E+04  0.15037916662E+04  0.25500000920E-02 0. -1.
    10030    2    1    2    0    0  0.00000000000E+00  0.00000000000E+00 -0.14162047142E+03  0.28659628610E+04  0.28624616613E+04 0.  0.
        1    1    3    3  502    0 -0.33149188912E+03  0.93824224865E+03  0.95915414841E+03  0.13820861298E+04  0.50400001928E-02 0.  1.
       -1    1    3    3    0  502  0.33149188912E+03 -0.93824224865E+03 -0.11007746198E+04  0.14838767312E+04  0.50400001928E-02 0. -1.
</event>
<event>
 5   0  0.1385669E-05  0.2698343E+04  0.7818609E-02  0.8335543E-01
        2   -1    0    0  501    0  0.00000000000E+00  0.00000000000E+00  0.13135644757E+04  0.13135644757E+04  0.25500000920E-02 0. -1.
       -2   -1    0    0    0  501  0.00000000000E+00  0.00000000000E+00 -0.13857442346E+04  0.13857442346E+04  0.25500000920E-02 0.  1.
    10030    2    1    2    0    0  0.00000000000E+00  0.00000000000E+00 -0.72179758850E+02  0.26993087103E+04  0.26983434910E+04 0.  0.
        3    1    3    3  502    0 -0.10855514824E+04 -0.33344205444E+03  0.69263398723E+03  0.13301682131E+04  0.10100000352E+00 0. -1.
       -3    1    3    3    0  502  0.10855514824E+04  0.33344205444E+03 -0.76481374608E+03  0.13691404972E+04  0.10100000352E+00 0.  1.
</event>
<event>
 5   0  0.1382803E-05  0.2916034E+04  0.7818609E-02  0.8268123E-01
       -2   -1    0    0    0  501  0.00000000000E+00  0.00000000000E+00  0.12289184028E+04  0.12289184028E+04  0.25500000920E-02 0.  1.
        2   -1    0    0  501    0  0.00000000000E+00  0.00000000000E+00 -0.17298247946E+04  0.17298247946E+04  0.25500000920E-02 0. -1.
    10030    2    1    2    0    0  0.00000000000E+00  0.00000000000E+00 -0.50090639178E+03  0.29587431974E+04  0.29160339667E+04 0.  0.
        2    1    3    3  502    0 -0.14199812994E+04 -0.56182187310E+02 -0.58128111337E+03  0.15353797777E+04  0.25500000920E-02 0. -1.
       -2    1    3    3    0  502  0.14199812994E+04  0.56182187310E+02  0.80374721586E+02  0.14233634198E+04  0.25500000920E-02 0.  1.
</event>
<event>
 5   0  0.5352212E-06  0.2803774E+04  0.7818609E-02  0.8302098E-01
       -1   -1    0    0    0  501  0.00000000000E+00  0.00000000000E+00  0.89980117501E+03  0.89980117503E+03  0.50400001928E-02 0.  1.
        1   -1    0    0  501    0  0.00000000000E+00  0.00000000000E+00 -0.21841348380E+04  0.21841348380E+04  0.50400001928E-02 0. -1.
    10030    2    1    2    0    0  0.00000000000E+00  0.00000000000E+00 -0.12843336630E+04  0.30839360130E+04  0.28037739521E+04 0.  0.
        2    1    3    3  502    0  0.13044362964E+04  0.17373543333E+03 -0.11060791634E+03  0.13205953821E+04  0.25500000920E-02 0.  1.
       -2    1    3    3    0  502 -0.13044362964E+04 -0.17373543333E+03 -0.11737257466E+04  0.17633406309E+04  0.25500000920E-02 0. -1.
</event>
<event>
 5   0  0.1339837E-05  0.2941513E+04  0.7818609E-02  0.8260632E-01
       -2   -1    0    0    0  501  0.00000000000E+00  0.00000000000E+00  0.11172846981E+04  0.11172846981E+04  0.25500000920E-02 0. -1.
        2   -1    0    0  501    0  0.00000000000E+00  0.00000000000E+00 -0.19360547178E+04  0.19360547178E+04  0.25500000920E-02 0.  1.
    10030    2    1    2    0    0  0.00000000000E+00  0.00000000000E+00 -0.81877001975E+03  0.30533394159E+04  0.29415127474E+04 0.  0.
        5    1    3    3  502    0  0.79475696321E+03  0.12263598650E+04 -0.58153648195E+03  0.15728330868E+04  0.46999998093E+01 0.  1.
       -5    1    3    3    0  502 -0.79475696321E+03 -0.12263598650E+04 -0.23723353780E+03  0.14805063291E+04  0.46999998093E+01 0. -1.
</event>
<event>
 5   0  0.5261878E-06  0.2845765E+04  0.7818609E-02  0.8289199E-01
        1   -1    0    0  501    0  0.00000000000E+00  0.00000000000E+00  0.13807236118E+04  0.13807236118E+04  0.50400001928E-02 0. -1.
       -1   -1    0    0    0  501  0.00000000000E+00  0.00000000000E+00 -0.14663291754E+04  0.14663291754E+04  0.50400001928E-02 0.  1.
    10030    2    1    2    0    0  0.00000000000E+00  0.00000000000E+00 -0.85605563635E+02  0.28470527872E+04  0.28457654964E+04 0.  0.
        5    1    3    3  502    0 -0.10822404084E+03  0.12111864662E+04 -0.78197942261E+03  0.14457520556E+04  0.46999998093E+01 0.  1.
       -5    1    3    3    0  502  0.10822404084E+03 -0.12111864662E+04  0.69637385897E+03  0.14013007316E+04  0.46999998093E+01 0. -1.
</event>
<event>
 5   0  0.1339837E-05  0.2875728E+04  0.7818609E-02  0.8280136E-01
       -2   -1    0    0    0  501  0.00000000000E+00  0.00000000000E+00  0.10881420488E+04  0.10881420488E+04  0.25500000920E-02 0.  1.
        2   -1    0    0  501    0  0.00000000000E+00  0.00000000000E+00 -0.18999842745E+04  0.18999842745E+04  0.25500000920E-02 0. -1.
    10030    2    1    2    0    0  0.00000000000E+00  0.00000000000E+00 -0.81184222566E+03  0.29881263233E+04  0.28757279296E+04 0.  0.
        5    1    3    3  502    0 -0.13516442774E+03 -0.13327808083E+04 -0.94869429078E+03  0.16415288767E+04  0.46999998093E+01 0. -1.
       -5    1    3    3    0  502  0.13516442774E+03  0.13327808083E+04  0.13685206512E+03  0.13465974467E+04  0.46999998093E+01 0.  1.
</event>
<event>
 5   0  0.1336899E-05  0.2889429E+04  0.7818609E-02  0.8276030E-01
       -2   -1    0    0    0  501  0.00000000000E+00  0.00000000000E+00  0.11282781545E+04  0.11282781545E+04  0.25500000920E-02 0.  1.
        2   -1    0    0  501    0  0.00000000000E+00  0.00000000000E+00 -0.18498987306E+04  0.18498987306E+04  0.25500000920E-02 0. -1.
    10030    2    1    2    0    0  0.00000000000E+00  0.00000000000E+00 -0.72162057616E+03  0.29781768851E+04  0.28894292348E+04 0.  0.
        1    1    3    3  502    0 -0.62908823350E+03 -0.31776539588E+03 -0.16606854372E+04  0.18040518212E+04  0.50400001928E-02 0. -1.
       -1    1    3    3    0  502  0.62908823350E+03  0.31776539588E+03  0.93906486104E+03  0.11741250639E+04  0.50400001928E-02 0.  1.
</event>
<event>
 5   0  0.1307832E-05  0.2949434E+04  0.7818609E-02  0.8258320E-01
       -2   -1    0    0    0  501  0.00000000000E+00  0.00000000000E+00  0.95002359555E+03  0.95002359556E+03  0.25500000920E-02 0. -1.
        2   -1    0    0  501    0  0.00000000000E+00  0.00000000000E+00 -0.22891958721E+04  0.22891958721E+04  0.25500000920E-02 0.  1.
    10030    2    1    2    0    0  0.00000000000E+00  0.00000000000E+00 -0.13391722766E+04  0.32392194677E+04  0.29494339073E+04 0.  0.
        4    1    3    3  502    0  0.54101045467E+03  0.43467076537E+03  0.75947360007E+03  0.10288016079E+04  0.12699999809E+01 0. -1.
       -4    1    3    3    0  502 -0.54101045467E+03 -0.43467076537E+03 -0.20986458767E+04  0.22104178598E+04  0.12699999809E+01 0.  1.
</event>
<event>
 5   0  0.5352212E-06  0.2899012E+04  0.7818609E-02  0.8273171E-01
       -1   -1    0    0    0  501  0.00000000000E+00  0.00000000000E+00  0.10128383439E+04  0.10128383439E+04  0.50400001928E-02 0. -1.
        1   -1    0    0  501    0  0.00000000000E+00  0.00000000000E+00 -0.20744359163E+04  0.20744359163E+04  0.50400001928E-02 0.  1.
    10030    2    1    2    0    0  0.00000000000E+00  0.00000000000E+00 -0.10615975724E+04  0.30872742602E+04  0.28990124098E+04 0.  0.
        2    1    3    3  502    0 -0.13087279413E+04  0.38104622331E+03 -0.10558727281E+04  0.17241903220E+04  0.25500000920E-02 0.  1.
       -2    1    3    3    0  502  0.13087279413E+04 -0.38104622331E+03 -0.57248442975E+01  0.13630839382E+04  0.25500000920E-02 0. -1.
</event>
<event>
 5   0  0.5352212E-06  0.2607721E+04  0.7818609E-02  0.8365583E-01
       -1   -1    0    0    0  501  0.00000000000E+00  0.00000000000E+00  0.12036026426E+04  0.12036026426E+04  0.50400001928E-02 0. -1.
        1   -1    0    0  501    0  0.00000000000E+00  0.00000000000E+00 -0.14124696004E+04  0.14124696004E+04  0.50400001928E-02 0.  1.
    10030    2    1    2    0    0  0.00000000000E+00  0.00000000000E+00 -0.20886695777E+03  0.26160722430E+04  0.26077209541E+04 0.  0.
        2    1    3    3  502    0 -0.85574923123E+03  0.15253737049E+03 -0.10793882776E+04  0.13858764194E+04  0.25500000920E-02 0.  1.
       -2    1    3    3    0  502  0.85574923123E+03 -0.15253737049E+03  0.87052131981E+03  0.12301958236E+04  0.25500000920E-02 0. -1.
</event>
<event>
 5   0  0.1339837E-05  0.2870694E+04  0.7818609E-02  0.8281651E-01
       -2   -1    0    0    0  501  0.00000000000E+00  0.00000000000E+00  0.12281771018E+04  0.12281771018E+04  0.25500000920E-02 0. -1.
        2   -1    0    0  501    0  0.00000000000E+00  0.00000000000E+00 -0.16774624701E+04  0.16774624701E+04  0.25500000920E-02 0.  1.
    10030    2    1    2    0    0  0.00000000000E+00  0.00000000000E+00 -0.44928536825E+03  0.29056395719E+04  0.28706939892E+04 0.  0.
        5    1    3    3  502    0 -0.10022650909E+04 -0.93715663110E+03 -0.65095995181E+03  0.15187392181E+04  0.46999998093E+01 0. -1.
       -5    1    3    3    0  502  0.10022650909E+04  0.93715663110E+03  0.20167458357E+03  0.13869003538E+04  0.46999998093E+01 0.  1.
</event>
<event>
 5   0  0.1385669E-05  0.2503414E+04  0.7818609E-02  0.8401770E-01
       -2   -1    0    0    0  501  0.00000000000E+00  0.00000000000E+00  0.12925652320E+04  0.12925652320E+04  0.25500000920E-02 0.  1.
        2   -1    0    0  501    0  0.00000000000E+00  0.00000000000E+00 -0.12121399623E+04  0.12121399623E+04  0.25500000920E-02 0. -1.
    10030    2    1    2    0    0  0.00000000000E+00  0.00000000000E+00  0.80425269762E+02  0.25047051943E+04  0.25034136467E+04 0.  0.
        3    1    3    3  502    0  0.21575272015E+03  0.69281118734E+02  0.12718720482E+04  0.12919007806E+04  0.10100000352E+00 0.  1.
       -3    1    3    3    0  502 -0.21575272015E+03 -0.69281118734E+02 -0.11914467785E+04  0.12128044137E+04  0.10100000352E+00 0. -1.
</event>
<event>
 5   0  0.5352212E-06  0.2564613E+04  0.7818609E-02  0.8380322E-01
       -1   -1    0    0    0  501  0.00000000000E+00  0.00000000000E+00  0.84947819734E+03  0.84947819735E+03  0.50400001928E-02 0. -1.
        1   -1    0    0  501    0  0.00000000000E+00  0.00000000000E+00 -0.19356710317E+04  0.19356710317E+04  0.50400001928E-02 0.  1.
    10030    2    1    2    0    0  0.00000000000E+00  0.00000000000E+00 -0.10861928343E+04  0.27851492290E+04  0.25646132953E+04 0.  0.
        2    1    3    3  502    0  0.50950359063E+03 -0.58952190720E+03  0.56290000134E+03  0.96124211281E+03  0.25500000920E-02 0. -1.
       -2    1    3    3    0  502 -0.50950359063E+03  0.58952190720E+03 -0.16490928357E+04  0.18239071162E+04  0.25500000920E-02 0.  1.
</event>
<event>
 5   0  0.1307832E-05  0.2269089E+04  0.7818609E-02  0.8490210E-01
        2   -1    0    0  501    0  0.00000000000E+00  0.00000000000E+00  0.20245627325E+04  0.20245627325E+04  0.25500000920E-02 0. -1.
       -2   -1    0    0    0  501  0.00000000000E+00  0.00000000000E+00 -0.63578709084E+03  0.63578709084E+03  0.25500000920E-02 0.  1.
    10030    2    1    2    0    0  0.00000000000E+00  0.00000000000E+00  0.13887756417E+04  0.26603498234E+04  0.22690886717E+04 0.  0.
        4    1    3    3  502    0 -0.10224641705E+04 -0.25606896474E+03  0.11865085683E+04  0.15870754519E+04  0.12699999809E+01 0.  1.
       -4    1    3    3    0  502  0.10224641705E+04  0.25606896474E+03  0.20226707342E+03  0.10732743715E+04  0.12699999809E+01 0. -1.
</event>
<event>
 5   0  0.5002240E-06  0.2918185E+04  0.7818609E-02  0.8267487E-01
        1   -1    0    0  501    0  0.00000000000E+00  0.00000000000E+00  0.17113497657E+04  0.17113497657E+04  0.50400001928E-02 0.  1.
       -1   -1    0    0    0  501  0.00000000000E+00  0.00000000000E+00 -0.12440187316E+04  0.12440187316E+04  0.50400001928E-02 0. -1.
    10030    2    1    2    0    0  0.00000000000E+00  0.00000000000E+00  0.46733103407E+03  0.29553684973E+04  0.29181851654E+04 0.  0.
        4    1    3    3  502    0 -0.23047954315E+02 -0.14239290100E+04 -0.87941074851E+02  0.14268287491E+04  0.12699999809E+01 0. -1.
       -4    1    3    3    0  502  0.23047954315E+02  0.14239290100E+04  0.55527210893E+03  0.15285397481E+04  0.12699999809E+01 0.  1.
</event>
<event>
 5   0  0.5154476E-06  0.2874254E+04  0.7818609E-02  0.8280579E-01
       -1   -1    0    0    0  501  0.00000000000E+00  0.00000000000E+00  0.12979558995E+04  0.12979558996E+04  0.50400001928E-02 0.  1.
        1   -1    0    0  501    0  0.00000000000E+00  0.00000000000E+00 -0.15912205233E+04  0.15912205233E+04  0.50400001928E-02 0. -1.
    10030    2    1    2    0    0  0.00000000000E+00  0.00000000000E+00 -0.29326462376E+03  0.28891764229E+04  0.28742540359E+04 0.  0.
        3    1    3    3  502    0 -0.10006300243E+04  0.11271665634E+03 -0.11773183815E+04  0.15492075625E+04  0.10100000352E+00 0. -1.
       -3    1    3    3    0  502  0.10006300243E+04 -0.11271665634E+03  0.88405375770E+03  0.13399688604E+04  0.10100000352E+00 0.  1.
</event>
<event>
 5   0  0.1336899E-05  0.1984752E+04  0.7818609E-02  0.8613783E-01
       -2   -1    0    0    0  501  0.00000000000E+00  0.00000000000E+00  0.89288274595E+03  0.89288274595E+03  0.25500000920E-02 0. -1.
        2   -1    0    0  501    0  0.00000000000E+00  0.00000000000E+00 -0.11029555657E+04  0.11029555657E+04  0.25500000920E-02 0.  1.
    10030    2    1    2    0    0  0.00000000000E+00  0.00000000000E+00 -0.21007281977E+03  0.19958383117E+04  0.19847518678E+04 0.  0.
        1    1    3    3  502    0 -0.12027567257E+03 -0.44184587138E+03  0.78028808779E+03  0.90473394511E+03  0.50400001928E-02 0. -1.
       -1    1    3    3    0  502  0.12027567257E+03  0.44184587138E+03 -0.99036090756E+03  0.10911043666E+04  0.50400001928E-02 0.  1.
</event>
<event>
 5   0  0.5352212E-06  0.2914879E+04  0.7818609E-02  0.8268464E-01
        1   -1    0    0  501    0  0.00000000000E+00  0.00000000000E+00  0.20891614048E+04  0.20891614048E+04  0.50400001928E-02 0.  1.
       -1   -1    0    0    0  501  0.00000000000E+00  0.00000000000E+00 -0.10167383174E+04  0.10167383174E+04  0.50400001928E-02 0. -1.
    10030    2    1    2    0    0  0.00000000000E+00  0.00000000000E+00  0.10724230874E+04  0.31058997222E+04  0.29148793810E+04 0.  0.
        2    1    3    3  502    0 -0.81522753530E+03 -0.59610613648E+03 -0.58345612587E+03  0.11663445079E+04  0.25500000920E-02 0. -1.
       -2    1    3    3    0  502  0.81522753530E+03  0.59610613648E+03  0.16558792133E+04  0.19395552143E+04  0.25500000920E-02 0.  1.
</event>
<event>
 5   0  0.1336899E-05  0.2900704E+04  0.7818609E-02  0.8272668E-01
        2   -1    0    0  501    0  0.00000000000E+00  0.00000000000E+00  0.20291403158E+04  0.20291403158E+04  0.25500000920E-02 0. -1.
       -2   -1    0    0    0  501  0.00000000000E+00  0.00000000000E+00 -0.10366563672E+04  0.10366563672E+04  0.25500000920E-02 0.  1.
    10030    2    1    2    0    0  0.00000000000E+00  0.00000000000E+00  0.99248394855E+03  0.30657966830E+04  0.29007042099E+04 0.  0.
        1    1    3    3  502    0 -0.56923993360E+03  0.20687349668E+03  0.18890816100E+04  0.19837994039E+04  0.50400001928E-02 0. -1.
       -1    1    3    3    0  502  0.56923993360E+03 -0.20687349668E+03 -0.89659766143E+03  0.10819972792E+04  0.50400001928E-02 0.  1.
</event>
<event>
 5   0  0.1385669E-05  0.2919164E+04  0.7818609E-02  0.8267198E-01
        2   -1    0    0  501    0  0.00000000000E+00  0.00000000000E+00  0.19210555498E+04  0.19210555498E+04  0.25500000920E-02 0. -1.
       -2   -1    0    0    0  501  0.00000000000E+00  0.00000000000E+00 -0.11089633543E+04  0.11089633543E+04  0.25500000920E-02 0.  1.
    10030    2    1    2    0    0  0.00000000000E+00  0.00000000000E+00  0.81209219549E+03  0.30300189042E+04  0.29191644054E+04 0.  0.
        3    1    3    3  502    0 -0.12425391865E+04  0.85004382744E+02  0.11960334027E+04  0.17267383373E+04  0.10100000352E+00 0.  1.
       -3    1    3    3    0  502  0.12425391865E+04 -0.85004382744E+02 -0.38394120719E+03  0.13032805668E+04  0.10100000352E+00 0. -1.
</event>
<event>
 5   0  0.5059249E-06  0.2900694E+04  0.7818609E-02  0.8272671E-01
        1   -1    0    0  501    0  0.00000000000E+00  0.00000000000E+00  0.19444672590E+04  0.19444672590E+04  0.50400001928E-02 0. -1.
       -1   -1    0    0    0  501  0.00000000000E+00  0.00000000000E+00 -0.10817903724E+04  0.10817903724E+04  0.50400001928E-02 0.  1.
    10030    2    1    2    0    0  0.00000000000E+00  0.00000000000E+00  0.86267688658E+03  0.30262576315E+04  0.29006936828E+04 0.  0.
        1    1    3    3  502    0 -0.12911208280E+04  0.64674951530E+03  0.29048290693E+03  0.14729759833E+04  0.50400001928E-02 0.  1.
       -1    1    3    3    0  502  0.12911208280E+04 -0.64674951530E+03  0.57219397965E+03  0.15532816482E+04  0.50400001928E-02 0. -1.
</event>
<event>
 5   0  0.5059249E-06  0.2953559E+04  0.7818609E-02  0.8257118E-01
        1   -1    0    0  501    0  0.00000000000E+00  0.00000000000E+00  0.23109260450E+04  0.23109260450E+04  0.50400001928E-02 0. -1.
       -1   -1    0    0    0  501  0.00000000000E+00  0.00000000000E+00 -0.94372454623E+03  0.94372454624E+03  0.50400001928E-02 0.  1.
    10030    2    1    2    0    0  0.00000000000E+00  0.00000000000E+00  0.13672014987E+04  0.32546505912E+04  0.29535589604E+04 0.  0.
        1    1    3    3  502    0  0.37357584190E+03  0.24280599448E+03 -0.86789440735E+03  0.97557898857E+03  0.50400001928E-02 0.  1.
       -1    1    3    3    0  502 -0.37357584190E+03 -0.24280599448E+03  0.22350959061E+04  0.22790716026E+04  0.50400001928E-02 0. -1.
</event>
<event>
 5   0  0.1336899E-05  0.2875334E+04  0.7818609E-02  0.8280254E-01
        2   -1    0    0  501    0  0.00000000000E+00  0.00000000000E+00  0.20984120716E+04  0.20984120716E+04  0.25500000920E-02 0. -1.
       -2   -1    0    0    0  501  0.00000000000E+00  0.00000000000E+00 -0.98497650483E+03  0.98497650484E+03  0.25500000920E-02 0.  1.
    10030    2    1    2    0    0  0.00000000000E+00  0.00000000000E+00  0.11134355668E+04  0.30833885765E+04  0.28753341288E+04 0.  0.
        1    1    3    3  502    0 -0.18083527495E+03  0.34049442963E+03  0.20419432936E+04  0.20780207572E+04  0.50400001928E-02 0. -1.
       -1    1    3    3    0  502  0.18083527495E+03 -0.34049442963E+03 -0.92850772677E+03  0.10053678192E+04  0.50400001928E-02 0.  1.
</event>
<event>
 5   0  0.5352212E-06  0.2895226E+04  0.7818609E-02  0.8274299E-01
        1   -1    0    0  501    0  0.00000000000E+00  0.00000000000E+00  0.11423578685E+04  0.11423578685E+04  0.50400001928E-02 0. -1.
       -1   -1    0    0    0  501  0.00000000000E+00  0.00000000000E+00 -0.18344367731E+04  0.18344367731E+04  0.50400001928E-02 0.  1.
    10030    2    1    2    0    0  0.00000000000E+00  0.00000000000E+00 -0.69207890456E+03  0.29767946416E+04  0.28952259201E+04 0.  0.
        2    1    3    3  502    0  0.14782786325E+02  0.41173341297E+03 -0.17728836637E+04  0.18201262097E+04  0.25500000920E-02 0.  1.
       -2    1    3    3    0  502 -0.14782786325E+02 -0.41173341297E+03  0.10808047591E+04  0.11566684320E+04  0.25500000920E-02 0. -1.
</event>
<event>
 5   0  0.5059249E-06  0.2649573E+04  0.7818609E-02  0.8351555E-01
       -1   -1    0    0    0  501  0.00000000000E+00  0.00000000000E+00  0.70828080878E+03  0.70828080880E+03  0.50400001928E-02 0. -1.
        1   -1    0    0  501    0  0.00000000000E+00  0.00000000000E+00 -0.24779138928E+04  0.24779138928E+04  0.50400001928E-02 0.  1.
    10030    2    1    2    0    0  0.00000000000E+00  0.00000000000E+00 -0.17696330840E+04  0.31861947016E+04  0.26495726871E+04 0.  0.
        1    1    3    3  502    0 -0.69874579407E+03  0.59981890545E+03 -0.20300852820E+04  0.22291869944E+04  0.50400001928E-02 0.  1.
       -1    1    3    3    0  502  0.69874579407E+03 -0.59981890545E+03  0.26045219798E+03  0.95700770714E+03  0.50400001928E-02 0. -1.
</event>
<event>
 5   0  0.1385669E-05  0.2827671E+04  0.7818609E-02  0.8294729E-01
        2   -1    0    0  501    0  0.00000000000E+00  0.00000000000E+00  0.13093460520E+04  0.13093460520E+04  0.25500000920E-02 0.  1.
       -2   -1    0    0    0  501  0.00000000000E+00  0.00000000000E+00 -0.15266634967E+04  0.15266634967E+04  0.25500000920E-02 0. -1.
    10030    2    1    2    0    0  0.00000000000E+00  0.00000000000E+00 -0.21731744474E+03  0.28360095487E+04  0.28276710008E+04 0.  0.
        3    1    3    3  502    0  0.10678693087E+04  0.85388655783E+03  0.25221296859E+03  0.13903519360E+04  0.10100000352E+00 0.  1.
       -3    1    3    3    0  502 -0.10678693087E+04 -0.85388655783E+03 -0.46953041333E+03  0.14456576128E+04  0.10100000352E+00 0. -1.
</event>
<event>
 5   0  0.5002240E-06  0.2931738E+04  0.7818609E-02  0.8263497E-01
        1   -1    0    0  501    0  0.00000000000E+00  0.00000000000E+00  0.13764167905E+04  0.13764167905E+04  0.50400001928E-02 0. -1.
       -1   -1    0    0    0  501  0.00000000000E+00  0.00000000000E+00 -0.15611351344E+04  0.15611351344E+04  0.50400001928E-02 0.  1.
    10030    2    1    2    0    0  0.00000000000E+00  0.00000000000E+00 -0.18471834381E+03  0.29375519249E+04  0.29317384680E+04 0.  0.
        4    1    3    3  502    0  0.14291877070E+04 -0.27436806385E+03 -0.26853633099E+03  0.14798542868E+04  0.12699999809E+01 0.  1.
       -4    1    3    3    0  502 -0.14291877070E+04  0.27436806385E+03  0.83817987180E+02  0.14576976381E+04  0.12699999809E+01 0. -1.
</event>
<event>
 5   0  0.5002240E-06  0.2726592E+04  0.7818609E-02  0.8326428E-01
       -1   -1    0    0    0  501  0.00000000000E+00  0.00000000000E+00  0.87915215993E+03  0.87915215995E+03  0.50400001928E-02 0. -1.
        1   -1    0    0  501    0  0.00000000000E+00  0.00000000000E+00 -0.21140546480E+04  0.21140546480E+04  0.50400001928E-02 0.  1.
    10030    2    1    2    0    0  0.00000000000E+00  0.00000000000E+00 -0.12349024881E+04  0.29932068080E+04  0.27265917993E+04 0.  0.
        4    1    3    3  502    0  0.14445888346E+03 -0.91468279486E+03 -0.17158167760E+04  0.19497542937E+04  0.12699999809E+01 0.  1.
       -4    1    3    3    0  502 -0.14445888346E+03  0.91468279486E+03  0.48091428793E+03  0.10434525142E+04  0.12699999809E+01 0. -1.
</event>
<event>
 5   0  0.5002240E-06  0.2446882E+04  0.7818609E-02  0.8422157E-01
        1   -1    0    0  501    0  0.00000000000E+00  0.00000000000E+00  0.13232075992E+04  0.13232075992E+04  0.50400001928E-02 0. -1.
       -1   -1    0    0    0  501  0.00000000000E+00  0.00000000000E+00 -0.11311966941E+04  0.11311966941E+04  0.50400001928E-02 0.  1.
    10030    2    1    2    0    0  0.00000000000E+00  0.00000000000E+00  0.19201090509E+03  0.24544042933E+04  0.24468821483E+04 0.  0.
        4    1    3    3  502    0  0.65656389502E+03 -0.91274950065E+03 -0.38778279582E+03  0.11893548288E+04  0.12699999809E+01 0.  1.
       -4    1    3    3    0  502 -0.65656389502E+03  0.91274950065E+03  0.57979370090E+03  0.12650494645E+04  0.12699999809E+01 0. -1.
</event>
<event>
 5   0  0.1382803E-05  0.2169523E+04  0.7818609E-02  0.8531221E-01
       -2   -1    0    0    0  501  0.00000000000E+00  0.00000000000E+00  0.74847607017E+03  0.74847607018E+03  0.25500000920E-02 0.  1.
        2   -1    0    0  501    0  0.00000000000E+00  0.00000000000E+00 -0.15721376525E+04  0.15721376525E+04  0.25500000920E-02 0. -1.
    10030    2    1    2    0    0  0.00000000000E+00  0.00000000000E+00 -0.82366158235E+03  0.23206137227E+04  0.21695229079E+04 0.  0.
        2    1    3    3  502    0  0.19466047803E+02 -0.70597512388E+03  0.46887383293E+03  0.84771603369E+03  0.25500000920E-02 0.  1.
       -2    1    3    3    0  502 -0.19466047803E+02  0.70597512388E+03 -0.12925354153E+04  0.14728976890E+04  0.25500000920E-02 0. -1.
</event>
<event>
 5   0  0.1307832E-05  0.2921997E+04  0.7818609E-02  0.8266363E-01
       -2   -1    0    0    0  501  0.00000000000E+00  0.00000000000E+00  0.11820885043E+04  0.11820885043E+04  0.25500000920E-02 0. -1.
        2   -1    0    0  501    0  0.00000000000E+00  0.00000000000E+00 -0.18057166910E+04  0.18057166910E+04  0.25500000920E-02 0.  1.
    10030    2    1    2    0    0  0.00000000000E+00  0.00000000000E+00 -0.62362818672E+03  0.29878051953E+04  0.29219972228E+04 0.  0.
        4    1    3    3  502    0  0.62672371355E+03  0.12081708039E+03 -0.16556175109E+04  0.17743873126E+04  0.12699999809E+01 0.  1.
       -4    1    3    3    0  502 -0.62672371355E+03 -0.12081708039E+03  0.10319893241E+04  0.12134178827E+04  0.12699999809E+01 0. -1.
</event>
<event>
 5   0  0.1385669E-05  0.2800415E+04  0.7818609E-02  0.8303139E-01
        2   -1    0    0  501    0  0.00000000000E+00  0.00000000000E+00  0.17210091260E+04  0.17210091260E+04  0.25500000920E-02 0. -1.
       -2   -1    0    0    0  501  0.00000000000E+00  0.00000000000E+00 -0.11392045085E+04  0.11392045085E+04  0.25500000920E-02 0.  1.
    10030    2    1    2    0    0  0.00000000000E+00  0.00000000000E+00  0.58180461752E+03  0.28602136346E+04  0.28004152232E+04 0.  0.
        3    1    3    3  502    0 -0.20526199167E+03  0.95705346089E+03  0.13135303543E+04  0.16381226493E+04  0.10100000352E+00 0. -1.
       -3    1    3    3    0  502  0.20526199167E+03 -0.95705346089E+03 -0.73172573678E+03  0.12220909853E+04  0.10100000352E+00 0.  1.
</event>
<event>
 5   0  0.5154476E-06  0.2939971E+04  0.7818609E-02  0.8261083E-01
       -1   -1    0    0    0  501  0.00000000000E+00  0.00000000000E+00  0.77612870799E+03  0.77612870800E+03  0.50400001928E-02 0.  1.
        1   -1    0    0  501    0  0.00000000000E+00  0.00000000000E+00 -0.27841477864E+04  0.27841477865E+04  0.50400001928E-02 0. -1.
    10030    2    1    2    0    0  0.00000000000E+00  0.00000000000E+00 -0.20080190785E+04  0.35602764945E+04  0.29399707647E+04 0.  0.
        3    1    3    3  502    0 -0.34269539492E+03 -0.13713249558E+04 -0.51526611994E+03  0.15044837828E+04  0.10100000352E+00 0.  1.
       -3    1    3    3    0  502  0.34269539492E+03  0.13713249558E+04 -0.14927529585E+04  0.20557927117E+04  0.10100000352E+00 0. -1.
</event>
<event>
 5   0  0.1385669E-05  0.3031883E+04  0.7818609E-02  0.8234685E-01
        2   -1    0    0  501    0  0.00000000000E+00  0.00000000000E+00  0.13243522588E+04  0.13243522589E+04  0.25500000920E-02 0. -1.
       -2   -1    0    0    0  501  0.00000000000E+00  0.00000000000E+00 -0.17352473493E+04  0.17352473493E+04  0.25500000920E-02 0.  1.
    10030    2    1    2    0    0  0.00000000000E+00  0.00000000000E+00 -0.41089509046E+03  0.30595996082E+04  0.30318830761E+04 0.  0.
        3    1    3    3  502    0  0.65511916210E+03  0.11973336443E+04  0.46034875152E+03  0.14403853497E+04  0.10100000352E+00 0. -1.
       -3    1    3    3    0  502 -0.65511916210E+03 -0.11973336443E+04 -0.87124384198E+03  0.16192142585E+04  0.10100000352E+00 0.  1.
</event>
<event>
 5   0  0.1382803E-05  0.2938200E+04  0.7818609E-02  0.8261602E-01
       -2   -1    0    0    0  501  0.00000000000E+00  0.00000000000E+00  0.12569142781E+04  0.12569142781E+04  0.25500000920E-02 0.  1.
        2   -1    0    0  501    0  0.00000000000E+00  0.00000000000E+00 -0.17171058957E+04  0.17171058957E+04  0.25500000920E-02 0. -1.
    10030    2    1    2    0    0  0.00000000000E+00  0.00000000000E+00 -0.46019161762E+03  0.29740201738E+04  0.29382000731E+04 0.  0.
        2    1    3    3  502    0  0.28193659446E+03  0.41557417654E+03  0.11673384082E+04  0.12707749993E+04  0.25500000920E-02 0.  1.
       -2    1    3    3    0  502 -0.28193659446E+03 -0.41557417654E+03 -0.16275300259E+04  0.17032451745E+04  0.25500000920E-02 0. -1.
</event>
<event>
 5   0  0.5154476E-06  0.2862079E+04  0.7818609E-02  0.8284250E-01
        1   -1    0    0  501    0  0.00000000000E+00  0.00000000000E+00  0.25545403929E+04  0.25545403929E+04  0.50400001928E-02 0. -1.
       -1   -1    0    0    0  501  0.00000000000E+00  0.00000000000E+00 -0.80166039828E+03  0.80166039829E+03  0.50400001928E-02 0.  1.
    10030    2    1    2    0    0  0.00000000000E+00  0.00000000000E+00  0.17528799946E+04  0.33562007912E+04  0.28620788730E+04 0.  0.
        3    1    3    3  502    0 -0.69176621693E+03 -0.76789233158E+03 -0.28422607542E+03  0.10719065276E+04  0.10100000352E+00 0.  1.
       -3    1    3    3    0  502  0.69176621693E+03  0.76789233158E+03  0.20371060700E+04  0.22842942636E+04  0.10100000352E+00 0. -1.
</event>
<event>
 5   0  0.1339837E-05  0.2892688E+04  0.7818609E-02  0.8275056E-01
       -2   -1    0    0    0  501  0.00000000000E+00  0.00000000000E+00  0.89660195637E+03  0.89660195637E+03  0.25500000920E-02 0.  1.
        2   -1    0    0  501    0  0.00000000000E+00  0.00000000000E+00 -0.23331551071E+04  0.23331551071E+04  0.25500000920E-02 0. -1.
    10030    2    1    2    0    0  0.00000000000E+00  0.00000000000E+00 -0.14365531507E+04  0.32297570634E+04  0.28926883230E+04 0.  0.
        5    1    3    3  502    0  0.94241831993E+03  0.18811831419E+03  0.48857657061E+03  0.10780862420E+04  0.46999998093E+01 0.  1.
       -5    1    3    3    0  502 -0.94241831993E+03 -0.18811831419E+03 -0.19251297213E+04  0.21516708214E+04  0.46999998093E+01 0. -1.
</event>
<event>
 5   0  0.5261878E-06  0.2439336E+04  0.7818609E-02  0.8424922E-01
        1   -1    0    0  501    0  0.00000000000E+00  0.00000000000E+00  0.16834935124E+04  0.16834935124E+04  0.50400001928E-02 0. -1.
       -1   -1    0    0    0  501  0.00000000000E+00  0.00000000000E+00 -0.88363255679E+03  0.88363255680E+03  0.50400001928E-02 0.  1.
    10030    2    1    2    0    0  0.00000000000E+00  0.00000000000E+00  0.79986095564E+03  0.25671260692E+04  0.24393357102E+04 0.  0.
        5    1    3    3  502    0 -0.75242347877E+02  0.39471480144E+03  0.16118249629E+04  0.16611631426E+04  0.46999998093E+01 0. -1.
       -5    1    3    3    0  502  0.75242347877E+02 -0.39471480144E+03 -0.81196400724E+03  0.90596292663E+03  0.46999998093E+01 0.  1.
</event>
<event>
 5   0  0.1339837E-05  0.2849426E+04  0.7818609E-02  0.8288086E-01
       -2   -1    0    0    0  501  0.00000000000E+00  0.00000000000E+00  0.30986301718E+04  0.30986301718E+04  0.25500000920E-02 0. -1.
        2   -1    0    0  501    0  0.00000000000E+00  0.00000000000E+00 -0.65506594731E+03  0.65506594731E+03  0.25500000920E-02 0.  1.
    10030    2    1    2    0    0  0.00000000000E+00  0.00000000000E+00  0.24435642245E+04  0.37536961191E+04  0.28494259835E+04 0.  0.
        5    1    3    3  502    0 -0.87597363077E+03  0.32364227499E+03  0.26392126699E+04  0.27995606317E+04  0.46999998093E+01 0. -1.
       -5    1    3    3    0  502  0.87597363077E+03 -0.32364227499E+03 -0.19564844543E+03  0.95413548732E+03  0.46999998093E+01 0.  1.
</event>
<event>
 5   0  0.1336899E-05  0.1875953E+04  0.7818609E-02  0.8666919E-01
        2   -1    0    0  501    0  0.00000000000E+00  0.00000000000E+00  0.90155838538E+03  0.90155838538E+03  0.25500000920E-02 0. -1.
       -2   -1    0    0    0  501  0.00000000000E+00  0.00000000000E+00 -0.97586619662E+03  0.97586619662E+03  0.25500000920E-02 0.  1.
    10030    2    1    2    0    0  0.00000000000E+00  0.00000000000E+00 -0.74307811239E+02  0.18774245820E+04  0.18759534670E+04 0.  0.
        1    1    3    3  502    0  0.70117008024E+03 -0.55240803423E+03  0.25118005387E+03  0.92730013329E+03  0.50400001928E-02 0. -1.
       -1    1    3    3    0  502 -0.70117008024E+03  0.55240803423E+03 -0.32548786511E+03  0.95012444872E+03  0.50400001928E-02 0.  1.
</event>
<event>
 5   0  0.1307832E-05  0.2650594E+04  0.7818609E-02  0.8351216E-01
       -2   -1    0    0    0  501  0.00000000000E+00  0.00000000000E+00  0.58625246620E+03  0.58625246621E+03  0.25500000920E-02 0. -1.
        2   -1    0    0  501    0  0.00000000000E+00  0.00000000000E+00 -0.29959985058E+04  0.29959985058E+04  0.25500000920E-02 0.  1.
    10030    2    1    2    0    0  0.00000000000E+00  0.00000000000E+00 -0.24097460396E+04  0.35822509721E+04  0.26505935281E+04 0.  0.
        4    1    3    3  502    0  0.43690654773E+03  0.70096736714E+03  0.19583896124E+03  0.84887990486E+03  0.12699999809E+01 0. -1.
       -4    1    3    3    0  502 -0.43690654773E+03 -0.70096736714E+03 -0.26055850009E+04  0.27333710672E+04  0.12699999809E+01 0.  1.
</event>
<event>
 5   0  0.5154476E-06  0.2823829E+04  0.7818609E-02  0.8295908E-01
       -1   -1    0    0    0  501  0.00000000000E+00  0.00000000000E+00  0.10071866638E+04  0.10071866638E+04  0.50400001928E-02 0. -1.
        1   -1    0    0  501    0  0.00000000000E+00  0.00000000000E+00 -0.19792788464E+04  0.19792788465E+04  0.50400001928E-02 0.  1.
    10030    2    1    2    0    0  0.00000000000E+00  0.00000000000E+00 -0.97209218262E+03  0.29864655103E+04  0.28238294978E+04 0.  0.
        3    1    3    3  502    0 -0.12349310700E+04 -0.61899019761E+03 -0.17716407706E+03  0.13926919016E+04  0.10100000352E+00 0.  1.
       -3    1    3    3    0  502  0.12349310700E+04  0.61899019761E+03 -0.79492810556E+03  0.15937736087E+04  0.10100000352E+00 0. -1.
</event>
<event>
 5   0  0.5002240E-06  0.2888878E+04  0.7818609E-02  0.8276194E-01
        1   -1    0    0  501    0  0.00000000000E+00  0.00000000000E+00  0.15799425300E+04  0.15799425300E+04  0.50400001928E-02 0. -1.
       -1   -1    0    0    0  501  0.00000000000E+00  0.00000000000E+00 -0.13205566506E+04  0.13205566506E+04  0.50400001928E-02 0.  1.
    10030    2    1    2    0    0  0.00000000000E+00  0.00000000000E+00  0.25938587946E+03  0.29004991806E+04  0.28888777168E+04 0.  0.
        4    1    3    3  502    0  0.55147400032E+03 -0.46812477430E+03 -0.11255916478E+04  0.13379919835E+04  0.12699999809E+01 0.  1.
       -4    1    3    3    0  502 -0.55147400032E+03  0.46812477430E+03  0.13849775272E+04  0.15625071972E+04  0.12699999809E+01 0. -1.
</event>
<event>
 5   0  0.1336899E-05  0.2853813E+04  0.7818609E-02  0.8286754E-01
       -2   -1    0    0    0  501  0.00000000000E+00  0.00000000000E+00  0.11819313705E+04  0.11819313705E+04  0.25500000920E-02 0.  1.
        2   -1    0    0  501    0  0.00000000000E+00  0.00000000000E+00 -0.17226568225E+04  0.17226568225E+04  0.25500000920E-02 0. -1.
    10030    2    1    2    0    0  0.00000000000E+00  0.00000000000E+00 -0.54072545195E+03  0.29045881930E+04  0.28538129855E+04 0.  0.
        1    1    3    3  502    0 -0.38899994273E+03 -0.63858823934E+03  0.96655667731E+03  0.12220260657E+04  0.50400001928E-02 0.  1.
       -1    1    3    3    0  502  0.38899994273E+03  0.63858823934E+03 -0.15072821293E+04  0.16825621273E+04  0.50400001928E-02 0. -1.
</event>
<event>
 5   0  0.5002240E-06  0.2947141E+04  0.7818609E-02  0.8258988E-01
       -1   -1    0    0    0  501  0.00000000000E+00  0.00000000000E+00  0.16897482148E+04  0.16897482148E+04  0.50400001928E-02 0.  1.
        1   -1    0    0  501    0  0.00000000000E+00  0.00000000000E+00 -0.12850495919E+04  0.12850495919E+04  0.50400001928E-02 0. -1.
    10030    2    1    2    0    0  0.00000000000E+00  0.00000000000E+00  0.40469862296E+03  0.29747978067E+04  0.29471411597E+04 0.  0.
        4    1    3    3  502    0  0.35312398171E+03  0.49516420561E+03 -0.11524550985E+04  0.13030880645E+04  0.12699999809E+01 0. -1.
       -4    1    3    3    0  502 -0.35312398171E+03 -0.49516420561E+03  0.15571537214E+04  0.16717097422E+04  0.12699999809E+01 0.  1.
</event>
<event>
 5   0  0.1307832E-05  0.2904007E+04  0.7818609E-02  0.8271686E-01
       -2   -1    0    0    0  501  0.00000000000E+00  0.00000000000E+00  0.12129238555E+04  0.12129238555E+04  0.25500000920E-02 0. -1.
        2   -1    0    0  501    0  0.00000000000E+00  0.00000000000E+00 -0.17382078023E+04  0.17382078023E+04  0.25500000920E-02 0.  1.
    10030    2    1    2    0    0  0.00000000000E+00  0.00000000000E+00 -0.52528394677E+03  0.29511316578E+04  0.29040066868E+04 0.  0.
        4    1    3    3  502    0  0.12755715649E+04  0.40514966266E+03 -0.83488099926E+03  0.15774209844E+04  0.12699999809E+01 0.  1.
       -4    1    3    3    0  502 -0.12755715649E+04 -0.40514966266E+03  0.30959705250E+03  0.13737106734E+04  0.12699999809E+01 0. -1.
</event>
<event>
 5   0  0.1385669E-05  0.2648741E+04  0.7818609E-02  0.8351831E-01
       -2   -1    0    0    0  501  0.00000000000E+00  0.00000000000E+00  0.97139148807E+03  0.97139148807E+03  0.25500000920E-02 0.  1.
        2   -1    0    0  501    0  0.00000000000E+00  0.00000000000E+00 -0.18056127095E+04  0.18056127095E+04  0.25500000920E-02 0. -1.
    10030    2    1    2    0    0  0.00000000000E+00  0.00000000000E+00 -0.83422122145E+03  0.27770041976E+04  0.26487406946E+04 0.  0.
        3    1    3    3  502    0 -0.28210099338E+03 -0.46277738157E+03  0.84979770649E+03  0.10079186612E+04  0.10100000352E+00 0.  1.
       -3    1    3    3    0  502  0.28210099338E+03  0.46277738157E+03 -0.16840189279E+04  0.17690855364E+04  0.10100000352E+00 0. -1.
</event>
<event>
 5   0  0.1339837E-05  0.2844090E+04  0.7818609E-02  0.8289709E-01
       -2   -1    0    0    0  501  0.00000000000E+00  0.00000000000E+00  0.16377494821E+04  0.16377494821E+04  0.25500000920E-02 0. -1.
        2   -1    0    0  501    0  0.00000000000E+00  0.00000000000E+00 -0.12347507017E+04  0.12347507017E+04  0.25500000920E-02 0.  1.
    10030    2    1    2    0    0  0.00000000000E+00  0.00000000000E+00  0.40299878049E+03  0.28725001838E+04  0.28440902392E+04 0.  0.
        5    1    3    3  502    0 -0.51716222500E+03 -0.33356320816E+03  0.14962837907E+04  0.16179024856E+04  0.46999998093E+01 0. -1.
       -5    1    3    3    0  502  0.51716222500E+03  0.33356320816E+03 -0.10932850102E+04  0.12545976982E+04  0.46999998093E+01 0.  1.
</event>
<event>
 5   0  0.5002240E-06  0.1939514E+04  0.7818609E-02  0.8635434E-01
       -1   -1    0    0    0  501  0.00000000000E+00  0.00000000000E+00  0.60703079754E+03  0.60703079756E+03  0.50400001928E-02 0.  1.
        1   -1    0    0  501    0  0.00000000000E+00  0.00000000000E+00 -0.15492271073E+04  0.15492271073E+04  0.50400001928E-02 0. -1.
    10030    2    1    2    0    0  0.00000000000E+00  0.00000000000E+00 -0.94219630971E+03  0.21562579048E+04  0.19395139252E+04 0.  0.
        4    1    3    3  502    0 -0.63257148303E+03  0.20479675258E+02 -0.12879602081E+04  0.14350641829E+04  0.12699999809E+01 0. -1.
       -4    1    3    3    0  502  0.63257148303E+03 -0.20479675258E+02  0.34576389843E+03  0.72119372197E+03  0.12699999809E+01 0.  1.
</event>
<event>
 5   0  0.5002240E-06  0.2838566E+04  0.7818609E-02  0.8291394E-01
       -1   -1    0    0    0  501  0.00000000000E+00  0.00000000000E+00  0.16134133555E+04  0.16134133555E+04  0.50400001928E-02 0. -1.
        1   -1    0    0  501    0  0.00000000000E+00  0.00000000000E+00 -0.12485107350E+04  0.12485107350E+04  0.50400001928E-02 0.  1.
    10030    2    1    2    0    0  0.00000000000E+00  0.00000000000E+00  0.36490262056E+03  0.28619240905E+04  0.28385657606E+04 0.  0.
        4    1    3    3  502    0  0.13736459708E+04 -0.35312776093E+03  0.12948509350E+03  0.14242087175E+04  0.12699999809E+01 0. -1.
       -4    1    3    3    0  502 -0.13736459708E+04  0.35312776093E+03  0.23541752706E+03  0.14377153730E+04  0.12699999809E+01 0.  1.
</event>
<event>
 5   0  0.5059249E-06  0.2876779E+04  0.7818609E-02  0.8279820E-01
        1   -1    0    0  501    0  0.00000000000E+00  0.00000000000E+00  0.11382103891E+04  0.11382103891E+04  0.50400001928E-02 0. -1.
       -1   -1    0    0    0  501  0.00000000000E+00  0.00000000000E+00 -0.18177349318E+04  0.18177349319E+04  0.50400001928E-02 0.  1.
    10030    2    1    2    0    0  0.00000000000E+00  0.00000000000E+00 -0.67952454280E+03  0.29559453209E+04  0.28767792991E+04 0.  0.
        1    1    3    3  502    0 -0.11949248249E+04 -0.67158722982E+03  0.10822897893E+03  0.13749866386E+04  0.50400001928E-02 0. -1.
       -1    1    3    3    0  502  0.11949248249E+04  0.67158722982E+03 -0.78775352172E+03  0.15809586824E+04  0.50400001928E-02 0.  1.
</event>
<event>
 5   0  0.1339837E-05  0.2165633E+04  0.7818609E-02  0.8532870E-01
        2   -1    0    0  501    0  0.00000000000E+00  0.00000000000E+00  0.77411511408E+03  0.77411511408E+03  0.25500000920E-02 0.  1.
       -2   -1    0    0    0  501  0.00000000000E+00  0.00000000000E+00 -0.15146214788E+04  0.15146214788E+04  0.25500000920E-02 0. -1.
    10030    2    1    2    0    0  0.00000000000E+00  0.00000000000E+00 -0.74050636475E+03  0.22887365929E+04  0.21656328210E+04 0.  0.
        5    1    3    3  502    0  0.55056377235E+02 -0.98279169568E+03 -0.84707451932E+03  0.12986408484E+04  0.46999998093E+01 0. -1.
       -5    1    3    3    0  502 -0.55056377235E+02  0.98279169568E+03  0.10656815458E+03  0.99009574453E+03  0.46999998093E+01 0.  1.
</event>
<event>
 5   0  0.1307832E-05  0.2870885E+04  0.7818609E-02  0.8281593E-01
       -2   -1    0    0    0  501  0.00000000000E+00  0.00000000000E+00  0.90945109773E+03  0.90945109774E+03  0.25500000920E-02 0.  1.
        2   -1    0    0  501    0  0.00000000000E+00  0.00000000000E+00 -0.22656468749E+04  0.22656468749E+04  0.25500000920E-02 0. -1.
    10030    2    1    2    0    0  0.00000000000E+00  0.00000000000E+00 -0.13561957772E+04  0.31750979726E+04  0.28708849071E+04 0.  0.
        4    1    3    3  502    0 -0.83809857320E+03 -0.90122243960E+03 -0.14952273385E+04  0.19365736523E+04  0.12699999809E+01 0. -1.
       -4    1    3    3    0  502  0.83809857320E+03  0.90122243960E+03  0.13903156138E+03  0.12385243203E+04  0.12699999809E+01 0.  1.
</event>
<event>
 5   0  0.1336899E-05  0.2824626E+04  0.7818609E-02  0.8295663E-01
        2   -1    0    0  501    0  0.00000000000E+00  0.00000000000E+00  0.10693835407E+04  0.10693835407E+04  0.25500000920E-02 0. -1.
       -2   -1    0    0    0  501  0.00000000000E+00  0.00000000000E+00 -0.18652131412E+04  0.18652131412E+04  0.25500000920E-02 0.  1.
    10030    2    1    2    0    0  0.00000000000E+00  0.00000000000E+00 -0.79582960050E+03  0.29345966819E+04  0.28246261580E+04 0.  0.
        1    1    3    3  502    0  0.56785783882E+03  0.12910515292E+04 -0.32191165207E+03  0.14466871423E+04  0.50400001928E-02 0. -1.
       -1    1    3    3    0  502 -0.56785783882E+03 -0.12910515292E+04 -0.47391794843E+03  0.14879095396E+04  0.50400001928E-02 0.  1.
</event>
<event>
 5   0  0.1336899E-05  0.2902940E+04  0.7818609E-02  0.8272003E-01
        2   -1    0    0  501    0  0.00000000000E+00  0.00000000000E+00  0.29003870718E+04  0.29003870718E+04  0.25500000920E-02 0. -1.
       -2   -1    0    0    0  501  0.00000000000E+00  0.00000000000E+00 -0.72637366531E+03  0.72637366532E+03  0.25500000920E-02 0.  1.
    10030    2    1    2    0    0  0.00000000000E+00  0.00000000000E+00  0.21740134065E+04  0.36267607371E+04  0.29029397432E+04 0.  0.
        1    1    3    3  502    0  0.12322017916E+04 -0.13660564483E+03  0.20300582052E+04  0.23786800276E+04  0.50400001928E-02 0. -1.
       -1    1    3    3    0  502 -0.12322017916E+04  0.13660564483E+03  0.14395520127E+03  0.12480807095E+04  0.50400001928E-02 0.  1.
</event>
<event>
 5   0  0.5352212E-06  0.2903813E+04  0.7818609E-02  0.8271744E-01
       -1   -1    0    0    0  501  0.00000000000E+00  0.00000000000E+00  0.65742805971E+03  0.65742805973E+03  0.50400001928E-02 0.  1.
        1   -1    0    0  501    0  0.00000000000E+00  0.00000000000E+00 -0.32064845057E+04  0.32064845057E+04  0.50400001928E-02 0. -1.
    10030    2    1    2    0    0  0.00000000000E+00  0.00000000000E+00 -0.25490564460E+04  0.38639125655E+04  0.29038132771E+04 0.  0.
        2    1    3    3  502    0  0.11176204801E+04 -0.84252654061E+02 -0.25026527959E+04  0.27421606562E+04  0.25500000920E-02 0. -1.
       -2    1    3    3    0  502 -0.11176204801E+04  0.84252654061E+02 -0.46403650113E+02  0.11217519093E+04  0.25500000920E-02 0.  1.
</event>
<event>
 5   0  0.5261878E-06  0.2871035E+04  0.7818609E-02  0.8281548E-01
        1   -1    0    0  501    0  0.00000000000E+00  0.00000000000E+00  0.15082293955E+04  0.15082293955E+04  0.50400001928E-02 0. -1.
       -1   -1    0    0    0  501  0.00000000000E+00  0.00000000000E+00 -0.13663114683E+04  0.13663114683E+04  0.50400001928E-02 0.  1.
    10030    2    1    2    0    0  0.00000000000E+00  0.00000000000E+00  0.14191792714E+03  0.28745408638E+04  0.28710354368E+04 0.  0.
        5    1    3    3  502    0 -0.56130489655E+03  0.11511960464E+04  0.72011276138E+03  0.14693195715E+04  0.46999998093E+01 0. -1.
       -5    1    3    3    0  502  0.56130489655E+03 -0.11511960464E+04 -0.57819483424E+03  0.14052212923E+04  0.46999998093E+01 0.  1.
</event>
<event>
 5   0  0.1339837E-05  0.2811859E+04  0.7818609E-02  0.8299596E-01
       -2   -1    0    0    0  501  0.00000000000E+00  0.00000000000E+00  0.87310957352E+03  0.87310957352E+03  0.25500000920E-02 0.  1.
        2   -1    0    0  501    0  0.00000000000E+00  0.00000000000E+00 -0.22639052464E+04  0.22639052464E+04  0.25500000920E-02 0. -1.
    10030    2    1    2    0    0  0.00000000000E+00  0.00000000000E+00 -0.13907956729E+04  0.31370148199E+04  0.28118587050E+04 0.  0.
        5    1    3    3  502    0  0.13540522940E+03 -0.70759485535E+03 -0.20423147185E+04  0.21656630751E+04  0.46999998093E+01 0. -1.
       -5    1    3    3    0  502 -0.13540522940E+03  0.70759485535E+03  0.65151904559E+03  0.97135174485E+03  0.46999998093E+01 0.  1.
</event>
<event>
 5   0  0.5002240E-06  0.2898390E+04  0.7818609E-02  0.8273357E-01
       -1   -1    0    0    0  501  0.00000000000E+00  0.00000000000E+00  0.10691976625E+04  0.10691976625E+04  0.50400001928E-02 0. -1.
        1   -1    0    0  501    0  0.00000000000E+00  0.00000000000E+00 -0.19642455386E+04  0.19642455386E+04  0.50400001928E-02 0.  1.
    10030    2    1    2    0    0  0.00000000000E+00  0.00000000000E+00 -0.89504787612E+03  0.30334432010E+04  0.28983904074E+04 0.  0.
        4    1    3    3  502    0  0.19817551619E+03 -0.82592831608E+03  0.78138365531E+03  0.11541200753E+04  0.12699999809E+01 0. -1.
       -4    1    3    3    0  502 -0.19817551619E+03  0.82592831608E+03 -0.16764315314E+04  0.18793231257E+04  0.12699999809E+01 0.  1.
</event>
<event>
 5   0  0.1382803E-05  0.2853630E+04  0.7818609E-02  0.8286809E-01
        2   -1    0    0  501    0  0.00000000000E+00  0.00000000000E+00  0.21152261045E+04  0.21152261045E+04  0.25500000920E-02 0.  1.
       -2   -1    0    0    0  501  0.00000000000E+00  0.00000000000E+00 -0.96245060722E+03  0.96245060722E+03  0.25500000920E-02 0. -1.
    10030    2    1    2    0    0  0.00000000000E+00  0.00000000000E+00  0.11527754972E+04  0.30776767117E+04  0.28536297228E+04 0.  0.
        2    1    3    3  502    0  0.33810983487E+03  0.13858384075E+04  0.60935385940E+03  0.15511861520E+04  0.25500000920E-02 0. -1.
       -2    1    3    3    0  502 -0.33810983487E+03 -0.13858384075E+04  0.54342163784E+03  0.15264905597E+04  0.25500000920E-02 0.  1.
</event>
<event>
 5   0  0.5059249E-06  0.2906718E+04  0.7818609E-02  0.8270881E-01
        1   -1    0    0  501    0  0.00000000000E+00  0.00000000000E+00  0.16703493160E+04  0.16703493160E+04  0.50400001928E-02 0.  1.
       -1   -1    0    0    0  501  0.00000000000E+00  0.00000000000E+00 -0.12645574415E+04  0.12645574415E+04  0.50400001928E-02 0. -1.
    10030    2    1    2    0    0  0.00000000000E+00  0.00000000000E+00  0.40579187444E+03  0.29349067575E+04  0.29067181889E+04 0.  0.
        1    1    3    3  502    0  0.16306122927E+03  0.30674773034E+03 -0.12220195794E+04  0.12704388954E+04  0.50400001928E-02 0. -1.
       -1    1    3    3    0  502 -0.16306122927E+03 -0.30674773034E+03  0.16278114538E+04  0.16644678621E+04  0.50400001928E-02 0.  1.
</event>
<event>
 5   0  0.1385669E-05  0.2894862E+04  0.7818609E-02  0.8274408E-01
       -2   -1    0    0    0  501  0.00000000000E+00  0.00000000000E+00  0.25212304307E+04  0.25212304307E+04  0.25500000920E-02 0.  1.
        2   -1    0    0  501    0  0.00000000000E+00  0.00000000000E+00 -0.83096561160E+03  0.83096561160E+03  0.25500000920E-02 0. -1.
    10030    2    1    2    0    0  0.00000000000E+00  0.00000000000E+00  0.16902648191E+04  0.33521960423E+04  0.28948615074E+04 0.  0.
        3    1    3    3  502    0  0.13228193011E+04 -0.51170889508E+03  0.11794641066E+04  0.18446767970E+04  0.10100000352E+00 0. -1.
       -3    1    3    3    0  502 -0.13228193011E+04  0.51170889508E+03  0.51080071251E+03  0.15075192452E+04  0.10100000352E+00 0.  1.
</event>
<event>
 5   0  0.1339837E-05  0.2844918E+04  0.7818609E-02  0.8289457E-01
       -2   -1    0    0    0  501  0.00000000000E+00  0.00000000000E+00  0.21992706176E+04  0.21992706176E+04  0.25500000920E-02 0.  1.
        2   -1    0    0  501    0  0.00000000000E+00  0.00000000000E+00 -0.92002740930E+03  0.92002740930E+03  0.25500000920E-02 0. -1.
    10030    2    1    2    0    0  0.00000000000E+00  0.00000000000E+00  0.12792432083E+04  0.31192980269E+04  0.28449177483E+04 0.  0.
        5    1    3    3  502    0 -0.26118384999E+03  0.31475088522E+03  0.21333985054E+04  0.21722560613E+04  0.46999998093E+01 0.  1.
       -5    1    3    3    0  502  0.26118384999E+03 -0.31475088522E+03 -0.85415529702E+03  0.94704196563E+03  0.46999998093E+01 0. -1.
</event>
<event>
 5   0  0.5059249E-06  0.2896050E+04  0.7818609E-02  0.8274054E-01
        1   -1    0    0  501    0  0.00000000000E+00  0.00000000000E+00  0.23425750036E+04  0.23425750036E+04  0.50400001928E-02 0. -1.
       -1   -1    0    0    0  501  0.00000000000E+00  0.00000000000E+00 -0.89507347836E+03  0.89507347837E+03  0.50400001928E-02 0.  1.
    10030    2    1    2    0    0  0.00000000000E+00  0.00000000000E+00  0.14475015252E+04  0.32376484820E+04  0.28960502460E+04 0.  0.
        1    1    3    3  502    0  0.46449837118E+03  0.12140215508E+04  0.10386538778E+02  0.12998903580E+04  0.50400001928E-02 0. -1.
       -1    1    3    3    0  502 -0.46449837118E+03 -0.12140215508E+04  0.14371149864E+04  0.19377581240E+04  0.50400001928E-02 0.  1.
</event>
<event>
 5   0  0.5002240E-06  0.2978174E+04  0.7818609E-02  0.8249991E-01
        1   -1    0    0  501    0  0.00000000000E+00  0.00000000000E+00  0.14867899840E+04  0.14867899840E+04  0.50400001928E-02 0.  1.
       -1   -1    0    0    0  501  0.00000000000E+00  0.00000000000E+00 -0.14913877030E+04  0.14913877030E+04  0.50400001928E-02 0. -1.
    10030    2    1    2    0    0  0.00000000000E+00  0.00000000000E+00 -0.45977189478E+01  0.29781776870E+04  0.29781741380E+04 0.  0.
        4    1    3    3  502    0  0.70529281810E+03 -0.40721339207E+02 -0.13131331719E+04  0.14911125131E+04  0.12699999809E+01 0. -1.
       -4    1    3    3    0  502 -0.70529281810E+03  0.40721339207E+02  0.13085354530E+04  0.14870651739E+04  0.12699999809E+01 0.  1.
</event>
<event>
 5   0  0.5261878E-06  0.2878980E+04  0.7818609E-02  0.8279159E-01
       -1   -1    0    0    0  501  0.00000000000E+00  0.00000000000E+00  0.85794064560E+03  0.85794064561E+03  0.50400001928E-02 0.  1.
        1   -1    0    0  501    0  0.00000000000E+00  0.00000000000E+00 -0.24152380058E+04  0.24152380058E+04  0.50400001928E-02 0. -1.
    10030    2    1    2    0    0  0.00000000000E+00  0.00000000000E+00 -0.15572973602E+04  0.32731786515E+04  0.28789795790E+04 0.  0.
        5    1    3    3  502    0 -0.18830920093E+02 -0.29186345377E+03  0.82379601355E+03  0.87418581614E+03  0.46999998093E+01 0.  1.
       -5    1    3    3    0  502  0.18830920093E+02  0.29186345377E+03 -0.23810933738E+04  0.23989928353E+04  0.46999998093E+01 0. -1.
</event>
<event>
 5   0  0.5261878E-06  0.2928980E+04  0.7818609E-02  0.8264307E-01
        1   -1    0    0  501    0  0.00000000000E+00  0.00000000000E+00  0.21891888585E+04  0.21891888585E+04  0.50400001928E-02 0. -1.
       -1   -1    0    0    0  501  0.00000000000E+00  0.00000000000E+00 -0.97969228639E+03  0.97969228640E+03  0.50400001928E-02 0.  1.
    10030    2    1    2    0    0  0.00000000000E+00  0.00000000000E+00  0.12094965721E+04  0.31688811449E+04  0.29289803264E+04 0.  0.
        5    1    3    3  502    0 -0.11866760020E+04 -0.85656005469E+03  0.54735333312E+03  0.15625341027E+04  0.46999998093E+01 0.  1.
       -5    1    3    3    0  502  0.11866760020E+04  0.85656005469E+03  0.66214323897E+03  0.16063470421E+04  0.46999998093E+01 0. -1.
</event>
<event>
 5   0  0.1339837E-05  0.2966609E+04  0.7818609E-02  0.8253331E-01
       -2   -1    0    0    0  501  0.00000000000E+00  0.00000000000E+00  0.76110146274E+03  0.76110146274E+03  0.25500000920E-02 0. -1.
        2   -1    0    0  501    0  0.00000000000E+00  0.00000000000E+00 -0.28908008637E+04  0.28908008637E+04  0.25500000920E-02 0.  1.
    10030    2    1    2    0    0  0.00000000000E+00  0.00000000000E+00 -0.21296994010E+04  0.36519023264E+04  0.29666093547E+04 0.  0.
        5    1    3    3  502    0 -0.65097451647E+03 -0.34327556820E+03  0.52049974692E+03  0.90141445149E+03  0.46999998093E+01 0. -1.
       -5    1    3    3    0  502  0.65097451647E+03  0.34327556820E+03 -0.26501991479E+04  0.27504878749E+04  0.46999998093E+01 0.  1.
</event>
<event>
 5   0  0.1339837E-05  0.2695028E+04  0.7818609E-02  0.8336620E-01
       -2   -1    0    0    0  501  0.00000000000E+00  0.00000000000E+00  0.11965440618E+04  0.11965440618E+04  0.25500000920E-02 0. -1.
        2   -1    0    0  501    0  0.00000000000E+00  0.00000000000E+00 -0.15175317805E+04  0.15175317805E+04  0.25500000920E-02 0.  1.
    10030    2    1    2    0    0  0.00000000000E+00  0.00000000000E+00 -0.32098771864E+03  0.27140758423E+04  0.26950277479E+04 0.  0.
        5    1    3    3  502    0 -0.94693542325E+03 -0.52716138860E+03  0.64590640397E+03  0.12616667540E+04  0.46999998093E+01 0. -1.
       -5    1    3    3    0  502  0.94693542325E+03  0.52716138860E+03 -0.96689412261E+03  0.14524090883E+04  0.46999998093E+01 0.  1.
</event>
<event>
 5   0  0.1385669E-05  0.2920193E+04  0.7818609E-02  0.8266895E-01
        2   -1    0    0  501    0  0.00000000000E+00  0.00000000000E+00  0.10848229320E+04  0.10848229320E+04  0.25500000920E-02 0.  1.
       -2   -1    0    0    0  501  0.00000000000E+00  0.00000000000E+00 -0.19651881511E+04  0.19651881511E+04  0.25500000920E-02 0. -1.
    10030    2    1    2    0    0  0.00000000000E+00  0.00000000000E+00 -0.88036521909E+03  0.30500110830E+04  0.29201925771E+04 0.  0.
        3    1    3    3  502    0 -0.10726472673E+04  0.14989349601E+03 -0.14629178239E+04  0.18202111937E+04  0.10100000352E+00 0. -1.
       -3    1    3    3    0  502  0.10726472673E+04 -0.14989349601E+03  0.58255260480E+03  0.12297998893E+04  0.10100000352E+00 0.  1.
</event>
<event>
 5   0  0.1339837E-05  0.2879779E+04  0.7818609E-02  0.8278919E-01
        2   -1    0    0  501    0  0.00000000000E+00  0.00000000000E+00  0.11457006016E+04  0.11457006016E+04  0.25500000920E-02 0.  1.
       -2   -1    0    0    0  501  0.00000000000E+00  0.00000000000E+00 -0.18096197878E+04  0.18096197878E+04  0.25500000920E-02 0. -1.
    10030    2    1    2    0    0  0.00000000000E+00  0.00000000000E+00 -0.66391918622E+03  0.29553203893E+04  0.28797794912E+04 0.  0.
        5    1    3    3  502    0  0.13787269009E+04  0.28401630869E+03 -0.64273539180E+03  0.15474766572E+04  0.46999998093E+01 0. -1.
       -5    1    3    3    0  502 -0.13787269009E+04 -0.28401630869E+03 -0.21183794423E+02  0.14078437321E+04  0.46999998093E+01 0.  1.
</event>
<event>
 5   0  0.5352212E-06  0.2891648E+04  0.7818609E-02  0.8275367E-01
        1   -1    0    0  501    0  0.00000000000E+00  0.00000000000E+00  0.18665568078E+04  0.18665568078E+04  0.50400001928E-02 0. -1.
       -1   -1    0    0    0  501  0.00000000000E+00  0.00000000000E+00 -0.11199270858E+04  0.11199270859E+04  0.50400001928E-02 0.  1.
    10030    2    1    2    0    0  0.00000000000E+00  0.00000000000E+00  0.74662972190E+03  0.29864838936E+04  0.28916483371E+04 0.  0.
        2    1    3    3  502    0  0.10654737314E+04 -0.95653281503E+03  0.16619289194E+03  0.14414608478E+04  0.25500000920E-02 0.  1.
       -2    1    3    3    0  502 -0.10654737314E+04  0.95653281503E+03  0.58043682996E+03  0.15450230458E+04  0.25500000920E-02 0. -1.
</event>
<event>
 5   0  0.1385669E-05  0.2915599E+04  0.7818609E-02  0.8268251E-01
        2   -1    0    0  501    0  0.00000000000E+00  0.00000000000E+00  0.19535496801E+04  0.19535496801E+04  0.25500000920E-02 0.  1.
       -2   -1    0    0    0  501  0.00000000000E+00  0.00000000000E+00 -0.10878552728E+04  0.10878552728E+04  0.25500000920E-02 0. -1.
    10030    2    1    2    0    0  0.00000000000E+00  0.00000000000E+00  0.86569440731E+03  0.30414049529E+04  0.29155989575E+04 0.  0.
        3    1    3    3  502    0 -0.37885281579E+03 -0.10129550066E+04  0.14525607116E+04  0.18109500083E+04  0.10100000352E+00 0.  1.
       -3    1    3    3    0  502  0.37885281579E+03  0.10129550066E+04 -0.58686630429E+03  0.12304549446E+04  0.10100000352E+00 0. -1.
</event>
<event>
 5   0  0.1307832E-05  0.2934267E+04  0.7818609E-02  0.8262754E-01
        2   -1    0    0  501    0  0.00000000000E+00  0.00000000000E+00  0.15295209969E+04  0.15295209969E+04  0.25500000920E-02 0. -1.
       -2   -1    0    0    0  501  0.00000000000E+00  0.00000000000E+00 -0.14072907771E+04  0.14072907771E+04  0.25500000920E-02 0.  1.
    10030    2    1    2    0    0  0.00000000000E+00  0.00000000000E+00  0.12223021979E+03  0.29368117741E+04  0.29342670584E+04 0.  0.
        4    1    3    3  502    0  0.26123324705E+03  0.52028689063E+03 -0.12867294039E+04  0.14123085462E+04  0.12699999809E+01 0.  1.
       -4    1    3    3    0  502 -0.26123324705E+03 -0.52028689063E+03  0.14089596236E+04  0.15245032279E+04  0.12699999809E+01 0. -1.
</event>
<event>
 5   0  0.1385669E-05  0.2844553E+04  0.7818609E-02  0.8289568E-01
        2   -1    0    0  501    0  0.00000000000E+00  0.00000000000E+00  0.63901678505E+03  0.63901678506E+03  0.25500000920E-02 0.  1.
       -2   -1    0    0    0  501  0.00000000000E+00  0.00000000000E+00 -0.31655985361E+04  0.31655985361E+04  0.25500000920E-02 0. -1.
    10030    2    1    2    0    0  0.00000000000E+00  0.00000000000E+00 -0.25265817510E+04  0.38046153211E+04  0.28445531103E+04 0.  0.
        3    1    3    3  502    0  0.12762340324E+04  0.35358359957E+03 -0.19570906016E+04  0.23630485184E+04  0.10100000352E+00 0. -1.
       -3    1    3    3    0  502 -0.12762340324E+04 -0.35358359957E+03 -0.56949114941E+03  0.14415668027E+04  0.10100000352E+00 0.  1.
</event>
<event>
 5   0  0.5352212E-06  0.2902454E+04  0.7818609E-02  0.8272148E-01
       -1   -1    0    0    0  501  0.00000000000E+00  0.00000000000E+00  0.15687723618E+04  0.15687723618E+04  0.50400001928E-02 0. -1.
        1   -1    0    0  501    0  0.00000000000E+00  0.00000000000E+00 -0.13424888087E+04  0.13424888087E+04  0.50400001928E-02 0.  1.
    10030    2    1    2    0    0  0.00000000000E+00  0.00000000000E+00  0.22628355313E+03  0.29112611705E+04  0.29024536786E+04 0.  0.
        2    1    3    3  502    0  0.45565129676E+03 -0.11566591674E+04 -0.63784965534E+03  0.13972582856E+04  0.25500000920E-02 0.  1.
       -2    1    3    3    0  502 -0.45565129676E+03  0.11566591674E+04  0.86413320846E+03  0.15140028850E+04  0.25500000920E-02 0. -1.
</event>
<event>
 5   0  0.1382803E-05  0.2826767E+04  0.7818609E-02  0.8295006E-01
        2   -1    0    0  501    0  0.00000000000E+00  0.00000000000E+00  0.13686163238E+04  0.13686163238E+04  0.25500000920E-02 0.  1.
       -2   -1    0    0    0  501  0.00000000000E+00  0.00000000000E+00 -0.14596152487E+04  0.14596152487E+04  0.25500000920E-02 0. -1.
    10030    2    1    2    0    0  0.00000000000E+00  0.00000000000E+00 -0.90998924979E+02  0.28282315725E+04  0.28267672390E+04 0.  0.
        2    1    3    3  502    0 -0.28276147204E+03 -0.42493845857E+02 -0.14303745294E+04  0.14586744227E+04  0.25500000920E-02 0. -1.
       -2    1    3    3    0  502  0.28276147204E+03  0.42493845857E+02  0.13393756044E+04  0.13695571498E+04  0.25500000920E-02 0.  1.
</event>
<event>
 5   0  0.5002240E-06  0.2858113E+04  0.7818609E-02  0.8285450E-01
       -1   -1    0    0    0  501  0.00000000000E+00  0.00000000000E+00  0.14727292275E+04  0.14727292275E+04  0.50400001928E-02 0.  1.
        1   -1    0    0  501    0  0.00000000000E+00  0.00000000000E+00 -0.13866784191E+04  0.13866784191E+04  0.50400001928E-02 0. -1.
    10030    2    1    2    0    0  0.00000000000E+00  0.00000000000E+00  0.86050808457E+02  0.28594076466E+04  0.28581125499E+04 0.  0.
        4    1    3    3  502    0  0.54950771964E+03 -0.15946482646E+03 -0.12670764534E+04  0.13902777120E+04  0.12699999809E+01 0. -1.
       -4    1    3    3    0  502 -0.54950771964E+03  0.15946482646E+03  0.13531272619E+04  0.14691299346E+04  0.12699999809E+01 0.  1.
</event>
<event>
 5   0  0.5002240E-06  0.2581023E+04  0.7818609E-02  0.8374676E-01
       -1   -1    0    0    0  501  0.00000000000E+00  0.00000000000E+00  0.19148718201E+04  0.19148718201E+04  0.50400001928E-02 0.  1.
        1   -1    0    0  501    0  0.00000000000E+00  0.00000000000E+00 -0.86972910253E+03  0.86972910254E+03  0.50400001928E-02 0. -1.
    10030    2    1    2    0    0  0.00000000000E+00  0.00000000000E+00  0.10451427175E+04  0.27846009226E+04  0.25810228589E+04 0.  0.
        4    1    3    3  502    0 -0.14278616229E+03 -0.81430261262E+03 -0.54651778666E+03  0.99103982619E+03  0.12699999809E+01 0. -1.
       -4    1    3    3    0  502  0.14278616229E+03  0.81430261262E+03  0.15916605042E+04  0.17935610964E+04  0.12699999809E+01 0.  1.
</event>
<event>
 5   0  0.1307832E-05  0.2891386E+04  0.7818609E-02  0.8275445E-01
        2   -1    0    0  501    0  0.00000000000E+00  0.00000000000E+00  0.76277253515E+03  0.76277253515E+03  0.25500000920E-02 0. -1.
       -2   -1    0    0    0  501  0.00000000000E+00  0.00000000000E+00 -0.27400416514E+04  0.27400416514E+04  0.25500000920E-02 0.  1.
    10030    2    1    2    0    0  0.00000000000E+00  0.00000000000E+00 -0.19772691162E+04  0.35028141865E+04  0.28913861844E+04 0.  0.
        4    1    3    3  502    0  0.11548683795E+04  0.21369447896E+03  0.32624699049E+02  0.11749265033E+04  0.12699999809E+01 0. -1.
       -4    1    3    3    0  502 -0.11548683795E+04 -0.21369447896E+03 -0.20098938153E+04  0.23278876832E+04  0.12699999809E+01 0.  1.
</event>
<event>
 5   0  0.5154476E-06  0.2562802E+04  0.7818609E-02  0.8380947E-01
        1   -1    0    0  501    0  0.00000000000E+00  0.00000000000E+00  0.21382732085E+04  0.21382732085E+04  0.50400001928E-02 0.  1.
       -1   -1    0    0    0  501  0.00000000000E+00  0.00000000000E+00 -0.76790382843E+03  0.76790382845E+03  0.50400001928E-02 0. -1.
    10030    2    1    2    0    0  0.00000000000E+00  0.00000000000E+00  0.13703693801E+04  0.29061770369E+04  0.25628017349E+04 0.  0.
        3    1    3    3  502    0 -0.55477174256E+03 -0.20893373613E+03 -0.60305505175E+03  0.84563609081E+03  0.10100000352E+00 0. -1.
       -3    1    3    3    0  502  0.55477174256E+03  0.20893373613E+03  0.19734244318E+04  0.20605409461E+04  0.10100000352E+00 0.  1.
</event>
<event>
 5   0  0.4590125E-06  0.2924104E+04  0.7818609E-02  0.8265742E-01
        4   -1    0    0  501    0  0.00000000000E+00  0.00000000000E+00  0.14025160983E+04  0.14025166733E+04  0.12699999809E+01 0. -1.
       -4   -1    0    0    0  501  0.00000000000E+00  0.00000000000E+00 -0.15241139378E+04  0.15241144669E+04  0.12699999809E+01 0.  1.
    10030    2    1    2    0    0  0.00000000000E+00  0.00000000000E+00 -0.12159783946E+03  0.29266311402E+04  0.29241039305E+04 0.  0.
        3    1    3    3  502    0  0.24192750364E+03  0.54411075979E+03 -0.13972471353E+04  0.15188433110E+04  0.10100000352E+00 0.  1.
       -3    1    3    3    0  502 -0.24192750364E+03 -0.54411075979E+03  0.12756492958E+04  0.14077878292E+04  0.10100000352E+00 0. -1.
</event>
<event>
 5   0  0.1336899E-05  0.2933110E+04  0.7818609E-02  0.8263094E-01
       -2   -1    0    0    0  501  0.00000000000E+00  0.00000000000E+00  0.19703330479E+04  0.19703330479E+04  0.25500000920E-02 0. -1.
        2   -1    0    0  501    0  0.00000000000E+00  0.00000000000E+00 -0.10915834524E+04  0.10915834524E+04  0.25500000920E-02 0.  1.
    10030    2    1    2    0    0  0.00000000000E+00  0.00000000000E+00  0.87874959547E+03  0.30619165003E+04  0.29331095792E+04 0.  0.
        1    1    3    3  502    0 -0.94061390776E+03 -0.67460230922E+03 -0.50069360785E+03  0.12611648933E+04  0.50400001928E-02 0.  1.
       -1    1    3    3    0  502  0.94061390776E+03  0.67460230922E+03  0.13794432033E+04  0.18007516071E+04  0.50400001928E-02 0. -1.
</event>
<event>
 5   0  0.1385669E-05  0.2959647E+04  0.7818609E-02  0.8255349E-01
        2   -1    0    0  501    0  0.00000000000E+00  0.00000000000E+00  0.17453618288E+04  0.17453618288E+04  0.25500000920E-02 0. -1.
       -2   -1    0    0    0  501  0.00000000000E+00  0.00000000000E+00 -0.12546841045E+04  0.12546841045E+04  0.25500000920E-02 0.  1.
    10030    2    1    2    0    0  0.00000000000E+00  0.00000000000E+00  0.49067772435E+03  0.30000459333E+04  0.29596471027E+04 0.  0.
        3    1    3    3  502    0  0.79117366480E+03 -0.13675095373E+03 -0.10146981275E+04  0.12939354278E+04  0.10100000352E+00 0.  1.
       -3    1    3    3    0  502 -0.79117366480E+03  0.13675095373E+03  0.15053758519E+04  0.17061105054E+04  0.10100000352E+00 0. -1.
</event>
<event>
 5   0  0.1307832E-05  0.2900653E+04  0.7818609E-02  0.8272683E-01
        2   -1    0    0  501    0  0.00000000000E+00  0.00000000000E+00  0.13228463111E+04  0.13228463111E+04  0.25500000920E-02 0.  1.
       -2   -1    0    0    0  501  0.00000000000E+00  0.00000000000E+00 -0.15900916870E+04  0.15900916870E+04  0.25500000920E-02 0. -1.
    10030    2    1    2    0    0  0.00000000000E+00  0.00000000000E+00 -0.26724537589E+03  0.29129379981E+04  0.29006529765E+04 0.  0.
        4    1    3    3  502    0 -0.88310328024E+01 -0.10311222849E+04 -0.11578216245E+04  0.15504333848E+04  0.12699999809E+01 0. -1.
       -4    1    3    3    0  502  0.88310328024E+01  0.10311222849E+04  0.89057624866E+03  0.13625046133E+04  0.12699999809E+01 0.  1.
</event>
<event>
 5   0  0.5059249E-06  0.3044822E+04  0.7818609E-02  0.8231046E-01
        1   -1    0    0  501    0  0.00000000000E+00  0.00000000000E+00  0.21697578610E+04  0.21697578610E+04  0.50400001928E-02 0. -1.
       -1   -1    0    0    0  501  0.00000000000E+00  0.00000000000E+00 -0.10682000564E+04  0.10682000564E+04  0.50400001928E-02 0.  1.
    10030    2    1    2    0    0  0.00000000000E+00  0.00000000000E+00  0.11015578046E+04  0.32379579174E+04  0.30448221423E+04 0.  0.
        1    1    3    3  502    0 -0.69087736035E+02 -0.33797807426E+02  0.21676905332E+04  0.21690545532E+04  0.50400001928E-02 0. -1.
       -1    1    3    3    0  502  0.69087736035E+02  0.33797807426E+02 -0.10661327286E+04  0.10689033642E+04  0.50400001928E-02 0.  1.
</event>
<event>
 5   0  0.1307832E-05  0.2776958E+04  0.7818609E-02  0.8310458E-01
        2   -1    0    0  501    0  0.00000000000E+00  0.00000000000E+00  0.14294891849E+04  0.14294891849E+04  0.25500000920E-02 0.  1.
       -2   -1    0    0    0  501  0.00000000000E+00  0.00000000000E+00 -0.13486454436E+04  0.13486454436E+04  0.25500000920E-02 0. -1.
    10030    2    1    2    0    0  0.00000000000E+00  0.00000000000E+00  0.80843741302E+02  0.27781346286E+04  0.27769581027E+04 0.  0.
        4    1    3    3  502    0  0.41381837501E+03  0.29608550086E+03 -0.12520078886E+04  0.13514575973E+04  0.12699999809E+01 0. -1.
       -4    1    3    3    0  502 -0.41381837501E+03 -0.29608550086E+03  0.13328516299E+04  0.14266770313E+04  0.12699999809E+01 0.  1.
</event>
<event>
 5   0  0.5154476E-06  0.2877651E+04  0.7818609E-02  0.8279558E-01
       -1   -1    0    0    0  501  0.00000000000E+00  0.00000000000E+00  0.87901686343E+03  0.87901686344E+03  0.50400001928E-02 0.  1.
        1   -1    0    0  501    0  0.00000000000E+00  0.00000000000E+00 -0.23551527181E+04  0.23551527181E+04  0.50400001928E-02 0. -1.
    10030    2    1    2    0    0  0.00000000000E+00  0.00000000000E+00 -0.14761358547E+04  0.32341695816E+04  0.28776510944E+04 0.  0.
        3    1    3    3  502    0  0.50261452093E+03 -0.12162140805E+04 -0.13918804574E+04  0.19154971324E+04  0.10100000352E+00 0. -1.
       -3    1    3    3    0  502 -0.50261452093E+03  0.12162140805E+04 -0.84255397293E+02  0.13186724492E+04  0.10100000352E+00 0.  1.
</event>
<event>
 5   0  0.1385669E-05  0.1821473E+04  0.7818609E-02  0.8694963E-01
       -2   -1    0    0    0  501  0.00000000000E+00  0.00000000000E+00  0.80091496760E+03  0.80091496760E+03  0.25500000920E-02 0.  1.
        2   -1    0    0  501    0  0.00000000000E+00  0.00000000000E+00 -0.10356169889E+04  0.10356169889E+04  0.25500000920E-02 0. -1.
    10030    2    1    2    0    0  0.00000000000E+00  0.00000000000E+00 -0.23470202127E+03  0.18365319565E+04  0.18214731918E+04 0.  0.
        3    1    3    3  502    0 -0.13199719875E+03 -0.48456953708E+03  0.64867359432E+03  0.82037085450E+03  0.10100000352E+00 0.  1.
       -3    1    3    3    0  502  0.13199719875E+03  0.48456953708E+03 -0.88337561559E+03  0.10161611020E+04  0.10100000352E+00 0. -1.
</event>
<event>
 5   0  0.1385669E-05  0.2936622E+04  0.7818609E-02  0.8262064E-01
        2   -1    0    0  501    0  0.00000000000E+00  0.00000000000E+00  0.14822503222E+04  0.14822503222E+04  0.25500000920E-02 0. -1.
       -2   -1    0    0    0  501  0.00000000000E+00  0.00000000000E+00 -0.14545026743E+04  0.14545026743E+04  0.25500000920E-02 0.  1.
    10030    2    1    2    0    0  0.00000000000E+00  0.00000000000E+00  0.27747647897E+02  0.29367529965E+04  0.29366219080E+04 0.  0.
        3    1    3    3  502    0  0.63489142581E+03  0.87649240975E+03  0.10061937759E+04  0.14777523445E+04  0.10100000352E+00 0. -1.
       -3    1    3    3    0  502 -0.63489142581E+03 -0.87649240975E+03 -0.97844612797E+03  0.14590006520E+04  0.10100000352E+00 0.  1.
</event>
<event>
 5   0  0.5002240E-06  0.2943142E+04  0.7818609E-02  0.8260156E-01
       -1   -1    0    0    0  501  0.00000000000E+00  0.00000000000E+00  0.10883536879E+04  0.10883536879E+04  0.50400001928E-02 0.  1.
        1   -1    0    0  501    0  0.00000000000E+00  0.00000000000E+00 -0.19897225502E+04  0.19897225502E+04  0.50400001928E-02 0. -1.
    10030    2    1    2    0    0  0.00000000000E+00  0.00000000000E+00 -0.90136886225E+03  0.30780762381E+04  0.29431424535E+04 0.  0.
        4    1    3    3  502    0  0.19214640148E+03 -0.14391508071E+04 -0.20001918743E+03  0.14656345293E+04  0.12699999809E+01 0.  1.
       -4    1    3    3    0  502 -0.19214640148E+03  0.14391508071E+04 -0.70134967482E+03  0.16124417088E+04  0.12699999809E+01 0. -1.
</event>
<event>
 5   0  0.5059249E-06  0.3103200E+04  0.7818609E-02  0.8214860E-01
       -1   -1    0    0    0  501  0.00000000000E+00  0.00000000000E+00  0.13151773329E+04  0.13151773329E+04  0.50400001928E-02 0. -1.
        1   -1    0    0  501    0  0.00000000000E+00  0.00000000000E+00 -0.18305226732E+04  0.18305226732E+04  0.50400001928E-02 0.  1.
    10030    2    1    2    0    0  0.00000000000E+00  0.00000000000E+00 -0.51534534034E+03  0.31457000061E+04  0.31031995921E+04 0.  0.
        1    1    3    3  502    0  0.92591132119E+03  0.78984423068E+03  0.71795148680E+03  0.14130180540E+04  0.50400001928E-02 0. -1.
       -1    1    3    3    0  502 -0.92591132119E+03 -0.78984423068E+03 -0.12332968271E+04  0.17326819521E+04  0.50400001928E-02 0.  1.
</event>
<event>
 5   0  0.1336899E-05  0.2896997E+04  0.7818609E-02  0.8273771E-01
        2   -1    0    0  501    0  0.00000000000E+00  0.00000000000E+00  0.24496034631E+04  0.24496034631E+04  0.25500000920E-02 0. -1.
       -2   -1    0    0    0  501  0.00000000000E+00  0.00000000000E+00 -0.85652571598E+03  0.85652571599E+03  0.25500000920E-02 0.  1.
    10030    2    1    2    0    0  0.00000000000E+00  0.00000000000E+00  0.15930777471E+04  0.33061291791E+04  0.28969973145E+04 0.  0.
        1    1    3    3  502    0  0.26910837436E+02 -0.48138631926E+03  0.23553432925E+04  0.24041836467E+04  0.50400001928E-02 0. -1.
       -1    1    3    3    0  502 -0.26910837436E+02  0.48138631926E+03 -0.76226554542E+03  0.90194553234E+03  0.50400001928E-02 0.  1.
</event>
<event>
 5   0  0.5002240E-06  0.1776226E+04  0.7818609E-02  0.8719045E-01
        1   -1    0    0  501    0  0.00000000000E+00  0.00000000000E+00  0.11907064813E+04  0.11907064813E+04  0.50400001928E-02 0.  1.
       -1   -1    0    0    0  501  0.00000000000E+00  0.00000000000E+00 -0.66241736800E+03  0.66241736802E+03  0.50400001928E-02 0. -1.
    10030    2    1    2    0    0  0.00000000000E+00  0.00000000000E+00  0.52828911331E+03  0.18531238493E+04  0.17762259467E+04 0.  0.
        4    1    3    3  502    0  0.64525265144E+02 -0.88267224102E+03  0.18698851311E+03  0.90456625619E+03  0.12699999809E+01 0.  1.
       -4    1    3    3    0  502 -0.64525265144E+02  0.88267224102E+03  0.34130060020E+03  0.94855759314E+03  0.12699999809E+01 0. -1.
</event>
<event>
 5   0  0.1339837E-05  0.2878499E+04  0.7818609E-02  0.8279303E-01
       -2   -1    0    0    0  501  0.00000000000E+00  0.00000000000E+00  0.15954212765E+04  0.15954212765E+04  0.25500000920E-02 0.  1.
        2   -1    0    0  501    0  0.00000000000E+00  0.00000000000E+00 -0.12983651173E+04  0.12983651173E+04  0.25500000920E-02 0. -1.
    10030    2    1    2    0    0  0.00000000000E+00  0.00000000000E+00  0.29705615918E+03  0.28937863937E+04  0.28784991455E+04 0.  0.
        5    1    3    3  502    0  0.40877068326E+03  0.83813877147E+03 -0.95358203514E+03  0.13337581713E+04  0.46999998093E+01 0. -1.
       -5    1    3    3    0  502 -0.40877068326E+03 -0.83813877147E+03  0.12506381943E+04  0.15600282224E+04  0.46999998093E+01 0.  1.
</event>
<event>
 5   0  0.5352212E-06  0.2909743E+04  0.7818609E-02  0.8269984E-01
        1   -1    0    0  501    0  0.00000000000E+00  0.00000000000E+00  0.12617835445E+04  0.12617835445E+04  0.50400001928E-02 0. -1.
       -1   -1    0    0    0  501  0.00000000000E+00  0.00000000000E+00 -0.16775075408E+04  0.16775075408E+04  0.50400001928E-02 0.  1.
    10030    2    1    2    0    0  0.00000000000E+00  0.00000000000E+00 -0.41572399632E+03  0.29392910853E+04  0.29097432263E+04 0.  0.
        2    1    3    3  502    0  0.42694193536E+03  0.54258927897E+02  0.11960089572E+04  0.12710864932E+04  0.25500000920E-02 0. -1.
       -2    1    3    3    0  502 -0.42694193536E+03 -0.54258927897E+02 -0.16117329536E+04  0.16682045921E+04  0.25500000920E-02 0.  1.
</event>
<event>
 5   0  0.5261878E-06  0.2827695E+04  0.7818609E-02  0.8294722E-01
       -1   -1    0    0    0  501  0.00000000000E+00  0.00000000000E+00  0.92053808794E+03  0.92053808795E+03  0.50400001928E-02 0. -1.
        1   -1    0    0  501    0  0.00000000000E+00  0.00000000000E+00 -0.21715170824E+04  0.21715170824E+04  0.50400001928E-02 0.  1.
    10030    2    1    2    0    0  0.00000000000E+00  0.00000000000E+00 -0.12509789945E+04  0.30920551704E+04  0.28276945967E+04 0.  0.
        5    1    3    3  502    0  0.29897084520E+03  0.25415906372E+03 -0.21107697583E+04  0.21469400221E+04  0.46999998093E+01 0.  1.
       -5    1    3    3    0  502 -0.29897084520E+03 -0.25415906372E+03  0.85979076382E+03  0.94511514827E+03  0.46999998093E+01 0. -1.
</event>
<event>
 5   0  0.5059249E-06  0.1947525E+04  0.7818609E-02  0.8631555E-01
       -1   -1    0    0    0  501  0.00000000000E+00  0.00000000000E+00  0.11342136300E+04  0.11342136300E+04  0.50400001928E-02 0.  1.
        1   -1    0    0  501    0  0.00000000000E+00  0.00000000000E+00 -0.83600967651E+03  0.83600967652E+03  0.50400001928E-02 0. -1.
    10030    2    1    2    0    0  0.00000000000E+00  0.00000000000E+00  0.29820395344E+03  0.19702233065E+04  0.19475251679E+04 0.  0.
        1    1    3    3  502    0  0.88954581784E+03  0.18129714954E+03  0.50541875599E+03  0.10390421249E+04  0.50400001928E-02 0.  1.
       -1    1    3    3    0  502 -0.88954581784E+03 -0.18129714954E+03 -0.20721480255E+03  0.93118118155E+03  0.50400001928E-02 0. -1.
</event>
<event>
 5   0  0.1339837E-05  0.2903760E+04  0.7818609E-02  0.8271760E-01
       -2   -1    0    0    0  501  0.00000000000E+00  0.00000000000E+00  0.10487173131E+04  0.10487173132E+04  0.25500000920E-02 0.  1.
        2   -1    0    0  501    0  0.00000000000E+00  0.00000000000E+00 -0.20100323892E+04  0.20100323892E+04  0.25500000920E-02 0. -1.
    10030    2    1    2    0    0  0.00000000000E+00  0.00000000000E+00 -0.96131507603E+03  0.30587497023E+04  0.29037601599E+04 0.  0.
        5    1    3    3  502    0 -0.29160633392E+03 -0.92428914208E+03  0.65805498158E+03  0.11714961037E+04  0.46999998093E+01 0.  1.
       -5    1    3    3    0  502  0.29160633392E+03  0.92428914208E+03 -0.16193700576E+04  0.18872535986E+04  0.46999998093E+01 0. -1.
</event>
<event>
 5   0  0.5352212E-06  0.2669257E+04  0.7818609E-02  0.8345050E-01
       -1   -1    0    0    0  501  0.00000000000E+00  0.00000000000E+00  0.15787106700E+04  0.15787106700E+04  0.50400001928E-02 0. -1.
        1   -1    0    0  501    0  0.00000000000E+00  0.00000000000E+00 -0.11282832530E+04  0.11282832530E+04  0.50400001928E-02 0.  1.
    10030    2    1    2    0    0  0.00000000000E+00  0.00000000000E+00  0.45042741697E+03  0.27069939230E+04  0.26692566833E+04 0.  0.
        2    1    3    3  502    0  0.74435175442E+03  0.10883507778E+04  0.15736298374E+02  0.13186411874E+04  0.25500000920E-02 0.  1.
       -2    1    3    3    0  502 -0.74435175442E+03 -0.10883507778E+04  0.43469111860E+03  0.13883527356E+04  0.25500000920E-02 0. -1.
</event>
<event>
 5   0  0.5154476E-06  0.2863783E+04  0.7818609E-02  0.8283735E-01
       -1   -1    0    0    0  501  0.00000000000E+00  0.00000000000E+00  0.11183463731E+04  0.11183463731E+04  0.50400001928E-02 0.  1.
        1   -1    0    0  501    0  0.00000000000E+00  0.00000000000E+00 -0.18333435993E+04  0.18333435993E+04  0.50400001928E-02 0. -1.
    10030    2    1    2    0    0  0.00000000000E+00  0.00000000000E+00 -0.71499722619E+03  0.29516899725E+04  0.28637829282E+04 0.  0.
        3    1    3    3  502    0  0.43421664089E+03  0.93264758126E+03  0.66903413853E+03  0.12271847012E+04  0.10100000352E+00 0. -1.
       -3    1    3    3    0  502 -0.43421664089E+03 -0.93264758126E+03 -0.13840313647E+04  0.17245052713E+04  0.10100000352E+00 0.  1.
</event>
<event>
 5   0  0.1385669E-05  0.2977505E+04  0.7818609E-02  0.8250184E-01
       -2   -1    0    0    0  501  0.00000000000E+00  0.00000000000E+00  0.10814704629E+04  0.10814704629E+04  0.25500000920E-02 0.  1.
        2   -1    0    0  501    0  0.00000000000E+00  0.00000000000E+00 -0.20494172979E+04  0.20494172979E+04  0.25500000920E-02 0. -1.
    10030    2    1    2    0    0  0.00000000000E+00  0.00000000000E+00 -0.96794683494E+03  0.31308877608E+04  0.29775051798E+04 0.  0.
        3    1    3    3  502    0  0.15078124998E+03 -0.91626760213E+03  0.73963038201E+03  0.11871539143E+04  0.10100000352E+00 0.  1.
       -3    1    3    3    0  502 -0.15078124998E+03  0.91626760213E+03 -0.17075772170E+04  0.19437338465E+04  0.10100000352E+00 0. -1.
</event>
<event>
 5   0  0.1339837E-05  0.2679360E+04  0.7818609E-02  0.8341733E-01
        2   -1    0    0  501    0  0.00000000000E+00  0.00000000000E+00  0.12740623289E+04  0.12740623289E+04  0.25500000920E-02 0.  1.
       -2   -1    0    0    0  501  0.00000000000E+00  0.00000000000E+00 -0.14086769170E+04  0.14086769170E+04  0.25500000920E-02 0. -1.
    10030    2    1    2    0    0  0.00000000000E+00  0.00000000000E+00 -0.13461458812E+03  0.26827392459E+04  0.26793597694E+04 0.  0.
        5    1    3    3  502    0  0.42966455537E+03  0.12351511102E+04 -0.35838035738E+03  0.13559750978E+04  0.46999998093E+01 0. -1.
       -5    1    3    3    0  502 -0.42966455537E+03 -0.12351511102E+04  0.22376576926E+03  0.13267641481E+04  0.46999998093E+01 0.  1.
</event>
<event>
 5   0  0.1336899E-05  0.2351574E+04  0.7818609E-02  0.8457859E-01
       -2   -1    0    0    0  501  0.00000000000E+00  0.00000000000E+00  0.13078816176E+04  0.13078816176E+04  0.25500000920E-02 0.  1.
        2   -1    0    0  501    0  0.00000000000E+00  0.00000000000E+00 -0.10570337541E+04  0.10570337541E+04  0.25500000920E-02 0. -1.
    10030    2    1    2    0    0  0.00000000000E+00  0.00000000000E+00  0.25084786357E+03  0.23649153717E+04  0.23515739547E+04 0.  0.
        1    1    3    3  502    0  0.24011110364E+03 -0.51845928044E+03 -0.90803535779E+03  0.10728380952E+04  0.50400001928E-02 0. -1.
       -1    1    3    3    0  502 -0.24011110364E+03  0.51845928044E+03  0.11588832214E+04  0.12920772765E+04  0.50400001928E-02 0.  1.
</event>
<event>
 5   0  0.5002240E-06  0.2888541E+04  0.7818609E-02  0.8276295E-01
        1   -1    0    0  501    0  0.00000000000E+00  0.00000000000E+00  0.23585154520E+04  0.23585154520E+04  0.50400001928E-02 0. -1.
       -1   -1    0    0    0  501  0.00000000000E+00  0.00000000000E+00 -0.88441954818E+03  0.88441954819E+03  0.50400001928E-02 0.  1.
    10030    2    1    2    0    0  0.00000000000E+00  0.00000000000E+00  0.14740959038E+04  0.32429350002E+04  0.28885409261E+04 0.  0.
        4    1    3    3  502    0 -0.16932506645E+03  0.81229531916E+02 -0.87065238460E+03  0.89067749645E+03  0.12699999809E+01 0.  1.
       -4    1    3    3    0  502  0.16932506645E+03 -0.81229531916E+02  0.23447482884E+04  0.23522575037E+04  0.12699999809E+01 0. -1.
</event>
<event>
 5   0  0.5154476E-06  0.2809625E+04  0.7818609E-02  0.8300286E-01
       -1   -1    0    0    0  501  0.00000000000E+00  0.00000000000E+00  0.10947550381E+04  0.10947550381E+04  0.50400001928E-02 0.  1.
        1   -1    0    0  501    0  0.00000000000E+00  0.00000000000E+00 -0.18026852161E+04  0.18026852161E+04  0.50400001928E-02 0. -1.
    10030    2    1    2    0    0  0.00000000000E+00  0.00000000000E+00 -0.70793017798E+03  0.28974402542E+04  0.28096254003E+04 0.  0.
        3    1    3    3  502    0  0.96003029523E+02  0.11093811843E+04  0.52928270891E+03  0.12329166192E+04  0.10100000352E+00 0.  1.
       -3    1    3    3    0  502 -0.96003029523E+02 -0.11093811843E+04 -0.12372128869E+04  0.16645236350E+04  0.10100000352E+00 0. -1.
</event>
<event>
 5   0  0.5059249E-06  0.2878432E+04  0.7818609E-02  0.8279324E-01
        1   -1    0    0  501    0  0.00000000000E+00  0.00000000000E+00  0.17064366995E+04  0.17064366995E+04  0.50400001928E-02 0. -1.
       -1   -1    0    0    0  501  0.00000000000E+00  0.00000000000E+00 -0.12138412567E+04  0.12138412567E+04  0.50400001928E-02 0.  1.
    10030    2    1    2    0    0  0.00000000000E+00  0.00000000000E+00  0.49259544279E+03  0.29202779562E+04  0.28784323982E+04 0.  0.
        1    1    3    3  502    0  0.98007374459E+03  0.21412624455E+02 -0.82274778469E+03  0.12798112996E+04  0.50400001928E-02 0.  1.
       -1    1    3    3    0  502 -0.98007374459E+03 -0.21412624455E+02  0.13153432275E+04  0.16404666566E+04  0.50400001928E-02 0. -1.
</event>
<event>
 5   0  0.1382803E-05  0.2963482E+04  0.7818609E-02  0.8254236E-01
        2   -1    0    0  501    0  0.00000000000E+00  0.00000000000E+00  0.27995972179E+04  0.27995972179E+04  0.25500000920E-02 0. -1.
       -2   -1    0    0    0  501  0.00000000000E+00  0.00000000000E+00 -0.78424015479E+03  0.78424015479E+03  0.25500000920E-02 0.  1.
    10030    2    1    2    0    0  0.00000000000E+00  0.00000000000E+00  0.20153570632E+04  0.35838373727E+04  0.29634821110E+04 0.  0.
        2    1    3    3  502    0  0.45720313813E+03  0.76954442585E+03  0.24356769104E+04  0.25949480428E+04  0.25500000920E-02 0. -1.
       -2    1    3    3    0  502 -0.45720313813E+03 -0.76954442585E+03 -0.42031984726E+03  0.98888932994E+03  0.25500000920E-02 0.  1.
</event>
<event>
 5   0  0.5059249E-06  0.2876474E+04  0.7818609E-02  0.8279912E-01
        1   -1    0    0  501    0  0.00000000000E+00  0.00000000000E+00  0.16483498461E+04  0.16483498461E+04  0.50400001928E-02 0.  1.
       -1   -1    0    0    0  501  0.00000000000E+00  0.00000000000E+00 -0.12549065700E+04  0.12549065700E+04  0.50400001928E-02 0. -1.
    10030    2    1    2    0    0  0.00000000000E+00  0.00000000000E+00  0.39344327609E+03  0.29032564161E+04  0.28764735713E+04 0.  0.
        1    1    3    3  502    0 -0.85421255491E+03  0.65842744565E+03 -0.76362028166E+03  0.13214846669E+04  0.50400001928E-02 0. -1.
       -1    1    3    3    0  502  0.85421255491E+03 -0.65842744565E+03  0.11570635578E+04  0.15817717493E+04  0.50400001928E-02 0.  1.
</event>
<event>
 5   0  0.4590125E-06  0.2475819E+04  0.7818609E-02  0.8411651E-01
        4   -1    0    0  501    0  0.00000000000E+00  0.00000000000E+00  0.15478605542E+04  0.15478610752E+04  0.12699999809E+01 0. -1.
       -4   -1    0    0    0  501  0.00000000000E+00  0.00000000000E+00 -0.99002367049E+03  0.99002448507E+03  0.12699999809E+01 0.  1.
    10030    2    1    2    0    0  0.00000000000E+00  0.00000000000E+00  0.55783688367E+03  0.25378855602E+04  0.24758192842E+04 0.  0.
        4    1    3    3  502    0  0.47442095817E+02 -0.11579496828E+04 -0.16709901403E+03  0.11709064496E+04  0.12699999809E+01 0.  1.
       -4    1    3    3    0  502 -0.47442095817E+02  0.11579496828E+04  0.72493589769E+03  0.13669791106E+04  0.12699999809E+01 0. -1.
</event>
<event>
 5   0  0.5002240E-06  0.2968282E+04  0.7818609E-02  0.8252847E-01
        1   -1    0    0  501    0  0.00000000000E+00  0.00000000000E+00  0.26923766319E+04  0.26923766319E+04  0.50400001928E-02 0.  1.
       -1   -1    0    0    0  501  0.00000000000E+00  0.00000000000E+00 -0.81811519681E+03  0.81811519683E+03  0.50400001928E-02 0. -1.
    10030    2    1    2    0    0  0.00000000000E+00  0.00000000000E+00  0.18742614351E+04  0.35104918288E+04  0.29682818183E+04 0.  0.
        4    1    3    3  502    0  0.14825621347E+04  0.18924175061E+02  0.85936170881E+03  0.17137248224E+04  0.12699999809E+01 0.  1.
       -4    1    3    3    0  502 -0.14825621347E+04 -0.18924175061E+02  0.10148997263E+04  0.17967670063E+04  0.12699999809E+01 0. -1.
</event>
<event>
 5   0  0.1336899E-05  0.2907757E+04  0.7818609E-02  0.8270573E-01
       -2   -1    0    0    0  501  0.00000000000E+00  0.00000000000E+00  0.89264846324E+03  0.89264846325E+03  0.25500000920E-02 0. -1.
        2   -1    0    0  501    0  0.00000000000E+00  0.00000000000E+00 -0.23679672858E+04  0.23679672858E+04  0.25500000920E-02 0.  1.
    10030    2    1    2    0    0  0.00000000000E+00  0.00000000000E+00 -0.14753188226E+04  0.32606157491E+04  0.29077567702E+04 0.  0.
        1    1    3    3  502    0 -0.60496995765E+03 -0.13151881145E+04 -0.58698918059E+03  0.15621346691E+04  0.50400001928E-02 0. -1.
       -1    1    3    3    0  502  0.60496995765E+03  0.13151881145E+04 -0.88832964200E+03  0.16984810800E+04  0.50400001928E-02 0.  1.
</event>
<event>
 5   0  0.1385669E-05  0.2926035E+04  0.7818609E-02  0.8265173E-01
       -2   -1    0    0    0  501  0.00000000000E+00  0.00000000000E+00  0.14306889346E+04  0.14306889346E+04  0.25500000920E-02 0.  1.
        2   -1    0    0  501    0  0.00000000000E+00  0.00000000000E+00 -0.14960770749E+04  0.14960770749E+04  0.25500000920E-02 0. -1.
    10030    2    1    2    0    0  0.00000000000E+00  0.00000000000E+00 -0.65388140331E+02  0.29267660095E+04  0.29260354860E+04 0.  0.
        3    1    3    3  502    0 -0.30991863703E+03  0.14130320281E+04 -0.25117898724E+03  0.14682642704E+04  0.10100000352E+00 0. -1.
       -3    1    3    3    0  502  0.30991863703E+03 -0.14130320281E+04  0.18579084691E+03  0.14585017391E+04  0.10100000352E+00 0.  1.
</event>
<event>
 5   0  0.5352212E-06  0.2383929E+04  0.7818609E-02  0.8445545E-01
       -1   -1    0    0    0  501  0.00000000000E+00  0.00000000000E+00  0.78279874525E+03  0.78279874527E+03  0.50400001928E-02 0. -1.
        1   -1    0    0  501    0  0.00000000000E+00  0.00000000000E+00 -0.18149991656E+04  0.18149991656E+04  0.50400001928E-02 0.  1.
    10030    2    1    2    0    0  0.00000000000E+00  0.00000000000E+00 -0.10322004204E+04  0.25977979109E+04  0.23839287485E+04 0.  0.
        2    1    3    3  502    0 -0.11564810503E+04  0.28020197986E+03 -0.59173523716E+03  0.13289515266E+04  0.25500000920E-02 0. -1.
       -2    1    3    3    0  502  0.11564810503E+04 -0.28020197986E+03 -0.44046518322E+03  0.12688463843E+04  0.25500000920E-02 0.  1.
</event>
<event>
 5   0  0.4590125E-06  0.3039340E+04  0.7818609E-02  0.8232586E-01
       -3   -1    0    0    0  501  0.00000000000E+00  0.00000000000E+00  0.90504112954E+03  0.90504113518E+03  0.10100000352E+00 0.  1.
        3   -1    0    0  501    0  0.00000000000E+00  0.00000000000E+00 -0.25517035510E+04  0.25517035530E+04  0.10100000352E+00 0. -1.
    10030    2    1    2    0    0  0.00000000000E+00  0.00000000000E+00 -0.16466624214E+04  0.34567446881E+04  0.30393398475E+04 0.  0.
        4    1    3    3  502    0  0.79981471902E+03  0.11758928442E+04 -0.14325936379E+04  0.20186019196E+04  0.12699999809E+01 0. -1.
       -4    1    3    3    0  502 -0.79981471902E+03 -0.11758928442E+04 -0.21406878356E+03  0.14381427685E+04  0.12699999809E+01 0.  1.
</event>
<event>
 5   0  0.5261878E-06  0.1823725E+04  0.7818609E-02  0.8693783E-01
       -1   -1    0    0    0  501  0.00000000000E+00  0.00000000000E+00  0.76937338755E+03  0.76937338757E+03  0.50400001928E-02 0. -1.
        1   -1    0    0  501    0  0.00000000000E+00  0.00000000000E+00 -0.10807412340E+04  0.10807412340E+04  0.50400001928E-02 0.  1.
    10030    2    1    2    0    0  0.00000000000E+00  0.00000000000E+00 -0.31136784640E+03  0.18501146215E+04  0.18237253568E+04 0.  0.
        5    1    3    3  502    0 -0.77235483848E+03  0.48154117593E+03 -0.21177919283E+03  0.93449794925E+03  0.46999998093E+01 0.  1.
       -5    1    3    3    0  502  0.77235483848E+03 -0.48154117593E+03 -0.99588653569E+02  0.91561667228E+03  0.46999998093E+01 0. -1.
</event>
<event>
 5   0  0.1339837E-05  0.2843853E+04  0.7818609E-02  0.8289782E-01
       -2   -1    0    0    0  501  0.00000000000E+00  0.00000000000E+00  0.28551758981E+04  0.28551758981E+04  0.25500000920E-02 0. -1.
        2   -1    0    0  501    0  0.00000000000E+00  0.00000000000E+00 -0.70814360500E+03  0.70814360500E+03  0.25500000920E-02 0.  1.
    10030    2    1    2    0    0  0.00000000000E+00  0.00000000000E+00  0.21470322931E+04  0.35633195031E+04  0.28438527060E+04 0.  0.
        5    1    3    3  502    0 -0.25625853121E+03 -0.40623871117E+03 -0.60341081126E+03  0.77124900157E+03  0.46999998093E+01 0.  1.
       -5    1    3    3    0  502  0.25625853121E+03  0.40623871117E+03  0.27504431044E+04  0.27920705016E+04  0.46999998093E+01 0. -1.
</event>
<event>
 5   0  0.1336899E-05  0.2882048E+04  0.7818609E-02  0.8278239E-01
       -2   -1    0    0    0  501  0.00000000000E+00  0.00000000000E+00  0.93363118264E+03  0.93363118265E+03  0.25500000920E-02 0.  1.
        2   -1    0    0  501    0  0.00000000000E+00  0.00000000000E+00 -0.22241659966E+04  0.22241659966E+04  0.25500000920E-02 0. -1.
    10030    2    1    2    0    0  0.00000000000E+00  0.00000000000E+00 -0.12905348140E+04  0.31577971792E+04  0.28820483895E+04 0.  0.
        1    1    3    3  502    0 -0.11819526953E+03 -0.13561802798E+04 -0.11630905330E+04  0.17905235717E+04  0.50400001928E-02 0.  1.
       -1    1    3    3    0  502  0.11819526953E+03  0.13561802798E+04 -0.12744428099E+03  0.13672736075E+04  0.50400001928E-02 0. -1.
</event>
<event>
 5   0  0.5261878E-06  0.2961785E+04  0.7818609E-02  0.8254728E-01
       -1   -1    0    0    0  501  0.00000000000E+00  0.00000000000E+00  0.11215617831E+04  0.11215617831E+04  0.50400001928E-02 0.  1.
        1   -1    0    0  501    0  0.00000000000E+00  0.00000000000E+00 -0.19553472124E+04  0.19553472124E+04  0.50400001928E-02 0. -1.
    10030    2    1    2    0    0  0.00000000000E+00  0.00000000000E+00 -0.83378542931E+03  0.30769089955E+04  0.29617850740E+04 0.  0.
        5    1    3    3  502    0  0.20291772670E+03  0.13568235985E+04  0.16234099065E+03  0.13814928768E+04  0.46999998093E+01 0.  1.
       -5    1    3    3    0  502 -0.20291772670E+03 -0.13568235985E+04 -0.99612641995E+03  0.16954161188E+04  0.46999998093E+01 0. -1.
</event>
<event>
 5   0  0.5002240E-06  0.2905553E+04  0.7818609E-02  0.8271227E-01
       -1   -1    0    0    0  501  0.00000000000E+00  0.00000000000E+00  0.13455741580E+04  0.13455741581E+04  0.50400001928E-02 0.  1.
        1   -1    0    0  501    0  0.00000000000E+00  0.00000000000E+00 -0.15685193238E+04  0.15685193238E+04  0.50400001928E-02 0. -1.
    10030    2    1    2    0    0  0.00000000000E+00  0.00000000000E+00 -0.22294516575E+03  0.29140934819E+04  0.29055526624E+04 0.  0.
        4    1    3    3  502    0  0.47007527948E+03 -0.11261773616E+04  0.67907739790E+03  0.13965650517E+04  0.12699999809E+01 0.  1.
       -4    1    3    3    0  502 -0.47007527948E+03  0.11261773616E+04 -0.90202256365E+03  0.15175284302E+04  0.12699999809E+01 0. -1.
</event>
<event>
 5   0  0.1307832E-05  0.2886033E+04  0.7818609E-02  0.8277045E-01
        2   -1    0    0  501    0  0.00000000000E+00  0.00000000000E+00  0.15698672733E+04  0.15698672733E+04  0.25500000920E-02 0. -1.
       -2   -1    0    0    0  501  0.00000000000E+00  0.00000000000E+00 -0.13264158352E+04  0.13264158352E+04  0.25500000920E-02 0.  1.
    10030    2    1    2    0    0  0.00000000000E+00  0.00000000000E+00  0.24345143812E+03  0.28962831085E+04  0.28860331325E+04 0.  0.
        4    1    3    3  502    0 -0.93971941736E+03  0.41519268305E+03  0.11386546219E+04  0.15336210445E+04  0.12699999809E+01 0. -1.
       -4    1    3    3    0  502  0.93971941736E+03 -0.41519268305E+03 -0.89520318377E+03  0.13626620640E+04  0.12699999809E+01 0.  1.
</event>
<event>
 5   0  0.1336899E-05  0.2677074E+04  0.7818609E-02  0.8342482E-01
        2   -1    0    0  501    0  0.00000000000E+00  0.00000000000E+00  0.72103829342E+03  0.72103829342E+03  0.25500000920E-02 0. -1.
       -2   -1    0    0    0  501  0.00000000000E+00  0.00000000000E+00 -0.24848632184E+04  0.24848632184E+04  0.25500000920E-02 0.  1.
    10030    2    1    2    0    0  0.00000000000E+00  0.00000000000E+00 -0.17638249250E+04  0.32059015119E+04  0.26770741748E+04 0.  0.
        1    1    3    3  502    0 -0.61666748117E+03  0.94566439755E+03 -0.17430769471E+04  0.20767467777E+04  0.50400001928E-02 0.  1.
       -1    1    3    3    0  502  0.61666748117E+03 -0.94566439755E+03 -0.20747977952E+02  0.11291547342E+04  0.50400001928E-02 0. -1.
</event>
<event>
 5   0  0.1339837E-05  0.2910564E+04  0.7818609E-02  0.8269741E-01
        2   -1    0    0  501    0  0.00000000000E+00  0.00000000000E+00  0.22726517091E+04  0.22726517091E+04  0.25500000920E-02 0. -1.
       -2   -1    0    0    0  501  0.00000000000E+00  0.00000000000E+00 -0.93188321176E+03  0.93188321176E+03  0.25500000920E-02 0.  1.
    10030    2    1    2    0    0  0.00000000000E+00  0.00000000000E+00  0.13407684974E+04  0.32045349209E+04  0.29105641885E+04 0.  0.
        5    1    3    3  502    0  0.58967308005E+03  0.12635376509E+04  0.21167198065E+03  0.14103435234E+04  0.46999998093E+01 0.  1.
       -5    1    3    3    0  502 -0.58967308005E+03 -0.12635376509E+04  0.11290965167E+04  0.17941913975E+04  0.46999998093E+01 0. -1.
</event>
<event>
 5   0  0.1339837E-05  0.2835349E+04  0.7818609E-02  0.8292377E-01
        2   -1    0    0  501    0  0.00000000000E+00  0.00000000000E+00  0.20865313701E+04  0.20865313701E+04  0.25500000920E-02 0. -1.
       -2   -1    0    0    0  501  0.00000000000E+00  0.00000000000E+00 -0.96322611521E+03  0.96322611521E+03  0.25500000920E-02 0.  1.
    10030    2    1    2    0    0  0.00000000000E+00  0.00000000000E+00  0.11233052549E+04  0.30497574853E+04  0.28353493654E+04 0.  0.
        5    1    3    3  502    0  0.70089664772E+03 -0.11119962970E+04 -0.95282857251E+01  0.13144979093E+04  0.46999998093E+01 0.  1.
       -5    1    3    3    0  502 -0.70089664772E+03  0.11119962970E+04  0.11328335406E+04  0.17352595760E+04  0.46999998093E+01 0. -1.
</event>
<event>
 5   0  0.1339837E-05  0.2948144E+04  0.7818609E-02  0.8258696E-01
       -2   -1    0    0    0  501  0.00000000000E+00  0.00000000000E+00  0.12448500096E+04  0.12448500096E+04  0.25500000920E-02 0. -1.
        2   -1    0    0  501    0  0.00000000000E+00  0.00000000000E+00 -0.17455020394E+04  0.17455020394E+04  0.25500000920E-02 0.  1.
    10030    2    1    2    0    0  0.00000000000E+00  0.00000000000E+00 -0.50065202980E+03  0.29903520490E+04  0.29481439792E+04 0.  0.
        5    1    3    3  502    0 -0.28032347901E+03 -0.92179623713E+03 -0.13819038801E+04  0.16846275492E+04  0.46999998093E+01 0.  1.
       -5    1    3    3    0  502  0.28032347901E+03  0.92179623713E+03  0.88125185030E+03  0.13057244998E+04  0.46999998093E+01 0. -1.
</event>
<event>
 5   0  0.5261878E-06  0.2934269E+04  0.7818609E-02  0.8262754E-01
       -1   -1    0    0    0  501  0.00000000000E+00  0.00000000000E+00  0.15374639558E+04  0.15374639558E+04  0.50400001928E-02 0. -1.
        1   -1    0    0  501    0  0.00000000000E+00  0.00000000000E+00 -0.14000220016E+04  0.14000220017E+04  0.50400001928E-02 0.  1.
    10030    2    1    2    0    0  0.00000000000E+00  0.00000000000E+00  0.13744195418E+03  0.29374859575E+04  0.29342688118E+04 0.  0.
        5    1    3    3  502    0  0.66441260366E+03 -0.93070969499E+03  0.98885690398E+03  0.15117951947E+04  0.46999998093E+01 0. -1.
       -5    1    3    3    0  502 -0.66441260366E+03  0.93070969499E+03 -0.85141494980E+03  0.14256907628E+04  0.46999998093E+01 0.  1.
</event>
<event>
 5   0  0.1336899E-05  0.2917220E+04  0.7818609E-02  0.8267772E-01
       -2   -1    0    0    0  501  0.00000000000E+00  0.00000000000E+00  0.16154481507E+04  0.16154481507E+04  0.25500000920E-02 0. -1.
        2   -1    0    0  501    0  0.00000000000E+00  0.00000000000E+00 -0.13169984848E+04  0.13169984848E+04  0.25500000920E-02 0.  1.
    10030    2    1    2    0    0  0.00000000000E+00  0.00000000000E+00  0.29844966584E+03  0.29324466355E+04  0.29172197495E+04 0.  0.
        1    1    3    3  502    0 -0.14160792713E+04 -0.34621224086E+03  0.99986012508E+02  0.14612120383E+04  0.50400001928E-02 0. -1.
       -1    1    3    3    0  502  0.14160792713E+04  0.34621224086E+03  0.19846365333E+03  0.14712345972E+04  0.50400001928E-02 0.  1.
</event>
<event>
 5   0  0.5352212E-06  0.2153834E+04  0.7818609E-02  0.8537893E-01
        1   -1    0    0  501    0  0.00000000000E+00  0.00000000000E+00  0.69317767124E+03  0.69317767125E+03  0.50400001928E-02 0. -1.
       -1   -1    0    0    0  501  0.00000000000E+00  0.00000000000E+00 -0.16730924721E+04  0.16730924721E+04  0.50400001928E-02 0.  1.
    10030    2    1    2    0    0  0.00000000000E+00  0.00000000000E+00 -0.97991480090E+03  0.23662701434E+04  0.21538341103E+04 0.  0.
        2    1    3    3  502    0  0.65383647853E+03  0.25822816275E+03  0.40633099643E+03  0.81196601121E+03  0.25500000920E-02 0. -1.
       -2    1    3    3    0  502 -0.65383647853E+03 -0.25822816275E+03 -0.13862457973E+04  0.15543041322E+04  0.25500000920E-02 0.  1.
</event>
<event>
 5   0  0.5352212E-06  0.2914205E+04  0.7818609E-02  0.8268664E-01
       -1   -1    0    0    0  501  0.00000000000E+00  0.00000000000E+00  0.13075222170E+04  0.13075222170E+04  0.50400001928E-02 0.  1.
        1   -1    0    0  501    0  0.00000000000E+00  0.00000000000E+00 -0.16237945640E+04  0.16237945640E+04  0.50400001928E-02 0. -1.
    10030    2    1    2    0    0  0.00000000000E+00  0.00000000000E+00 -0.31627234701E+03  0.29313167810E+04  0.29142048440E+04 0.  0.
        2    1    3    3  502    0 -0.74658580544E+03  0.25167487689E+03  0.10747923577E+04  0.13326324402E+04  0.25500000920E-02 0.  1.
       -2    1    3    3    0  502  0.74658580544E+03 -0.25167487689E+03 -0.13910647048E+04  0.15986843407E+04  0.25500000920E-02 0. -1.
</event>
<event>
 5   0  0.5154476E-06  0.2902862E+04  0.7818609E-02  0.8272026E-01
       -1   -1    0    0    0  501  0.00000000000E+00  0.00000000000E+00  0.10825720955E+04  0.10825720955E+04  0.50400001928E-02 0.  1.
        1   -1    0    0  501    0  0.00000000000E+00  0.00000000000E+00 -0.19459693826E+04  0.19459693827E+04  0.50400001928E-02 0. -1.
    10030    2    1    2    0    0  0.00000000000E+00  0.00000000000E+00 -0.86339728717E+03  0.30285414781E+04  0.29028621409E+04 0.  0.
        3    1    3    3  502    0  0.50352767734E+03 -0.28372085881E+03 -0.18207370781E+04  0.19102673020E+04  0.10100000352E+00 0. -1.
       -3    1    3    3    0  502 -0.50352767734E+03  0.28372085881E+03  0.95733979088E+03  0.11182741761E+04  0.10100000352E+00 0.  1.
</event>
<event>
 5   0  0.1336899E-05  0.2927281E+04  0.7818609E-02  0.8264807E-01
       -2   -1    0    0    0  501  0.00000000000E+00  0.00000000000E+00  0.91681249139E+03  0.91681249140E+03  0.25500000920E-02 0.  1.
        2   -1    0    0  501    0  0.00000000000E+00  0.00000000000E+00 -0.23366210093E+04  0.23366210093E+04  0.25500000920E-02 0. -1.
    10030    2    1    2    0    0  0.00000000000E+00  0.00000000000E+00 -0.14198085179E+04  0.32534335007E+04  0.29272808741E+04 0.  0.
        1    1    3    3  502    0  0.10766840546E+04  0.96376372307E+03 -0.45126535055E+03  0.15138459248E+04  0.50400001928E-02 0.  1.
       -1    1    3    3    0  502 -0.10766840546E+04 -0.96376372307E+03 -0.96854316735E+03  0.17395875759E+04  0.50400001928E-02 0. -1.
</event>
<event>
 5   0  0.5002240E-06  0.2900126E+04  0.7818609E-02  0.8272840E-01
       -1   -1    0    0    0  501  0.00000000000E+00  0.00000000000E+00  0.15063046913E+04  0.15063046913E+04  0.50400001928E-02 0. -1.
        1   -1    0    0  501    0  0.00000000000E+00  0.00000000000E+00 -0.13959214541E+04  0.13959214541E+04  0.50400001928E-02 0.  1.
    10030    2    1    2    0    0  0.00000000000E+00  0.00000000000E+00  0.11038323719E+03  0.29022261454E+04  0.29001262283E+04 0.  0.
        4    1    3    3  502    0  0.55233736555E+02  0.14047897151E+04  0.41069032631E+03  0.14646341066E+04  0.12699999809E+01 0. -1.
       -4    1    3    3    0  502 -0.55233736555E+02 -0.14047897151E+04 -0.30030708912E+03  0.14375920388E+04  0.12699999809E+01 0.  1.
</event>
<event>
 5   0  0.5002240E-06  0.2946509E+04  0.7818609E-02  0.8259173E-01
       -1   -1    0    0    0  501  0.00000000000E+00  0.00000000000E+00  0.10685839564E+04  0.10685839564E+04  0.50400001928E-02 0. -1.
        1   -1    0    0  501    0  0.00000000000E+00  0.00000000000E+00 -0.20311731428E+04  0.20311731428E+04  0.50400001928E-02 0.  1.
    10030    2    1    2    0    0  0.00000000000E+00  0.00000000000E+00 -0.96258918640E+03  0.30997570992E+04  0.29465091434E+04 0.  0.
        4    1    3    3  502    0  0.34596924644E+03 -0.45964939644E+03  0.94552929645E+03  0.11067969780E+04  0.12699999809E+01 0. -1.
       -4    1    3    3    0  502 -0.34596924644E+03  0.45964939644E+03 -0.19081184828E+04  0.19929601212E+04  0.12699999809E+01 0.  1.
</event>
<event>
 5   0  0.5261878E-06  0.2856169E+04  0.7818609E-02  0.8286039E-01
       -1   -1    0    0    0  501  0.00000000000E+00  0.00000000000E+00  0.17783597985E+04  0.17783597985E+04  0.50400001928E-02 0. -1.
        1   -1    0    0  501    0  0.00000000000E+00  0.00000000000E+00 -0.11468016178E+04  0.11468016178E+04  0.50400001928E-02 0.  1.
    10030    2    1    2    0    0  0.00000000000E+00  0.00000000000E+00  0.63155818072E+03  0.29251614163E+04  0.28561693885E+04 0.  0.
        5    1    3    3  502    0 -0.14035287543E+04  0.23146929658E+03  0.18650485142E+03  0.14346697003E+04  0.46999998093E+01 0. -1.
       -5    1    3    3    0  502  0.14035287543E+04 -0.23146929658E+03  0.44505332931E+03  0.14904917160E+04  0.46999998093E+01 0.  1.
</event>
<event>
 5   0  0.1382803E-05  0.2121694E+04  0.7818609E-02  0.8551747E-01
        2   -1    0    0  501    0  0.00000000000E+00  0.00000000000E+00  0.16260113712E+04  0.16260113712E+04  0.25500000920E-02 0.  1.
       -2   -1    0    0    0  501  0.00000000000E+00  0.00000000000E+00 -0.69212101626E+03  0.69212101626E+03  0.25500000920E-02 0. -1.
    10030    2    1    2    0    0  0.00000000000E+00  0.00000000000E+00  0.93389035497E+03  0.23181323875E+04  0.21216942689E+04 0.  0.
        2    1    3    3  502    0 -0.66339510199E+02 -0.94495200062E+03  0.98871787664E+03  0.13692692408E+04  0.25500000920E-02 0. -1.
       -2    1    3    3    0  502  0.66339510199E+02  0.94495200062E+03 -0.54827521671E+02  0.94886314673E+03  0.25500000920E-02 0.  1.
</event>
<event>
 5   0  0.1307832E-05  0.2883978E+04  0.7818609E-02  0.8277661E-01
        2   -1    0    0  501    0  0.00000000000E+00  0.00000000000E+00  0.12717360982E+04  0.12717360982E+04  0.25500000920E-02 0. -1.
       -2   -1    0    0    0  501  0.00000000000E+00  0.00000000000E+00 -0.16350342395E+04  0.16350342395E+04  0.25500000920E-02 0.  1.
    10030    2    1    2    0    0  0.00000000000E+00  0.00000000000E+00 -0.36329814132E+03  0.29067703378E+04  0.28839778531E+04 0.  0.
        4    1    3    3  502    0 -0.76086073086E+03 -0.10474367910E+04  0.45842701366E+03  0.13733862613E+04  0.12699999809E+01 0. -1.
       -4    1    3    3    0  502  0.76086073086E+03  0.10474367910E+04 -0.82172515498E+03  0.15333840765E+04  0.12699999809E+01 0.  1.
</event>
<event>
 5   0  0.1339837E-05  0.2903797E+04  0.7818609E-02  0.8271749E-01
       -2   -1    0    0    0  501  0.00000000000E+00  0.00000000000E+00  0.84097699905E+03  0.84097699905E+03  0.25500000920E-02 0.  1.
        2   -1    0    0  501    0  0.00000000000E+00  0.00000000000E+00 -0.25066196512E+04  0.25066196512E+04  0.25500000920E-02 0. -1.
    10030    2    1    2    0    0  0.00000000000E+00  0.00000000000E+00 -0.16656426521E+04  0.33475966502E+04  0.29037971500E+04 0.  0.
        5    1    3    3  502    0  0.29229457348E+03 -0.12502475486E+04 -0.51413732700E+02  0.12849982538E+04  0.46999998093E+01 0.  1.
       -5    1    3    3    0  502 -0.29229457348E+03  0.12502475486E+04 -0.16142289194E+04  0.20625983964E+04  0.46999998093E+01 0. -1.
</event>
<event>
 5   0  0.1385669E-05  0.2889972E+04  0.7818609E-02  0.8275867E-01
        2   -1    0    0  501    0  0.00000000000E+00  0.00000000000E+00  0.25043498150E+04  0.25043498150E+04  0.25500000920E-02 0.  1.
       -2   -1    0    0    0  501  0.00000000000E+00  0.00000000000E+00 -0.83374312223E+03  0.83374312224E+03  0.25500000920E-02 0. -1.
    10030    2    1    2    0    0  0.00000000000E+00  0.00000000000E+00  0.16706066928E+04  0.33380929372E+04  0.28899719265E+04 0.  0.
        3    1    3    3  502    0 -0.13890069652E+04  0.36760393673E+03  0.65819287831E+03  0.15804084532E+04  0.10100000352E+00 0. -1.
       -3    1    3    3    0  502  0.13890069652E+04 -0.36760393673E+03  0.10124138145E+04  0.17576844841E+04  0.10100000352E+00 0.  1.
</event>
<event>
 5   0  0.1339837E-05  0.2882333E+04  0.7818609E-02  0.8278154E-01
        2   -1    0    0  501    0  0.00000000000E+00  0.00000000000E+00  0.15008059827E+04  0.15008059827E+04  0.25500000920E-02 0. -1.
       -2   -1    0    0    0  501  0.00000000000E+00  0.00000000000E+00 -0.13838966133E+04  0.13838966133E+04  0.25500000920E-02 0.  1.
    10030    2    1    2    0    0  0.00000000000E+00  0.00000000000E+00  0.11690936932E+03  0.28847025960E+04  0.28823326086E+04 0.  0.
        5    1    3    3  502    0 -0.31762581911E+03  0.47080084617E+03 -0.12671715488E+04  0.13886271716E+04  0.46999998093E+01 0.  1.
       -5    1    3    3    0  502  0.31762581911E+03 -0.47080084617E+03  0.13840809181E+04  0.14960754244E+04  0.46999998093E+01 0. -1.
</event>
<event>
 5   0  0.1382803E-05  0.2678080E+04  0.7818609E-02  0.8342152E-01
        2   -1    0    0  501    0  0.00000000000E+00  0.00000000000E+00  0.97576638793E+03  0.97576638793E+03  0.25500000920E-02 0. -1.
       -2   -1    0    0    0  501  0.00000000000E+00  0.00000000000E+00 -0.18375589331E+04  0.18375589331E+04  0.25500000920E-02 0.  1.
    10030    2    1    2    0    0  0.00000000000E+00  0.00000000000E+00 -0.86179254514E+03  0.28133253210E+04  0.26780800905E+04 0.  0.
        2    1    3    3  502    0 -0.23021596652E+03 -0.12864307481E+04 -0.73739198279E+03  0.15005500315E+04  0.25500000920E-02 0. -1.
       -2    1    3    3    0  502  0.23021596652E+03  0.12864307481E+04 -0.12440056235E+03  0.13127752895E+04  0.25500000920E-02 0.  1.
</event>
<event>
 5   0  0.5059249E-06  0.2903980E+04  0.7818609E-02  0.8271694E-01
        1   -1    0    0  501    0  0.00000000000E+00  0.00000000000E+00  0.26457822896E+04  0.26457822896E+04  0.50400001928E-02 0.  1.
       -1   -1    0    0    0  501  0.00000000000E+00  0.00000000000E+00 -0.79684384998E+03  0.79684385000E+03  0.50400001928E-02 0. -1.
    10030    2    1    2    0    0  0.00000000000E+00  0.00000000000E+00  0.18489384396E+04  0.34426261396E+04  0.29039802657E+04 0.  0.
        1    1    3    3  502    0 -0.22759270708E+03  0.25349670221E+03 -0.74879470861E+03  0.82264970311E+03  0.50400001928E-02 0. -1.
       -1    1    3    3    0  502  0.22759270708E+03 -0.25349670221E+03  0.25977331482E+04  0.26199764365E+04  0.50400001928E-02 0.  1.
</event>
<event>
 5   0  0.5002240E-06  0.2888364E+04  0.7818609E-02  0.8276348E-01
        1   -1    0    0  501    0  0.00000000000E+00  0.00000000000E+00  0.82473728396E+03  0.82473728397E+03  0.50400001928E-02 0. -1.
       -1   -1    0    0    0  501  0.00000000000E+00  0.00000000000E+00 -0.25288799694E+04  0.25288799694E+04  0.50400001928E-02 0.  1.
    10030    2    1    2    0    0  0.00000000000E+00  0.00000000000E+00 -0.17041426854E+04  0.33536172534E+04  0.28883639642E+04 0.  0.
        4    1    3    3  502    0 -0.11708635807E+04 -0.33750193179E+03  0.47918709977E+02  0.12194781237E+04  0.12699999809E+01 0. -1.
       -4    1    3    3    0  502  0.11708635807E+04  0.33750193179E+03 -0.17520613954E+04  0.21341391296E+04  0.12699999809E+01 0.  1.
</event>
<event>
 5   0  0.1307832E-05  0.2771755E+04  0.7818609E-02  0.8312091E-01
       -2   -1    0    0    0  501  0.00000000000E+00  0.00000000000E+00  0.13069349676E+04  0.13069349676E+04  0.25500000920E-02 0. -1.
        2   -1    0    0  501    0  0.00000000000E+00  0.00000000000E+00 -0.14695888264E+04  0.14695888264E+04  0.25500000920E-02 0.  1.
    10030    2    1    2    0    0  0.00000000000E+00  0.00000000000E+00 -0.16265385879E+03  0.27765237940E+04  0.27717554187E+04 0.  0.
        4    1    3    3  502    0 -0.83649240911E+03 -0.92654873374E+03 -0.68439527837E+03  0.14235907475E+04  0.12699999809E+01 0.  1.
       -4    1    3    3    0  502  0.83649240911E+03  0.92654873374E+03  0.52174141959E+03  0.13529330465E+04  0.12699999809E+01 0. -1.
</event>
<event>
 5   0  0.1307832E-05  0.2375945E+04  0.7818609E-02  0.8448565E-01
        2   -1    0    0  501    0  0.00000000000E+00  0.00000000000E+00  0.14857591736E+04  0.14857591736E+04  0.25500000920E-02 0.  1.
       -2   -1    0    0    0  501  0.00000000000E+00  0.00000000000E+00 -0.94987028966E+03  0.94987028966E+03  0.25500000920E-02 0. -1.
    10030    2    1    2    0    0  0.00000000000E+00  0.00000000000E+00  0.53588888398E+03  0.24356294633E+04  0.23759448619E+04 0.  0.
        4    1    3    3  502    0  0.30949055178E+03  0.91846955374E+03 -0.43626636375E+03  0.10628737817E+04  0.12699999809E+01 0. -1.
       -4    1    3    3    0  502 -0.30949055178E+03 -0.91846955374E+03  0.97215524773E+03  0.13727556816E+04  0.12699999809E+01 0.  1.
</event>
<event>
 5   0  0.5352212E-06  0.2901251E+04  0.7818609E-02  0.8272505E-01
        1   -1    0    0  501    0  0.00000000000E+00  0.00000000000E+00  0.25090447192E+04  0.25090447192E+04  0.50400001928E-02 0.  1.
       -1   -1    0    0    0  501  0.00000000000E+00  0.00000000000E+00 -0.83869161536E+03  0.83869161537E+03  0.50400001928E-02 0. -1.
    10030    2    1    2    0    0  0.00000000000E+00  0.00000000000E+00  0.16703531038E+04  0.33477363346E+04  0.29012512946E+04 0.  0.
        2    1    3    3  502    0 -0.61459880938E+03  0.11520126371E+04  0.15644612270E+04  0.20377447689E+04  0.25500000920E-02 0.  1.
       -2    1    3    3    0  502  0.61459880938E+03 -0.11520126371E+04  0.10589187686E+03  0.13099915657E+04  0.25500000920E-02 0. -1.
</event>
<event>
 5   0  0.5352212E-06  0.1800731E+04  0.7818609E-02  0.8705911E-01
       -1   -1    0    0    0  501  0.00000000000E+00  0.00000000000E+00  0.45257087929E+03  0.45257087932E+03  0.50400001928E-02 0.  1.
        1   -1    0    0  501    0  0.00000000000E+00  0.00000000000E+00 -0.17912298002E+04  0.17912298002E+04  0.50400001928E-02 0. -1.
    10030    2    1    2    0    0  0.00000000000E+00  0.00000000000E+00 -0.13386589209E+04  0.22438006795E+04  0.18007314577E+04 0.  0.
        2    1    3    3  502    0  0.17761859831E+03 -0.55897776053E+03  0.18187284914E+03  0.61407022114E+03  0.25500000920E-02 0.  1.
       -2    1    3    3    0  502 -0.17761859831E+03  0.55897776053E+03 -0.15205317700E+04  0.16297304584E+04  0.25500000920E-02 0. -1.
</event>
<event>
 5   0  0.1382803E-05  0.3009401E+04  0.7818609E-02  0.8241051E-01
       -2   -1    0    0    0  501  0.00000000000E+00  0.00000000000E+00  0.10553215616E+04  0.10553215616E+04  0.25500000920E-02 0. -1.
        2   -1    0    0  501    0  0.00000000000E+00  0.00000000000E+00 -0.21454350828E+04  0.21454350828E+04  0.25500000920E-02 0.  1.
    10030    2    1    2    0    0  0.00000000000E+00  0.00000000000E+00 -0.10901135212E+04  0.32007566444E+04  0.30094012041E+04 0.  0.
        2    1    3    3  502    0  0.54397933730E+03 -0.12382393382E+04 -0.12465186434E+04  0.18392821715E+04  0.25500000920E-02 0.  1.
       -2    1    3    3    0  502 -0.54397933730E+03  0.12382393382E+04  0.15640512221E+03  0.13614744729E+04  0.25500000920E-02 0. -1.
</event>
<event>
 5   0  0.1385669E-05  0.3039104E+04  0.7818609E-02  0.8232652E-01
        2   -1    0    0  501    0  0.00000000000E+00  0.00000000000E+00  0.21562257225E+04  0.21562257225E+04  0.25500000920E-02 0. -1.
       -2   -1    0    0    0  501  0.00000000000E+00  0.00000000000E+00 -0.10708701413E+04  0.10708701413E+04  0.25500000920E-02 0.  1.
    10030    2    1    2    0    0  0.00000000000E+00  0.00000000000E+00  0.10853555812E+04  0.32270958639E+04  0.30391036470E+04 0.  0.
        3    1    3    3  502    0  0.11890559130E+04  0.93886298687E+03  0.41829955625E+03  0.15717163234E+04  0.10100000352E+00 0.  1.
       -3    1    3    3    0  502 -0.11890559130E+04 -0.93886298687E+03  0.66705602496E+03  0.16553795405E+04  0.10100000352E+00 0. -1.
</event>
<event>
 5   0  0.1382803E-05  0.2887538E+04  0.7818609E-02  0.8276595E-01
       -2   -1    0    0    0  501  0.00000000000E+00  0.00000000000E+00  0.12435226525E+04  0.12435226525E+04  0.25500000920E-02 0. -1.
        2   -1    0    0  501    0  0.00000000000E+00  0.00000000000E+00 -0.16762608532E+04  0.16762608532E+04  0.25500000920E-02 0.  1.
    10030    2    1    2    0    0  0.00000000000E+00  0.00000000000E+00 -0.43273820074E+03  0.29197835058E+04  0.28875375963E+04 0.  0.
        2    1    3    3  502    0  0.45567403504E+03 -0.92466600967E+03 -0.12385098173E+04  0.16113822089E+04  0.25500000920E-02 0.  1.
       -2    1    3    3    0  502 -0.45567403504E+03  0.92466600967E+03  0.80577161652E+03  0.13084012969E+04  0.25500000920E-02 0. -1.
</event>
<event>
 5   0  0.1336899E-05  0.2899513E+04  0.7818609E-02  0.8273022E-01
        2   -1    0    0  501    0  0.00000000000E+00  0.00000000000E+00  0.13358078221E+04  0.13358078221E+04  0.25500000920E-02 0. -1.
       -2   -1    0    0    0  501  0.00000000000E+00  0.00000000000E+00 -0.15734256335E+04  0.15734256335E+04  0.25500000920E-02 0.  1.
    10030    2    1    2    0    0  0.00000000000E+00  0.00000000000E+00 -0.23761781147E+03  0.29092334556E+04  0.28995132479E+04 0.  0.
        1    1    3    3  502    0 -0.87197770233E+03  0.92210456287E+03 -0.82199524082E+03  0.15120509628E+04  0.50400001928E-02 0.  1.
       -1    1    3    3    0  502  0.87197770233E+03 -0.92210456287E+03  0.58437742935E+03  0.13971824928E+04  0.50400001928E-02 0. -1.
</event>
<event>
 5   0  0.5154476E-06  0.2902341E+04  0.7818609E-02  0.8272181E-01
       -1   -1    0    0    0  501  0.00000000000E+00  0.00000000000E+00  0.18617024701E+04  0.18617024701E+04  0.50400001928E-02 0.  1.
        1   -1    0    0  501    0  0.00000000000E+00  0.00000000000E+00 -0.11311663726E+04  0.11311663727E+04  0.50400001928E-02 0. -1.
    10030    2    1    2    0    0  0.00000000000E+00  0.00000000000E+00  0.73053609747E+03  0.29928688428E+04  0.29023405934E+04 0.  0.
        3    1    3    3  502    0  0.58919793280E+03  0.46007133020E+03 -0.91734320863E+03  0.11833589504E+04  0.10100000352E+00 0. -1.
       -3    1    3    3    0  502 -0.58919793280E+03 -0.46007133020E+03  0.16478793061E+04  0.18095098924E+04  0.10100000352E+00 0.  1.
</event>
<event>
 5   0  0.1339837E-05  0.2961321E+04  0.7818609E-02  0.8254863E-01
       -2   -1    0    0    0  501  0.00000000000E+00  0.00000000000E+00  0.93066343151E+03  0.93066343151E+03  0.25500000920E-02 0.  1.
        2   -1    0    0  501    0  0.00000000000E+00  0.00000000000E+00 -0.23556914892E+04  0.23556914892E+04  0.25500000920E-02 0. -1.
    10030    2    1    2    0    0  0.00000000000E+00  0.00000000000E+00 -0.14250280577E+04  0.32863549207E+04  0.29613212760E+04 0.  0.
        5    1    3    3  502    0 -0.12607183196E+04  0.59211813383E+03 -0.15506630463E+03  0.14014571755E+04  0.46999998093E+01 0.  1.
       -5    1    3    3    0  502  0.12607183196E+04 -0.59211813383E+03 -0.12699617530E+04  0.18848977452E+04  0.46999998093E+01 0. -1.
</event>
<event>
 5   0  0.1307832E-05  0.2850503E+04  0.7818609E-02  0.8287759E-01
       -2   -1    0    0    0  501  0.00000000000E+00  0.00000000000E+00  0.70061551820E+03  0.70061551821E+03  0.25500000920E-02 0.  1.
        2   -1    0    0  501    0  0.00000000000E+00  0.00000000000E+00 -0.28993672415E+04  0.28993672415E+04  0.25500000920E-02 0. -1.
    10030    2    1    2    0    0  0.00000000000E+00  0.00000000000E+00 -0.21987517233E+04  0.35999827597E+04  0.28505028906E+04 0.  0.
        4    1    3    3  502    0  0.70465834282E+03 -0.12382165202E+04 -0.11501534362E+04  0.18310046616E+04  0.12699999809E+01 0.  1.
       -4    1    3    3    0  502 -0.70465834282E+03  0.12382165202E+04 -0.10485982872E+04  0.17689780982E+04  0.12699999809E+01 0. -1.
</event>
<event>
 5   0  0.1382803E-05  0.2846205E+04  0.7818609E-02  0.8289065E-01
       -2   -1    0    0    0  501  0.00000000000E+00  0.00000000000E+00  0.11562811644E+04  0.11562811644E+04  0.25500000920E-02 0. -1.
        2   -1    0    0  501    0  0.00000000000E+00  0.00000000000E+00 -0.17514949311E+04  0.17514949311E+04  0.25500000920E-02 0.  1.
    10030    2    1    2    0    0  0.00000000000E+00  0.00000000000E+00 -0.59521376673E+03  0.29077760955E+04  0.28462049107E+04 0.  0.
        2    1    3    3  502    0  0.71659947039E+03  0.11291678418E+04 -0.79463491589E+03  0.15556283186E+04  0.25500000920E-02 0. -1.
       -2    1    3    3    0  502 -0.71659947039E+03 -0.11291678418E+04  0.19942114916E+03  0.13521477769E+04  0.25500000920E-02 0.  1.
</event>
<event>
 5   0  0.5154476E-06  0.2806862E+04  0.7818609E-02  0.8301141E-01
        1   -1    0    0  501    0  0.00000000000E+00  0.00000000000E+00  0.17369179995E+04  0.17369179995E+04  0.50400001928E-02 0.  1.
       -1   -1    0    0    0  501  0.00000000000E+00  0.00000000000E+00 -0.11339733152E+04  0.11339733152E+04  0.50400001928E-02 0. -1.
    10030    2    1    2    0    0  0.00000000000E+00  0.00000000000E+00  0.60294468428E+03  0.28708913147E+04  0.28068620644E+04 0.  0.
        3    1    3    3  502    0 -0.12444507539E+04  0.89173370919E+02 -0.35584559233E+03  0.12973957240E+04  0.10100000352E+00 0. -1.
       -3    1    3    3    0  502  0.12444507539E+04 -0.89173370919E+02  0.95879027661E+03  0.15734955906E+04  0.10100000352E+00 0.  1.
</event>
<event>
 5   0  0.5261878E-06  0.2885948E+04  0.7818609E-02  0.8277071E-01
       -1   -1    0    0    0  501  0.00000000000E+00  0.00000000000E+00  0.16478042979E+04  0.16478042979E+04  0.50400001928E-02 0.  1.
        1   -1    0    0  501    0  0.00000000000E+00  0.00000000000E+00 -0.12636052811E+04  0.12636052811E+04  0.50400001928E-02 0. -1.
    10030    2    1    2    0    0  0.00000000000E+00  0.00000000000E+00  0.38419901685E+03  0.29114095790E+04  0.28859481721E+04 0.  0.
        5    1    3    3  502    0  0.52258400895E+03  0.50589021294E+03 -0.10651432026E+04  0.12897949783E+04  0.46999998093E+01 0. -1.
       -5    1    3    3    0  502 -0.52258400895E+03 -0.50589021294E+03  0.14493422195E+04  0.16216146007E+04  0.46999998093E+01 0.  1.
</event>
<event>
 5   0  0.1336899E-05  0.3017254E+04  0.7818609E-02  0.8238821E-01
       -2   -1    0    0    0  501  0.00000000000E+00  0.00000000000E+00  0.11469608560E+04  0.11469608560E+04  0.25500000920E-02 0.  1.
        2   -1    0    0  501    0  0.00000000000E+00  0.00000000000E+00 -0.19843358422E+04  0.19843358422E+04  0.25500000920E-02 0. -1.
    10030    2    1    2    0    0  0.00000000000E+00  0.00000000000E+00 -0.83737498618E+03  0.31312966982E+04  0.30172540736E+04 0.  0.
        1    1    3    3  502    0  0.12431771474E+04 -0.81152750104E+03 -0.69694331378E+03  0.16400598426E+04  0.50400001928E-02 0. -1.
       -1    1    3    3    0  502 -0.12431771474E+04  0.81152750104E+03 -0.14043167240E+03  0.14912368556E+04  0.50400001928E-02 0.  1.
</event>
<event>
 5   0  0.1339837E-05  0.2943100E+04  0.7818609E-02  0.8260168E-01
        2   -1    0    0  501    0  0.00000000000E+00  0.00000000000E+00  0.15489585639E+04  0.15489585639E+04  0.25500000920E-02 0.  1.
       -2   -1    0    0    0  501  0.00000000000E+00  0.00000000000E+00 -0.13980094946E+04  0.13980094946E+04  0.25500000920E-02 0. -1.
    10030    2    1    2    0    0  0.00000000000E+00  0.00000000000E+00  0.15094906930E+03  0.29469680584E+04  0.29430995763E+04 0.  0.
        5    1    3    3  502    0  0.19866833141E+03 -0.13681730672E+04 -0.42924161519E+03  0.14476315491E+04  0.46999998093E+01 0.  1.
       -5    1    3    3    0  502 -0.19866833141E+03  0.13681730672E+04  0.58019068449E+03  0.14993365093E+04  0.46999998093E+01 0. -1.
</event>
<event>
 5   0  0.1339837E-05  0.2985008E+04  0.7818609E-02  0.8248025E-01
       -2   -1    0    0    0  501  0.00000000000E+00  0.00000000000E+00  0.95038518779E+03  0.95038518779E+03  0.25500000920E-02 0. -1.
        2   -1    0    0  501    0  0.00000000000E+00  0.00000000000E+00 -0.23438575961E+04  0.23438575961E+04  0.25500000920E-02 0.  1.
    10030    2    1    2    0    0  0.00000000000E+00  0.00000000000E+00 -0.13934724083E+04  0.32942427839E+04  0.29850075656E+04 0.  0.
        5    1    3    3  502    0  0.48705867500E+02  0.46528741065E+03 -0.22608402268E+04  0.23087410546E+04  0.46999998093E+01 0.  1.
       -5    1    3    3    0  502 -0.48705867500E+02 -0.46528741065E+03  0.86736781845E+03  0.98550172933E+03  0.46999998093E+01 0. -1.
</event>
<event>
 5   0  0.5002240E-06  0.3001506E+04  0.7818609E-02  0.8243301E-01
       -1   -1    0    0    0  501  0.00000000000E+00  0.00000000000E+00  0.14037298433E+04  0.14037298433E+04  0.50400001928E-02 0.  1.
        1   -1    0    0  501    0  0.00000000000E+00  0.00000000000E+00 -0.16044824935E+04  0.16044824935E+04  0.50400001928E-02 0. -1.
    10030    2    1    2    0    0  0.00000000000E+00  0.00000000000E+00 -0.20075265016E+03  0.30082123368E+04  0.30015062613E+04 0.  0.
        4    1    3    3  502    0 -0.91815802915E+03 -0.11866091720E+04 -0.13513597856E+03  0.15064258492E+04  0.12699999809E+01 0.  1.
       -4    1    3    3    0  502  0.91815802915E+03  0.11866091720E+04 -0.65616671599E+02  0.15017864875E+04  0.12699999809E+01 0. -1.
</event>
<event>
 5   0  0.5002240E-06  0.2909554E+04  0.7818609E-02  0.8270041E-01
       -1   -1    0    0    0  501  0.00000000000E+00  0.00000000000E+00  0.15937609081E+04  0.15937609081E+04  0.50400001928E-02 0. -1.
        1   -1    0    0  501    0  0.00000000000E+00  0.00000000000E+00 -0.13279129918E+04  0.13279129918E+04  0.50400001928E-02 0.  1.
    10030    2    1    2    0    0  0.00000000000E+00  0.00000000000E+00  0.26584791629E+03  0.29216738998E+04  0.29095537909E+04 0.  0.
        4    1    3    3  502    0 -0.39373123646E+03  0.82938814919E+03  0.12661039385E+04  0.15639468612E+04  0.12699999809E+01 0. -1.
       -4    1    3    3    0  502  0.39373123646E+03 -0.82938814919E+03 -0.10002560222E+04  0.13577270387E+04  0.12699999809E+01 0.  1.
</event>
<event>
 5   0  0.5352212E-06  0.2949440E+04  0.7818609E-02  0.8258318E-01
        1   -1    0    0  501    0  0.00000000000E+00  0.00000000000E+00  0.10335983822E+04  0.10335983822E+04  0.50400001928E-02 0. -1.
       -1   -1    0    0    0  501  0.00000000000E+00  0.00000000000E+00 -0.21041039675E+04  0.21041039675E+04  0.50400001928E-02 0.  1.
    10030    2    1    2    0    0  0.00000000000E+00  0.00000000000E+00 -0.10705055853E+04  0.31377023497E+04  0.29494395785E+04 0.  0.
        2    1    3    3  502    0 -0.37659797486E+03  0.11094763458E+03  0.97698187035E+03  0.10529145204E+04  0.25500000920E-02 0. -1.
       -2    1    3    3    0  502  0.37659797486E+03 -0.11094763458E+03 -0.20474874556E+04  0.20847878293E+04  0.25500000920E-02 0.  1.
</event>
<event>
 5   0  0.1336899E-05  0.2646494E+04  0.7818609E-02  0.8352578E-01
        2   -1    0    0  501    0  0.00000000000E+00  0.00000000000E+00  0.13783572626E+04  0.13783572626E+04  0.25500000920E-02 0. -1.
       -2   -1    0    0    0  501  0.00000000000E+00  0.00000000000E+00 -0.12703400615E+04  0.12703400615E+04  0.25500000920E-02 0.  1.
    10030    2    1    2    0    0  0.00000000000E+00  0.00000000000E+00  0.10801720109E+03  0.26486973241E+04  0.26464938690E+04 0.  0.
        1    1    3    3  502    0 -0.13901482629E+03  0.44769277483E+03  0.12924670585E+04  0.13748545523E+04  0.50400001928E-02 0. -1.
       -1    1    3    3    0  502  0.13901482629E+03 -0.44769277483E+03 -0.11844498574E+04  0.12738427718E+04  0.50400001928E-02 0.  1.
</event>
<event>
 5   0  0.1339837E-05  0.3350485E+04  0.7818609E-02  0.8150167E-01
        2   -1    0    0  501    0  0.00000000000E+00  0.00000000000E+00  0.16267524051E+04  0.16267524051E+04  0.25500000920E-02 0. -1.
       -2   -1    0    0    0  501  0.00000000000E+00  0.00000000000E+00 -0.17251776036E+04  0.17251776037E+04  0.25500000920E-02 0.  1.
    10030    2    1    2    0    0  0.00000000000E+00  0.00000000000E+00 -0.98425198524E+02  0.33519300088E+04  0.33504846312E+04 0.  0.
        5    1    3    3  502    0 -0.59568800948E+03  0.38814287933E+03  0.14683187036E+04  0.16314046110E+04  0.46999998093E+01 0. -1.
       -5    1    3    3    0  502  0.59568800948E+03 -0.38814287933E+03 -0.15667439022E+04  0.17205253978E+04  0.46999998093E+01 0.  1.
</event>
<event>
 5   0  0.1385669E-05  0.2875062E+04  0.7818609E-02  0.8280336E-01
        2   -1    0    0  501    0  0.00000000000E+00  0.00000000000E+00  0.23191097282E+04  0.23191097282E+04  0.25500000920E-02 0.  1.
       -2   -1    0    0    0  501  0.00000000000E+00  0.00000000000E+00 -0.89107300910E+03  0.89107300911E+03  0.25500000920E-02 0. -1.
    10030    2    1    2    0    0  0.00000000000E+00  0.00000000000E+00  0.14280367191E+04  0.32101827373E+04  0.28750624925E+04 0.  0.
        3    1    3    3  502    0  0.46715673874E+02 -0.57861900122E+03  0.21824187057E+04  0.22583032834E+04  0.10100000352E+00 0.  1.
       -3    1    3    3    0  502 -0.46715673874E+02  0.57861900122E+03 -0.75438198662E+03  0.95187945386E+03  0.10100000352E+00 0. -1.
</event>
<event>
 5   0  0.5002240E-06  0.2341185E+04  0.7818609E-02  0.8461857E-01
       -1   -1    0    0    0  501  0.00000000000E+00  0.00000000000E+00  0.23900608487E+04  0.23900608487E+04  0.50400001928E-02 0. -1.
        1   -1    0    0  501    0  0.00000000000E+00  0.00000000000E+00 -0.57332705953E+03  0.57332705955E+03  0.50400001928E-02 0.  1.
    10030    2    1    2    0    0  0.00000000000E+00  0.00000000000E+00  0.18167337892E+04  0.29633879083E+04  0.23411847928E+04 0.  0.
        4    1    3    3  502    0 -0.28660183675E+02 -0.10682938482E+04  0.30369211925E+03  0.11109922000E+04  0.12699999809E+01 0.  1.
       -4    1    3    3    0  502  0.28660183675E+02  0.10682938482E+04  0.15130416699E+04  0.18523957083E+04  0.12699999809E+01 0. -1.
</event>
<event>
 5   0  0.1336899E-05  0.2239271E+04  0.7818609E-02  0.8502258E-01
       -2   -1    0    0    0  501  0.00000000000E+00  0.00000000000E+00  0.91889612071E+03  0.91889612071E+03  0.25500000920E-02 0.  1.
        2   -1    0    0  501    0  0.00000000000E+00  0.00000000000E+00 -0.13642275087E+04  0.13642275087E+04  0.25500000920E-02 0. -1.
    10030    2    1    2    0    0  0.00000000000E+00  0.00000000000E+00 -0.44533138800E+03  0.22831236294E+04  0.22392707434E+04 0.  0.
        1    1    3    3  502    0  0.22734991750E+03  0.73762897928E+03  0.60426551767E+03  0.98026593939E+03  0.50400001928E-02 0.  1.
       -1    1    3    3    0  502 -0.22734991750E+03 -0.73762897928E+03 -0.10495969057E+04  0.13028576900E+04  0.50400001928E-02 0. -1.
</event>
<event>
 5   0  0.5002240E-06  0.2820000E+04  0.7818609E-02  0.8297086E-01
       -1   -1    0    0    0  501  0.00000000000E+00  0.00000000000E+00  0.12182044046E+04  0.12182044046E+04  0.50400001928E-02 0.  1.
        1   -1    0    0  501    0  0.00000000000E+00  0.00000000000E+00 -0.16319920400E+04  0.16319920400E+04  0.50400001928E-02 0. -1.
    10030    2    1    2    0    0  0.00000000000E+00  0.00000000000E+00 -0.41378763541E+03  0.28501964446E+04  0.28199999229E+04 0.  0.
        4    1    3    3  502    0  0.17477255576E+03  0.45499371019E+03 -0.15441386172E+04  0.16192375998E+04  0.12699999809E+01 0. -1.
       -4    1    3    3    0  502 -0.17477255576E+03 -0.45499371019E+03  0.11303509818E+04  0.12309588448E+04  0.12699999809E+01 0.  1.
</event>
<event>
 5   0  0.1385669E-05  0.2921114E+04  0.7818609E-02  0.8266623E-01
        2   -1    0    0  501    0  0.00000000000E+00  0.00000000000E+00  0.16351515545E+04  0.16351515545E+04  0.25500000920E-02 0. -1.
       -2   -1    0    0    0  501  0.00000000000E+00  0.00000000000E+00 -0.13046045565E+04  0.13046045565E+04  0.25500000920E-02 0.  1.
    10030    2    1    2    0    0  0.00000000000E+00  0.00000000000E+00  0.33054699806E+03  0.29397561110E+04  0.29211136017E+04 0.  0.
        3    1    3    3  502    0 -0.17244104936E+03  0.67742439335E+03  0.14558721495E+04  0.16149933282E+04  0.10100000352E+00 0. -1.
       -3    1    3    3    0  502  0.17244104936E+03 -0.67742439335E+03 -0.11253251514E+04  0.13247627828E+04  0.10100000352E+00 0.  1.
</event>
<event>
 5   0  0.1307832E-05  0.2891904E+04  0.7818609E-02  0.8275290E-01
       -2   -1    0    0    0  501  0.00000000000E+00  0.00000000000E+00  0.11067186815E+04  0.11067186815E+04  0.25500000920E-02 0. -1.
        2   -1    0    0  501    0  0.00000000000E+00  0.00000000000E+00 -0.18891680956E+04  0.18891680956E+04  0.25500000920E-02 0.  1.
    10030    2    1    2    0    0  0.00000000000E+00  0.00000000000E+00 -0.78244941413E+03  0.29958867772E+04  0.28919043027E+04 0.  0.
        4    1    3    3  502    0 -0.61671985693E+03 -0.95366698070E+03  0.53591397667E+03  0.12557983498E+04  0.12699999809E+01 0. -1.
       -4    1    3    3    0  502  0.61671985693E+03  0.95366698070E+03 -0.13183633908E+04  0.17400884274E+04  0.12699999809E+01 0.  1.
</event>
<event>
 5   0  0.5059249E-06  0.2984066E+04  0.7818609E-02  0.8248296E-01
        1   -1    0    0  501    0  0.00000000000E+00  0.00000000000E+00  0.14107650475E+04  0.14107650475E+04  0.50400001928E-02 0. -1.
       -1   -1    0    0    0  501  0.00000000000E+00  0.00000000000E+00 -0.15779826496E+04  0.15779826496E+04  0.50400001928E-02 0.  1.
    10030    2    1    2    0    0  0.00000000000E+00  0.00000000000E+00 -0.16721760211E+03  0.29887476971E+04  0.29840661974E+04 0.  0.
        1    1    3    3  502    0  0.85340873604E+02  0.14031337867E+04  0.41727103498E+03  0.14663500962E+04  0.50400001928E-02 0. -1.
       -1    1    3    3    0  502 -0.85340873604E+02 -0.14031337867E+04 -0.58448863710E+03  0.15223976008E+04  0.50400001928E-02 0.  1.
</event>
<event>
 5   0  0.1336899E-05  0.2891793E+04  0.7818609E-02  0.8275323E-01
       -2   -1    0    0    0  501  0.00000000000E+00  0.00000000000E+00  0.16125483458E+04  0.16125483458E+04  0.25500000920E-02 0. -1.
        2   -1    0    0  501    0  0.00000000000E+00  0.00000000000E+00 -0.12964677023E+04  0.12964677023E+04  0.25500000920E-02 0.  1.
    10030    2    1    2    0    0  0.00000000000E+00  0.00000000000E+00  0.31608064349E+03  0.29090160481E+04  0.28917931107E+04 0.  0.
        1    1    3    3  502    0 -0.46158800224E+03  0.20464993092E+03  0.15209793033E+04  0.16025988641E+04  0.50400001928E-02 0. -1.
       -1    1    3    3    0  502  0.46158800224E+03 -0.20464993092E+03 -0.12048986598E+04  0.13064171840E+04  0.50400001928E-02 0.  1.
</event>
<event>
 5   0  0.5154476E-06  0.2895014E+04  0.7818609E-02  0.8274362E-01
       -1   -1    0    0    0  501  0.00000000000E+00  0.00000000000E+00  0.11695546895E+04  0.11695546896E+04  0.50400001928E-02 0.  1.
        1   -1    0    0  501    0  0.00000000000E+00  0.00000000000E+00 -0.17915165458E+04  0.17915165458E+04  0.50400001928E-02 0. -1.
    10030    2    1    2    0    0  0.00000000000E+00  0.00000000000E+00 -0.62196185628E+03  0.29610712354E+04  0.28950140432E+04 0.  0.
        3    1    3    3  502    0 -0.31925283488E+03 -0.35194267796E+03 -0.17094723840E+04  0.17742834788E+04  0.10100000352E+00 0. -1.
       -3    1    3    3    0  502  0.31925283488E+03  0.35194267796E+03  0.10875105277E+04  0.11867877566E+04  0.10100000352E+00 0.  1.
</event>
<event>
 5   0  0.5261878E-06  0.2880962E+04  0.7818609E-02  0.8278564E-01
       -1   -1    0    0    0  501  0.00000000000E+00  0.00000000000E+00  0.15285407872E+04  0.15285407872E+04  0.50400001928E-02 0. -1.
        1   -1    0    0  501    0  0.00000000000E+00  0.00000000000E+00 -0.13574945712E+04  0.13574945712E+04  0.50400001928E-02 0.  1.
    10030    2    1    2    0    0  0.00000000000E+00  0.00000000000E+00  0.17104621601E+03  0.28860353584E+04  0.28809622146E+04 0.  0.
        5    1    3    3  502    0  0.27893726809E+03 -0.48560631902E+03  0.14150165709E+04  0.15218125649E+04  0.46999998093E+01 0. -1.
       -5    1    3    3    0  502 -0.27893726809E+03  0.48560631902E+03 -0.12439703549E+04  0.13642227936E+04  0.46999998093E+01 0.  1.
</event>
<event>
 5   0  0.5002240E-06  0.2909672E+04  0.7818609E-02  0.8270006E-01
        1   -1    0    0  501    0  0.00000000000E+00  0.00000000000E+00  0.12702663380E+04  0.12702663381E+04  0.50400001928E-02 0. -1.
       -1   -1    0    0    0  501  0.00000000000E+00  0.00000000000E+00 -0.16662239259E+04  0.16662239259E+04  0.50400001928E-02 0.  1.
    10030    2    1    2    0    0  0.00000000000E+00  0.00000000000E+00 -0.39595758785E+03  0.29364902640E+04  0.29096722597E+04 0.  0.
        4    1    3    3  502    0  0.12484718569E+04 -0.85375495918E+01 -0.95171696492E+03  0.15698795054E+04  0.12699999809E+01 0.  1.
       -4    1    3    3    0  502 -0.12484718569E+04  0.85375495918E+01  0.55575937707E+03  0.13666107586E+04  0.12699999809E+01 0. -1.
</event>
<event>
 5   0  0.5154476E-06  0.2855983E+04  0.7818609E-02  0.8286096E-01
        1   -1    0    0  501    0  0.00000000000E+00  0.00000000000E+00  0.19009328349E+04  0.19009328349E+04  0.50400001928E-02 0.  1.
       -1   -1    0    0    0  501  0.00000000000E+00  0.00000000000E+00 -0.10727151547E+04  0.10727151547E+04  0.50400001928E-02 0. -1.
    10030    2    1    2    0    0  0.00000000000E+00  0.00000000000E+00  0.82821768013E+03  0.29736479896E+04  0.28559828151E+04 0.  0.
        3    1    3    3  502    0  0.12765876685E+04 -0.63413232502E+03  0.50343119233E+03  0.15117019735E+04  0.10100000352E+00 0. -1.
       -3    1    3    3    0  502 -0.12765876685E+04  0.63413232502E+03  0.32478648780E+03  0.14619460161E+04  0.10100000352E+00 0.  1.
</event>
<event>
 5   0  0.5154476E-06  0.2642399E+04  0.7818609E-02  0.8353940E-01
       -1   -1    0    0    0  501  0.00000000000E+00  0.00000000000E+00  0.11434550539E+04  0.11434550540E+04  0.50400001928E-02 0. -1.
        1   -1    0    0  501    0  0.00000000000E+00  0.00000000000E+00 -0.15265732960E+04  0.15265732960E+04  0.50400001928E-02 0.  1.
    10030    2    1    2    0    0  0.00000000000E+00  0.00000000000E+00 -0.38311824207E+03  0.26700283500E+04  0.26423988727E+04 0.  0.
        3    1    3    3  502    0  0.11229588901E+03 -0.72555919187E+01  0.11386038870E+04  0.11441511404E+04  0.10100000352E+00 0. -1.
       -3    1    3    3    0  502 -0.11229588901E+03  0.72555919187E+01 -0.15217221291E+04  0.15258772096E+04  0.10100000352E+00 0.  1.
</event>
<event>
 5   0  0.5002240E-06  0.2844762E+04  0.7818609E-02  0.8289505E-01
        1   -1    0    0  501    0  0.00000000000E+00  0.00000000000E+00  0.13857296523E+04  0.13857296523E+04  0.50400001928E-02 0. -1.
       -1   -1    0    0    0  501  0.00000000000E+00  0.00000000000E+00 -0.14600021162E+04  0.14600021162E+04  0.50400001928E-02 0.  1.
    10030    2    1    2    0    0  0.00000000000E+00  0.00000000000E+00 -0.74272463921E+02  0.28457317686E+04  0.28447623626E+04 0.  0.
        4    1    3    3  502    0  0.70122880158E+02  0.92494065243E+02  0.13809837054E+04  0.13858535196E+04  0.12699999809E+01 0. -1.
       -4    1    3    3    0  502 -0.70122880158E+02 -0.92494065243E+02 -0.14552561693E+04  0.14598782489E+04  0.12699999809E+01 0.  1.
</event>
<event>
 5   0  0.5154476E-06  0.2460297E+04  0.7818609E-02  0.8417268E-01
        1   -1    0    0  501    0  0.00000000000E+00  0.00000000000E+00  0.17306935894E+04  0.17306935894E+04  0.50400001928E-02 0. -1.
       -1   -1    0    0    0  501  0.00000000000E+00  0.00000000000E+00 -0.87436946900E+03  0.87436946902E+03  0.50400001928E-02 0.  1.
    10030    2    1    2    0    0  0.00000000000E+00  0.00000000000E+00  0.85632412035E+03  0.26050630584E+04  0.24602972461E+04 0.  0.
        3    1    3    3  502    0  0.40042739798E+03 -0.96472951783E+03  0.11161808641E+04  0.15286938461E+04  0.10100000352E+00 0. -1.
       -3    1    3    3    0  502 -0.40042739798E+03  0.96472951783E+03 -0.25985674372E+03  0.10763692123E+04  0.10100000352E+00 0.  1.
</event>
<event>
 5   0  0.5059249E-06  0.2646801E+04  0.7818609E-02  0.8352476E-01
       -1   -1    0    0    0  501  0.00000000000E+00  0.00000000000E+00  0.11670530508E+04  0.11670530508E+04  0.50400001928E-02 0. -1.
        1   -1    0    0  501    0  0.00000000000E+00  0.00000000000E+00 -0.15006935278E+04  0.15006935278E+04  0.50400001928E-02 0.  1.
    10030    2    1    2    0    0  0.00000000000E+00  0.00000000000E+00 -0.33364047693E+03  0.26677465786E+04  0.26468010578E+04 0.  0.
        1    1    3    3  502    0 -0.44738097237E+03 -0.11981328459E+04 -0.50968407820E+03  0.13767533949E+04  0.50400001928E-02 0. -1.
       -1    1    3    3    0  502  0.44738097237E+03  0.11981328459E+04  0.17604360127E+03  0.12909931837E+04  0.50400001928E-02 0.  1.
</event>
<event>
 5   0  0.5261878E-06  0.1904038E+04  0.7818609E-02  0.8652849E-01
        1   -1    0    0  501    0  0.00000000000E+00  0.00000000000E+00  0.15926908025E+04  0.15926908025E+04  0.50400001928E-02 0. -1.
       -1   -1    0    0    0  501  0.00000000000E+00  0.00000000000E+00 -0.56906209626E+03  0.56906209628E+03  0.50400001928E-02 0.  1.
    10030    2    1    2    0    0  0.00000000000E+00  0.00000000000E+00  0.10236287062E+04  0.21617528987E+04  0.19040377798E+04 0.  0.
        5    1    3    3  502    0  0.26764539194E+02  0.88981994975E+03  0.89485387085E+03  0.12622525198E+04  0.46999998093E+01 0. -1.
       -5    1    3    3    0  502 -0.26764539194E+02 -0.88981994975E+03  0.12877483534E+03  0.89950037896E+03  0.46999998093E+01 0.  1.
</event>
<event>
 5   0  0.1385669E-05  0.2857477E+04  0.7818609E-02  0.8285643E-01
       -2   -1    0    0    0  501  0.00000000000E+00  0.00000000000E+00  0.79924052812E+03  0.79924052813E+03  0.25500000920E-02 0. -1.
        2   -1    0    0  501    0  0.00000000000E+00  0.00000000000E+00 -0.25540415704E+04  0.25540415704E+04  0.25500000920E-02 0.  1.
    10030    2    1    2    0    0  0.00000000000E+00  0.00000000000E+00 -0.17548010423E+04  0.33532820986E+04  0.28574768826E+04 0.  0.
        3    1    3    3  502    0  0.18691440286E+03  0.81529784188E+03  0.48187134556E+03  0.96532252063E+03  0.10100000352E+00 0. -1.
       -3    1    3    3    0  502 -0.18691440286E+03 -0.81529784188E+03 -0.22366723879E+04  0.23879595779E+04  0.10100000352E+00 0.  1.
</event>
<event>
 5   0  0.1382803E-05  0.2816313E+04  0.7818609E-02  0.8298222E-01
        2   -1    0    0  501    0  0.00000000000E+00  0.00000000000E+00  0.19350167799E+04  0.19350167799E+04  0.25500000920E-02 0.  1.
       -2   -1    0    0    0  501  0.00000000000E+00  0.00000000000E+00 -0.10247477213E+04  0.10247477213E+04  0.25500000920E-02 0. -1.
    10030    2    1    2    0    0  0.00000000000E+00  0.00000000000E+00  0.91026905860E+03  0.29597645012E+04  0.28163125081E+04 0.  0.
        2    1    3    3  502    0 -0.38808550284E+03  0.29459132128E+03  0.18436075257E+04  0.19069040649E+04  0.25500000920E-02 0.  1.
       -2    1    3    3    0  502  0.38808550284E+03 -0.29459132128E+03 -0.93333846708E+03  0.10528604362E+04  0.25500000920E-02 0. -1.
</event>
<event>
 5   0  0.5261878E-06  0.2903871E+04  0.7818609E-02  0.8271727E-01
        1   -1    0    0  501    0  0.00000000000E+00  0.00000000000E+00  0.16248516729E+04  0.16248516729E+04  0.50400001928E-02 0. -1.
       -1   -1    0    0    0  501  0.00000000000E+00  0.00000000000E+00 -0.12974207880E+04  0.12974207880E+04  0.50400001928E-02 0.  1.
    10030    2    1    2    0    0  0.00000000000E+00  0.00000000000E+00  0.32743088493E+03  0.29222724609E+04  0.29038707532E+04 0.  0.
        5    1    3    3  502    0  0.49957686604E+03 -0.72978230725E+03  0.13225049064E+04  0.15909747259E+04  0.46999998093E+01 0. -1.
       -5    1    3    3    0  502 -0.49957686604E+03  0.72978230725E+03 -0.99507402148E+03  0.13312977350E+04  0.46999998093E+01 0.  1.
</event>
<event>
 5   0  0.1385669E-05  0.2936532E+04  0.7818609E-02  0.8262090E-01
        2   -1    0    0  501    0  0.00000000000E+00  0.00000000000E+00  0.14548697649E+04  0.14548697649E+04  0.25500000920E-02 0.  1.
       -2   -1    0    0    0  501  0.00000000000E+00  0.00000000000E+00 -0.14817854540E+04  0.14817854540E+04  0.25500000920E-02 0. -1.
    10030    2    1    2    0    0  0.00000000000E+00  0.00000000000E+00 -0.26915689049E+02  0.29366552189E+04  0.29365318695E+04 0.  0.
        3    1    3    3  502    0 -0.12921688342E+04 -0.46921000959E+03  0.50226384247E+03  0.14636008018E+04  0.10100000352E+00 0.  1.
       -3    1    3    3    0  502  0.12921688342E+04  0.46921000959E+03 -0.52917953152E+03  0.14730544172E+04  0.10100000352E+00 0. -1.
</event>
<event>
 5   0  0.1336899E-05  0.2053591E+04  0.7818609E-02  0.8581967E-01
        2   -1    0    0  501    0  0.00000000000E+00  0.00000000000E+00  0.14852272995E+04  0.14852272995E+04  0.25500000920E-02 0.  1.
       -2   -1    0    0    0  501  0.00000000000E+00  0.00000000000E+00 -0.70986381647E+03  0.70986381647E+03  0.25500000920E-02 0. -1.
    10030    2    1    2    0    0  0.00000000000E+00  0.00000000000E+00  0.77536348299E+03  0.21950911159E+04  0.20535911172E+04 0.  0.
        1    1    3    3  502    0 -0.74362384643E+03  0.61761615203E+03  0.75778025871E+03  0.12282740153E+04  0.50400001928E-02 0.  1.
       -1    1    3    3    0  502  0.74362384643E+03 -0.61761615203E+03  0.17583224286E+02  0.96681710061E+03  0.50400001928E-02 0. -1.
</event>
<event>
 5   0  0.1307832E-05  0.2754373E+04  0.7818609E-02  0.8317575E-01
       -2   -1    0    0    0  501  0.00000000000E+00  0.00000000000E+00  0.11924503469E+04  0.11924503469E+04  0.25500000920E-02 0. -1.
        2   -1    0    0  501    0  0.00000000000E+00  0.00000000000E+00 -0.15905418547E+04  0.15905418547E+04  0.25500000920E-02 0.  1.
    10030    2    1    2    0    0  0.00000000000E+00  0.00000000000E+00 -0.39809150772E+03  0.27829922016E+04  0.27543726592E+04 0.  0.
        4    1    3    3  502    0  0.43828796877E+03  0.53588764119E+01 -0.15181823521E+04  0.15801912315E+04  0.12699999809E+01 0.  1.
       -4    1    3    3    0  502 -0.43828796877E+03 -0.53588764119E+01  0.11200908444E+04  0.12028009701E+04  0.12699999809E+01 0. -1.
</event>
<event>
 5   0  0.1382803E-05  0.2924663E+04  0.7818609E-02  0.8265577E-01
        2   -1    0    0  501    0  0.00000000000E+00  0.00000000000E+00  0.16262407925E+04  0.16262407925E+04  0.25500000920E-02 0.  1.
       -2   -1    0    0    0  501  0.00000000000E+00  0.00000000000E+00 -0.13149431129E+04  0.13149431129E+04  0.25500000920E-02 0. -1.
    10030    2    1    2    0    0  0.00000000000E+00  0.00000000000E+00  0.31129767965E+03  0.29411839054E+04  0.29246634883E+04 0.  0.
        2    1    3    3  502    0 -0.21361987587E+03 -0.98738159163E+02 -0.12957747970E+04  0.13169719055E+04  0.25500000920E-02 0. -1.
       -2    1    3    3    0  502  0.21361987587E+03  0.98738159163E+02  0.16070724766E+04  0.16242119999E+04  0.25500000920E-02 0.  1.
</event>
<event>
 5   0  0.5261878E-06  0.2918835E+04  0.7818609E-02  0.8267296E-01
        1   -1    0    0  501    0  0.00000000000E+00  0.00000000000E+00  0.19100620677E+04  0.19100620677E+04  0.50400001928E-02 0.  1.
       -1   -1    0    0    0  501  0.00000000000E+00  0.00000000000E+00 -0.11150942082E+04  0.11150942082E+04  0.50400001928E-02 0. -1.
    10030    2    1    2    0    0  0.00000000000E+00  0.00000000000E+00  0.79496785954E+03  0.30251562759E+04  0.29188348011E+04 0.  0.
        5    1    3    3  502    0  0.83200258053E+03  0.27117916529E+03  0.16079791945E+04  0.18306790034E+04  0.46999998093E+01 0.  1.
       -5    1    3    3    0  502 -0.83200258053E+03 -0.27117916529E+03 -0.81301133497E+03  0.11944772725E+04  0.46999998093E+01 0. -1.
</event>
<event>
 5   0  0.1382803E-05  0.2912538E+04  0.7818609E-02  0.8269157E-01
       -2   -1    0    0    0  501  0.00000000000E+00  0.00000000000E+00  0.11318372056E+04  0.11318372056E+04  0.25500000920E-02 0.  1.
        2   -1    0    0  501    0  0.00000000000E+00  0.00000000000E+00 -0.18736966479E+04  0.18736966479E+04  0.25500000920E-02 0. -1.
    10030    2    1    2    0    0  0.00000000000E+00  0.00000000000E+00 -0.74185944234E+03  0.30055338535E+04  0.29125381220E+04 0.  0.
        2    1    3    3  502    0  0.29232082059E+03 -0.11875689392E+04 -0.11867077270E+04  0.17041263677E+04  0.25500000920E-02 0. -1.
       -2    1    3    3    0  502 -0.29232082059E+03  0.11875689392E+04  0.44484828470E+03  0.13014074858E+04  0.25500000920E-02 0.  1.
</event>
<event>
 5   0  0.5261878E-06  0.2100644E+04  0.7818609E-02  0.8560960E-01
       -1   -1    0    0    0  501  0.00000000000E+00  0.00000000000E+00  0.15388361064E+04  0.15388361064E+04  0.50400001928E-02 0. -1.
        1   -1    0    0  501    0  0.00000000000E+00  0.00000000000E+00 -0.71689002818E+03  0.71689002820E+03  0.50400001928E-02 0.  1.
    10030    2    1    2    0    0  0.00000000000E+00  0.00000000000E+00  0.82194607819E+03  0.22557261346E+04  0.21006439581E+04 0.  0.
        5    1    3    3  502    0  0.87925050052E+03  0.23160496144E+03  0.97555627286E+03  0.13335870547E+04  0.46999998093E+01 0.  1.
       -5    1    3    3    0  502 -0.87925050052E+03 -0.23160496144E+03 -0.15361019466E+03  0.92213907993E+03  0.46999998093E+01 0. -1.
</event>
<event>
 5   0  0.5352212E-06  0.2903678E+04  0.7818609E-02  0.8271784E-01
       -1   -1    0    0    0  501  0.00000000000E+00  0.00000000000E+00  0.18759149603E+04  0.18759149603E+04  0.50400001928E-02 0.  1.
        1   -1    0    0  501    0  0.00000000000E+00  0.00000000000E+00 -0.11236308611E+04  0.11236308611E+04  0.50400001928E-02 0. -1.
    10030    2    1    2    0    0  0.00000000000E+00  0.00000000000E+00  0.75228409923E+03  0.29995458214E+04  0.29036776282E+04 0.  0.
        2    1    3    3  502    0  0.27806739732E+03 -0.44656913978E+03  0.17739966597E+04  0.18503539182E+04  0.25500000920E-02 0.  1.
       -2    1    3    3    0  502 -0.27806739732E+03  0.44656913978E+03 -0.10217125605E+04  0.11491919032E+04  0.25500000920E-02 0. -1.
</event>
<event>
 5   0  0.5352212E-06  0.2904364E+04  0.7818609E-02  0.8271580E-01
       -1   -1    0    0    0  501  0.00000000000E+00  0.00000000000E+00  0.15075309824E+04  0.15075309824E+04  0.50400001928E-02 0. -1.
        1   -1    0    0  501    0  0.00000000000E+00  0.00000000000E+00 -0.13988655970E+04  0.13988655970E+04  0.50400001928E-02 0.  1.
    10030    2    1    2    0    0  0.00000000000E+00  0.00000000000E+00  0.10866538543E+03  0.29063965795E+04  0.29043644591E+04 0.  0.
        2    1    3    3  502    0 -0.65068902410E+03 -0.12935611987E+04  0.16457531678E+03  0.14573200800E+04  0.25500000920E-02 0.  1.
       -2    1    3    3    0  502  0.65068902410E+03  0.12935611987E+04 -0.55909931347E+02  0.14490764994E+04  0.25500000920E-02 0. -1.
</event>
<event>
 5   0  0.5002240E-06  0.2855099E+04  0.7818609E-02  0.8286363E-01
       -1   -1    0    0    0  501  0.00000000000E+00  0.00000000000E+00  0.12056300477E+04  0.12056300477E+04  0.50400001928E-02 0.  1.
        1   -1    0    0  501    0  0.00000000000E+00  0.00000000000E+00 -0.16903179060E+04  0.16903179060E+04  0.50400001928E-02 0. -1.
    10030    2    1    2    0    0  0.00000000000E+00  0.00000000000E+00 -0.48468785831E+03  0.28959479536E+04  0.28550993381E+04 0.  0.
        4    1    3    3  502    0  0.12125066756E+04 -0.53429265853E+02 -0.10046748275E+04  0.15755634696E+04  0.12699999809E+01 0. -1.
       -4    1    3    3    0  502 -0.12125066756E+04  0.53429265853E+02  0.51998696917E+03  0.13203844841E+04  0.12699999809E+01 0.  1.
</event>
<event>
 5   0  0.1336899E-05  0.2888746E+04  0.7818609E-02  0.8276234E-01
        2   -1    0    0  501    0  0.00000000000E+00  0.00000000000E+00  0.18867158644E+04  0.18867158644E+04  0.25500000920E-02 0. -1.
       -2   -1    0    0    0  501  0.00000000000E+00  0.00000000000E+00 -0.11057378821E+04  0.11057378821E+04  0.25500000920E-02 0.  1.
    10030    2    1    2    0    0  0.00000000000E+00  0.00000000000E+00  0.78097798226E+03  0.29924537465E+04  0.28887458899E+04 0.  0.
        1    1    3    3  502    0  0.63046694935E+03 -0.41135546347E+03  0.16674277657E+04  0.18294855139E+04  0.50400001928E-02 0. -1.
       -1    1    3    3    0  502 -0.63046694935E+03  0.41135546347E+03 -0.88644978346E+03  0.11629682327E+04  0.50400001928E-02 0.  1.
</event>
<event>
 5   0  0.1307832E-05  0.2882163E+04  0.7818609E-02  0.8278204E-01
       -2   -1    0    0    0  501  0.00000000000E+00  0.00000000000E+00  0.84813822361E+03  0.84813822361E+03  0.25500000920E-02 0. -1.
        2   -1    0    0  501    0  0.00000000000E+00  0.00000000000E+00 -0.24485587311E+04  0.24485587311E+04  0.25500000920E-02 0.  1.
    10030    2    1    2    0    0  0.00000000000E+00  0.00000000000E+00 -0.16004205075E+04  0.32966969547E+04  0.28821632519E+04 0.  0.
        4    1    3    3  502    0  0.58116496628E+03  0.11941562530E+04 -0.14400921851E+04  0.19589867251E+04  0.12699999809E+01 0.  1.
       -4    1    3    3    0  502 -0.58116496628E+03 -0.11941562530E+04 -0.16032832233E+03  0.13377102296E+04  0.12699999809E+01 0. -1.
</event>
<event>
 5   0  0.5154476E-06  0.2760195E+04  0.7818609E-02  0.8315734E-01
       -1   -1    0    0    0  501  0.00000000000E+00  0.00000000000E+00  0.17361535108E+04  0.17361535108E+04  0.50400001928E-02 0.  1.
        1   -1    0    0  501    0  0.00000000000E+00  0.00000000000E+00 -0.10970625175E+04  0.10970625175E+04  0.50400001928E-02 0. -1.
    10030    2    1    2    0    0  0.00000000000E+00  0.00000000000E+00  0.63909099333E+03  0.28332160283E+04  0.27601948781E+04 0.  0.
        3    1    3    3  502    0  0.26581091170E+03  0.99708793955E+03 -0.62112042742E+03  0.12044211869E+04  0.10100000352E+00 0. -1.
       -3    1    3    3    0  502 -0.26581091170E+03 -0.99708793955E+03  0.12602114208E+04  0.16287948413E+04  0.10100000352E+00 0.  1.
</event>
<event>
 5   0  0.1385669E-05  0.2885661E+04  0.7818609E-02  0.8277157E-01
        2   -1    0    0  501    0  0.00000000000E+00  0.00000000000E+00  0.15063911207E+04  0.15063911207E+04  0.25500000920E-02 0.  1.
       -2   -1    0    0    0  501  0.00000000000E+00  0.00000000000E+00 -0.13819516941E+04  0.13819516941E+04  0.25500000920E-02 0. -1.
    10030    2    1    2    0    0  0.00000000000E+00  0.00000000000E+00  0.12443942659E+03  0.28883428148E+04  0.28856609372E+04 0.  0.
        3    1    3    3  502    0 -0.85054704372E+03  0.82225444189E+03 -0.76451833280E+03  0.14085527793E+04  0.10100000352E+00 0. -1.
       -3    1    3    3    0  502  0.85054704372E+03 -0.82225444189E+03  0.88895775939E+03  0.14797900354E+04  0.10100000352E+00 0.  1.
</event>
<event>
 5   0  0.5154476E-06  0.2879774E+04  0.7818609E-02  0.8278921E-01
        1   -1    0    0  501    0  0.00000000000E+00  0.00000000000E+00  0.21523821577E+04  0.21523821577E+04  0.50400001928E-02 0. -1.
       -1   -1    0    0    0  501  0.00000000000E+00  0.00000000000E+00 -0.96324669999E+03  0.96324670000E+03  0.50400001928E-02 0.  1.
    10030    2    1    2    0    0  0.00000000000E+00  0.00000000000E+00  0.11891354577E+04  0.31156288577E+04  0.28797743040E+04 0.  0.
        3    1    3    3  502    0  0.63622959960E+01 -0.71768368566E+03 -0.75593025137E+03  0.10423727292E+04  0.10100000352E+00 0.  1.
       -3    1    3    3    0  502 -0.63622959960E+01  0.71768368566E+03  0.19450657090E+04  0.20732561284E+04  0.10100000352E+00 0. -1.
</event>
<event>
 5   0  0.5352212E-06  0.2129220E+04  0.7818609E-02  0.8548480E-01
       -1   -1    0    0    0  501  0.00000000000E+00  0.00000000000E+00  0.72556803197E+03  0.72556803199E+03  0.50400001928E-02 0. -1.
        1   -1    0    0  501    0  0.00000000000E+00  0.00000000000E+00 -0.15620793395E+04  0.15620793395E+04  0.50400001928E-02 0.  1.
    10030    2    1    2    0    0  0.00000000000E+00  0.00000000000E+00 -0.83651130749E+03  0.22876473715E+04  0.21292203570E+04 0.  0.
        2    1    3    3  502    0  0.79885839723E+03  0.13403568445E+03 -0.11604941929E+04  0.14152339296E+04  0.25500000920E-02 0.  1.
       -2    1    3    3    0  502 -0.79885839723E+03 -0.13403568445E+03  0.32398288545E+03  0.87241344190E+03  0.25500000920E-02 0. -1.
</event>
<event>
 5   0  0.1382803E-05  0.2807604E+04  0.7818609E-02  0.8300911E-01
        2   -1    0    0  501    0  0.00000000000E+00  0.00000000000E+00  0.14110248939E+04  0.14110248939E+04  0.25500000920E-02 0. -1.
       -2   -1    0    0    0  501  0.00000000000E+00  0.00000000000E+00 -0.13966163277E+04  0.13966163277E+04  0.25500000920E-02 0.  1.
    10030    2    1    2    0    0  0.00000000000E+00  0.00000000000E+00  0.14408566184E+02  0.28076412216E+04  0.28076042496E+04 0.  0.
        2    1    3    3  502    0  0.10166534720E+04  0.40166944346E+03 -0.87356709044E+03  0.13993005701E+04  0.25500000920E-02 0.  1.
       -2    1    3    3    0  502 -0.10166534720E+04 -0.40166944346E+03  0.88797565662E+03  0.14083406515E+04  0.25500000920E-02 0. -1.
</event>
<event>
 5   0  0.5261878E-06  0.2916522E+04  0.7818609E-02  0.8267979E-01
        1   -1    0    0  501    0  0.00000000000E+00  0.00000000000E+00  0.30291207019E+04  0.30291207019E+04  0.50400001928E-02 0. -1.
       -1   -1    0    0    0  501  0.00000000000E+00  0.00000000000E+00 -0.70202711353E+03  0.70202711355E+03  0.50400001928E-02 0.  1.
    10030    2    1    2    0    0  0.00000000000E+00  0.00000000000E+00  0.23270935883E+04  0.37311478154E+04  0.29165218072E+04 0.  0.
        5    1    3    3  502    0 -0.78555558846E+03  0.12021222183E+04  0.14879667614E+04  0.20679126150E+04  0.46999998093E+01 0.  1.
       -5    1    3    3    0  502  0.78555558846E+03 -0.12021222183E+04  0.83912682698E+03  0.16632352005E+04  0.46999998093E+01 0. -1.
</event>
<event>
 5   0  0.5059249E-06  0.2845836E+04  0.7818609E-02  0.8289178E-01
        1   -1    0    0  501    0  0.00000000000E+00  0.00000000000E+00  0.18181730469E+04  0.18181730469E+04  0.50400001928E-02 0. -1.
       -1   -1    0    0    0  501  0.00000000000E+00  0.00000000000E+00 -0.11135879977E+04  0.11135879977E+04  0.50400001928E-02 0.  1.
    10030    2    1    2    0    0  0.00000000000E+00  0.00000000000E+00  0.70458504914E+03  0.29317610446E+04  0.28458360338E+04 0.  0.
        1    1    3    3  502    0 -0.63969552729E+03 -0.44583995435E+03 -0.87390233118E+03  0.11711912384E+04  0.50400001928E-02 0.  1.
       -1    1    3    3    0  502  0.63969552729E+03  0.44583995435E+03  0.15784873803E+04  0.17605698062E+04  0.50400001928E-02 0. -1.
</event>
<event>
 5   0  0.1307832E-05  0.2937454E+04  0.7818609E-02  0.8261820E-01
        2   -1    0    0  501    0  0.00000000000E+00  0.00000000000E+00  0.18853291915E+04  0.18853291915E+04  0.25500000920E-02 0. -1.
       -2   -1    0    0    0  501  0.00000000000E+00  0.00000000000E+00 -0.11441816974E+04  0.11441816974E+04  0.25500000920E-02 0.  1.
    10030    2    1    2    0    0  0.00000000000E+00  0.00000000000E+00  0.74114749412E+03  0.30295108889E+04  0.29374541049E+04 0.  0.
        4    1    3    3  502    0 -0.45631372377E+02  0.65345038668E+03 -0.98518709905E+03  0.11830785532E+04  0.12699999809E+01 0.  1.
       -4    1    3    3    0  502  0.45631372377E+02 -0.65345038668E+03  0.17263345932E+04  0.18464323357E+04  0.12699999809E+01 0. -1.
</event>
<event>
 5   0  0.5059249E-06  0.2945265E+04  0.7818609E-02  0.8259536E-01
        1   -1    0    0  501    0  0.00000000000E+00  0.00000000000E+00  0.16584307754E+04  0.16584307754E+04  0.50400001928E-02 0. -1.
       -1   -1    0    0    0  501  0.00000000000E+00  0.00000000000E+00 -0.13076496799E+04  0.13076496799E+04  0.50400001928E-02 0.  1.
    10030    2    1    2    0    0  0.00000000000E+00  0.00000000000E+00  0.35078109553E+03  0.29660804553E+04  0.29452649949E+04 0.  0.
        1    1    3    3  502    0 -0.11886551644E+04  0.77485407667E+03 -0.22153525658E+03  0.14360981198E+04  0.50400001928E-02 0.  1.
       -1    1    3    3    0  502  0.11886551644E+04 -0.77485407667E+03  0.57231635210E+03  0.15299823355E+04  0.50400001928E-02 0. -1.
</event>
<event>
 5   0  0.1307832E-05  0.2933681E+04  0.7818609E-02  0.8262926E-01
        2   -1    0    0  501    0  0.00000000000E+00  0.00000000000E+00  0.21782635303E+04  0.21782635303E+04  0.25500000920E-02 0. -1.
       -2   -1    0    0    0  501  0.00000000000E+00  0.00000000000E+00 -0.98776909948E+03  0.98776909949E+03  0.25500000920E-02 0.  1.
    10030    2    1    2    0    0  0.00000000000E+00  0.00000000000E+00  0.11904944308E+04  0.31660326298E+04  0.29336812409E+04 0.  0.
        4    1    3    3  502    0  0.92203966479E+03 -0.35905743604E+03 -0.57335410216E+03  0.11435977987E+04  0.12699999809E+01 0.  1.
       -4    1    3    3    0  502 -0.92203966479E+03  0.35905743604E+03  0.17638485330E+04  0.20224348311E+04  0.12699999809E+01 0. -1.
</event>
<event>
 5   0  0.1339837E-05  0.3170380E+04  0.7818609E-02  0.8196684E-01
       -2   -1    0    0    0  501  0.00000000000E+00  0.00000000000E+00  0.16674090534E+04  0.16674090534E+04  0.25500000920E-02 0.  1.
        2   -1    0    0  501    0  0.00000000000E+00  0.00000000000E+00 -0.15070249406E+04  0.15070249406E+04  0.25500000920E-02 0. -1.
    10030    2    1    2    0    0  0.00000000000E+00  0.00000000000E+00  0.16038411277E+03  0.31744339939E+04  0.31703798066E+04 0.  0.
        5    1    3    3  502    0 -0.13933870596E+04 -0.67621456835E+03 -0.25789532006E+03  0.15701355758E+04  0.46999998093E+01 0. -1.
       -5    1    3    3    0  502  0.13933870596E+04  0.67621456835E+03  0.41827943283E+03  0.16042984181E+04  0.46999998093E+01 0.  1.
</event>
<event>
 5   0  0.5002240E-06  0.2530980E+04  0.7818609E-02  0.8392031E-01
        1   -1    0    0  501    0  0.00000000000E+00  0.00000000000E+00  0.20969995022E+04  0.20969995022E+04  0.50400001928E-02 0. -1.
       -1   -1    0    0    0  501  0.00000000000E+00  0.00000000000E+00 -0.76369324138E+03  0.76369324140E+03  0.50400001928E-02 0.  1.
    10030    2    1    2    0    0  0.00000000000E+00  0.00000000000E+00  0.13333062609E+04  0.28606927436E+04  0.25309795314E+04 0.  0.
        4    1    3    3  502    0 -0.17485978873E+02 -0.30386914724E+03 -0.72170456483E+03  0.78326324431E+03  0.12699999809E+01 0.  1.
       -4    1    3    3    0  502  0.17485978873E+02  0.30386914724E+03  0.20550108257E+04  0.20774294993E+04  0.12699999809E+01 0. -1.
</event>
<event>
 5   0  0.1339837E-05  0.2930937E+04  0.7818609E-02  0.8263732E-01
       -2   -1    0    0    0  501  0.00000000000E+00  0.00000000000E+00  0.12545762152E+04  0.12545762152E+04  0.25500000920E-02 0. -1.
        2   -1    0    0  501    0  0.00000000000E+00  0.00000000000E+00 -0.17118116787E+04  0.17118116787E+04  0.25500000920E-02 0.  1.
    10030    2    1    2    0    0  0.00000000000E+00  0.00000000000E+00 -0.45723546353E+03  0.29663878939E+04  0.29309371996E+04 0.  0.
        5    1    3    3  502    0 -0.12616308231E+04 -0.71078094395E+03 -0.83051870451E+00  0.14480830998E+04  0.46999998093E+01 0. -1.
       -5    1    3    3    0  502  0.12616308231E+04  0.71078094395E+03 -0.45640494482E+03  0.15183047941E+04  0.46999998093E+01 0.  1.
</event>
<event>
 5   0  0.5352212E-06  0.1857957E+04  0.7818609E-02  0.8676072E-01
        1   -1    0    0  501    0  0.00000000000E+00  0.00000000000E+00  0.95384619593E+03  0.95384619595E+03  0.50400001928E-02 0.  1.
       -1   -1    0    0    0  501  0.00000000000E+00  0.00000000000E+00 -0.90475908744E+03  0.90475908745E+03  0.50400001928E-02 0. -1.
    10030    2    1    2    0    0  0.00000000000E+00  0.00000000000E+00  0.49087108494E+02  0.18586052834E+04  0.18579569573E+04 0.  0.
        2    1    3    3  502    0 -0.25651299704E+03  0.20600960062E+03 -0.84453007584E+03  0.90634977917E+03  0.25500000920E-02 0. -1.
       -2    1    3    3    0  502  0.25651299704E+03 -0.20600960062E+03  0.89361718433E+03  0.95225550423E+03  0.25500000920E-02 0.  1.
</event>
<event>
 5   0  0.1382803E-05  0.2913785E+04  0.7818609E-02  0.8268788E-01
        2   -1    0    0  501    0  0.00000000000E+00  0.00000000000E+00  0.32524409785E+04  0.32524409785E+04  0.25500000920E-02 0.  1.
       -2   -1    0    0    0  501  0.00000000000E+00  0.00000000000E+00 -0.65259778177E+03  0.65259778177E+03  0.25500000920E-02 0. -1.
    10030    2    1    2    0    0  0.00000000000E+00  0.00000000000E+00  0.25998431968E+04  0.39050387603E+04  0.29137850078E+04 0.  0.
        2    1    3    3  502    0  0.12902177612E+04 -0.37708954148E+03  0.54693096780E+03  0.14512035960E+04  0.25500000920E-02 0. -1.
       -2    1    3    3    0  502 -0.12902177612E+04  0.37708954148E+03  0.20529122290E+04  0.24538351643E+04  0.25500000920E-02 0.  1.
</event>
<event>
 5   0  0.5154476E-06  0.2509258E+04  0.7818609E-02  0.8399695E-01
       -1   -1    0    0    0  501  0.00000000000E+00  0.00000000000E+00  0.11803948631E+04  0.11803948631E+04  0.50400001928E-02 0.  1.
        1   -1    0    0  501    0  0.00000000000E+00  0.00000000000E+00 -0.13335316161E+04  0.13335316161E+04  0.50400001928E-02 0. -1.
    10030    2    1    2    0    0  0.00000000000E+00  0.00000000000E+00 -0.15313675307E+03  0.25139264792E+04  0.25092579536E+04 0.  0.
        3    1    3    3  502    0  0.51514847432E+03  0.82156305382E+03  0.72099695671E+03  0.12083792549E+04  0.10100000352E+00 0.  1.
       -3    1    3    3    0  502 -0.51514847432E+03 -0.82156305382E+03 -0.87413370978E+03  0.13055472243E+04  0.10100000352E+00 0. -1.
</event>
</LesHouchesEvents>
