<LesHouchesEvents version="3.0">
<header>
<!--
#*********************************************************************
#                                                                    *
#                        MadGraph5_aMC@NLO                           *
#                                                                    *
#                           Going Beyond                             *
#                                                                    *
#                   http://madgraph.hep.uiuc.edu                     *
#                   http://madgraph.phys.ucl.ac.be                   *
#                   http://amcatnlo.cern.ch                          *
#                                                                    *
#                     The MadGraph5_aMC@NLO team                     *
#                                                                    *
#....................................................................*
#                                                                    *
# This file contains all the information necessary to reproduce      *
# the events generated:                                              *
#                                                                    *
# 1. software version                                                *
# 2. proc_card          : code generation info including model       *
# 3. param_card         : model primary parameters in the LH format  *
# 4. run_card           : running parameters (collider and cuts)     *
# 5. pythia_card        : present only if pythia has been run        *
# 6. pgs_card           : present only if pgs has been run           *
# 7. delphes_cards      : present only if delphes has been run       *
#                                                                    *
#                                                                    *
#*********************************************************************
-->
<MGVersion>
#5.2.2.3
</MGVersion>
<MG5ProcCard>
#************************************************************
#*                     MadGraph5_aMC@NLO                    *
#*                                                          *
#*                *                       *                 *
#*                  *        * *        *                   *
#*                    * * * * 5 * * * *                     *
#*                  *        * *        *                   *
#*                *                       *                 *
#*                                                          *
#*                                                          *
#*         VERSION 2.2.3                 2015-02-10         *
#*                                                          *
#*    The MadGraph5_aMC@NLO Development Team - Find us at   *
#*    https://server06.fynu.ucl.ac.be/projects/madgraph     *
#*                                                          *
#************************************************************
#*                                                          *
#*               Command File for MadGraph5_aMC@NLO         *
#*                                                          *
#*     run as ./bin/mg5_aMC  filename                       *
#*                                                          *
#************************************************************
set group_subprocesses Auto
set ignore_six_quark_processes False
set loop_optimized_output True
set gauge unitary
set complex_mass_scheme False
import model sm
define p = g u c d s u~ c~ d~ s~
define j = g u c d s u~ c~ d~ s~
define l+ = e+ mu+
define l- = e- mu-
define vl = ve vm vt
define vl~ = ve~ vm~ vt~
import model Zprime_UFO
generate p p > zph, zph > j j
add process p p > zph, zph > b b~
output Dijet_signal
</MG5ProcCard>
<MGProcCard>
#*********************************************************************
#                        MadGraph/MadEvent                           *
#                   http://madgraph.hep.uiuc.edu                     *
#                                                                    *
#                          proc_card.dat                             *
#*********************************************************************
#                                                                    *
#            This Files is generated by MADGRAPH 5                   *
#                                                                    *
# WARNING: This Files is generated for MADEVENT (compatibility issue)*
#          This files is NOT a valid MG4 proc_card.dat               *
#          Running this in MG4 will NEVER reproduce the result of MG5*
#                                                                    *
#*********************************************************************
#*********************************************************************
# Process(es) requested : mg2 input                                  *
#*********************************************************************
# Begin PROCESS # This is TAG. Do not modify this line
p p > zph , zph > j j           #Process
# Be carefull the coupling are here in MG5 convention
          
end_coup           # End the couplings input

done               # this tells MG there are no more procs
# End PROCESS  # This is TAG. Do not modify this line
#*********************************************************************
# Model information                                                  *
#*********************************************************************
# Begin MODEL  # This is TAG. Do not modify this line
Zprime_UFO
# End   MODEL  # This is TAG. Do not modify this line
#*********************************************************************
# Start multiparticle definitions                                    *
#*********************************************************************
# Begin MULTIPARTICLES # This is TAG. Do not modify this line

# End  MULTIPARTICLES # This is TAG. Do not modify this line
</MGProcCard>
<MGRunCard>
#*********************************************************************
#                       MadGraph5_aMC@NLO                            *
#                                                                    *
#                     run_card.dat MadEvent                          *
#                                                                    *
#  This file is used to set the parameters of the run.               *
#                                                                    *
#  Some notation/conventions:                                        *
#                                                                    *
#   Lines starting with a '# ' are info or comments                  *
#                                                                    *
#   mind the format:   value    = variable     ! comment             *
#*********************************************************************
#
#*******************                                                 
# Running parameters
#*******************                                                 
#                                                                    
#*********************************************************************
# Tag name for the run (one word)                                    *
#*********************************************************************
  tag_1     = run_tag ! name of the run 
#*********************************************************************
# Run to generate the grid pack                                      *
#*********************************************************************
  .false.     = gridpack  !True = setting up the grid pack
#*********************************************************************
# Number of events and rnd seed                                      *
# Warning: Do not generate more than 1M events in a single run       *
# If you want to run Pythia, avoid more than 50k events in a run.    *
#*********************************************************************
  2000 = nevents ! Number of unweighted events requested 
 2190 = iseed   ! rnd seed (0=assigned automatically=default))
#*********************************************************************
# Collider type and energy                                           *
# lpp: 0=No PDF, 1=proton, -1=antiproton, 2=photon from proton,      *
#                                         3=photon from electron     *
#*********************************************************************
        1     = lpp1    ! beam 1 type 
        1     = lpp2    ! beam 2 type
     4000     = ebeam1  ! beam 1 total energy in GeV
     4000     = ebeam2  ! beam 2 total energy in GeV
#*********************************************************************
# Beam polarization from -100 (left-handed) to 100 (right-handed)    *
#*********************************************************************
        0     = polbeam1 ! beam polarization for beam 1
        0     = polbeam2 ! beam polarization for beam 2
#*********************************************************************
# PDF CHOICE: this automatically fixes also alpha_s and its evol.    *
#*********************************************************************
 'nn23lo1'    = pdlabel     ! PDF set                                     
 230000    = lhaid     ! if pdlabel=lhapdf, this is the lhapdf number
#*********************************************************************
# Renormalization and factorization scales                           *
#*********************************************************************
 F        = fixed_ren_scale  ! if .true. use fixed ren scale
 F        = fixed_fac_scale  ! if .true. use fixed fac scale
 91.1880  = scale            ! fixed ren scale
 91.1880  = dsqrt_q2fact1    ! fixed fact scale for pdf1
 91.1880  = dsqrt_q2fact2    ! fixed fact scale for pdf2
 1        = scalefact        ! scale factor for event-by-event scales
#*********************************************************************
# Matching - Warning! ickkw > 1 is still beta
#*********************************************************************
 0        = ickkw            ! 0 no matching, 1 MLM, 2 CKKW matching
 1        = highestmult      ! for ickkw=2, highest mult group
 1        = ktscheme         ! for ickkw=1, 1 Durham kT, 2 Pythia pTE
 1        = alpsfact         ! scale factor for QCD emission vx
 F        = chcluster        ! cluster only according to channel diag
 T        = pdfwgt           ! for ickkw=1, perform pdf reweighting
 5        = asrwgtflavor     ! highest quark flavor for a_s reweight
 T        = clusinfo         ! include clustering tag in output
 3.0      = lhe_version       ! Change the way clustering information pass to shower.        
#*********************************************************************
#**********************************************************
#
#**********************************************************
# Automatic ptj and mjj cuts if xqcut > 0
# (turn off for VBF and single top processes)
#**********************************************************
   T  = auto_ptj_mjj  ! Automatic setting of ptj and mjj
#**********************************************************
#                                                                    
#**********************************
# BW cutoff (M+/-bwcutoff*Gamma)
#**********************************
  15  = bwcutoff      ! (M+/-bwcutoff*Gamma)
#**********************************************************
# Apply pt/E/eta/dr/mij cuts on decay products or not
# (note that etmiss/ptll/ptheavy/ht/sorted cuts always apply)
#**********************************************************
   T  = cut_decays    ! Cut decay products 
#*************************************************************
# Number of helicities to sum per event (0 = all helicities)
# 0 gives more stable result, but longer run time (needed for
# long decay chains e.g.).
# Use >=2 if most helicities contribute, e.g. pure QCD.
#*************************************************************
   0  = nhel          ! Number of helicities used per event
#*******************                                                 
# Standard Cuts
#*******************                                                 
#                                                                    
#*********************************************************************
# Minimum and maximum pt's (for max, -1 means no cut)                *
#*********************************************************************
 20  = ptj       ! minimum pt for the jets 
  0  = ptb       ! minimum pt for the b 
 10  = pta       ! minimum pt for the photons 
 10  = ptl       ! minimum pt for the charged leptons 
  0  = misset    ! minimum missing Et (sum of neutrino's momenta)
  0  = ptheavy   ! minimum pt for one heavy final state
 1.0 = ptonium   ! minimum pt for the quarkonium states
 -1  = ptjmax    ! maximum pt for the jets
 -1  = ptbmax    ! maximum pt for the b
 -1  = ptamax    ! maximum pt for the photons
 -1  = ptlmax    ! maximum pt for the charged leptons
 -1  = missetmax ! maximum missing Et (sum of neutrino's momenta)
#*********************************************************************
# Minimum and maximum E's (in the center of mass frame)              *
#*********************************************************************
  0  = ej     ! minimum E for the jets 
  0  = eb     ! minimum E for the b 
  0  = ea     ! minimum E for the photons 
  0  = el     ! minimum E for the charged leptons 
 -1   = ejmax ! maximum E for the jets
 -1   = ebmax ! maximum E for the b
 -1   = eamax ! maximum E for the photons
 -1   = elmax ! maximum E for the charged leptons
#*********************************************************************
# Maximum and minimum absolute rapidity (for max, -1 means no cut)   *
#*********************************************************************
   5  = etaj    ! max rap for the jets 
  -1  = etab    ! max rap for the b
 2.5  = etaa    ! max rap for the photons 
 2.5  = etal    ! max rap for the charged leptons 
 0.6  = etaonium ! max rap for the quarkonium states
   0  = etajmin ! min rap for the jets
   0  = etabmin ! min rap for the b
   0  = etaamin ! min rap for the photons
   0  = etalmin ! main rap for the charged leptons
#*********************************************************************
# Minimum and maximum DeltaR distance                                *
#*********************************************************************
 0.4 = drjj    ! min distance between jets 
 0   = drbb    ! min distance between b's 
 0.4 = drll    ! min distance between leptons 
 0.4 = draa    ! min distance between gammas 
 0   = drbj    ! min distance between b and jet 
 0.4 = draj    ! min distance between gamma and jet 
 0.4 = drjl    ! min distance between jet and lepton 
 0   = drab    ! min distance between gamma and b 
 0   = drbl    ! min distance between b and lepton 
 0.4 = dral    ! min distance between gamma and lepton 
 -1  = drjjmax ! max distance between jets
 -1  = drbbmax ! max distance between b's
 -1  = drllmax ! max distance between leptons
 -1  = draamax ! max distance between gammas
 -1  = drbjmax ! max distance between b and jet
 -1  = drajmax ! max distance between gamma and jet
 -1  = drjlmax ! max distance between jet and lepton
 -1  = drabmax ! max distance between gamma and b
 -1  = drblmax ! max distance between b and lepton
 -1  = dralmax ! maxdistance between gamma and lepton
#*********************************************************************
# Minimum and maximum invariant mass for pairs                       *
# WARNING: for four lepton final state mmll cut require to have      *
#          different lepton masses for each flavor!                  *           
#*********************************************************************
 0   = mmjj    ! min invariant mass of a jet pair 
 0   = mmbb    ! min invariant mass of a b pair 
 0   = mmaa    ! min invariant mass of gamma gamma pair
 0   = mmll    ! min invariant mass of l+l- (same flavour) lepton pair
 -1  = mmjjmax ! max invariant mass of a jet pair
 -1  = mmbbmax ! max invariant mass of a b pair
 -1  = mmaamax ! max invariant mass of gamma gamma pair
 -1  = mmllmax ! max invariant mass of l+l- (same flavour) lepton pair
#*********************************************************************
# Minimum and maximum invariant mass for all letpons                 *
#*********************************************************************
 0   = mmnl    ! min invariant mass for all letpons (l+- and vl) 
 -1  = mmnlmax ! max invariant mass for all letpons (l+- and vl) 
#*********************************************************************
# Minimum and maximum pt for 4-momenta sum of leptons                *
#*********************************************************************
 0   = ptllmin  ! Minimum pt for 4-momenta sum of leptons(l and vl)
 -1  = ptllmax  ! Maximum pt for 4-momenta sum of leptons(l and vl)
#*********************************************************************
# Inclusive cuts                                                     *
#*********************************************************************
 0  = xptj ! minimum pt for at least one jet  
 0  = xptb ! minimum pt for at least one b 
 0  = xpta ! minimum pt for at least one photon 
 0  = xptl ! minimum pt for at least one charged lepton 
#*********************************************************************
# Control the pt's of the jets sorted by pt                          *
#*********************************************************************
 0   = ptj1min ! minimum pt for the leading jet in pt
 0   = ptj2min ! minimum pt for the second jet in pt
 0   = ptj3min ! minimum pt for the third jet in pt
 0   = ptj4min ! minimum pt for the fourth jet in pt
 -1  = ptj1max ! maximum pt for the leading jet in pt 
 -1  = ptj2max ! maximum pt for the second jet in pt
 -1  = ptj3max ! maximum pt for the third jet in pt
 -1  = ptj4max ! maximum pt for the fourth jet in pt
 0   = cutuse  ! reject event if fails any (0) / all (1) jet pt cuts
#*********************************************************************
# Control the pt's of leptons sorted by pt                           *
#*********************************************************************
 0   = ptl1min ! minimum pt for the leading lepton in pt
 0   = ptl2min ! minimum pt for the second lepton in pt
 0   = ptl3min ! minimum pt for the third lepton in pt
 0   = ptl4min ! minimum pt for the fourth lepton in pt
 -1  = ptl1max ! maximum pt for the leading lepton in pt 
 -1  = ptl2max ! maximum pt for the second lepton in pt
 -1  = ptl3max ! maximum pt for the third lepton in pt
 -1  = ptl4max ! maximum pt for the fourth lepton in pt
#*********************************************************************
# Control the Ht(k)=Sum of k leading jets                            *
#*********************************************************************
 0   = htjmin ! minimum jet HT=Sum(jet pt)
 -1  = htjmax ! maximum jet HT=Sum(jet pt)
 0   = ihtmin  !inclusive Ht for all partons (including b)
 -1  = ihtmax  !inclusive Ht for all partons (including b)
 0   = ht2min ! minimum Ht for the two leading jets
 0   = ht3min ! minimum Ht for the three leading jets
 0   = ht4min ! minimum Ht for the four leading jets
 -1  = ht2max ! maximum Ht for the two leading jets
 -1  = ht3max ! maximum Ht for the three leading jets
 -1  = ht4max ! maximum Ht for the four leading jets
#***********************************************************************
# Photon-isolation cuts, according to hep-ph/9801442                   *
# When ptgmin=0, all the other parameters are ignored                  *
# When ptgmin>0, pta and draj are not going to be used                 *
#***********************************************************************
   0 = ptgmin ! Min photon transverse momentum
 0.4 = R0gamma ! Radius of isolation code
 1.0 = xn ! n parameter of eq.(3.4) in hep-ph/9801442
 1.0 = epsgamma ! epsilon_gamma parameter of eq.(3.4) in hep-ph/9801442
 .true. = isoEM ! isolate photons from EM energy (photons and leptons)
#*********************************************************************
# WBF cuts                                                           *
#*********************************************************************
 0   = xetamin ! minimum rapidity for two jets in the WBF case  
 0   = deltaeta ! minimum rapidity for two jets in the WBF case 
#*********************************************************************
# KT DURHAM CUT                                                      *
#*********************************************************************
 -1    =  ktdurham        
 0.4  =  dparameter 
#*********************************************************************
# maximal pdg code for quark to be considered as a light jet         *
# (otherwise b cuts are applied)                                     *
#*********************************************************************
 4 = maxjetflavor    ! Maximum jet pdg code
#*********************************************************************
# Jet measure cuts                                                   *
#*********************************************************************
 0   = xqcut   ! minimum kt jet measure between partons
#*********************************************************************
#
#*********************************************************************
# Store info for systematics studies                                 *
# WARNING: If use_syst is T, matched Pythia output is                *
#          meaningful ONLY if plotted taking matchscale              *
#          reweighting into account!                                 *
#*********************************************************************
   F  = use_syst      ! Enable systematics studies
#
#**************************************
# Parameter of the systematics study
#  will be used by SysCalc (if installed)
#**************************************                                  
#
0.5 1 2 = sys_scalefact  # factorization/renormalization scale factor
0.5 1 2 = sys_alpsfact  # \alpha_s emission scale factors
30 50 = sys_matchscale # variation of merging scale
# PDF sets and number of members (0 or none for all members).
CT10nlo.LHgrid = sys_pdf # matching scales
# MSTW2008nlo68cl.LHgrid 1  = sys_pdf
</MGRunCard>
<slha>
######################################################################
## PARAM_CARD AUTOMATICALY GENERATED BY MG5 FOLLOWING UFO MODEL   ####
######################################################################
##                                                                  ##
##  Width set on Auto will be computed following the information    ##
##        present in the decay.py files of the model.               ##
##        See  arXiv:1402.1178 for more details.                    ##
##                                                                  ##
######################################################################

###################################
## INFORMATION FOR CKMBLOCK
###################################
Block ckmblock 
    1 2.277360e-01 # cabi 

###################################
## INFORMATION FOR FRBLOCK
###################################
Block frblock 
    1 1.200000e+00 # gz 

###################################
## INFORMATION FOR MASS
###################################
Block mass 
    1 5.040000e-03 # MD 
    2 2.550000e-03 # MU 
    3 1.010000e-01 # MS 
    4 1.270000e+00 # MC 
    5 4.700000e+00 # MB 
    6 1.720000e+02 # MT 
   11 5.110000e-04 # Me 
   13 1.056600e-01 # MM 
   15 1.777000e+00 # MTA 
   23 9.118760e+01 # MZ 
   25 1.200000e+02 # MH 
  10030 1.300000e+03 # MZph 
  10031 3.000000e+02 # MZpl 
## Dependent parameters, given by model restrictions.
## Those values should be edited following the 
## analytical expression. MG5 ignores those values 
## but they are important for interfacing the output of MG5
## to external program such as Pythia.
  12 0.000000 # ve : 0.0 
  14 0.000000 # vm : 0.0 
  16 0.000000 # vt : 0.0 
  21 0.000000 # g : 0.0 
  22 0.000000 # a : 0.0 
  24 79.824360 # w+ : cmath.sqrt(MZ__exp__2/2. + cmath.sqrt(MZ__exp__4/4. - (aEW*cmath.pi*MZ__exp__2)/(Gf*sqrt__2))) 

###################################
## INFORMATION FOR SMINPUTS
###################################
Block sminputs 
    1 1.279000e+02 # aEWM1 
    2 1.166370e-05 # Gf 
    3 1.184000e-01 # aS 

###################################
## INFORMATION FOR YUKAWA
###################################
Block yukawa 
    1 5.040000e-03 # ymdo 
    2 2.550000e-03 # ymup 
    3 1.010000e-01 # yms 
    4 1.270000e+00 # ymc 
    5 4.700000e+00 # ymb 
    6 1.720000e+02 # ymt 
   11 5.110000e-04 # yme 
   13 1.056600e-01 # ymm 
   15 1.777000e+00 # ymtau 

###################################
## INFORMATION FOR DECAY
###################################
DECAY   6 1.508336e+00 # WT 
DECAY  23 2.495200e+00 # WZ 
DECAY  24 2.085000e+00 # WW 
DECAY  25 5.753088e-03 # WH 
## Dependent parameters, given by model restrictions.
## Those values should be edited following the 
## analytical expression. MG5 ignores those values 
## but they are important for interfacing the output of MG5
## to external program such as Pythia.
DECAY  1 0.000000 # d : 0.0 
DECAY  2 0.000000 # u : 0.0 
DECAY  3 0.000000 # s : 0.0 
DECAY  4 0.000000 # c : 0.0 
DECAY  5 0.000000 # b : 0.0 
DECAY  11 0.000000 # e- : 0.0 
DECAY  12 0.000000 # ve : 0.0 
DECAY  13 0.000000 # mu- : 0.0 
DECAY  14 0.000000 # vm : 0.0 
DECAY  15 0.000000 # ta- : 0.0 
DECAY  16 0.000000 # vt : 0.0 
DECAY  21 0.000000 # g : 0.0 
DECAY  22 0.000000 # a : 0.0 
DECAY  10030 0.308725 # zph : (gz__exp__2*MZph*(5 + cmath.sqrt(1 - (4*MT__exp__2)/MZph__exp__2)))/(144.*cmath.pi) 
DECAY  10031 0.132629 # zpl : (5*gz__exp__2*MZpl)/(144.*cmath.pi) 
#===========================================================
# QUANTUM NUMBERS OF NEW STATE(S) (NON SM PDG CODE)
#===========================================================

Block QNUMBERS 10030  # zph 
        1 0  # 3 times electric charge
        2 3  # number of spin states (2S+1)
        3 1  # colour rep (1: singlet, 3: triplet, 8: octet)
        4 0  # Particle/Antiparticle distinction (0=own anti)
Block QNUMBERS 10031  # zpl 
        1 0  # 3 times electric charge
        2 3  # number of spin states (2S+1)
        3 1  # colour rep (1: singlet, 3: triplet, 8: octet)
        4 0  # Particle/Antiparticle distinction (0=own anti)
</slha>
## END BANNER##
<MGGenerationInfo>
#  Number of Events        :         4034
#  Integrated weight (pb)  :  0.73050E+00
#  Max wgt                 :  0.24782E-03
#  Average wgt             :  0.18109E-03
</MGGenerationInfo>
</header>
<init>
     2212     2212  0.40000000000E+04  0.40000000000E+04 0 0  247000  247000 2   1
  0.73098160770E+00  0.16943163014E-02  0.24782360000E-03   0
</init>
<event>
 5   0  0.2334946E-03  0.1308759E+04  0.7818609E-02  0.9022648E-01
        2   -1    0    0  501    0  0.00000000000E+00  0.00000000000E+00  0.34293748221E+03  0.34293748222E+03  0.25500000920E-02 0. -1.
       -2   -1    0    0    0  501  0.00000000000E+00  0.00000000000E+00 -0.12486600212E+04  0.12486600212E+04  0.25500000920E-02 0.  1.
    10030    2    1    2    0    0  0.00000000000E+00  0.00000000000E+00 -0.90572253894E+03  0.15915975034E+04  0.13087586849E+04 0.  0.
        1    1    3    3  502    0 -0.29969164679E+03  0.31819812821E+03 -0.10450807182E+04  0.11328101516E+04  0.50400001928E-02 0.  1.
       -1    1    3    3    0  502  0.29969164679E+03 -0.31819812821E+03  0.13935817931E+03  0.45878735174E+03  0.50400001928E-02 0. -1.
</event>
<event>
 5   0  0.2334946E-03  0.1303171E+04  0.7818609E-02  0.9027054E-01
       -2   -1    0    0    0  501  0.00000000000E+00  0.00000000000E+00  0.34112058100E+03  0.34112058101E+03  0.25500000920E-02 0.  1.
        2   -1    0    0  501    0  0.00000000000E+00  0.00000000000E+00 -0.12446145012E+04  0.12446145012E+04  0.25500000920E-02 0. -1.
    10030    2    1    2    0    0  0.00000000000E+00  0.00000000000E+00 -0.90349392024E+03  0.15857350823E+04  0.13031709355E+04 0.  0.
        1    1    3    3  502    0 -0.51703237952E+02 -0.49734275976E+03  0.56620157796E+02  0.50321852887E+03  0.50400001928E-02 0.  1.
       -1    1    3    3    0  502  0.51703237952E+02  0.49734275976E+03 -0.96011407804E+03  0.10825165534E+04  0.50400001928E-02 0. -1.
</event>
<event>
 5   0  0.2478236E-03  0.1245171E+04  0.7818609E-02  0.9074212E-01
        2   -1    0    0  501    0  0.00000000000E+00  0.00000000000E+00  0.11110311571E+04  0.11110311571E+04  0.25500000920E-02 0. -1.
       -2   -1    0    0    0  501  0.00000000000E+00  0.00000000000E+00 -0.34887665147E+03  0.34887665148E+03  0.25500000920E-02 0.  1.
    10030    2    1    2    0    0  0.00000000000E+00  0.00000000000E+00  0.76215450568E+03  0.14599078086E+04  0.12451712007E+04 0.  0.
        3    1    3    3  502    0 -0.18602896443E+03  0.77461706076E+02  0.10717378598E+04  0.10905178320E+04  0.10100000352E+00 0. -1.
       -3    1    3    3    0  502  0.18602896443E+03 -0.77461706076E+02 -0.30958335411E+03  0.36938997666E+03  0.10100000352E+00 0.  1.
</event>
<event>
 5   0  0.2334946E-03  0.1268258E+04  0.7818609E-02  0.9055122E-01
        2   -1    0    0  501    0  0.00000000000E+00  0.00000000000E+00  0.69227114075E+03  0.69227114076E+03  0.25500000920E-02 0. -1.
       -2   -1    0    0    0  501  0.00000000000E+00  0.00000000000E+00 -0.58087032702E+03  0.58087032703E+03  0.25500000920E-02 0.  1.
    10030    2    1    2    0    0  0.00000000000E+00  0.00000000000E+00  0.11140081373E+03  0.12731414678E+04  0.12682582764E+04 0.  0.
        1    1    3    3  502    0 -0.25295907502E+03  0.12309147871E+03  0.62620184785E+03  0.68649002909E+03  0.50400001928E-02 0. -1.
       -1    1    3    3    0  502  0.25295907502E+03 -0.12309147871E+03 -0.51480103412E+03  0.58665143870E+03  0.50400001928E-02 0.  1.
</event>
<event>
 5   0  0.2478236E-03  0.1326277E+04  0.7818609E-02  0.9008983E-01
       -2   -1    0    0    0  501  0.00000000000E+00  0.00000000000E+00  0.50590442976E+03  0.50590442977E+03  0.25500000920E-02 0. -1.
        2   -1    0    0  501    0  0.00000000000E+00  0.00000000000E+00 -0.86923999651E+03  0.86923999651E+03  0.25500000920E-02 0.  1.
    10030    2    1    2    0    0  0.00000000000E+00  0.00000000000E+00 -0.36333556675E+03  0.13751444263E+04  0.13262765394E+04 0.  0.
        3    1    3    3  502    0  0.57246880042E+03 -0.87160093384E+02  0.15340345218E+03  0.59904093239E+03  0.10100000352E+00 0. -1.
       -3    1    3    3    0  502 -0.57246880042E+03  0.87160093384E+02 -0.51673901893E+03  0.77610349389E+03  0.10100000352E+00 0.  1.
</event>
<event>
 5   0  0.1324721E-03  0.1282342E+04  0.7818609E-02  0.9043687E-01
        1   -1    0    0  501    0  0.00000000000E+00  0.00000000000E+00  0.41133412892E+03  0.41133412895E+03  0.50400001928E-02 0.  1.
       -1   -1    0    0    0  501  0.00000000000E+00  0.00000000000E+00 -0.99943121380E+03  0.99943121381E+03  0.50400001928E-02 0. -1.
    10030    2    1    2    0    0  0.00000000000E+00  0.00000000000E+00 -0.58809708489E+03  0.14107653428E+04  0.12823418698E+04 0.  0.
        1    1    3    3  502    0  0.53750423743E+03  0.20517329711E+03 -0.60539863624E+03  0.83517327297E+03  0.50400001928E-02 0. -1.
       -1    1    3    3    0  502 -0.53750423743E+03 -0.20517329711E+03  0.17301551358E+02  0.57559206979E+03  0.50400001928E-02 0.  1.
</event>
<event>
 5   0  0.1387622E-03  0.1287120E+04  0.7818609E-02  0.9039842E-01
        1   -1    0    0  501    0  0.00000000000E+00  0.00000000000E+00  0.79539520347E+03  0.79539520349E+03  0.50400001928E-02 0. -1.
       -1   -1    0    0    0  501  0.00000000000E+00  0.00000000000E+00 -0.52070882747E+03  0.52070882749E+03  0.50400001928E-02 0.  1.
    10030    2    1    2    0    0  0.00000000000E+00  0.00000000000E+00  0.27468637601E+03  0.13161040310E+04  0.12871197362E+04 0.  0.
        3    1    3    3  502    0  0.23041873888E+03  0.23823043179E+03 -0.42673393481E+03  0.54032249183E+03  0.10100000352E+00 0.  1.
       -3    1    3    3    0  502 -0.23041873888E+03 -0.23823043179E+03  0.70142031082E+03  0.77578153915E+03  0.10100000352E+00 0. -1.
</event>
<event>
 5   0  0.2334946E-03  0.1296171E+04  0.7818609E-02  0.9032607E-01
        2   -1    0    0  501    0  0.00000000000E+00  0.00000000000E+00  0.11543903233E+04  0.11543903233E+04  0.25500000920E-02 0.  1.
       -2   -1    0    0    0  501  0.00000000000E+00  0.00000000000E+00 -0.36384114215E+03  0.36384114215E+03  0.25500000920E-02 0. -1.
    10030    2    1    2    0    0  0.00000000000E+00  0.00000000000E+00  0.79054918115E+03  0.15182314655E+04  0.12961708124E+04 0.  0.
        1    1    3    3  502    0  0.33385613271E+02  0.61561070327E+03  0.16123444383E+03  0.63725009459E+03  0.50400001928E-02 0. -1.
       -1    1    3    3    0  502 -0.33385613271E+02 -0.61561070327E+03  0.62931473732E+03  0.88098137086E+03  0.50400001928E-02 0.  1.
</event>
<event>
 5   0  0.9131250E-04  0.1299521E+04  0.7818609E-02  0.9029945E-01
        4   -1    0    0  501    0  0.00000000000E+00  0.00000000000E+00  0.10474568294E+04  0.10474575993E+04  0.12699999809E+01 0.  1.
       -4   -1    0    0    0  501  0.00000000000E+00  0.00000000000E+00 -0.40305871547E+03  0.40306071629E+03  0.12699999809E+01 0. -1.
    10030    2    1    2    0    0  0.00000000000E+00  0.00000000000E+00  0.64439811392E+03  0.14505183156E+04  0.12995208558E+04 0.  0.
        5    1    3    3  502    0  0.43916785622E+03  0.43734716068E+02 -0.21005777398E+03  0.48880209669E+03  0.46999998093E+01 0. -1.
       -5    1    3    3    0  502 -0.43916785622E+03 -0.43734716068E+02  0.85445588790E+03  0.96171621890E+03  0.46999998093E+01 0.  1.
</event>
<event>
 5   0  0.2334946E-03  0.1322198E+04  0.7818609E-02  0.9012145E-01
        2   -1    0    0  501    0  0.00000000000E+00  0.00000000000E+00  0.59446773998E+03  0.59446773998E+03  0.25500000920E-02 0. -1.
       -2   -1    0    0    0  501  0.00000000000E+00  0.00000000000E+00 -0.73519857591E+03  0.73519857591E+03  0.25500000920E-02 0.  1.
    10030    2    1    2    0    0  0.00000000000E+00  0.00000000000E+00 -0.14073083593E+03  0.13296663159E+04  0.13221979214E+04 0.  0.
        1    1    3    3  502    0 -0.45859082048E+03 -0.15471316466E+03  0.38252279807E+03  0.61689982575E+03  0.50400001928E-02 0. -1.
       -1    1    3    3    0  502  0.45859082048E+03  0.15471316466E+03 -0.52325363400E+03  0.71276649014E+03  0.50400001928E-02 0.  1.
</event>
<event>
 5   0  0.9131250E-04  0.1358665E+04  0.7818609E-02  0.8984295E-01
        4   -1    0    0  501    0  0.00000000000E+00  0.00000000000E+00  0.36853976382E+03  0.36854195204E+03  0.12699999809E+01 0. -1.
       -4   -1    0    0    0  501  0.00000000000E+00  0.00000000000E+00 -0.12522127235E+04  0.12522133675E+04  0.12699999809E+01 0.  1.
    10030    2    1    2    0    0  0.00000000000E+00  0.00000000000E+00 -0.88367295963E+03  0.16207553195E+04  0.13586647512E+04 0.  0.
        2    1    3    3  502    0  0.35155769952E+03 -0.43552419613E+03 -0.90109382667E+03  0.10607752948E+04  0.25500000920E-02 0.  1.
       -2    1    3    3    0  502 -0.35155769952E+03  0.43552419613E+03  0.17420867042E+02  0.55998002475E+03  0.25500000920E-02 0. -1.
</event>
<event>
 5   0  0.2312105E-03  0.1245111E+04  0.7818609E-02  0.9074262E-01
       -2   -1    0    0    0  501  0.00000000000E+00  0.00000000000E+00  0.36254072937E+03  0.36254072938E+03  0.25500000920E-02 0.  1.
        2   -1    0    0  501    0  0.00000000000E+00  0.00000000000E+00 -0.10690526943E+04  0.10690526943E+04  0.25500000920E-02 0. -1.
    10030    2    1    2    0    0  0.00000000000E+00  0.00000000000E+00 -0.70651196495E+03  0.14315934237E+04  0.12451106674E+04 0.  0.
        5    1    3    3  502    0 -0.12710030883E+03  0.60850622157E+03 -0.39171312158E+03  0.73477586366E+03  0.46999998093E+01 0. -1.
       -5    1    3    3    0  502  0.12710030883E+03 -0.60850622157E+03 -0.31479884337E+03  0.69681756004E+03  0.46999998093E+01 0.  1.
</event>
<event>
 5   0  0.1332630E-03  0.1170681E+04  0.7818609E-02  0.9138914E-01
       -1   -1    0    0    0  501  0.00000000000E+00  0.00000000000E+00  0.10722678759E+04  0.10722678759E+04  0.50400001928E-02 0. -1.
        1   -1    0    0  501    0  0.00000000000E+00  0.00000000000E+00 -0.31953138647E+03  0.31953138651E+03  0.50400001928E-02 0.  1.
    10030    2    1    2    0    0  0.00000000000E+00  0.00000000000E+00  0.75273648946E+03  0.13917992625E+04  0.11706805561E+04 0.  0.
        5    1    3    3  502    0  0.21646411692E+03 -0.52345157695E+03  0.20106224933E+03  0.60108766867E+03  0.46999998093E+01 0. -1.
       -5    1    3    3    0  502 -0.21646411692E+03  0.52345157695E+03  0.55167424013E+03  0.79071159378E+03  0.46999998093E+01 0.  1.
</event>
<event>
 5   0  0.9131250E-04  0.1278733E+04  0.7818609E-02  0.9046602E-01
        3   -1    0    0  501    0  0.00000000000E+00  0.00000000000E+00  0.81206605713E+03  0.81206606341E+03  0.10100000352E+00 0. -1.
       -3   -1    0    0    0  501  0.00000000000E+00  0.00000000000E+00 -0.50339440146E+03  0.50339441160E+03  0.10100000352E+00 0.  1.
    10030    2    1    2    0    0  0.00000000000E+00  0.00000000000E+00  0.30867165567E+03  0.13154604750E+04  0.12787329941E+04 0.  0.
        1    1    3    3  502    0  0.18937613620E+03  0.10941418357E+03 -0.46371515722E+03  0.51270511173E+03  0.50400001928E-02 0.  1.
       -1    1    3    3    0  502 -0.18937613620E+03 -0.10941418357E+03  0.77238681289E+03  0.80275536328E+03  0.50400001928E-02 0. -1.
</event>
<event>
 5   0  0.1324721E-03  0.1300005E+04  0.7818609E-02  0.9029561E-01
        1   -1    0    0  501    0  0.00000000000E+00  0.00000000000E+00  0.13363057227E+04  0.13363057227E+04  0.50400001928E-02 0.  1.
       -1   -1    0    0    0  501  0.00000000000E+00  0.00000000000E+00 -0.31617248003E+03  0.31617248007E+03  0.50400001928E-02 0. -1.
    10030    2    1    2    0    0  0.00000000000E+00  0.00000000000E+00  0.10201332426E+04  0.16524782028E+04  0.13000047607E+04 0.  0.
        1    1    3    3  502    0  0.96753537688E+02 -0.56615118051E+03  0.12322719436E+03  0.58742944062E+03  0.50400001928E-02 0. -1.
       -1    1    3    3    0  502 -0.96753537688E+02  0.56615118051E+03  0.89690604829E+03  0.10650487621E+04  0.50400001928E-02 0.  1.
</event>
<event>
 5   0  0.1387622E-03  0.1331492E+04  0.7818609E-02  0.9004958E-01
        1   -1    0    0  501    0  0.00000000000E+00  0.00000000000E+00  0.12123327947E+04  0.12123327947E+04  0.50400001928E-02 0.  1.
       -1   -1    0    0    0  501  0.00000000000E+00  0.00000000000E+00 -0.36559057245E+03  0.36559057248E+03  0.50400001928E-02 0. -1.
    10030    2    1    2    0    0  0.00000000000E+00  0.00000000000E+00  0.84674222226E+03  0.15779233672E+04  0.13314915553E+04 0.  0.
        3    1    3    3  502    0  0.52775095067E+03 -0.84671710872E+01 -0.57462648024E+02  0.53093759053E+03  0.10100000352E+00 0. -1.
       -3    1    3    3    0  502 -0.52775095067E+03  0.84671710872E+01  0.90420487028E+03  0.10469857767E+04  0.10100000352E+00 0.  1.
</event>
<event>
 5   0  0.1387622E-03  0.1308505E+04  0.7818609E-02  0.9022848E-01
       -1   -1    0    0    0  501  0.00000000000E+00  0.00000000000E+00  0.50046849333E+03  0.50046849335E+03  0.50400001928E-02 0. -1.
        1   -1    0    0  501    0  0.00000000000E+00  0.00000000000E+00 -0.85529063615E+03  0.85529063616E+03  0.50400001928E-02 0.  1.
    10030    2    1    2    0    0  0.00000000000E+00  0.00000000000E+00 -0.35482214282E+03  0.13557591295E+04  0.13085045144E+04 0.  0.
        3    1    3    3  502    0  0.11725669462E+03  0.43269011779E+03  0.31632295632E+03  0.54866209398E+03  0.10100000352E+00 0. -1.
       -3    1    3    3    0  502 -0.11725669462E+03 -0.43269011779E+03 -0.67114509914E+03  0.80709703554E+03  0.10100000352E+00 0.  1.
</event>
<event>
 5   0  0.2334946E-03  0.1292229E+04  0.7818609E-02  0.9035750E-01
       -2   -1    0    0    0  501  0.00000000000E+00  0.00000000000E+00  0.42129669905E+03  0.42129669906E+03  0.25500000920E-02 0. -1.
        2   -1    0    0  501    0  0.00000000000E+00  0.00000000000E+00 -0.99090257875E+03  0.99090257875E+03  0.25500000920E-02 0.  1.
    10030    2    1    2    0    0  0.00000000000E+00  0.00000000000E+00 -0.56960587969E+03  0.14121992778E+04  0.12922290594E+04 0.  0.
        1    1    3    3  502    0 -0.12936730191E+03 -0.22930677196E+03  0.36001556616E+03  0.44601424010E+03  0.50400001928E-02 0. -1.
       -1    1    3    3    0  502  0.12936730191E+03  0.22930677196E+03 -0.92962144586E+03  0.96618503771E+03  0.50400001928E-02 0.  1.
</event>
<event>
 5   0  0.1310461E-03  0.1267024E+04  0.7818609E-02  0.9056132E-01
       -1   -1    0    0    0  501  0.00000000000E+00  0.00000000000E+00  0.76165302659E+03  0.76165302661E+03  0.50400001928E-02 0.  1.
        1   -1    0    0  501    0  0.00000000000E+00  0.00000000000E+00 -0.52692913513E+03  0.52692913516E+03  0.50400001928E-02 0. -1.
    10030    2    1    2    0    0  0.00000000000E+00  0.00000000000E+00  0.23472389145E+03  0.12885821618E+04  0.12670235524E+04 0.  0.
        4    1    3    3  502    0 -0.23818587579E+02  0.62620316683E+03  0.22840650614E+02  0.62707339242E+03  0.12699999809E+01 0. -1.
       -4    1    3    3    0  502  0.23818587579E+02 -0.62620316683E+03  0.21188324084E+03  0.66150876934E+03  0.12699999809E+01 0.  1.
</event>
<event>
 5   0  0.1324721E-03  0.1299331E+04  0.7818609E-02  0.9030096E-01
        1   -1    0    0  501    0  0.00000000000E+00  0.00000000000E+00  0.62227633737E+03  0.62227633739E+03  0.50400001928E-02 0. -1.
       -1   -1    0    0    0  501  0.00000000000E+00  0.00000000000E+00 -0.67826062462E+03  0.67826062464E+03  0.50400001928E-02 0.  1.
    10030    2    1    2    0    0  0.00000000000E+00  0.00000000000E+00 -0.55984287251E+02  0.13005369620E+04  0.12993314239E+04 0.  0.
        1    1    3    3  502    0 -0.89274982995E+02  0.21286662591E+02  0.61575494593E+03  0.62255706409E+03  0.50400001928E-02 0. -1.
       -1    1    3    3    0  502  0.89274982995E+02 -0.21286662591E+02 -0.67173923318E+03  0.67797989794E+03  0.50400001928E-02 0.  1.
</event>
<event>
 5   0  0.2361043E-03  0.1292551E+04  0.7818609E-02  0.9035493E-01
       -2   -1    0    0    0  501  0.00000000000E+00  0.00000000000E+00  0.68168677357E+03  0.68168677358E+03  0.25500000920E-02 0.  1.
        2   -1    0    0  501    0  0.00000000000E+00  0.00000000000E+00 -0.61270397644E+03  0.61270397645E+03  0.25500000920E-02 0. -1.
    10030    2    1    2    0    0  0.00000000000E+00  0.00000000000E+00  0.68982797128E+02  0.12943907500E+04  0.12925512707E+04 0.  0.
        2    1    3    3  502    0 -0.61632323392E+03 -0.19383570714E+03  0.50184910919E+02  0.64803173944E+03  0.25500000920E-02 0. -1.
       -2    1    3    3    0  502  0.61632323392E+03  0.19383570714E+03  0.18797886209E+02  0.64635901059E+03  0.25500000920E-02 0.  1.
</event>
<event>
 5   0  0.1387622E-03  0.1278533E+04  0.7818609E-02  0.9046764E-01
        1   -1    0    0  501    0  0.00000000000E+00  0.00000000000E+00  0.87828388468E+03  0.87828388470E+03  0.50400001928E-02 0. -1.
       -1   -1    0    0    0  501  0.00000000000E+00  0.00000000000E+00 -0.46529537307E+03  0.46529537310E+03  0.50400001928E-02 0.  1.
    10030    2    1    2    0    0  0.00000000000E+00  0.00000000000E+00  0.41298851161E+03  0.13435792578E+04  0.12785326399E+04 0.  0.
        3    1    3    3  502    0  0.48426108089E+03 -0.12817860258E+03  0.62384270595E+03  0.80007392195E+03  0.10100000352E+00 0. -1.
       -3    1    3    3    0  502 -0.48426108089E+03  0.12817860258E+03 -0.21085419433E+03  0.54350533584E+03  0.10100000352E+00 0.  1.
</event>
<event>
 5   0  0.9131250E-04  0.1289706E+04  0.7818609E-02  0.9037769E-01
       -3   -1    0    0    0  501  0.00000000000E+00  0.00000000000E+00  0.11016057551E+04  0.11016057597E+04  0.10100000352E+00 0.  1.
        3   -1    0    0  501    0  0.00000000000E+00  0.00000000000E+00 -0.37748105549E+03  0.37748106900E+03  0.10100000352E+00 0. -1.
    10030    2    1    2    0    0  0.00000000000E+00  0.00000000000E+00  0.72412469957E+03  0.14790868287E+04  0.12897058836E+04 0.  0.
        3    1    3    3  502    0 -0.28733068460E+03 -0.27134007326E+02 -0.29927799812E+03  0.41576737129E+03  0.10100000352E+00 0. -1.
       -3    1    3    3    0  502  0.28733068460E+03  0.27134007326E+02  0.10234026977E+04  0.10633194574E+04  0.10100000352E+00 0.  1.
</event>
<event>
 5   0  0.2478236E-03  0.1518028E+04  0.7818609E-02  0.8872552E-01
        2   -1    0    0  501    0  0.00000000000E+00  0.00000000000E+00  0.14790332788E+04  0.14790332788E+04  0.25500000920E-02 0.  1.
       -2   -1    0    0    0  501  0.00000000000E+00  0.00000000000E+00 -0.38951278085E+03  0.38951278085E+03  0.25500000920E-02 0. -1.
    10030    2    1    2    0    0  0.00000000000E+00  0.00000000000E+00  0.10895204980E+04  0.18685460597E+04  0.15180281491E+04 0.  0.
        3    1    3    3  502    0 -0.62520838842E+02 -0.11885120998E+03  0.14642936311E+04  0.14704388167E+04  0.10100000352E+00 0.  1.
       -3    1    3    3    0  502  0.62520838842E+02  0.11885120998E+03 -0.37477313312E+03  0.39810724298E+03  0.10100000352E+00 0. -1.
</event>
<event>
 5   0  0.1324721E-03  0.1303961E+04  0.7818609E-02  0.9026430E-01
        1   -1    0    0  501    0  0.00000000000E+00  0.00000000000E+00  0.43149584041E+03  0.43149584044E+03  0.50400001928E-02 0. -1.
       -1   -1    0    0    0  501  0.00000000000E+00  0.00000000000E+00 -0.98512754780E+03  0.98512754781E+03  0.50400001928E-02 0.  1.
    10030    2    1    2    0    0  0.00000000000E+00  0.00000000000E+00 -0.55363170738E+03  0.14166233883E+04  0.13039607957E+04 0.  0.
        1    1    3    3  502    0  0.62675361843E+03  0.86703135041E+01 -0.81919254926E+02  0.63214400013E+03  0.50400001928E-02 0. -1.
       -1    1    3    3    0  502 -0.62675361843E+03 -0.86703135041E+01 -0.47171245246E+03  0.78447938812E+03  0.50400001928E-02 0.  1.
</event>
<event>
 5   0  0.2361043E-03  0.1341980E+04  0.7818609E-02  0.8996922E-01
        2   -1    0    0  501    0  0.00000000000E+00  0.00000000000E+00  0.10950030147E+04  0.10950030147E+04  0.25500000920E-02 0. -1.
       -2   -1    0    0    0  501  0.00000000000E+00  0.00000000000E+00 -0.41116530539E+03  0.41116530540E+03  0.25500000920E-02 0.  1.
    10030    2    1    2    0    0  0.00000000000E+00  0.00000000000E+00  0.68383770934E+03  0.15061683201E+04  0.13419795065E+04 0.  0.
        2    1    3    3  502    0  0.47661095055E+03  0.34782638500E+03  0.70051931206E+03  0.91589764650E+03  0.25500000920E-02 0. -1.
       -2    1    3    3    0  502 -0.47661095055E+03 -0.34782638500E+03 -0.16681602720E+02  0.59027067364E+03  0.25500000920E-02 0.  1.
</event>
<event>
 5   0  0.1346593E-03  0.1287393E+04  0.7818609E-02  0.9039623E-01
        1   -1    0    0  501    0  0.00000000000E+00  0.00000000000E+00  0.11160764033E+04  0.11160764034E+04  0.50400001928E-02 0.  1.
       -1   -1    0    0    0  501  0.00000000000E+00  0.00000000000E+00 -0.37125149011E+03  0.37125149014E+03  0.50400001928E-02 0. -1.
    10030    2    1    2    0    0  0.00000000000E+00  0.00000000000E+00  0.74482491323E+03  0.14873278935E+04  0.12873927572E+04 0.  0.
        2    1    3    3  502    0 -0.27968480139E+03 -0.53358074874E+03  0.11045411223E+03  0.61248029721E+03  0.25500000920E-02 0. -1.
       -2    1    3    3    0  502  0.27968480139E+03  0.53358074874E+03  0.63437080100E+03  0.87484759628E+03  0.25500000920E-02 0.  1.
</event>
<event>
 5   0  0.2478236E-03  0.1291076E+04  0.7818609E-02  0.9036672E-01
        2   -1    0    0  501    0  0.00000000000E+00  0.00000000000E+00  0.96114719687E+03  0.96114719688E+03  0.25500000920E-02 0.  1.
       -2   -1    0    0    0  501  0.00000000000E+00  0.00000000000E+00 -0.43356459814E+03  0.43356459815E+03  0.25500000920E-02 0. -1.
    10030    2    1    2    0    0  0.00000000000E+00  0.00000000000E+00  0.52758259873E+03  0.13947117950E+04  0.12910761375E+04 0.  0.
        3    1    3    3  502    0 -0.63289511363E+03 -0.45452582834E+02  0.13552887398E+03  0.64883761299E+03  0.10100000352E+00 0.  1.
       -3    1    3    3    0  502  0.63289511363E+03  0.45452582834E+02  0.39205372475E+03  0.74587418204E+03  0.10100000352E+00 0. -1.
</event>
<event>
 5   0  0.2312105E-03  0.1307792E+04  0.7818609E-02  0.9023409E-01
        2   -1    0    0  501    0  0.00000000000E+00  0.00000000000E+00  0.55003536085E+03  0.55003536086E+03  0.25500000920E-02 0.  1.
       -2   -1    0    0    0  501  0.00000000000E+00  0.00000000000E+00 -0.77736816963E+03  0.77736816964E+03  0.25500000920E-02 0. -1.
    10030    2    1    2    0    0  0.00000000000E+00  0.00000000000E+00 -0.22733280878E+03  0.13274035305E+04  0.13077920044E+04 0.  0.
        5    1    3    3  502    0  0.30896928670E+03  0.46411412381E+03 -0.46039404469E+03  0.72308277979E+03  0.46999998093E+01 0. -1.
       -5    1    3    3    0  502 -0.30896928670E+03 -0.46411412381E+03  0.23306123591E+03  0.60432075070E+03  0.46999998093E+01 0.  1.
</event>
<event>
 5   0  0.1346593E-03  0.1303430E+04  0.7818609E-02  0.9026850E-01
        1   -1    0    0  501    0  0.00000000000E+00  0.00000000000E+00  0.74930361555E+03  0.74930361557E+03  0.50400001928E-02 0. -1.
       -1   -1    0    0    0  501  0.00000000000E+00  0.00000000000E+00 -0.56683619543E+03  0.56683619546E+03  0.50400001928E-02 0.  1.
    10030    2    1    2    0    0  0.00000000000E+00  0.00000000000E+00  0.18246742012E+03  0.13161398110E+04  0.13034299531E+04 0.  0.
        2    1    3    3  502    0  0.44887593020E+03  0.35143270140E+03  0.41012625445E+03  0.70228063403E+03  0.25500000920E-02 0. -1.
       -2    1    3    3    0  502 -0.44887593020E+03 -0.35143270140E+03 -0.22765883433E+03  0.61385917700E+03  0.25500000920E-02 0.  1.
</event>
<event>
 5   0  0.2478236E-03  0.1299537E+04  0.7818609E-02  0.9029932E-01
       -2   -1    0    0    0  501  0.00000000000E+00  0.00000000000E+00  0.27698713120E+03  0.27698713122E+03  0.25500000920E-02 0.  1.
        2   -1    0    0  501    0  0.00000000000E+00  0.00000000000E+00 -0.15242551716E+04  0.15242551716E+04  0.25500000920E-02 0. -1.
    10030    2    1    2    0    0  0.00000000000E+00  0.00000000000E+00 -0.12472680404E+04  0.18012423029E+04  0.12995369440E+04 0.  0.
        3    1    3    3  502    0 -0.60017773757E+03 -0.19403580496E+03 -0.83985943480E+03  0.10503461766E+04  0.10100000352E+00 0. -1.
       -3    1    3    3    0  502  0.60017773757E+03  0.19403580496E+03 -0.40740860563E+03  0.75089612625E+03  0.10100000352E+00 0.  1.
</event>
<event>
 5   0  0.2334946E-03  0.1301045E+04  0.7818609E-02  0.9028737E-01
       -2   -1    0    0    0  501  0.00000000000E+00  0.00000000000E+00  0.49998803966E+03  0.49998803967E+03  0.25500000920E-02 0. -1.
        2   -1    0    0  501    0  0.00000000000E+00  0.00000000000E+00 -0.84637873684E+03  0.84637873685E+03  0.25500000920E-02 0.  1.
    10030    2    1    2    0    0  0.00000000000E+00  0.00000000000E+00 -0.34639069718E+03  0.13463667765E+04  0.13010445733E+04 0.  0.
        1    1    3    3  502    0 -0.26154545735E+03 -0.55076210327E+03  0.61496352080E+02  0.61280235150E+03  0.50400001928E-02 0. -1.
       -1    1    3    3    0  502  0.26154545735E+03  0.55076210327E+03 -0.40788704926E+03  0.73356442501E+03  0.50400001928E-02 0.  1.
</event>
<event>
 5   0  0.1387622E-03  0.1266030E+04  0.7818609E-02  0.9056946E-01
       -1   -1    0    0    0  501  0.00000000000E+00  0.00000000000E+00  0.46977727683E+03  0.46977727686E+03  0.50400001928E-02 0. -1.
        1   -1    0    0  501    0  0.00000000000E+00  0.00000000000E+00 -0.85297487776E+03  0.85297487777E+03  0.50400001928E-02 0.  1.
    10030    2    1    2    0    0  0.00000000000E+00  0.00000000000E+00 -0.38319760092E+03  0.13227521546E+04  0.12660303556E+04 0.  0.
        3    1    3    3  502    0 -0.61910609487E+03 -0.31539012799E+02 -0.32548505685E+03  0.70016255146E+03  0.10100000352E+00 0. -1.
       -3    1    3    3    0  502  0.61910609487E+03  0.31539012799E+02 -0.57712544069E+02  0.62258960317E+03  0.10100000352E+00 0.  1.
</event>
<event>
 5   0  0.2478236E-03  0.1284757E+04  0.7818609E-02  0.9041741E-01
        2   -1    0    0  501    0  0.00000000000E+00  0.00000000000E+00  0.11060355550E+04  0.11060355550E+04  0.25500000920E-02 0.  1.
       -2   -1    0    0    0  501  0.00000000000E+00  0.00000000000E+00 -0.37308960542E+03  0.37308960543E+03  0.25500000920E-02 0. -1.
    10030    2    1    2    0    0  0.00000000000E+00  0.00000000000E+00  0.73294594953E+03  0.14791251604E+04  0.12847573604E+04 0.  0.
        3    1    3    3  502    0 -0.49882039562E+03 -0.35060194774E+03  0.59932595819E+03  0.85494744119E+03  0.10100000352E+00 0. -1.
       -3    1    3    3    0  502  0.49882039562E+03  0.35060194774E+03  0.13361999134E+03  0.62417771919E+03  0.10100000352E+00 0.  1.
</event>
<event>
 5   0  0.1310461E-03  0.1307301E+04  0.7818609E-02  0.9023795E-01
        1   -1    0    0  501    0  0.00000000000E+00  0.00000000000E+00  0.39809487635E+03  0.39809487638E+03  0.50400001928E-02 0. -1.
       -1   -1    0    0    0  501  0.00000000000E+00  0.00000000000E+00 -0.10732598448E+04  0.10732598448E+04  0.50400001928E-02 0.  1.
    10030    2    1    2    0    0  0.00000000000E+00  0.00000000000E+00 -0.67516496844E+03  0.14713547212E+04  0.13073014117E+04 0.  0.
        4    1    3    3  502    0 -0.25757095573E+03  0.13499226895E+03 -0.99644316533E+03  0.10380107439E+04  0.12699999809E+01 0.  1.
       -4    1    3    3    0  502  0.25757095573E+03 -0.13499226895E+03  0.32127819689E+03  0.43334397724E+03  0.12699999809E+01 0. -1.
</event>
<event>
 5   0  0.1324721E-03  0.1297049E+04  0.7818609E-02  0.9031909E-01
        1   -1    0    0  501    0  0.00000000000E+00  0.00000000000E+00  0.19180733278E+04  0.19180733278E+04  0.50400001928E-02 0. -1.
       -1   -1    0    0    0  501  0.00000000000E+00  0.00000000000E+00 -0.21927420972E+03  0.21927420978E+03  0.50400001928E-02 0.  1.
    10030    2    1    2    0    0  0.00000000000E+00  0.00000000000E+00  0.16987991180E+04  0.21373475375E+04  0.12970489786E+04 0.  0.
        1    1    3    3  502    0  0.26749863684E+03 -0.58670438474E+03  0.96364301101E+03  0.11594763510E+04  0.50400001928E-02 0.  1.
       -1    1    3    3    0  502 -0.26749863684E+03  0.58670438474E+03  0.73515610702E+03  0.97787118656E+03  0.50400001928E-02 0. -1.
</event>
<event>
 5   0  0.1387622E-03  0.1316055E+04  0.7818609E-02  0.9016929E-01
        1   -1    0    0  501    0  0.00000000000E+00  0.00000000000E+00  0.24886218012E+03  0.24886218017E+03  0.50400001928E-02 0.  1.
       -1   -1    0    0    0  501  0.00000000000E+00  0.00000000000E+00 -0.17399194829E+04  0.17399194829E+04  0.50400001928E-02 0. -1.
    10030    2    1    2    0    0  0.00000000000E+00  0.00000000000E+00 -0.14910573028E+04  0.19887816631E+04  0.13160549469E+04 0.  0.
        3    1    3    3  502    0 -0.13152633134E+03  0.57282358562E+03 -0.11927277815E+04  0.13296712402E+04  0.10100000352E+00 0. -1.
       -3    1    3    3    0  502  0.13152633134E+03 -0.57282358562E+03 -0.29832952129E+03  0.65911042288E+03  0.10100000352E+00 0.  1.
</event>
<event>
 5   0  0.2401211E-03  0.1235857E+04  0.7818609E-02  0.9082037E-01
        2   -1    0    0  501    0  0.00000000000E+00  0.00000000000E+00  0.54331991220E+03  0.54331991221E+03  0.25500000920E-02 0.  1.
       -2   -1    0    0    0  501  0.00000000000E+00  0.00000000000E+00 -0.70278270920E+03  0.70278270920E+03  0.25500000920E-02 0. -1.
    10030    2    1    2    0    0  0.00000000000E+00  0.00000000000E+00 -0.15946279699E+03  0.12461026214E+04  0.12358573378E+04 0.  0.
        4    1    3    3  502    0  0.46865966577E+02 -0.37214690765E+03  0.41540418459E+03  0.55968918979E+03  0.12699999809E+01 0.  1.
       -4    1    3    3    0  502 -0.46865966577E+02  0.37214690765E+03 -0.57486698158E+03  0.68641343162E+03  0.12699999809E+01 0. -1.
</event>
<event>
 5   0  0.2401211E-03  0.1295922E+04  0.7818609E-02  0.9032805E-01
       -2   -1    0    0    0  501  0.00000000000E+00  0.00000000000E+00  0.31067088697E+03  0.31067088698E+03  0.25500000920E-02 0. -1.
        2   -1    0    0  501    0  0.00000000000E+00  0.00000000000E+00 -0.13514416591E+04  0.13514416591E+04  0.25500000920E-02 0.  1.
    10030    2    1    2    0    0  0.00000000000E+00  0.00000000000E+00 -0.10407707721E+04  0.16621125461E+04  0.12959221874E+04 0.  0.
        4    1    3    3  502    0  0.25289401963E+03 -0.46795904365E+03 -0.99495566674E+03  0.11282195901E+04  0.12699999809E+01 0.  1.
       -4    1    3    3    0  502 -0.25289401963E+03  0.46795904365E+03 -0.45815105371E+02  0.53389295601E+03  0.12699999809E+01 0. -1.
</event>
<event>
 5   0  0.9131250E-04  0.1272439E+04  0.7818609E-02  0.9051711E-01
       -4   -1    0    0    0  501  0.00000000000E+00  0.00000000000E+00  0.13807125370E+04  0.13807131211E+04  0.12699999809E+01 0. -1.
        4   -1    0    0  501    0  0.00000000000E+00  0.00000000000E+00 -0.29316200857E+03  0.29316475942E+03  0.12699999809E+01 0.  1.
    10030    2    1    2    0    0  0.00000000000E+00  0.00000000000E+00  0.10875505285E+04  0.16738778805E+04  0.12724389993E+04 0.  0.
        4    1    3    3  502    0  0.52655592870E+02  0.40577458315E+02 -0.28858081280E+03  0.29614125008E+03  0.12699999809E+01 0.  1.
       -4    1    3    3    0  502 -0.52655592870E+02 -0.40577458315E+02  0.13761313413E+04  0.13777366304E+04  0.12699999809E+01 0. -1.
</event>
<event>
 5   0  0.1387622E-03  0.1310591E+04  0.7818609E-02  0.9021208E-01
        1   -1    0    0  501    0  0.00000000000E+00  0.00000000000E+00  0.86375400342E+03  0.86375400344E+03  0.50400001928E-02 0. -1.
       -1   -1    0    0    0  501  0.00000000000E+00  0.00000000000E+00 -0.49714657045E+03  0.49714657048E+03  0.50400001928E-02 0.  1.
    10030    2    1    2    0    0  0.00000000000E+00  0.00000000000E+00  0.36660743297E+03  0.13609005739E+04  0.13105912262E+04 0.  0.
        3    1    3    3  502    0  0.19966746461E+03  0.25277372559E+03 -0.40926010721E+03  0.52082194493E+03  0.10100000352E+00 0.  1.
       -3    1    3    3    0  502 -0.19966746461E+03 -0.25277372559E+03  0.77586754018E+03  0.84007862898E+03  0.10100000352E+00 0. -1.
</event>
<event>
 5   0  0.1332630E-03  0.1363593E+04  0.7818609E-02  0.8980602E-01
        1   -1    0    0  501    0  0.00000000000E+00  0.00000000000E+00  0.21888754612E+04  0.21888754612E+04  0.50400001928E-02 0.  1.
       -1   -1    0    0    0  501  0.00000000000E+00  0.00000000000E+00 -0.21236762160E+03  0.21236762166E+03  0.50400001928E-02 0. -1.
    10030    2    1    2    0    0  0.00000000000E+00  0.00000000000E+00  0.19765078396E+04  0.24012430828E+04  0.13635927189E+04 0.  0.
        5    1    3    3  502    0 -0.52706918978E+03 -0.40288021375E+03  0.71144124894E+03  0.97277188392E+03  0.46999998093E+01 0. -1.
       -5    1    3    3    0  502  0.52706918978E+03  0.40288021375E+03  0.12650665906E+04  0.14284711989E+04  0.46999998093E+01 0.  1.
</event>
<event>
 5   0  0.2361043E-03  0.1306239E+04  0.7818609E-02  0.9024632E-01
        2   -1    0    0  501    0  0.00000000000E+00  0.00000000000E+00  0.60354659761E+03  0.60354659761E+03  0.25500000920E-02 0. -1.
       -2   -1    0    0    0  501  0.00000000000E+00  0.00000000000E+00 -0.70676417154E+03  0.70676417155E+03  0.25500000920E-02 0.  1.
    10030    2    1    2    0    0  0.00000000000E+00  0.00000000000E+00 -0.10321757393E+03  0.13103107692E+04  0.13062390456E+04 0.  0.
        2    1    3    3  502    0 -0.47668717745E+03  0.42725496546E+03 -0.18157979217E+03  0.66539363657E+03  0.25500000920E-02 0.  1.
       -2    1    3    3    0  502  0.47668717745E+03 -0.42725496546E+03  0.78362218231E+02  0.64491713259E+03  0.25500000920E-02 0. -1.
</event>
<event>
 5   0  0.2478236E-03  0.1292096E+04  0.7818609E-02  0.9035856E-01
        2   -1    0    0  501    0  0.00000000000E+00  0.00000000000E+00  0.18384485344E+04  0.18384485344E+04  0.25500000920E-02 0. -1.
       -2   -1    0    0    0  501  0.00000000000E+00  0.00000000000E+00 -0.22702743028E+03  0.22702743030E+03  0.25500000920E-02 0.  1.
    10030    2    1    2    0    0  0.00000000000E+00  0.00000000000E+00  0.16114211041E+04  0.20654759647E+04  0.12920963532E+04 0.  0.
        3    1    3    3  502    0  0.93217845400E+02  0.52680744025E+03  0.13846461273E+04  0.14844057915E+04  0.10100000352E+00 0. -1.
       -3    1    3    3    0  502 -0.93217845400E+02 -0.52680744025E+03  0.22677497674E+03  0.58107017312E+03  0.10100000352E+00 0.  1.
</event>
<event>
 5   0  0.2334946E-03  0.1327102E+04  0.7818609E-02  0.9008345E-01
       -2   -1    0    0    0  501  0.00000000000E+00  0.00000000000E+00  0.82651606491E+03  0.82651606492E+03  0.25500000920E-02 0. -1.
        2   -1    0    0  501    0  0.00000000000E+00  0.00000000000E+00 -0.53271791753E+03  0.53271791754E+03  0.25500000920E-02 0.  1.
    10030    2    1    2    0    0  0.00000000000E+00  0.00000000000E+00  0.29379814738E+03  0.13592339825E+04  0.13271019809E+04 0.  0.
        1    1    3    3  502    0 -0.39008353585E+02  0.59273332636E+02  0.82261906603E+03  0.82567372940E+03  0.50400001928E-02 0. -1.
       -1    1    3    3    0  502  0.39008353585E+02 -0.59273332636E+02 -0.52882091865E+03  0.53356025305E+03  0.50400001928E-02 0.  1.
</event>
<event>
 5   0  0.2361043E-03  0.1099826E+04  0.7818609E-02  0.9205361E-01
        2   -1    0    0  501    0  0.00000000000E+00  0.00000000000E+00  0.11585795392E+04  0.11585795392E+04  0.25500000920E-02 0. -1.
       -2   -1    0    0    0  501  0.00000000000E+00  0.00000000000E+00 -0.26101306873E+03  0.26101306874E+03  0.25500000920E-02 0.  1.
    10030    2    1    2    0    0  0.00000000000E+00  0.00000000000E+00  0.89756647051E+03  0.14195926080E+04  0.10998261697E+04 0.  0.
        2    1    3    3  502    0  0.46331390156E+03 -0.98373644174E+02  0.80942343618E+03  0.93781844954E+03  0.25500000920E-02 0.  1.
       -2    1    3    3    0  502 -0.46331390156E+03  0.98373644174E+02  0.88143034332E+02  0.48177415845E+03  0.25500000920E-02 0. -1.
</event>
<event>
 5   0  0.2478236E-03  0.1287501E+04  0.7818609E-02  0.9039536E-01
        2   -1    0    0  501    0  0.00000000000E+00  0.00000000000E+00  0.46558542198E+03  0.46558542199E+03  0.25500000920E-02 0.  1.
       -2   -1    0    0    0  501  0.00000000000E+00  0.00000000000E+00 -0.89009433815E+03  0.89009433815E+03  0.25500000920E-02 0. -1.
    10030    2    1    2    0    0  0.00000000000E+00  0.00000000000E+00 -0.42450891617E+03  0.13556797601E+04  0.12875013756E+04 0.  0.
        3    1    3    3  502    0  0.29605172243E+03 -0.57097255622E+03 -0.18325220600E+03  0.66875829978E+03  0.10100000352E+00 0.  1.
       -3    1    3    3    0  502 -0.29605172243E+03  0.57097255622E+03 -0.24125671016E+03  0.68692146037E+03  0.10100000352E+00 0. -1.
</event>
<event>
 5   0  0.1387622E-03  0.1261840E+04  0.7818609E-02  0.9060386E-01
       -1   -1    0    0    0  501  0.00000000000E+00  0.00000000000E+00  0.32584812614E+03  0.32584812618E+03  0.50400001928E-02 0. -1.
        1   -1    0    0  501    0  0.00000000000E+00  0.00000000000E+00 -0.12216120705E+04  0.12216120705E+04  0.50400001928E-02 0.  1.
    10030    2    1    2    0    0  0.00000000000E+00  0.00000000000E+00 -0.89576394434E+03  0.15474601967E+04  0.12618399329E+04 0.  0.
        3    1    3    3  502    0 -0.30702623459E+03 -0.34080758192E+03  0.83349513663E+02  0.46622105084E+03  0.10100000352E+00 0. -1.
       -3    1    3    3    0  502  0.30702623459E+03  0.34080758192E+03 -0.97911345800E+03  0.10812391458E+04  0.10100000352E+00 0.  1.
</event>
<event>
 5   0  0.2312105E-03  0.1316452E+04  0.7818609E-02  0.9016620E-01
       -2   -1    0    0    0  501  0.00000000000E+00  0.00000000000E+00  0.69867821316E+03  0.69867821316E+03  0.25500000920E-02 0.  1.
        2   -1    0    0  501    0  0.00000000000E+00  0.00000000000E+00 -0.62011546381E+03  0.62011546381E+03  0.25500000920E-02 0. -1.
    10030    2    1    2    0    0  0.00000000000E+00  0.00000000000E+00  0.78562749346E+02  0.13187936770E+04  0.13164515399E+04 0.  0.
        5    1    3    3  502    0 -0.28899640243E+03  0.27767951852E+03  0.56233503663E+03  0.69055602165E+03  0.46999998093E+01 0.  1.
       -5    1    3    3    0  502  0.28899640243E+03 -0.27767951852E+03 -0.48377228728E+03  0.62823765532E+03  0.46999998093E+01 0. -1.
</event>
<event>
 5   0  0.1332630E-03  0.1314932E+04  0.7818609E-02  0.9017807E-01
        1   -1    0    0  501    0  0.00000000000E+00  0.00000000000E+00  0.10106300484E+04  0.10106300485E+04  0.50400001928E-02 0.  1.
       -1   -1    0    0    0  501  0.00000000000E+00  0.00000000000E+00 -0.42771491040E+03  0.42771491043E+03  0.50400001928E-02 0. -1.
    10030    2    1    2    0    0  0.00000000000E+00  0.00000000000E+00  0.58291513805E+03  0.14383449589E+04  0.13149319992E+04 0.  0.
        5    1    3    3  502    0 -0.62047807979E+03  0.17559051921E+03  0.15131440874E+03  0.66237694572E+03  0.46999998093E+01 0. -1.
       -5    1    3    3    0  502  0.62047807979E+03 -0.17559051921E+03  0.43160072930E+03  0.77596801317E+03  0.46999998093E+01 0.  1.
</event>
<event>
 5   0  0.1387622E-03  0.1267934E+04  0.7818609E-02  0.9055388E-01
        1   -1    0    0  501    0  0.00000000000E+00  0.00000000000E+00  0.86516199735E+03  0.86516199736E+03  0.50400001928E-02 0.  1.
       -1   -1    0    0    0  501  0.00000000000E+00  0.00000000000E+00 -0.46455360230E+03  0.46455360233E+03  0.50400001928E-02 0. -1.
    10030    2    1    2    0    0  0.00000000000E+00  0.00000000000E+00  0.40060839504E+03  0.13297155997E+04  0.12679339454E+04 0.  0.
        3    1    3    3  502    0  0.58725970378E+03  0.13170950507E+02  0.45039116854E+03  0.74020243753E+03  0.10100000352E+00 0.  1.
       -3    1    3    3    0  502 -0.58725970378E+03 -0.13170950507E+02 -0.49782773494E+02  0.58951316216E+03  0.10100000352E+00 0. -1.
</event>
<event>
 5   0  0.2478236E-03  0.1287080E+04  0.7818609E-02  0.9039874E-01
        2   -1    0    0  501    0  0.00000000000E+00  0.00000000000E+00  0.20120712403E+04  0.20120712403E+04  0.25500000920E-02 0.  1.
       -2   -1    0    0    0  501  0.00000000000E+00  0.00000000000E+00 -0.20582940456E+03  0.20582940458E+03  0.25500000920E-02 0. -1.
    10030    2    1    2    0    0  0.00000000000E+00  0.00000000000E+00  0.18062418357E+04  0.22179006449E+04  0.12870795241E+04 0.  0.
        3    1    3    3  502    0 -0.29363324980E+03  0.30906668013E+03  0.17338423932E+04  0.17854837307E+04  0.10100000352E+00 0.  1.
       -3    1    3    3    0  502  0.29363324980E+03 -0.30906668013E+03  0.72399442566E+02  0.43241691415E+03  0.10100000352E+00 0. -1.
</event>
<event>
 5   0  0.1324721E-03  0.1333447E+04  0.7818609E-02  0.9003454E-01
        1   -1    0    0  501    0  0.00000000000E+00  0.00000000000E+00  0.10901444572E+04  0.10901444572E+04  0.50400001928E-02 0.  1.
       -1   -1    0    0    0  501  0.00000000000E+00  0.00000000000E+00 -0.40776291948E+03  0.40776291951E+03  0.50400001928E-02 0. -1.
    10030    2    1    2    0    0  0.00000000000E+00  0.00000000000E+00  0.68238153774E+03  0.14979073767E+04  0.13334473916E+04 0.  0.
        1    1    3    3  502    0 -0.15679195821E+03  0.81358981158E+02 -0.38099838574E+03  0.41995567854E+03  0.50400001928E-02 0. -1.
       -1    1    3    3    0  502  0.15679195821E+03 -0.81358981158E+02  0.10633799235E+04  0.10779516982E+04  0.50400001928E-02 0.  1.
</event>
<event>
 5   0  0.1387622E-03  0.1302498E+04  0.7818609E-02  0.9027587E-01
       -1   -1    0    0    0  501  0.00000000000E+00  0.00000000000E+00  0.18763560605E+03  0.18763560611E+03  0.50400001928E-02 0. -1.
        1   -1    0    0  501    0  0.00000000000E+00  0.00000000000E+00 -0.22603649004E+04  0.22603649004E+04  0.50400001928E-02 0.  1.
    10030    2    1    2    0    0  0.00000000000E+00  0.00000000000E+00 -0.20727292944E+04  0.24480005066E+04  0.13024975057E+04 0.  0.
        3    1    3    3  502    0  0.37928805223E+03 -0.48625308361E+03 -0.64291620002E+03  0.89086628533E+03  0.10100000352E+00 0.  1.
       -3    1    3    3    0  502 -0.37928805223E+03  0.48625308361E+03 -0.14298130944E+04  0.15571342212E+04  0.10100000352E+00 0. -1.
</event>
<event>
 5   0  0.1346593E-03  0.1304239E+04  0.7818609E-02  0.9026210E-01
       -1   -1    0    0    0  501  0.00000000000E+00  0.00000000000E+00  0.51605030308E+03  0.51605030310E+03  0.50400001928E-02 0.  1.
        1   -1    0    0  501    0  0.00000000000E+00  0.00000000000E+00 -0.82406691566E+03  0.82406691567E+03  0.50400001928E-02 0. -1.
    10030    2    1    2    0    0  0.00000000000E+00  0.00000000000E+00 -0.30801661258E+03  0.13401172188E+04  0.13042392137E+04 0.  0.
        2    1    3    3  502    0 -0.30247276391E+03  0.46644415635E+03 -0.50426682407E+03  0.75056309113E+03  0.25500000920E-02 0. -1.
       -2    1    3    3    0  502  0.30247276391E+03 -0.46644415635E+03  0.19625021149E+03  0.58955412764E+03  0.25500000920E-02 0.  1.
</event>
<event>
 5   0  0.1332630E-03  0.1295322E+04  0.7818609E-02  0.9033283E-01
        1   -1    0    0  501    0  0.00000000000E+00  0.00000000000E+00  0.74065437020E+03  0.74065437021E+03  0.50400001928E-02 0.  1.
       -1   -1    0    0    0  501  0.00000000000E+00  0.00000000000E+00 -0.56634324890E+03  0.56634324892E+03  0.50400001928E-02 0. -1.
    10030    2    1    2    0    0  0.00000000000E+00  0.00000000000E+00  0.17431112129E+03  0.13069976191E+04  0.12953217397E+04 0.  0.
        5    1    3    3  502    0 -0.29076805623E+03 -0.57777252742E+03  0.12024377662E+03  0.65791170516E+03  0.46999998093E+01 0.  1.
       -5    1    3    3    0  502  0.29076805623E+03  0.57777252742E+03  0.54067344676E+02  0.64908591398E+03  0.46999998093E+01 0. -1.
</event>
<event>
 5   0  0.2401211E-03  0.1287125E+04  0.7818609E-02  0.9039838E-01
       -2   -1    0    0    0  501  0.00000000000E+00  0.00000000000E+00  0.37470248167E+03  0.37470248168E+03  0.25500000920E-02 0. -1.
        2   -1    0    0  501    0  0.00000000000E+00  0.00000000000E+00 -0.11053375899E+04  0.11053375899E+04  0.25500000920E-02 0.  1.
    10030    2    1    2    0    0  0.00000000000E+00  0.00000000000E+00 -0.73063510825E+03  0.14800400716E+04  0.12871250725E+04 0.  0.
        4    1    3    3  502    0  0.39651484226E+03  0.47510551059E+03 -0.16213701823E+03  0.63971813473E+03  0.12699999809E+01 0.  1.
       -4    1    3    3    0  502 -0.39651484226E+03 -0.47510551059E+03 -0.56849809003E+03  0.84032193687E+03  0.12699999809E+01 0. -1.
</event>
<event>
 5   0  0.2334946E-03  0.1287473E+04  0.7818609E-02  0.9039559E-01
        2   -1    0    0  501    0  0.00000000000E+00  0.00000000000E+00  0.14233343802E+04  0.14233343802E+04  0.25500000920E-02 0. -1.
       -2   -1    0    0    0  501  0.00000000000E+00  0.00000000000E+00 -0.29114477595E+03  0.29114477596E+03  0.25500000920E-02 0.  1.
    10030    2    1    2    0    0  0.00000000000E+00  0.00000000000E+00  0.11321896042E+04  0.17144791561E+04  0.12874725150E+04 0.  0.
        1    1    3    3  502    0 -0.23912134263E+03  0.54413282739E+03  0.89535987251E+03  0.10746761613E+04  0.50400001928E-02 0. -1.
       -1    1    3    3    0  502  0.23912134263E+03 -0.54413282739E+03  0.23682973172E+03  0.63980299483E+03  0.50400001928E-02 0.  1.
</event>
<event>
 5   0  0.1310461E-03  0.1343942E+04  0.7818609E-02  0.8995426E-01
        1   -1    0    0  501    0  0.00000000000E+00  0.00000000000E+00  0.12264416707E+04  0.12264416707E+04  0.50400001928E-02 0.  1.
       -1   -1    0    0    0  501  0.00000000000E+00  0.00000000000E+00 -0.36817505958E+03  0.36817505961E+03  0.50400001928E-02 0. -1.
    10030    2    1    2    0    0  0.00000000000E+00  0.00000000000E+00  0.85826661116E+03  0.15946167304E+04  0.13439423131E+04 0.  0.
        4    1    3    3  502    0 -0.65095032438E+03  0.14919560238E+03  0.51751101291E+03  0.84487567959E+03  0.12699999809E+01 0.  1.
       -4    1    3    3    0  502  0.65095032438E+03 -0.14919560238E+03  0.34075559825E+03  0.74974105077E+03  0.12699999809E+01 0. -1.
</event>
<event>
 5   0  0.2361043E-03  0.1320206E+04  0.7818609E-02  0.9013693E-01
        2   -1    0    0  501    0  0.00000000000E+00  0.00000000000E+00  0.15169736709E+04  0.15169736710E+04  0.25500000920E-02 0.  1.
       -2   -1    0    0    0  501  0.00000000000E+00  0.00000000000E+00 -0.28724027022E+03  0.28724027023E+03  0.25500000920E-02 0. -1.
    10030    2    1    2    0    0  0.00000000000E+00  0.00000000000E+00  0.12297334007E+04  0.18042139412E+04  0.13202059342E+04 0.  0.
        2    1    3    3  502    0  0.37978859204E+02 -0.38354407412E+03 -0.11750086556E+03  0.40293287773E+03  0.25500000920E-02 0. -1.
       -2    1    3    3    0  502 -0.37978859204E+02  0.38354407412E+03  0.13472342663E+04  0.14012810635E+04  0.25500000920E-02 0.  1.
</event>
<event>
 5   0  0.1332630E-03  0.1292222E+04  0.7818609E-02  0.9035756E-01
       -1   -1    0    0    0  501  0.00000000000E+00  0.00000000000E+00  0.48719787826E+03  0.48719787829E+03  0.50400001928E-02 0.  1.
        1   -1    0    0  501    0  0.00000000000E+00  0.00000000000E+00 -0.85685766117E+03  0.85685766118E+03  0.50400001928E-02 0. -1.
    10030    2    1    2    0    0  0.00000000000E+00  0.00000000000E+00 -0.36965978291E+03  0.13440555395E+04  0.12922217062E+04 0.  0.
        5    1    3    3  502    0  0.12189749110E+03  0.35627923320E+03  0.36124708646E+03  0.52183851700E+03  0.46999998093E+01 0.  1.
       -5    1    3    3    0  502 -0.12189749110E+03 -0.35627923320E+03 -0.73090686937E+03  0.82221702247E+03  0.46999998093E+01 0. -1.
</event>
<event>
 5   0  0.2361043E-03  0.1289022E+04  0.7818609E-02  0.9038316E-01
       -2   -1    0    0    0  501  0.00000000000E+00  0.00000000000E+00  0.27477760907E+03  0.27477760908E+03  0.25500000920E-02 0.  1.
        2   -1    0    0  501    0  0.00000000000E+00  0.00000000000E+00 -0.15117478568E+04  0.15117478568E+04  0.25500000920E-02 0. -1.
    10030    2    1    2    0    0  0.00000000000E+00  0.00000000000E+00 -0.12369702478E+04  0.17865254659E+04  0.12890220504E+04 0.  0.
        2    1    3    3  502    0  0.40707136633E+03 -0.33935109558E+03 -0.11014366909E+03  0.54129279618E+03  0.25500000920E-02 0.  1.
       -2    1    3    3    0  502 -0.40707136633E+03  0.33935109558E+03 -0.11268265787E+04  0.12452326697E+04  0.25500000920E-02 0. -1.
</event>
<event>
 5   0  0.1346593E-03  0.1295997E+04  0.7818609E-02  0.9032746E-01
       -1   -1    0    0    0  501  0.00000000000E+00  0.00000000000E+00  0.31883647118E+03  0.31883647122E+03  0.50400001928E-02 0. -1.
        1   -1    0    0  501    0  0.00000000000E+00  0.00000000000E+00 -0.13169823940E+04  0.13169823940E+04  0.50400001928E-02 0.  1.
    10030    2    1    2    0    0  0.00000000000E+00  0.00000000000E+00 -0.99814592278E+03  0.16358188652E+04  0.12959969431E+04 0.  0.
        2    1    3    3  502    0 -0.26006690285E+03 -0.58244987871E+03 -0.35505186279E+03  0.73003046542E+03  0.25500000920E-02 0. -1.
       -2    1    3    3    0  502  0.26006690285E+03  0.58244987871E+03 -0.64309405999E+03  0.90578839977E+03  0.25500000920E-02 0.  1.
</event>
<event>
 5   0  0.1346593E-03  0.1238041E+04  0.7818609E-02  0.9080196E-01
       -1   -1    0    0    0  501  0.00000000000E+00  0.00000000000E+00  0.33449059874E+03  0.33449059877E+03  0.50400001928E-02 0. -1.
        1   -1    0    0  501    0  0.00000000000E+00  0.00000000000E+00 -0.11455821892E+04  0.11455821892E+04  0.50400001928E-02 0.  1.
    10030    2    1    2    0    0  0.00000000000E+00  0.00000000000E+00 -0.81109159042E+03  0.14800727879E+04  0.12380411502E+04 0.  0.
        2    1    3    3  502    0  0.52442229966E+03 -0.99990038855E+02 -0.78011904717E+03  0.94530549771E+03  0.25500000920E-02 0.  1.
       -2    1    3    3    0  502 -0.52442229966E+03  0.99990038855E+02 -0.30972543252E+02  0.53476729022E+03  0.25500000920E-02 0. -1.
</event>
<event>
 5   0  0.1346593E-03  0.1287300E+04  0.7818609E-02  0.9039697E-01
       -1   -1    0    0    0  501  0.00000000000E+00  0.00000000000E+00  0.44768450441E+03  0.44768450444E+03  0.50400001928E-02 0.  1.
        1   -1    0    0  501    0  0.00000000000E+00  0.00000000000E+00 -0.92539560047E+03  0.92539560049E+03  0.50400001928E-02 0. -1.
    10030    2    1    2    0    0  0.00000000000E+00  0.00000000000E+00 -0.47771109607E+03  0.13730801049E+04  0.12872999197E+04 0.  0.
        2    1    3    3  502    0 -0.47851472510E+02  0.25933893744E+03 -0.86512500186E+03  0.90442673376E+03  0.25500000920E-02 0. -1.
       -2    1    3    3    0  502  0.47851472510E+02 -0.25933893744E+03  0.38741390579E+03  0.46865337116E+03  0.25500000920E-02 0.  1.
</event>
<event>
 5   0  0.2361043E-03  0.1300572E+04  0.7818609E-02  0.9029112E-01
       -2   -1    0    0    0  501  0.00000000000E+00  0.00000000000E+00  0.67113015354E+03  0.67113015355E+03  0.25500000920E-02 0.  1.
        2   -1    0    0  501    0  0.00000000000E+00  0.00000000000E+00 -0.63008915285E+03  0.63008915285E+03  0.25500000920E-02 0. -1.
    10030    2    1    2    0    0  0.00000000000E+00  0.00000000000E+00  0.41041000695E+02  0.13012193064E+04  0.13005719202E+04 0.  0.
        2    1    3    3  502    0 -0.42647751645E+03  0.47202607138E+03 -0.11438038686E+03  0.64635482284E+03  0.25500000920E-02 0.  1.
       -2    1    3    3    0  502  0.42647751645E+03 -0.47202607138E+03  0.15542138756E+03  0.65486448356E+03  0.25500000920E-02 0. -1.
</event>
<event>
 5   0  0.1332630E-03  0.1360612E+04  0.7818609E-02  0.8982833E-01
       -1   -1    0    0    0  501  0.00000000000E+00  0.00000000000E+00  0.30036990006E+03  0.30036990010E+03  0.50400001928E-02 0.  1.
        1   -1    0    0  501    0  0.00000000000E+00  0.00000000000E+00 -0.15408216933E+04  0.15408216933E+04  0.50400001928E-02 0. -1.
    10030    2    1    2    0    0  0.00000000000E+00  0.00000000000E+00 -0.12404517933E+04  0.18411915934E+04  0.13606123005E+04 0.  0.
        5    1    3    3  502    0  0.20519259830E+03  0.11963946817E+02 -0.14977761151E+04  0.15118209283E+04  0.46999998093E+01 0. -1.
       -5    1    3    3    0  502 -0.20519259830E+03 -0.11963946817E+02  0.25732432183E+03  0.32937066509E+03  0.46999998093E+01 0.  1.
</event>
<event>
 5   0  0.2312105E-03  0.1259400E+04  0.7818609E-02  0.9062396E-01
       -2   -1    0    0    0  501  0.00000000000E+00  0.00000000000E+00  0.44394023127E+03  0.44394023128E+03  0.25500000920E-02 0.  1.
        2   -1    0    0  501    0  0.00000000000E+00  0.00000000000E+00 -0.89318789819E+03  0.89318789819E+03  0.25500000920E-02 0. -1.
    10030    2    1    2    0    0  0.00000000000E+00  0.00000000000E+00 -0.44924766692E+03  0.13371281295E+04  0.12593999239E+04 0.  0.
        5    1    3    3  502    0  0.13216678007E+03  0.38635149764E+03 -0.73354527191E+03  0.83955124527E+03  0.46999998093E+01 0. -1.
       -5    1    3    3    0  502 -0.13216678007E+03 -0.38635149764E+03  0.28429760499E+03  0.49757688420E+03  0.46999998093E+01 0.  1.
</event>
<event>
 5   0  0.2312105E-03  0.1288744E+04  0.7818609E-02  0.9038539E-01
       -2   -1    0    0    0  501  0.00000000000E+00  0.00000000000E+00  0.55364903784E+03  0.55364903784E+03  0.25500000920E-02 0. -1.
        2   -1    0    0  501    0  0.00000000000E+00  0.00000000000E+00 -0.74996106460E+03  0.74996106460E+03  0.25500000920E-02 0.  1.
    10030    2    1    2    0    0  0.00000000000E+00  0.00000000000E+00 -0.19631202676E+03  0.13036101024E+04  0.12887439184E+04 0.  0.
        5    1    3    3  502    0  0.81656630077E+02  0.44272198436E+03  0.36816353241E+03  0.58158149666E+03  0.46999998093E+01 0. -1.
       -5    1    3    3    0  502 -0.81656630077E+02 -0.44272198436E+03 -0.56447555916E+03  0.72202860578E+03  0.46999998093E+01 0.  1.
</event>
<event>
 5   0  0.2401211E-03  0.1286478E+04  0.7818609E-02  0.9040358E-01
       -2   -1    0    0    0  501  0.00000000000E+00  0.00000000000E+00  0.68911992647E+03  0.68911992647E+03  0.25500000920E-02 0. -1.
        2   -1    0    0  501    0  0.00000000000E+00  0.00000000000E+00 -0.60041267694E+03  0.60041267694E+03  0.25500000920E-02 0.  1.
    10030    2    1    2    0    0  0.00000000000E+00  0.00000000000E+00  0.88707249527E+02  0.12895326034E+04  0.12864778891E+04 0.  0.
        4    1    3    3  502    0 -0.50928061521E+03 -0.16445561715E+03 -0.31334428286E+03  0.62016017894E+03  0.12699999809E+01 0.  1.
       -4    1    3    3    0  502  0.50928061521E+03  0.16445561715E+03  0.40205153239E+03  0.66937242447E+03  0.12699999809E+01 0. -1.
</event>
<event>
 5   0  0.1310461E-03  0.1297444E+04  0.7818609E-02  0.9031594E-01
        1   -1    0    0  501    0  0.00000000000E+00  0.00000000000E+00  0.47110940302E+03  0.47110940304E+03  0.50400001928E-02 0.  1.
       -1   -1    0    0    0  501  0.00000000000E+00  0.00000000000E+00 -0.89329665200E+03  0.89329665201E+03  0.50400001928E-02 0. -1.
    10030    2    1    2    0    0  0.00000000000E+00  0.00000000000E+00 -0.42218724898E+03  0.13644060551E+04  0.12974443379E+04 0.  0.
        4    1    3    3  502    0 -0.19426108499E+03 -0.49077829972E+03  0.18551570088E+03  0.55948047043E+03  0.12699999809E+01 0.  1.
       -4    1    3    3    0  502  0.19426108499E+03  0.49077829972E+03 -0.60770294986E+03  0.80492558463E+03  0.12699999809E+01 0. -1.
</event>
<event>
 5   0  0.1346593E-03  0.1356111E+04  0.7818609E-02  0.8986215E-01
       -1   -1    0    0    0  501  0.00000000000E+00  0.00000000000E+00  0.49100145392E+03  0.49100145395E+03  0.50400001928E-02 0.  1.
        1   -1    0    0  501    0  0.00000000000E+00  0.00000000000E+00 -0.93637092202E+03  0.93637092204E+03  0.50400001928E-02 0. -1.
    10030    2    1    2    0    0  0.00000000000E+00  0.00000000000E+00 -0.44536946810E+03  0.14273723760E+04  0.13561113290E+04 0.  0.
        2    1    3    3  502    0 -0.57915824273E+02  0.43162213530E+03  0.32434423314E+03  0.54300192630E+03  0.25500000920E-02 0.  1.
       -2    1    3    3    0  502  0.57915824273E+02 -0.43162213530E+03 -0.76971370125E+03  0.88437044969E+03  0.25500000920E-02 0. -1.
</event>
<event>
 5   0  0.9131250E-04  0.1147883E+04  0.7818609E-02  0.9159739E-01
       -3   -1    0    0    0  501  0.00000000000E+00  0.00000000000E+00  0.10195863653E+04  0.10195863703E+04  0.10100000352E+00 0. -1.
        3   -1    0    0  501    0  0.00000000000E+00  0.00000000000E+00 -0.32308093668E+03  0.32308095247E+03  0.10100000352E+00 0.  1.
    10030    2    1    2    0    0  0.00000000000E+00  0.00000000000E+00  0.69650542858E+03  0.13426673227E+04  0.11478831506E+04 0.  0.
        5    1    3    3  502    0  0.39089453260E+03  0.87066320267E+02 -0.13261327781E+03  0.42188559017E+03  0.46999998093E+01 0.  1.
       -5    1    3    3    0  502 -0.39089453260E+03 -0.87066320267E+02  0.82911870639E+03  0.92078173257E+03  0.46999998093E+01 0. -1.
</event>
<event>
 5   0  0.2361043E-03  0.1297798E+04  0.7818609E-02  0.9031313E-01
        2   -1    0    0  501    0  0.00000000000E+00  0.00000000000E+00  0.77109122466E+03  0.77109122467E+03  0.25500000920E-02 0. -1.
       -2   -1    0    0    0  501  0.00000000000E+00  0.00000000000E+00 -0.54607008175E+03  0.54607008175E+03  0.25500000920E-02 0.  1.
    10030    2    1    2    0    0  0.00000000000E+00  0.00000000000E+00  0.22502114292E+03  0.13171613064E+04  0.12977979012E+04 0.  0.
        2    1    3    3  502    0  0.50102149554E+02  0.63626318665E+03  0.23142864628E+03  0.67889637383E+03  0.25500000920E-02 0. -1.
       -2    1    3    3    0  502 -0.50102149554E+02 -0.63626318665E+03 -0.64075033587E+01  0.63826493260E+03  0.25500000920E-02 0.  1.
</event>
<event>
 5   0  0.1346593E-03  0.1303263E+04  0.7818609E-02  0.9026981E-01
        1   -1    0    0  501    0  0.00000000000E+00  0.00000000000E+00  0.69269546496E+03  0.69269546498E+03  0.50400001928E-02 0. -1.
       -1   -1    0    0    0  501  0.00000000000E+00  0.00000000000E+00 -0.61300207231E+03  0.61300207233E+03  0.50400001928E-02 0.  1.
    10030    2    1    2    0    0  0.00000000000E+00  0.00000000000E+00  0.79693392656E+02  0.13056975373E+04  0.13032632206E+04 0.  0.
        2    1    3    3  502    0 -0.39502487401E+03  0.43951387132E+02 -0.47749693385E+03  0.62127264334E+03  0.25500000920E-02 0.  1.
       -2    1    3    3    0  502  0.39502487401E+03 -0.43951387132E+02  0.55719032651E+03  0.68442489397E+03  0.25500000920E-02 0. -1.
</event>
<event>
 5   0  0.2478236E-03  0.1303960E+04  0.7818609E-02  0.9026430E-01
       -2   -1    0    0    0  501  0.00000000000E+00  0.00000000000E+00  0.44191259394E+03  0.44191259395E+03  0.25500000920E-02 0. -1.
        2   -1    0    0  501    0  0.00000000000E+00  0.00000000000E+00 -0.96190547742E+03  0.96190547742E+03  0.25500000920E-02 0.  1.
    10030    2    1    2    0    0  0.00000000000E+00  0.00000000000E+00 -0.51999288347E+03  0.14038180714E+04  0.13039603440E+04 0.  0.
        3    1    3    3  502    0  0.27646778351E+03 -0.46652320008E+03 -0.64965279894E+03  0.84624293256E+03  0.10100000352E+00 0.  1.
       -3    1    3    3    0  502 -0.27646778351E+03  0.46652320008E+03  0.12965991547E+03  0.55757513881E+03  0.10100000352E+00 0. -1.
</event>
<event>
 5   0  0.2312105E-03  0.1297320E+04  0.7818609E-02  0.9031693E-01
       -2   -1    0    0    0  501  0.00000000000E+00  0.00000000000E+00  0.19182001628E+03  0.19182001630E+03  0.25500000920E-02 0.  1.
        2   -1    0    0  501    0  0.00000000000E+00  0.00000000000E+00 -0.21935135996E+04  0.21935135996E+04  0.25500000920E-02 0. -1.
    10030    2    1    2    0    0  0.00000000000E+00  0.00000000000E+00 -0.20016935833E+04  0.23853336159E+04  0.12973200290E+04 0.  0.
        5    1    3    3  502    0 -0.60703609934E+03 -0.19143908730E+03 -0.12304660245E+04  0.13853557224E+04  0.46999998093E+01 0. -1.
       -5    1    3    3    0  502  0.60703609934E+03  0.19143908730E+03 -0.77122755875E+03  0.99997789346E+03  0.46999998093E+01 0.  1.
</event>
<event>
 5   0  0.1332630E-03  0.1300061E+04  0.7818609E-02  0.9029517E-01
       -1   -1    0    0    0  501  0.00000000000E+00  0.00000000000E+00  0.60461049118E+03  0.60461049120E+03  0.50400001928E-02 0. -1.
        1   -1    0    0  501    0  0.00000000000E+00  0.00000000000E+00 -0.69886260483E+03  0.69886260485E+03  0.50400001928E-02 0.  1.
    10030    2    1    2    0    0  0.00000000000E+00  0.00000000000E+00 -0.94252113652E+02  0.13034730960E+04  0.13000610183E+04 0.  0.
        5    1    3    3  502    0 -0.63799217562E+03 -0.98289517219E+02  0.29381012542E+02  0.64620444075E+03  0.46999998093E+01 0.  1.
       -5    1    3    3    0  502  0.63799217562E+03  0.98289517219E+02 -0.12363312619E+03  0.65726865530E+03  0.46999998093E+01 0. -1.
</event>
<event>
 5   0  0.1387622E-03  0.1273285E+04  0.7818609E-02  0.9051023E-01
        1   -1    0    0  501    0  0.00000000000E+00  0.00000000000E+00  0.58370318550E+03  0.58370318552E+03  0.50400001928E-02 0.  1.
       -1   -1    0    0    0  501  0.00000000000E+00  0.00000000000E+00 -0.69438265250E+03  0.69438265252E+03  0.50400001928E-02 0. -1.
    10030    2    1    2    0    0  0.00000000000E+00  0.00000000000E+00 -0.11067946700E+03  0.12780858380E+04  0.12732845185E+04 0.  0.
        3    1    3    3  502    0  0.50258198004E+02 -0.49988471254E+03 -0.44784203108E+03  0.67303276837E+03  0.10100000352E+00 0. -1.
       -3    1    3    3    0  502 -0.50258198004E+02  0.49988471254E+03  0.33716256408E+03  0.60505306967E+03  0.10100000352E+00 0.  1.
</event>
<event>
 5   0  0.2478236E-03  0.1292019E+04  0.7818609E-02  0.9035919E-01
        2   -1    0    0  501    0  0.00000000000E+00  0.00000000000E+00  0.78167258029E+03  0.78167258029E+03  0.25500000920E-02 0.  1.
       -2   -1    0    0    0  501  0.00000000000E+00  0.00000000000E+00 -0.53389101983E+03  0.53389101984E+03  0.25500000920E-02 0. -1.
    10030    2    1    2    0    0  0.00000000000E+00  0.00000000000E+00  0.24778156046E+03  0.13155636001E+04  0.12920185309E+04 0.  0.
        3    1    3    3  502    0 -0.34038647233E+03 -0.53157843547E+03  0.26383402078E+03  0.68413959418E+03  0.10100000352E+00 0. -1.
       -3    1    3    3    0  502  0.34038647233E+03  0.53157843547E+03 -0.16052460319E+02  0.63142400595E+03  0.10100000352E+00 0.  1.
</event>
<event>
 5   0  0.2334946E-03  0.1287967E+04  0.7818609E-02  0.9039162E-01
        2   -1    0    0  501    0  0.00000000000E+00  0.00000000000E+00  0.93856399535E+03  0.93856399535E+03  0.25500000920E-02 0. -1.
       -2   -1    0    0    0  501  0.00000000000E+00  0.00000000000E+00 -0.44186102758E+03  0.44186102758E+03  0.25500000920E-02 0.  1.
    10030    2    1    2    0    0  0.00000000000E+00  0.00000000000E+00  0.49670296777E+03  0.13804250229E+04  0.12879671602E+04 0.  0.
        1    1    3    3  502    0 -0.13570535348E+03  0.54656456996E+03 -0.86426939661E+02  0.56975291840E+03  0.50400001928E-02 0.  1.
       -1    1    3    3    0  502  0.13570535348E+03 -0.54656456996E+03  0.58312990743E+03  0.81067210453E+03  0.50400001928E-02 0. -1.
</event>
<event>
 5   0  0.2334946E-03  0.1302549E+04  0.7818609E-02  0.9027546E-01
        2   -1    0    0  501    0  0.00000000000E+00  0.00000000000E+00  0.42308579823E+03  0.42308579824E+03  0.25500000920E-02 0.  1.
       -2   -1    0    0    0  501  0.00000000000E+00  0.00000000000E+00 -0.10025354256E+04  0.10025354256E+04  0.25500000920E-02 0. -1.
    10030    2    1    2    0    0  0.00000000000E+00  0.00000000000E+00 -0.57944962741E+03  0.14256212239E+04  0.13025490406E+04 0.  0.
        1    1    3    3  502    0  0.20806219181E+03  0.58285565646E+03 -0.67708977402E+02  0.62257135942E+03  0.50400001928E-02 0.  1.
       -1    1    3    3    0  502 -0.20806219181E+03 -0.58285565646E+03 -0.51174065000E+03  0.80304986446E+03  0.50400001928E-02 0. -1.
</event>
<event>
 5   0  0.2361043E-03  0.1172032E+04  0.7818609E-02  0.9137695E-01
        2   -1    0    0  501    0  0.00000000000E+00  0.00000000000E+00  0.13135999007E+04  0.13135999007E+04  0.25500000920E-02 0. -1.
       -2   -1    0    0    0  501  0.00000000000E+00  0.00000000000E+00 -0.26143024204E+03  0.26143024205E+03  0.25500000920E-02 0.  1.
    10030    2    1    2    0    0  0.00000000000E+00  0.00000000000E+00  0.10521696587E+04  0.15750301428E+04  0.11720319791E+04 0.  0.
        2    1    3    3  502    0 -0.55091615881E+03  0.15701624654E+03  0.36012111272E+03  0.67664609032E+03  0.25500000920E-02 0.  1.
       -2    1    3    3    0  502  0.55091615881E+03 -0.15701624654E+03  0.69204854596E+03  0.89838405245E+03  0.25500000920E-02 0. -1.
</event>
<event>
 5   0  0.1324721E-03  0.1276031E+04  0.7818609E-02  0.9048792E-01
       -1   -1    0    0    0  501  0.00000000000E+00  0.00000000000E+00  0.14363843066E+04  0.14363843066E+04  0.50400001928E-02 0.  1.
        1   -1    0    0  501    0  0.00000000000E+00  0.00000000000E+00 -0.28339464790E+03  0.28339464794E+03  0.50400001928E-02 0. -1.
    10030    2    1    2    0    0  0.00000000000E+00  0.00000000000E+00  0.11529896587E+04  0.17197789545E+04  0.12760307596E+04 0.  0.
        1    1    3    3  502    0 -0.26001960332E+02  0.12030795778E+03  0.14202308852E+04  0.14255545847E+04  0.50400001928E-02 0.  1.
       -1    1    3    3    0  502  0.26001960332E+02 -0.12030795778E+03 -0.26724122650E+03  0.29422436985E+03  0.50400001928E-02 0. -1.
</event>
<event>
 5   0  0.2334946E-03  0.1348337E+04  0.7818609E-02  0.8992088E-01
        2   -1    0    0  501    0  0.00000000000E+00  0.00000000000E+00  0.64721347989E+03  0.64721347989E+03  0.25500000920E-02 0. -1.
       -2   -1    0    0    0  501  0.00000000000E+00  0.00000000000E+00 -0.70224608001E+03  0.70224608002E+03  0.25500000920E-02 0.  1.
    10030    2    1    2    0    0  0.00000000000E+00  0.00000000000E+00 -0.55032600128E+02  0.13494595599E+04  0.13483369448E+04 0.  0.
        1    1    3    3  502    0 -0.41736744894E+03  0.44435038490E+03  0.26057797666E+03  0.66298094538E+03  0.50400001928E-02 0. -1.
       -1    1    3    3    0  502  0.41736744894E+03 -0.44435038490E+03 -0.31561057678E+03  0.68647861453E+03  0.50400001928E-02 0.  1.
</event>
<event>
 5   0  0.2401211E-03  0.1303135E+04  0.7818609E-02  0.9027083E-01
        2   -1    0    0  501    0  0.00000000000E+00  0.00000000000E+00  0.89226401418E+03  0.89226401418E+03  0.25500000920E-02 0.  1.
       -2   -1    0    0    0  501  0.00000000000E+00  0.00000000000E+00 -0.47580134740E+03  0.47580134741E+03  0.25500000920E-02 0. -1.
    10030    2    1    2    0    0  0.00000000000E+00  0.00000000000E+00  0.41646266677E+03  0.13680653616E+04  0.13031353271E+04 0.  0.
        4    1    3    3  502    0 -0.45316672248E+03 -0.31657234227E+03 -0.15386076655E+03  0.57380560701E+03  0.12699999809E+01 0. -1.
       -4    1    3    3    0  502  0.45316672248E+03  0.31657234227E+03  0.57032343333E+03  0.79425975458E+03  0.12699999809E+01 0.  1.
</event>
<event>
 5   0  0.2478236E-03  0.1324511E+04  0.7818609E-02  0.9010351E-01
        2   -1    0    0  501    0  0.00000000000E+00  0.00000000000E+00  0.74791912773E+03  0.74791912774E+03  0.25500000920E-02 0. -1.
       -2   -1    0    0    0  501  0.00000000000E+00  0.00000000000E+00 -0.58640319909E+03  0.58640319910E+03  0.25500000920E-02 0.  1.
    10030    2    1    2    0    0  0.00000000000E+00  0.00000000000E+00  0.16151592864E+03  0.13343223268E+04  0.13245107311E+04 0.  0.
        3    1    3    3  502    0 -0.83380947573E+02 -0.49323724951E+03  0.51796222518E+03  0.72008349768E+03  0.10100000352E+00 0. -1.
       -3    1    3    3    0  502  0.83380947573E+02  0.49323724951E+03 -0.35644629654E+03  0.61423882915E+03  0.10100000352E+00 0.  1.
</event>
<event>
 5   0  0.1387622E-03  0.1291876E+04  0.7818609E-02  0.9036032E-01
        1   -1    0    0  501    0  0.00000000000E+00  0.00000000000E+00  0.11729574219E+04  0.11729574219E+04  0.50400001928E-02 0. -1.
       -1   -1    0    0    0  501  0.00000000000E+00  0.00000000000E+00 -0.35571297959E+03  0.35571297963E+03  0.50400001928E-02 0.  1.
    10030    2    1    2    0    0  0.00000000000E+00  0.00000000000E+00  0.81724444234E+03  0.15286704016E+04  0.12918764330E+04 0.  0.
        3    1    3    3  502    0  0.18119528617E+03 -0.61993813547E+03  0.41928145207E+03  0.77003374588E+03  0.10100000352E+00 0. -1.
       -3    1    3    3    0  502 -0.18119528617E+03  0.61993813547E+03  0.39796299027E+03  0.75863665570E+03  0.10100000352E+00 0.  1.
</event>
<event>
 5   0  0.9131250E-04  0.1297803E+04  0.7818609E-02  0.9031309E-01
       -4   -1    0    0    0  501  0.00000000000E+00  0.00000000000E+00  0.53210396127E+03  0.53210547686E+03  0.12699999809E+01 0. -1.
        4   -1    0    0  501    0  0.00000000000E+00  0.00000000000E+00 -0.79133305116E+03  0.79133407026E+03  0.12699999809E+01 0.  1.
    10030    2    1    2    0    0  0.00000000000E+00  0.00000000000E+00 -0.25922908988E+03  0.13234395471E+04  0.12978029565E+04 0.  0.
        1    1    3    3  502    0  0.47451487239E+03  0.40219804441E+03 -0.31804976130E+03  0.69862957405E+03  0.50400001928E-02 0. -1.
       -1    1    3    3    0  502 -0.47451487239E+03 -0.40219804441E+03  0.58820671423E+02  0.62480997307E+03  0.50400001928E-02 0.  1.
</event>
<event>
 5   0  0.2334946E-03  0.1275701E+04  0.7818609E-02  0.9049060E-01
        2   -1    0    0  501    0  0.00000000000E+00  0.00000000000E+00  0.78241633195E+03  0.78241633196E+03  0.25500000920E-02 0. -1.
       -2   -1    0    0    0  501  0.00000000000E+00  0.00000000000E+00 -0.51999562154E+03  0.51999562154E+03  0.25500000920E-02 0.  1.
    10030    2    1    2    0    0  0.00000000000E+00  0.00000000000E+00  0.26242071041E+03  0.13024119535E+04  0.12757006966E+04 0.  0.
        1    1    3    3  502    0  0.18985238858E+03  0.57619506199E+03  0.33233365329E+03  0.69172995891E+03  0.50400001928E-02 0.  1.
       -1    1    3    3    0  502 -0.18985238858E+03 -0.57619506199E+03 -0.69912942872E+02  0.61068199459E+03  0.50400001928E-02 0. -1.
</event>
<event>
 5   0  0.2401211E-03  0.1308952E+04  0.7818609E-02  0.9022496E-01
       -2   -1    0    0    0  501  0.00000000000E+00  0.00000000000E+00  0.52082717508E+03  0.52082717508E+03  0.25500000920E-02 0.  1.
        2   -1    0    0  501    0  0.00000000000E+00  0.00000000000E+00 -0.82242023194E+03  0.82242023195E+03  0.25500000920E-02 0. -1.
    10030    2    1    2    0    0  0.00000000000E+00  0.00000000000E+00 -0.30159305687E+03  0.13432474070E+04  0.13089519565E+04 0.  0.
        4    1    3    3  502    0 -0.40456987180E+03  0.34306933065E+03  0.24260637366E+03  0.58329479017E+03  0.12699999809E+01 0.  1.
       -4    1    3    3    0  502  0.40456987180E+03 -0.34306933065E+03 -0.54419943052E+03  0.75995261686E+03  0.12699999809E+01 0. -1.
</event>
<event>
 5   0  0.2478236E-03  0.1384475E+04  0.7818609E-02  0.8965134E-01
        2   -1    0    0  501    0  0.00000000000E+00  0.00000000000E+00  0.36373384513E+03  0.36373384513E+03  0.25500000920E-02 0.  1.
       -2   -1    0    0    0  501  0.00000000000E+00  0.00000000000E+00 -0.13174267986E+04  0.13174267986E+04  0.25500000920E-02 0. -1.
    10030    2    1    2    0    0  0.00000000000E+00  0.00000000000E+00 -0.95369295344E+03  0.16811606437E+04  0.13844749404E+04 0.  0.
        3    1    3    3  502    0 -0.33311653760E+03  0.40719716160E+03  0.69473553006E+02  0.53066254890E+03  0.10100000352E+00 0.  1.
       -3    1    3    3    0  502  0.33311653760E+03 -0.40719716160E+03 -0.10231665064E+04  0.11504980948E+04  0.10100000352E+00 0. -1.
</event>
<event>
 5   0  0.1324721E-03  0.1305613E+04  0.7818609E-02  0.9025126E-01
        1   -1    0    0  501    0  0.00000000000E+00  0.00000000000E+00  0.47487157607E+03  0.47487157609E+03  0.50400001928E-02 0. -1.
       -1   -1    0    0    0  501  0.00000000000E+00  0.00000000000E+00 -0.89741387145E+03  0.89741387146E+03  0.50400001928E-02 0.  1.
    10030    2    1    2    0    0  0.00000000000E+00  0.00000000000E+00 -0.42254229538E+03  0.13722854476E+04  0.13056130201E+04 0.  0.
        1    1    3    3  502    0  0.38906942133E+03  0.48446999305E+03 -0.42166859852E+03  0.75092649160E+03  0.50400001928E-02 0.  1.
       -1    1    3    3    0  502 -0.38906942133E+03 -0.48446999305E+03 -0.87369686114E+00  0.62135895596E+03  0.50400001928E-02 0. -1.
</event>
<event>
 5   0  0.2361043E-03  0.1167918E+04  0.7818609E-02  0.9141411E-01
       -2   -1    0    0    0  501  0.00000000000E+00  0.00000000000E+00  0.45072693223E+03  0.45072693224E+03  0.25500000920E-02 0.  1.
        2   -1    0    0  501    0  0.00000000000E+00  0.00000000000E+00 -0.75657345345E+03  0.75657345345E+03  0.25500000920E-02 0. -1.
    10030    2    1    2    0    0  0.00000000000E+00  0.00000000000E+00 -0.30584652122E+03  0.12073003857E+04  0.11679178596E+04 0.  0.
        2    1    3    3  502    0 -0.30782875787E+03  0.31949680327E+03  0.23957923027E+03  0.50421717449E+03  0.25500000920E-02 0.  1.
       -2    1    3    3    0  502  0.30782875787E+03 -0.31949680327E+03 -0.54542575149E+03  0.70308321119E+03  0.25500000920E-02 0. -1.
</event>
<event>
 5   0  0.1310461E-03  0.1250204E+04  0.7818609E-02  0.9070013E-01
        1   -1    0    0  501    0  0.00000000000E+00  0.00000000000E+00  0.19644639076E+04  0.19644639076E+04  0.50400001928E-02 0. -1.
       -1   -1    0    0    0  501  0.00000000000E+00  0.00000000000E+00 -0.19891053985E+03  0.19891053991E+03  0.50400001928E-02 0.  1.
    10030    2    1    2    0    0  0.00000000000E+00  0.00000000000E+00  0.17655533677E+04  0.21633744475E+04  0.12502041057E+04 0.  0.
        4    1    3    3  502    0  0.35606574495E+03  0.29378536055E+03  0.15341400123E+03  0.48644642200E+03  0.12699999809E+01 0.  1.
       -4    1    3    3    0  502 -0.35606574495E+03 -0.29378536055E+03  0.16121393665E+04  0.16769280255E+04  0.12699999809E+01 0. -1.
</event>
<event>
 5   0  0.1346593E-03  0.1303879E+04  0.7818609E-02  0.9026495E-01
        1   -1    0    0  501    0  0.00000000000E+00  0.00000000000E+00  0.18940837738E+04  0.18940837738E+04  0.50400001928E-02 0. -1.
       -1   -1    0    0    0  501  0.00000000000E+00  0.00000000000E+00 -0.22439609044E+03  0.22439609049E+03  0.50400001928E-02 0.  1.
    10030    2    1    2    0    0  0.00000000000E+00  0.00000000000E+00  0.16696876834E+04  0.21184798643E+04  0.13038788193E+04 0.  0.
        2    1    3    3  502    0  0.26021006957E+03  0.47082286212E+03  0.23645501509E+03  0.58761758140E+03  0.25500000920E-02 0.  1.
       -2    1    3    3    0  502 -0.26021006957E+03 -0.47082286212E+03  0.14332326683E+04  0.15308622829E+04  0.25500000920E-02 0. -1.
</event>
<event>
 5   0  0.2312105E-03  0.1305183E+04  0.7818609E-02  0.9025465E-01
       -2   -1    0    0    0  501  0.00000000000E+00  0.00000000000E+00  0.37466320391E+03  0.37466320392E+03  0.25500000920E-02 0.  1.
        2   -1    0    0  501    0  0.00000000000E+00  0.00000000000E+00 -0.11366885746E+04  0.11366885746E+04  0.25500000920E-02 0. -1.
    10030    2    1    2    0    0  0.00000000000E+00  0.00000000000E+00 -0.76202537066E+03  0.15113517785E+04  0.13051825669E+04 0.  0.
        5    1    3    3  502    0 -0.45371614258E+03  0.12092640162E+03 -0.90577744214E+03  0.10202629060E+04  0.46999998093E+01 0. -1.
       -5    1    3    3    0  502  0.45371614258E+03 -0.12092640162E+03  0.14375207148E+03  0.49108887251E+03  0.46999998093E+01 0.  1.
</event>
<event>
 5   0  0.1324721E-03  0.1309205E+04  0.7818609E-02  0.9022297E-01
        1   -1    0    0  501    0  0.00000000000E+00  0.00000000000E+00  0.15208881276E+04  0.15208881276E+04  0.50400001928E-02 0. -1.
       -1   -1    0    0    0  501  0.00000000000E+00  0.00000000000E+00 -0.28174624548E+03  0.28174624552E+03  0.50400001928E-02 0.  1.
    10030    2    1    2    0    0  0.00000000000E+00  0.00000000000E+00  0.12391418821E+04  0.18026343731E+04  0.13092051326E+04 0.  0.
        1    1    3    3  502    0 -0.54436493749E+03 -0.36277548981E+03  0.58683451833E+03  0.87881396956E+03  0.50400001928E-02 0. -1.
       -1    1    3    3    0  502  0.54436493749E+03  0.36277548981E+03  0.65230736380E+03  0.92382040358E+03  0.50400001928E-02 0.  1.
</event>
<event>
 5   0  0.2401211E-03  0.1332074E+04  0.7818609E-02  0.9004510E-01
        2   -1    0    0  501    0  0.00000000000E+00  0.00000000000E+00  0.81387621735E+03  0.81387621736E+03  0.25500000920E-02 0.  1.
       -2   -1    0    0    0  501  0.00000000000E+00  0.00000000000E+00 -0.54505220977E+03  0.54505220977E+03  0.25500000920E-02 0. -1.
    10030    2    1    2    0    0  0.00000000000E+00  0.00000000000E+00  0.26882400759E+03  0.13589284271E+04  0.13320736177E+04 0.  0.
        4    1    3    3  502    0 -0.46053001138E+03  0.39777957846E+03 -0.14176125942E+03  0.62483145887E+03  0.12699999809E+01 0. -1.
       -4    1    3    3    0  502  0.46053001138E+03 -0.39777957846E+03  0.41058526700E+03  0.73409696826E+03  0.12699999809E+01 0.  1.
</event>
<event>
 5   0  0.1332630E-03  0.1284368E+04  0.7818609E-02  0.9042054E-01
        1   -1    0    0  501    0  0.00000000000E+00  0.00000000000E+00  0.46650213463E+03  0.46650213466E+03  0.50400001928E-02 0. -1.
       -1   -1    0    0    0  501  0.00000000000E+00  0.00000000000E+00 -0.88402646812E+03  0.88402646813E+03  0.50400001928E-02 0.  1.
    10030    2    1    2    0    0  0.00000000000E+00  0.00000000000E+00 -0.41752433349E+03  0.13505286028E+04  0.12843679138E+04 0.  0.
        5    1    3    3  502    0 -0.38843854404E+02 -0.48188457656E+03 -0.65321309332E+03  0.81266907498E+03  0.46999998093E+01 0.  1.
       -5    1    3    3    0  502  0.38843854404E+02  0.48188457656E+03  0.23568875983E+03  0.53785952781E+03  0.46999998093E+01 0. -1.
</event>
<event>
 5   0  0.2478236E-03  0.1293944E+04  0.7818609E-02  0.9034381E-01
        2   -1    0    0  501    0  0.00000000000E+00  0.00000000000E+00  0.63709404532E+03  0.63709404533E+03  0.25500000920E-02 0.  1.
       -2   -1    0    0    0  501  0.00000000000E+00  0.00000000000E+00 -0.65700336361E+03  0.65700336362E+03  0.25500000920E-02 0. -1.
    10030    2    1    2    0    0  0.00000000000E+00  0.00000000000E+00 -0.19909318288E+02  0.12940974089E+04  0.12939442503E+04 0.  0.
        3    1    3    3  502    0 -0.33831663258E+03  0.49534992626E+03  0.23244405041E+03  0.64331946970E+03  0.10100000352E+00 0.  1.
       -3    1    3    3    0  502  0.33831663258E+03 -0.49534992626E+03 -0.25235336869E+03  0.65077793925E+03  0.10100000352E+00 0. -1.
</event>
<event>
 5   0  0.2478236E-03  0.1284155E+04  0.7818609E-02  0.9042225E-01
        2   -1    0    0  501    0  0.00000000000E+00  0.00000000000E+00  0.10702321683E+04  0.10702321683E+04  0.25500000920E-02 0. -1.
       -2   -1    0    0    0  501  0.00000000000E+00  0.00000000000E+00 -0.38520964269E+03  0.38520964269E+03  0.25500000920E-02 0.  1.
    10030    2    1    2    0    0  0.00000000000E+00  0.00000000000E+00  0.68502252561E+03  0.14554418110E+04  0.12841553662E+04 0.  0.
        3    1    3    3  502    0 -0.14343018617E+03 -0.48539038846E+03  0.79028808245E+03  0.93847286108E+03  0.10100000352E+00 0. -1.
       -3    1    3    3    0  502  0.14343018617E+03  0.48539038846E+03 -0.10526555685E+03  0.51696894991E+03  0.10100000352E+00 0.  1.
</event>
<event>
 5   0  0.1387622E-03  0.1285453E+04  0.7818609E-02  0.9041181E-01
        1   -1    0    0  501    0  0.00000000000E+00  0.00000000000E+00  0.68149521512E+03  0.68149521514E+03  0.50400001928E-02 0. -1.
       -1   -1    0    0    0  501  0.00000000000E+00  0.00000000000E+00 -0.60616307746E+03  0.60616307748E+03  0.50400001928E-02 0.  1.
    10030    2    1    2    0    0  0.00000000000E+00  0.00000000000E+00  0.75332137661E+02  0.12876582926E+04  0.12854528181E+04 0.  0.
        3    1    3    3  502    0  0.39697401040E+03 -0.39644778652E+03  0.35179302470E+03  0.66220658015E+03  0.10100000352E+00 0.  1.
       -3    1    3    3    0  502 -0.39697401040E+03  0.39644778652E+03 -0.27646088704E+03  0.62545171247E+03  0.10100000352E+00 0. -1.
</event>
<event>
 5   0  0.2361043E-03  0.1298559E+04  0.7818609E-02  0.9030709E-01
       -2   -1    0    0    0  501  0.00000000000E+00  0.00000000000E+00  0.40332161917E+03  0.40332161918E+03  0.25500000920E-02 0. -1.
        2   -1    0    0  501    0  0.00000000000E+00  0.00000000000E+00 -0.10452300517E+04  0.10452300517E+04  0.25500000920E-02 0.  1.
    10030    2    1    2    0    0  0.00000000000E+00  0.00000000000E+00 -0.64190843256E+03  0.14485516709E+04  0.12985590120E+04 0.  0.
        2    1    3    3  502    0  0.58814453917E+03 -0.50604219844E+02 -0.62253146911E+03  0.85791620573E+03  0.25500000920E-02 0.  1.
       -2    1    3    3    0  502 -0.58814453917E+03  0.50604219844E+02 -0.19376963452E+02  0.59063546519E+03  0.25500000920E-02 0. -1.
</event>
<event>
 5   0  0.2401211E-03  0.1304482E+04  0.7818609E-02  0.9026018E-01
        2   -1    0    0  501    0  0.00000000000E+00  0.00000000000E+00  0.11634733739E+04  0.11634733739E+04  0.25500000920E-02 0.  1.
       -2   -1    0    0    0  501  0.00000000000E+00  0.00000000000E+00 -0.36564511047E+03  0.36564511048E+03  0.25500000920E-02 0. -1.
    10030    2    1    2    0    0  0.00000000000E+00  0.00000000000E+00  0.79782826340E+03  0.15291184843E+04  0.13044820433E+04 0.  0.
        4    1    3    3  502    0  0.36532209813E+02  0.38826217303E+03  0.10117587180E+04  0.10843151911E+04  0.12699999809E+01 0.  1.
       -4    1    3    3    0  502 -0.36532209813E+02 -0.38826217303E+03 -0.21393045460E+03  0.44480329322E+03  0.12699999809E+01 0. -1.
</event>
<event>
 5   0  0.2401211E-03  0.1297934E+04  0.7818609E-02  0.9031205E-01
        2   -1    0    0  501    0  0.00000000000E+00  0.00000000000E+00  0.19515967498E+04  0.19515967498E+04  0.25500000920E-02 0.  1.
       -2   -1    0    0    0  501  0.00000000000E+00  0.00000000000E+00 -0.21580182812E+03  0.21580182814E+03  0.25500000920E-02 0. -1.
    10030    2    1    2    0    0  0.00000000000E+00  0.00000000000E+00  0.17357949216E+04  0.21673985779E+04  0.12979339681E+04 0.  0.
        4    1    3    3  502    0 -0.23645441819E+03 -0.49671981339E+03  0.29302257259E+03  0.62330177751E+03  0.12699999809E+01 0. -1.
       -4    1    3    3    0  502  0.23645441819E+03  0.49671981339E+03  0.14427723490E+04  0.15440968004E+04  0.12699999809E+01 0.  1.
</event>
<event>
 5   0  0.1310461E-03  0.1306754E+04  0.7818609E-02  0.9024226E-01
       -1   -1    0    0    0  501  0.00000000000E+00  0.00000000000E+00  0.85355393567E+03  0.85355393569E+03  0.50400001928E-02 0. -1.
        1   -1    0    0  501    0  0.00000000000E+00  0.00000000000E+00 -0.50014602096E+03  0.50014602099E+03  0.50400001928E-02 0.  1.
    10030    2    1    2    0    0  0.00000000000E+00  0.00000000000E+00  0.35340791471E+03  0.13536999567E+04  0.13067541538E+04 0.  0.
        4    1    3    3  502    0  0.22257997020E+03  0.84182738382E+02  0.80706391650E+03  0.84141687337E+03  0.12699999809E+01 0. -1.
       -4    1    3    3    0  502 -0.22257997020E+03 -0.84182738382E+02 -0.45365600179E+03  0.51228308330E+03  0.12699999809E+01 0.  1.
</event>
<event>
 5   0  0.1387622E-03  0.1324399E+04  0.7818609E-02  0.9010437E-01
       -1   -1    0    0    0  501  0.00000000000E+00  0.00000000000E+00  0.83161870334E+03  0.83161870335E+03  0.50400001928E-02 0. -1.
        1   -1    0    0  501    0  0.00000000000E+00  0.00000000000E+00 -0.52729465046E+03  0.52729465049E+03  0.50400001928E-02 0.  1.
    10030    2    1    2    0    0  0.00000000000E+00  0.00000000000E+00  0.30432405287E+03  0.13589133538E+04  0.13243988727E+04 0.  0.
        3    1    3    3  502    0 -0.14575412892E+03 -0.25258273824E+03 -0.45786159189E+03  0.54284394929E+03  0.10100000352E+00 0.  1.
       -3    1    3    3    0  502  0.14575412892E+03  0.25258273824E+03  0.76218564476E+03  0.81606940455E+03  0.10100000352E+00 0. -1.
</event>
<event>
 5   0  0.1324721E-03  0.1238595E+04  0.7818609E-02  0.9079729E-01
        1   -1    0    0  501    0  0.00000000000E+00  0.00000000000E+00  0.16615818242E+04  0.16615818242E+04  0.50400001928E-02 0.  1.
       -1   -1    0    0    0  501  0.00000000000E+00  0.00000000000E+00 -0.23082188978E+03  0.23082188984E+03  0.50400001928E-02 0. -1.
    10030    2    1    2    0    0  0.00000000000E+00  0.00000000000E+00  0.14307599344E+04  0.18924037140E+04  0.12385951021E+04 0.  0.
        1    1    3    3  502    0 -0.53510703163E+03 -0.13005120929E+03  0.28248859473E+03  0.61891248049E+03  0.50400001928E-02 0. -1.
       -1    1    3    3    0  502  0.53510703163E+03  0.13005120929E+03  0.11482713397E+04  0.12734912335E+04  0.50400001928E-02 0.  1.
</event>
<event>
 5   0  0.1346593E-03  0.1305396E+04  0.7818609E-02  0.9025297E-01
        1   -1    0    0  501    0  0.00000000000E+00  0.00000000000E+00  0.54396999252E+03  0.54396999255E+03  0.50400001928E-02 0. -1.
       -1   -1    0    0    0  501  0.00000000000E+00  0.00000000000E+00 -0.78315850338E+03  0.78315850340E+03  0.50400001928E-02 0.  1.
    10030    2    1    2    0    0  0.00000000000E+00  0.00000000000E+00 -0.23918851086E+03  0.13271284959E+04  0.13053960706E+04 0.  0.
        2    1    3    3  502    0 -0.11762419401E+03  0.52221145276E+03 -0.49927453235E+03  0.73199406492E+03  0.25500000920E-02 0.  1.
       -2    1    3    3    0  502  0.11762419401E+03 -0.52221145276E+03  0.26008602149E+03  0.59513443103E+03  0.25500000920E-02 0. -1.
</event>
<event>
 5   0  0.1324721E-03  0.1291954E+04  0.7818609E-02  0.9035970E-01
        1   -1    0    0  501    0  0.00000000000E+00  0.00000000000E+00  0.72705307097E+03  0.72705307099E+03  0.50400001928E-02 0. -1.
       -1   -1    0    0    0  501  0.00000000000E+00  0.00000000000E+00 -0.57394221080E+03  0.57394221082E+03  0.50400001928E-02 0.  1.
    10030    2    1    2    0    0  0.00000000000E+00  0.00000000000E+00  0.15311086018E+03  0.13009952818E+04  0.12919542514E+04 0.  0.
        1    1    3    3  502    0  0.94405151816E+02  0.58403926028E+03  0.33773943950E+03  0.68123572959E+03  0.50400001928E-02 0. -1.
       -1    1    3    3    0  502 -0.94405151816E+02 -0.58403926028E+03 -0.18462857933E+03  0.61975955222E+03  0.50400001928E-02 0.  1.
</event>
<event>
 5   0  0.2361043E-03  0.1318327E+04  0.7818609E-02  0.9015157E-01
       -2   -1    0    0    0  501  0.00000000000E+00  0.00000000000E+00  0.69239851764E+03  0.69239851765E+03  0.25500000920E-02 0. -1.
        2   -1    0    0  501    0  0.00000000000E+00  0.00000000000E+00 -0.62752383944E+03  0.62752383944E+03  0.25500000920E-02 0.  1.
    10030    2    1    2    0    0  0.00000000000E+00  0.00000000000E+00  0.64874678207E+02  0.13199223571E+04  0.13183270857E+04 0.  0.
        2    1    3    3  502    0  0.34314614295E+02 -0.65632646583E+03 -0.18167404613E+02  0.65747393644E+03  0.25500000920E-02 0.  1.
       -2    1    3    3    0  502 -0.34314614295E+02  0.65632646583E+03  0.83042082820E+02  0.66244842065E+03  0.25500000920E-02 0. -1.
</event>
<event>
 5   0  0.1310461E-03  0.1288950E+04  0.7818609E-02  0.9038374E-01
        1   -1    0    0  501    0  0.00000000000E+00  0.00000000000E+00  0.24243869823E+04  0.24243869823E+04  0.50400001928E-02 0.  1.
       -1   -1    0    0    0  501  0.00000000000E+00  0.00000000000E+00 -0.17132097450E+03  0.17132097458E+03  0.50400001928E-02 0. -1.
    10030    2    1    2    0    0  0.00000000000E+00  0.00000000000E+00  0.22530660078E+04  0.25957079569E+04  0.12889504886E+04 0.  0.
        4    1    3    3  502    0 -0.62019916130E+02 -0.70275194940E+01  0.24182833490E+04  0.24190890486E+04  0.12699999809E+01 0.  1.
       -4    1    3    3    0  502  0.62019916130E+02  0.70275194940E+01 -0.16521734121E+03  0.17661890829E+03  0.12699999809E+01 0. -1.
</event>
<event>
 5   0  0.2361043E-03  0.1289235E+04  0.7818609E-02  0.9038145E-01
        2   -1    0    0  501    0  0.00000000000E+00  0.00000000000E+00  0.90111317689E+03  0.90111317689E+03  0.25500000920E-02 0. -1.
       -2   -1    0    0    0  501  0.00000000000E+00  0.00000000000E+00 -0.46113180450E+03  0.46113180451E+03  0.25500000920E-02 0.  1.
    10030    2    1    2    0    0  0.00000000000E+00  0.00000000000E+00  0.43998137239E+03  0.13622449814E+04  0.12892353475E+04 0.  0.
        2    1    3    3  502    0 -0.29117175918E+02  0.60753338487E+03 -0.56124075939E+01  0.60825662577E+03  0.25500000920E-02 0.  1.
       -2    1    3    3    0  502  0.29117175918E+02 -0.60753338487E+03  0.44559377998E+03  0.75398835563E+03  0.25500000920E-02 0. -1.
</event>
<event>
 5   0  0.1324721E-03  0.1291086E+04  0.7818609E-02  0.9036664E-01
       -1   -1    0    0    0  501  0.00000000000E+00  0.00000000000E+00  0.40590372488E+03  0.40590372491E+03  0.50400001928E-02 0. -1.
        1   -1    0    0  501    0  0.00000000000E+00  0.00000000000E+00 -0.10266614826E+04  0.10266614826E+04  0.50400001928E-02 0.  1.
    10030    2    1    2    0    0  0.00000000000E+00  0.00000000000E+00 -0.62075775775E+03  0.14325652076E+04  0.12910859306E+04 0.  0.
        1    1    3    3  502    0  0.95513703591E+02  0.42700102316E+03  0.21626107200E+03  0.48807949419E+03  0.50400001928E-02 0. -1.
       -1    1    3    3    0  502 -0.95513703591E+02 -0.42700102316E+03 -0.83701882976E+03  0.94448571337E+03  0.50400001928E-02 0.  1.
</event>
<event>
 5   0  0.1387622E-03  0.1293498E+04  0.7818609E-02  0.9034738E-01
       -1   -1    0    0    0  501  0.00000000000E+00  0.00000000000E+00  0.22547578352E+03  0.22547578358E+03  0.50400001928E-02 0.  1.
        1   -1    0    0  501    0  0.00000000000E+00  0.00000000000E+00 -0.18551172579E+04  0.18551172579E+04  0.50400001928E-02 0. -1.
    10030    2    1    2    0    0  0.00000000000E+00  0.00000000000E+00 -0.16296414744E+04  0.20805930415E+04  0.12934976108E+04 0.  0.
        3    1    3    3  502    0  0.38962090303E+03  0.47189358057E+03 -0.11514398509E+04  0.13039561879E+04  0.10100000352E+00 0. -1.
       -3    1    3    3    0  502 -0.38962090303E+03 -0.47189358057E+03 -0.47820162344E+03  0.77663685357E+03  0.10100000352E+00 0.  1.
</event>
<event>
 5   0  0.2361043E-03  0.1288984E+04  0.7818609E-02  0.9038347E-01
        2   -1    0    0  501    0  0.00000000000E+00  0.00000000000E+00  0.39984143814E+03  0.39984143815E+03  0.25500000920E-02 0. -1.
       -2   -1    0    0    0  501  0.00000000000E+00  0.00000000000E+00 -0.10388365774E+04  0.10388365774E+04  0.25500000920E-02 0.  1.
    10030    2    1    2    0    0  0.00000000000E+00  0.00000000000E+00 -0.63899513926E+03  0.14386780156E+04  0.12889839582E+04 0.  0.
        2    1    3    3  502    0 -0.50803428357E+02 -0.28323738150E+03 -0.96315486686E+03  0.10052222143E+04  0.25500000920E-02 0.  1.
       -2    1    3    3    0  502  0.50803428357E+02  0.28323738150E+03  0.32415972760E+03  0.43345580123E+03  0.25500000920E-02 0. -1.
</event>
<event>
 5   0  0.2334946E-03  0.1334622E+04  0.7818609E-02  0.9002551E-01
        2   -1    0    0  501    0  0.00000000000E+00  0.00000000000E+00  0.10089289561E+04  0.10089289562E+04  0.25500000920E-02 0. -1.
       -2   -1    0    0    0  501  0.00000000000E+00  0.00000000000E+00 -0.44136308173E+03  0.44136308174E+03  0.25500000920E-02 0.  1.
    10030    2    1    2    0    0  0.00000000000E+00  0.00000000000E+00  0.56756587442E+03  0.14502920379E+04  0.13346220339E+04 0.  0.
        1    1    3    3  502    0  0.18657136437E+03 -0.11749716610E+03 -0.40063682980E+03  0.45730113434E+03  0.50400001928E-02 0.  1.
       -1    1    3    3    0  502 -0.18657136437E+03  0.11749716610E+03  0.96820270422E+03  0.99299090355E+03  0.50400001928E-02 0. -1.
</event>
<event>
 5   0  0.2312105E-03  0.1311866E+04  0.7818609E-02  0.9020208E-01
        2   -1    0    0  501    0  0.00000000000E+00  0.00000000000E+00  0.18740326521E+04  0.18740326521E+04  0.25500000920E-02 0. -1.
       -2   -1    0    0    0  501  0.00000000000E+00  0.00000000000E+00 -0.22958393388E+03  0.22958393390E+03  0.25500000920E-02 0.  1.
    10030    2    1    2    0    0  0.00000000000E+00  0.00000000000E+00  0.16444487182E+04  0.21036165860E+04  0.13118655244E+04 0.  0.
        5    1    3    3  502    0  0.31987279013E+03  0.15128587698E+03  0.17078316799E+04  0.17441092727E+04  0.46999998093E+01 0. -1.
       -5    1    3    3    0  502 -0.31987279013E+03 -0.15128587698E+03 -0.63382961690E+02  0.35950731324E+03  0.46999998093E+01 0.  1.
</event>
<event>
 5   0  0.1310461E-03  0.1306393E+04  0.7818609E-02  0.9024510E-01
       -1   -1    0    0    0  501  0.00000000000E+00  0.00000000000E+00  0.38394996241E+03  0.38394996245E+03  0.50400001928E-02 0. -1.
        1   -1    0    0  501    0  0.00000000000E+00  0.00000000000E+00 -0.11112540143E+04  0.11112540143E+04  0.50400001928E-02 0.  1.
    10030    2    1    2    0    0  0.00000000000E+00  0.00000000000E+00 -0.72730405186E+03  0.14952039767E+04  0.13063934125E+04 0.  0.
        4    1    3    3  502    0 -0.29055220182E+03 -0.12469997504E+03 -0.10178313501E+04  0.10658109287E+04  0.12699999809E+01 0.  1.
       -4    1    3    3    0  502  0.29055220182E+03  0.12469997504E+03  0.29052729820E+03  0.42939304799E+03  0.12699999809E+01 0. -1.
</event>
<event>
 5   0  0.1324721E-03  0.1329839E+04  0.7818609E-02  0.9006232E-01
        1   -1    0    0  501    0  0.00000000000E+00  0.00000000000E+00  0.24859269984E+04  0.24859269984E+04  0.50400001928E-02 0.  1.
       -1   -1    0    0    0  501  0.00000000000E+00  0.00000000000E+00 -0.17784820096E+03  0.17784820103E+03  0.50400001928E-02 0. -1.
    10030    2    1    2    0    0  0.00000000000E+00  0.00000000000E+00  0.23080787975E+04  0.26637751995E+04  0.13298385533E+04 0.  0.
        1    1    3    3  502    0 -0.13731082202E+01 -0.66447043598E+03  0.12028915479E+04  0.13742164756E+04  0.50400001928E-02 0. -1.
       -1    1    3    3    0  502  0.13731082202E+01  0.66447043598E+03  0.11051872496E+04  0.12895587239E+04  0.50400001928E-02 0.  1.
</event>
<event>
 5   0  0.1387622E-03  0.1314499E+04  0.7818609E-02  0.9018145E-01
        1   -1    0    0  501    0  0.00000000000E+00  0.00000000000E+00  0.65155369730E+03  0.65155369732E+03  0.50400001928E-02 0.  1.
       -1   -1    0    0    0  501  0.00000000000E+00  0.00000000000E+00 -0.66299551126E+03  0.66299551128E+03  0.50400001928E-02 0. -1.
    10030    2    1    2    0    0  0.00000000000E+00  0.00000000000E+00 -0.11441813961E+02  0.13145492086E+04  0.13144994130E+04 0.  0.
        3    1    3    3  502    0  0.85952962480E+02 -0.20476905031E+03  0.61289681256E+03  0.65189016618E+03  0.10100000352E+00 0.  1.
       -3    1    3    3    0  502 -0.85952962480E+02  0.20476905031E+03 -0.62433862652E+03  0.66265904241E+03  0.10100000352E+00 0. -1.
</event>
<event>
 5   0  0.2478236E-03  0.1275674E+04  0.7818609E-02  0.9049081E-01
        2   -1    0    0  501    0  0.00000000000E+00  0.00000000000E+00  0.14456263173E+04  0.14456263173E+04  0.25500000920E-02 0.  1.
       -2   -1    0    0    0  501  0.00000000000E+00  0.00000000000E+00 -0.28142546478E+03  0.28142546479E+03  0.25500000920E-02 0. -1.
    10030    2    1    2    0    0  0.00000000000E+00  0.00000000000E+00  0.11642008526E+04  0.17270517821E+04  0.12756740309E+04 0.  0.
        3    1    3    3  502    0  0.24898330774E+03  0.37555362757E+03 -0.29081852405E+02  0.45152959931E+03  0.10100000352E+00 0. -1.
       -3    1    3    3    0  502 -0.24898330774E+03 -0.37555362757E+03  0.11932827050E+04  0.12755221828E+04  0.10100000352E+00 0.  1.
</event>
<event>
 5   0  0.2361043E-03  0.1072676E+04  0.7818609E-02  0.9232240E-01
        2   -1    0    0  501    0  0.00000000000E+00  0.00000000000E+00  0.62627147479E+03  0.62627147480E+03  0.25500000920E-02 0. -1.
       -2   -1    0    0    0  501  0.00000000000E+00  0.00000000000E+00 -0.45931923968E+03  0.45931923969E+03  0.25500000920E-02 0.  1.
    10030    2    1    2    0    0  0.00000000000E+00  0.00000000000E+00  0.16695223511E+03  0.10855907145E+04  0.10726761630E+04 0.  0.
        2    1    3    3  502    0 -0.52333320480E+03 -0.10344655367E+03  0.27312891799E+02  0.53415805412E+03  0.25500000920E-02 0.  1.
       -2    1    3    3    0  502  0.52333320480E+03  0.10344655367E+03  0.13963934332E+03  0.55143266037E+03  0.25500000920E-02 0. -1.
</event>
<event>
 5   0  0.9131250E-04  0.1299268E+04  0.7818609E-02  0.9030146E-01
       -4   -1    0    0    0  501  0.00000000000E+00  0.00000000000E+00  0.28861956829E+03  0.28862236244E+03  0.12699999809E+01 0.  1.
        4   -1    0    0  501    0  0.00000000000E+00  0.00000000000E+00 -0.14622059430E+04  0.14622064945E+04  0.12699999809E+01 0. -1.
    10030    2    1    2    0    0  0.00000000000E+00  0.00000000000E+00 -0.11735863747E+04  0.17508288569E+04  0.12992677582E+04 0.  0.
        1    1    3    3  502    0  0.39909244065E+03 -0.51003901984E+03 -0.51795460555E+03  0.82927169937E+03  0.50400001928E-02 0.  1.
       -1    1    3    3    0  502 -0.39909244065E+03  0.51003901984E+03 -0.65563176912E+03  0.92155715756E+03  0.50400001928E-02 0. -1.
</event>
<event>
 5   0  0.1346593E-03  0.1404563E+04  0.7818609E-02  0.8950522E-01
       -1   -1    0    0    0  501  0.00000000000E+00  0.00000000000E+00  0.30126057670E+03  0.30126057674E+03  0.50400001928E-02 0.  1.
        1   -1    0    0  501    0  0.00000000000E+00  0.00000000000E+00 -0.16371194528E+04  0.16371194528E+04  0.50400001928E-02 0. -1.
    10030    2    1    2    0    0  0.00000000000E+00  0.00000000000E+00 -0.13358588761E+04  0.19383800296E+04  0.14045633493E+04 0.  0.
        2    1    3    3  502    0  0.48433520462E+02 -0.58850650830E+03 -0.11925584545E+04  0.13307446726E+04  0.25500000920E-02 0. -1.
       -2    1    3    3    0  502 -0.48433520462E+02  0.58850650830E+03 -0.14330042164E+03  0.60763535699E+03  0.25500000920E-02 0.  1.
</event>
<event>
 5   0  0.2401211E-03  0.1330624E+04  0.7818609E-02  0.9005626E-01
       -2   -1    0    0    0  501  0.00000000000E+00  0.00000000000E+00  0.68716516860E+03  0.68716516860E+03  0.25500000920E-02 0. -1.
        2   -1    0    0  501    0  0.00000000000E+00  0.00000000000E+00 -0.64415421638E+03  0.64415421638E+03  0.25500000920E-02 0.  1.
    10030    2    1    2    0    0  0.00000000000E+00  0.00000000000E+00  0.43010952218E+02  0.13313193850E+04  0.13306244259E+04 0.  0.
        4    1    3    3  502    0 -0.40470992738E+03  0.28127155519E+03  0.46865601505E+03  0.68010579061E+03  0.12699999809E+01 0. -1.
       -4    1    3    3    0  502  0.40470992738E+03 -0.28127155519E+03 -0.42564506284E+03  0.65121359437E+03  0.12699999809E+01 0.  1.
</event>
<event>
 5   0  0.1387622E-03  0.1294305E+04  0.7818609E-02  0.9034094E-01
       -1   -1    0    0    0  501  0.00000000000E+00  0.00000000000E+00  0.88766146053E+03  0.88766146054E+03  0.50400001928E-02 0.  1.
        1   -1    0    0  501    0  0.00000000000E+00  0.00000000000E+00 -0.47180861985E+03  0.47180861988E+03  0.50400001928E-02 0. -1.
    10030    2    1    2    0    0  0.00000000000E+00  0.00000000000E+00  0.41585284068E+03  0.13594700804E+04  0.12943049542E+04 0.  0.
        3    1    3    3  502    0  0.28392660674E+03  0.10221287738E+03  0.80923965866E+03  0.86367275380E+03  0.10100000352E+00 0.  1.
       -3    1    3    3    0  502 -0.28392660674E+03 -0.10221287738E+03 -0.39338681798E+03  0.49579732661E+03  0.10100000352E+00 0. -1.
</event>
<event>
 5   0  0.2334946E-03  0.1648052E+04  0.7818609E-02  0.8791560E-01
       -2   -1    0    0    0  501  0.00000000000E+00  0.00000000000E+00  0.78197184742E+03  0.78197184743E+03  0.25500000920E-02 0. -1.
        2   -1    0    0  501    0  0.00000000000E+00  0.00000000000E+00 -0.86834195095E+03  0.86834195095E+03  0.25500000920E-02 0.  1.
    10030    2    1    2    0    0  0.00000000000E+00  0.00000000000E+00 -0.86370103528E+02  0.16503137984E+04  0.16480521346E+04 0.  0.
        1    1    3    3  502    0  0.13881118493E+03 -0.80642989118E+03  0.54011248998E+02  0.82007007596E+03  0.50400001928E-02 0.  1.
       -1    1    3    3    0  502 -0.13881118493E+03  0.80642989118E+03 -0.14038135253E+03  0.83024372242E+03  0.50400001928E-02 0. -1.
</event>
<event>
 5   0  0.9131250E-04  0.1317641E+04  0.7818609E-02  0.9015692E-01
       -4   -1    0    0    0  501  0.00000000000E+00  0.00000000000E+00  0.32564621452E+03  0.32564869097E+03  0.12699999809E+01 0. -1.
        4   -1    0    0  501    0  0.00000000000E+00  0.00000000000E+00 -0.13328632481E+04  0.13328638531E+04  0.12699999809E+01 0.  1.
    10030    2    1    2    0    0  0.00000000000E+00  0.00000000000E+00 -0.10072170336E+04  0.16585125441E+04  0.13176409626E+04 0.  0.
        3    1    3    3  502    0  0.65892268315E+02  0.22489372592E+03  0.27141188512E+03  0.35858527656E+03  0.10100000352E+00 0. -1.
       -3    1    3    3    0  502 -0.65892268315E+02 -0.22489372592E+03 -0.12786289187E+04  0.12999272675E+04  0.10100000352E+00 0.  1.
</event>
<event>
 5   0  0.1310461E-03  0.1341123E+04  0.7818609E-02  0.8997575E-01
        1   -1    0    0  501    0  0.00000000000E+00  0.00000000000E+00  0.98971542321E+03  0.98971542322E+03  0.50400001928E-02 0. -1.
       -1   -1    0    0    0  501  0.00000000000E+00  0.00000000000E+00 -0.45432500769E+03  0.45432500772E+03  0.50400001928E-02 0.  1.
    10030    2    1    2    0    0  0.00000000000E+00  0.00000000000E+00  0.53539041551E+03  0.14440404309E+04  0.13411226153E+04 0.  0.
        4    1    3    3  502    0  0.17087037929E+03  0.19434526776E+03 -0.39839196064E+03  0.47506266621E+03  0.12699999809E+01 0.  1.
       -4    1    3    3    0  502 -0.17087037929E+03 -0.19434526776E+03  0.93378237616E+03  0.96897776473E+03  0.12699999809E+01 0. -1.
</event>
<event>
 5   0  0.2401211E-03  0.1290698E+04  0.7818609E-02  0.9036974E-01
       -2   -1    0    0    0  501  0.00000000000E+00  0.00000000000E+00  0.53985745014E+03  0.53985745015E+03  0.25500000920E-02 0. -1.
        2   -1    0    0  501    0  0.00000000000E+00  0.00000000000E+00 -0.77145454825E+03  0.77145454825E+03  0.25500000920E-02 0.  1.
    10030    2    1    2    0    0  0.00000000000E+00  0.00000000000E+00 -0.23159709810E+03  0.13113119984E+04  0.12906982379E+04 0.  0.
        4    1    3    3  502    0 -0.40271273184E+03 -0.10689414888E+03 -0.61648775235E+03  0.74408511956E+03  0.12699999809E+01 0.  1.
       -4    1    3    3    0  502  0.40271273184E+03  0.10689414888E+03  0.38489065425E+03  0.56722687884E+03  0.12699999809E+01 0. -1.
</event>
<event>
 5   0  0.2361043E-03  0.1309250E+04  0.7818609E-02  0.9022262E-01
       -2   -1    0    0    0  501  0.00000000000E+00  0.00000000000E+00  0.40096451713E+03  0.40096451714E+03  0.25500000920E-02 0.  1.
        2   -1    0    0  501    0  0.00000000000E+00  0.00000000000E+00 -0.10687575860E+04  0.10687575860E+04  0.25500000920E-02 0. -1.
    10030    2    1    2    0    0  0.00000000000E+00  0.00000000000E+00 -0.66779306891E+03  0.14697221032E+04  0.13092499676E+04 0.  0.
        2    1    3    3  502    0 -0.38906399696E+03  0.31917970262E+03  0.13609279172E+03  0.52131346065E+03  0.25500000920E-02 0.  1.
       -2    1    3    3    0  502  0.38906399696E+03 -0.31917970262E+03 -0.80388586063E+03  0.94840864253E+03  0.25500000920E-02 0. -1.
</event>
<event>
 5   0  0.1332630E-03  0.1273337E+04  0.7818609E-02  0.9050981E-01
        1   -1    0    0  501    0  0.00000000000E+00  0.00000000000E+00  0.13792404592E+04  0.13792404592E+04  0.50400001928E-02 0. -1.
       -1   -1    0    0    0  501  0.00000000000E+00  0.00000000000E+00 -0.29389109389E+03  0.29389109393E+03  0.50400001928E-02 0.  1.
    10030    2    1    2    0    0  0.00000000000E+00  0.00000000000E+00  0.10853493653E+04  0.16731315532E+04  0.12733365421E+04 0.  0.
        5    1    3    3  502    0 -0.41272275893E+03 -0.11432748717E+03 -0.76308421709E+02  0.43503553336E+03  0.46999998093E+01 0.  1.
       -5    1    3    3    0  502  0.41272275893E+03  0.11432748717E+03  0.11616577870E+04  0.12380960198E+04  0.46999998093E+01 0. -1.
</event>
<event>
 5   0  0.2312105E-03  0.1298243E+04  0.7818609E-02  0.9030960E-01
        2   -1    0    0  501    0  0.00000000000E+00  0.00000000000E+00  0.11582624443E+04  0.11582624443E+04  0.25500000920E-02 0. -1.
       -2   -1    0    0    0  501  0.00000000000E+00  0.00000000000E+00 -0.36378517015E+03  0.36378517016E+03  0.25500000920E-02 0.  1.
    10030    2    1    2    0    0  0.00000000000E+00  0.00000000000E+00  0.79447727411E+03  0.15220476144E+04  0.12982429671E+04 0.  0.
        5    1    3    3  502    0 -0.56560875343E+01 -0.13983574757E+03  0.11403442092E+04  0.11489094973E+04  0.46999998093E+01 0. -1.
       -5    1    3    3    0  502  0.56560875343E+01  0.13983574757E+03 -0.34586693510E+03  0.37313811708E+03  0.46999998093E+01 0.  1.
</event>
<event>
 5   0  0.2361043E-03  0.1287679E+04  0.7818609E-02  0.9039394E-01
        2   -1    0    0  501    0  0.00000000000E+00  0.00000000000E+00  0.92163978207E+03  0.92163978208E+03  0.25500000920E-02 0. -1.
       -2   -1    0    0    0  501  0.00000000000E+00  0.00000000000E+00 -0.44977346676E+03  0.44977346676E+03  0.25500000920E-02 0.  1.
    10030    2    1    2    0    0  0.00000000000E+00  0.00000000000E+00  0.47186631532E+03  0.13714132488E+04  0.12876787175E+04 0.  0.
        2    1    3    3  502    0  0.53737780389E+02 -0.55571744693E+03 -0.10557300539E+03  0.56820356329E+03  0.25500000920E-02 0.  1.
       -2    1    3    3    0  502 -0.53737780389E+02  0.55571744693E+03  0.57743932070E+03  0.80320968555E+03  0.25500000920E-02 0. -1.
</event>
<event>
 5   0  0.2312105E-03  0.1280968E+04  0.7818609E-02  0.9044796E-01
       -2   -1    0    0    0  501  0.00000000000E+00  0.00000000000E+00  0.13770933643E+03  0.13770933646E+03  0.25500000920E-02 0.  1.
        2   -1    0    0  501    0  0.00000000000E+00  0.00000000000E+00 -0.29788792436E+04  0.29788792436E+04  0.25500000920E-02 0. -1.
    10030    2    1    2    0    0  0.00000000000E+00  0.00000000000E+00 -0.28411699072E+04  0.31165885801E+04  0.12809675780E+04 0.  0.
        5    1    3    3  502    0  0.15761370546E+03 -0.17277971387E+03 -0.28712350036E+04  0.28807477234E+04  0.46999998093E+01 0. -1.
       -5    1    3    3    0  502 -0.15761370546E+03  0.17277971387E+03  0.30065096424E+02  0.23584085672E+03  0.46999998093E+01 0.  1.
</event>
<event>
 5   0  0.1387622E-03  0.1315399E+04  0.7818609E-02  0.9017442E-01
        1   -1    0    0  501    0  0.00000000000E+00  0.00000000000E+00  0.54305479898E+03  0.54305479900E+03  0.50400001928E-02 0. -1.
       -1   -1    0    0    0  501  0.00000000000E+00  0.00000000000E+00 -0.79654711590E+03  0.79654711592E+03  0.50400001928E-02 0.  1.
    10030    2    1    2    0    0  0.00000000000E+00  0.00000000000E+00 -0.25349231692E+03  0.13396019149E+04  0.13153991545E+04 0.  0.
        3    1    3    3  502    0  0.64630109729E+03 -0.76377981885E+02 -0.22352101573E+03  0.68811362372E+03  0.10100000352E+00 0.  1.
       -3    1    3    3    0  502 -0.64630109729E+03  0.76377981885E+02 -0.29971301198E+02  0.65148829120E+03  0.10100000352E+00 0. -1.
</event>
<event>
 5   0  0.2334946E-03  0.1309206E+04  0.7818609E-02  0.9022296E-01
        2   -1    0    0  501    0  0.00000000000E+00  0.00000000000E+00  0.11030382817E+04  0.11030382817E+04  0.25500000920E-02 0.  1.
       -2   -1    0    0    0  501  0.00000000000E+00  0.00000000000E+00 -0.38847724740E+03  0.38847724741E+03  0.25500000920E-02 0. -1.
    10030    2    1    2    0    0  0.00000000000E+00  0.00000000000E+00  0.71456103428E+03  0.14915155291E+04  0.13092062870E+04 0.  0.
        1    1    3    3  502    0  0.66783180483E+02 -0.33332810142E+03 -0.28002637032E+03  0.44043431348E+03  0.50400001928E-02 0. -1.
       -1    1    3    3    0  502 -0.66783180483E+02  0.33332810142E+03  0.99458740460E+03  0.10510812156E+04  0.50400001928E-02 0.  1.
</event>
<event>
 5   0  0.1387622E-03  0.1290378E+04  0.7818609E-02  0.9037230E-01
       -1   -1    0    0    0  501  0.00000000000E+00  0.00000000000E+00  0.23072782037E+03  0.23072782042E+03  0.50400001928E-02 0. -1.
        1   -1    0    0  501    0  0.00000000000E+00  0.00000000000E+00 -0.18041562791E+04  0.18041562791E+04  0.50400001928E-02 0.  1.
    10030    2    1    2    0    0  0.00000000000E+00  0.00000000000E+00 -0.15734284587E+04  0.20348840995E+04  0.12903783103E+04 0.  0.
        3    1    3    3  502    0  0.39815960701E+03 -0.50533798613E+03 -0.70991928683E+03  0.95806208404E+03  0.10100000352E+00 0. -1.
       -3    1    3    3    0  502 -0.39815960701E+03  0.50533798613E+03 -0.86350917190E+03  0.10768220155E+04  0.10100000352E+00 0.  1.
</event>
<event>
 5   0  0.2361043E-03  0.1301468E+04  0.7818609E-02  0.9028402E-01
       -2   -1    0    0    0  501  0.00000000000E+00  0.00000000000E+00  0.57070326814E+03  0.57070326815E+03  0.25500000920E-02 0.  1.
        2   -1    0    0  501    0  0.00000000000E+00  0.00000000000E+00 -0.74198714475E+03  0.74198714475E+03  0.25500000920E-02 0. -1.
    10030    2    1    2    0    0  0.00000000000E+00  0.00000000000E+00 -0.17128387661E+03  0.13126904129E+04  0.13014676153E+04 0.  0.
        2    1    3    3  502    0  0.25929274240E+03 -0.44565599558E+03 -0.48606978389E+03  0.70859426154E+03  0.25500000920E-02 0. -1.
       -2    1    3    3    0  502 -0.25929274240E+03  0.44565599558E+03  0.31478590729E+03  0.60409615137E+03  0.25500000920E-02 0.  1.
</event>
<event>
 5   0  0.2478236E-03  0.1307733E+04  0.7818609E-02  0.9023455E-01
       -2   -1    0    0    0  501  0.00000000000E+00  0.00000000000E+00  0.38365510257E+03  0.38365510258E+03  0.25500000920E-02 0.  1.
        2   -1    0    0  501    0  0.00000000000E+00  0.00000000000E+00 -0.11143898044E+04  0.11143898044E+04  0.25500000920E-02 0. -1.
    10030    2    1    2    0    0  0.00000000000E+00  0.00000000000E+00 -0.73073470184E+03  0.14980449070E+04  0.13077329004E+04 0.  0.
        3    1    3    3  502    0 -0.27705735549E+03  0.50851743957E+03 -0.71318291248E+03  0.91868419026E+03  0.10100000352E+00 0. -1.
       -3    1    3    3    0  502  0.27705735549E+03 -0.50851743957E+03 -0.17551789362E+02  0.57936071673E+03  0.10100000352E+00 0.  1.
</event>
<event>
 5   0  0.2334946E-03  0.1304725E+04  0.7818609E-02  0.9025826E-01
        2   -1    0    0  501    0  0.00000000000E+00  0.00000000000E+00  0.16279851428E+04  0.16279851428E+04  0.25500000920E-02 0.  1.
       -2   -1    0    0    0  501  0.00000000000E+00  0.00000000000E+00 -0.26141334788E+03  0.26141334789E+03  0.25500000920E-02 0. -1.
    10030    2    1    2    0    0  0.00000000000E+00  0.00000000000E+00  0.13665717949E+04  0.18893984907E+04  0.13047253297E+04 0.  0.
        1    1    3    3  502    0  0.60010770387E+03 -0.24463900041E+03  0.79164889800E+03  0.10230764754E+04  0.50400001928E-02 0.  1.
       -1    1    3    3    0  502 -0.60010770387E+03  0.24463900041E+03  0.57492289691E+03  0.86632201529E+03  0.50400001928E-02 0. -1.
</event>
<event>
 5   0  0.2312105E-03  0.1303046E+04  0.7818609E-02  0.9027153E-01
       -2   -1    0    0    0  501  0.00000000000E+00  0.00000000000E+00  0.37519487781E+03  0.37519487782E+03  0.25500000920E-02 0.  1.
        2   -1    0    0  501    0  0.00000000000E+00  0.00000000000E+00 -0.11313644128E+04  0.11313644128E+04  0.25500000920E-02 0. -1.
    10030    2    1    2    0    0  0.00000000000E+00  0.00000000000E+00 -0.75616953503E+03  0.15065592907E+04  0.13030458666E+04 0.  0.
        5    1    3    3  502    0  0.37889898587E+02  0.64516628412E+03 -0.28284965476E+03  0.70547940847E+03  0.46999998093E+01 0. -1.
       -5    1    3    3    0  502 -0.37889898587E+02 -0.64516628412E+03 -0.47331988028E+03  0.80107988219E+03  0.46999998093E+01 0.  1.
</event>
<event>
 5   0  0.1310461E-03  0.1294335E+04  0.7818609E-02  0.9034069E-01
        1   -1    0    0  501    0  0.00000000000E+00  0.00000000000E+00  0.47405968371E+03  0.47405968374E+03  0.50400001928E-02 0.  1.
       -1   -1    0    0    0  501  0.00000000000E+00  0.00000000000E+00 -0.88348798429E+03  0.88348798431E+03  0.50400001928E-02 0. -1.
    10030    2    1    2    0    0  0.00000000000E+00  0.00000000000E+00 -0.40942830058E+03  0.13575476680E+04  0.12943354039E+04 0.  0.
        4    1    3    3  502    0 -0.73150424371E+02  0.54329239532E+03 -0.56546979059E+03  0.78757558899E+03  0.12699999809E+01 0. -1.
       -4    1    3    3    0  502  0.73150424371E+02 -0.54329239532E+03  0.15604149001E+03  0.56997207906E+03  0.12699999809E+01 0.  1.
</event>
<event>
 5   0  0.1332630E-03  0.1289460E+04  0.7818609E-02  0.9037966E-01
       -1   -1    0    0    0  501  0.00000000000E+00  0.00000000000E+00  0.34737905141E+03  0.34737905144E+03  0.50400001928E-02 0. -1.
        1   -1    0    0  501    0  0.00000000000E+00  0.00000000000E+00 -0.11966081397E+04  0.11966081397E+04  0.50400001928E-02 0.  1.
    10030    2    1    2    0    0  0.00000000000E+00  0.00000000000E+00 -0.84922908825E+03  0.15439871911E+04  0.12894597326E+04 0.  0.
        5    1    3    3  502    0 -0.13096345132E+01  0.60889711268E+03 -0.17090017691E+03  0.63244475604E+03  0.46999998093E+01 0. -1.
       -5    1    3    3    0  502  0.13096345132E+01 -0.60889711268E+03 -0.67832891134E+03  0.91154243507E+03  0.46999998093E+01 0.  1.
</event>
<event>
 5   0  0.9131250E-04  0.1291469E+04  0.7818609E-02  0.9036358E-01
        3   -1    0    0  501    0  0.00000000000E+00  0.00000000000E+00  0.31805008209E+03  0.31805009813E+03  0.10100000352E+00 0.  1.
       -3   -1    0    0    0  501  0.00000000000E+00  0.00000000000E+00 -0.13110290630E+04  0.13110290669E+04  0.10100000352E+00 0. -1.
    10030    2    1    2    0    0  0.00000000000E+00  0.00000000000E+00 -0.99297898092E+03  0.16290791650E+04  0.12914688031E+04 0.  0.
        3    1    3    3  502    0 -0.11402073082E+03 -0.81329896137E+02  0.29866047951E+03  0.32986871826E+03  0.10100000352E+00 0.  1.
       -3    1    3    3    0  502  0.11402073082E+03  0.81329896137E+02 -0.12916394604E+04  0.12992104468E+04  0.10100000352E+00 0. -1.
</event>
<event>
 5   0  0.2401211E-03  0.1274155E+04  0.7818609E-02  0.9050315E-01
       -2   -1    0    0    0  501  0.00000000000E+00  0.00000000000E+00  0.43614093472E+03  0.43614093473E+03  0.25500000920E-02 0. -1.
        2   -1    0    0  501    0  0.00000000000E+00  0.00000000000E+00 -0.93058819477E+03  0.93058819477E+03  0.25500000920E-02 0.  1.
    10030    2    1    2    0    0  0.00000000000E+00  0.00000000000E+00 -0.49444726005E+03  0.13667291295E+04  0.12741547867E+04 0.  0.
        4    1    3    3  502    0  0.78341685365E+02 -0.14984633814E+03 -0.90607745512E+03  0.92172084293E+03  0.12699999809E+01 0.  1.
       -4    1    3    3    0  502 -0.78341685365E+02  0.14984633814E+03  0.41163019507E+03  0.44500828657E+03  0.12699999809E+01 0. -1.
</event>
<event>
 5   0  0.1310461E-03  0.1322170E+04  0.7818609E-02  0.9012167E-01
       -1   -1    0    0    0  501  0.00000000000E+00  0.00000000000E+00  0.11769340567E+04  0.11769340567E+04  0.50400001928E-02 0.  1.
        1   -1    0    0  501    0  0.00000000000E+00  0.00000000000E+00 -0.37133190078E+03  0.37133190081E+03  0.50400001928E-02 0. -1.
    10030    2    1    2    0    0  0.00000000000E+00  0.00000000000E+00  0.80560215594E+03  0.15482659575E+04  0.13221696720E+04 0.  0.
        4    1    3    3  502    0 -0.31072615394E+03 -0.57703502328E+03  0.50428995178E+03  0.82694022106E+03  0.12699999809E+01 0.  1.
       -4    1    3    3    0  502  0.31072615394E+03  0.57703502328E+03  0.30131220417E+03  0.72132573649E+03  0.12699999809E+01 0. -1.
</event>
<event>
 5   0  0.9131250E-04  0.1341051E+04  0.7818609E-02  0.8997630E-01
       -3   -1    0    0    0  501  0.00000000000E+00  0.00000000000E+00  0.18298151953E+04  0.18298151981E+04  0.10100000352E+00 0. -1.
        3   -1    0    0  501    0  0.00000000000E+00  0.00000000000E+00 -0.24571026805E+03  0.24571028881E+03  0.10100000352E+00 0.  1.
    10030    2    1    2    0    0  0.00000000000E+00  0.00000000000E+00  0.15841049272E+04  0.20755254869E+04  0.13410509410E+04 0.  0.
        3    1    3    3  502    0  0.64689969609E+03 -0.14755017888E+03  0.94173955970E+03  0.11520085419E+04  0.10100000352E+00 0.  1.
       -3    1    3    3    0  502 -0.64689969609E+03  0.14755017888E+03  0.64236536753E+03  0.92351694499E+03  0.10100000352E+00 0. -1.
</event>
<event>
 5   0  0.1324721E-03  0.1291950E+04  0.7818609E-02  0.9035973E-01
       -1   -1    0    0    0  501  0.00000000000E+00  0.00000000000E+00  0.78312856350E+03  0.78312856352E+03  0.50400001928E-02 0.  1.
        1   -1    0    0  501    0  0.00000000000E+00  0.00000000000E+00 -0.53284178186E+03  0.53284178189E+03  0.50400001928E-02 0. -1.
    10030    2    1    2    0    0  0.00000000000E+00  0.00000000000E+00  0.25028678164E+03  0.13159703454E+04  0.12919498740E+04 0.  0.
        1    1    3    3  502    0 -0.39579307688E+03 -0.18681064838E+03 -0.35880405000E+03  0.56594233308E+03  0.50400001928E-02 0. -1.
       -1    1    3    3    0  502  0.39579307688E+03  0.18681064838E+03  0.60909083164E+03  0.75002801232E+03  0.50400001928E-02 0.  1.
</event>
<event>
 5   0  0.2334946E-03  0.1296505E+04  0.7818609E-02  0.9032341E-01
        2   -1    0    0  501    0  0.00000000000E+00  0.00000000000E+00  0.36814870412E+03  0.36814870413E+03  0.25500000920E-02 0. -1.
       -2   -1    0    0    0  501  0.00000000000E+00  0.00000000000E+00 -0.11414724418E+04  0.11414724418E+04  0.25500000920E-02 0.  1.
    10030    2    1    2    0    0  0.00000000000E+00  0.00000000000E+00 -0.77332373769E+03  0.15096211459E+04  0.12965054574E+04 0.  0.
        1    1    3    3  502    0  0.18605068667E+02 -0.26681737705E+03  0.30090639168E+03  0.40259448314E+03  0.50400001928E-02 0. -1.
       -1    1    3    3    0  502 -0.18605068667E+02  0.26681737705E+03 -0.10742301294E+04  0.11070266628E+04  0.50400001928E-02 0.  1.
</event>
<event>
 5   0  0.1332630E-03  0.1306324E+04  0.7818609E-02  0.9024565E-01
        1   -1    0    0  501    0  0.00000000000E+00  0.00000000000E+00  0.10484899594E+04  0.10484899594E+04  0.50400001928E-02 0. -1.
       -1   -1    0    0    0  501  0.00000000000E+00  0.00000000000E+00 -0.40689071767E+03  0.40689071771E+03  0.50400001928E-02 0.  1.
    10030    2    1    2    0    0  0.00000000000E+00  0.00000000000E+00  0.64159924170E+03  0.14553806771E+04  0.13063243580E+04 0.  0.
        5    1    3    3  502    0 -0.50221694182E+03  0.29503650671E+03  0.65003626621E+03  0.87283310794E+03  0.46999998093E+01 0. -1.
       -5    1    3    3    0  502  0.50221694182E+03 -0.29503650671E+03 -0.84370245079E+01  0.58254756915E+03  0.46999998093E+01 0.  1.
</event>
<event>
 5   0  0.2401211E-03  0.1274868E+04  0.7818609E-02  0.9049736E-01
        2   -1    0    0  501    0  0.00000000000E+00  0.00000000000E+00  0.34528619895E+03  0.34528619896E+03  0.25500000920E-02 0. -1.
       -2   -1    0    0    0  501  0.00000000000E+00  0.00000000000E+00 -0.11767696790E+04  0.11767696790E+04  0.25500000920E-02 0.  1.
    10030    2    1    2    0    0  0.00000000000E+00  0.00000000000E+00 -0.83148348004E+03  0.15220558779E+04  0.12748683532E+04 0.  0.
        4    1    3    3  502    0  0.27138637612E+03 -0.44540875732E+03 -0.85323649157E+03  0.10000268245E+04  0.12699999809E+01 0.  1.
       -4    1    3    3    0  502 -0.27138637612E+03  0.44540875732E+03  0.21753011532E+02  0.52202905346E+03  0.12699999809E+01 0. -1.
</event>
<event>
 5   0  0.2334946E-03  0.1287020E+04  0.7818609E-02  0.9039922E-01
        2   -1    0    0  501    0  0.00000000000E+00  0.00000000000E+00  0.70185886356E+03  0.70185886356E+03  0.25500000920E-02 0. -1.
       -2   -1    0    0    0  501  0.00000000000E+00  0.00000000000E+00 -0.59001168685E+03  0.59001168685E+03  0.25500000920E-02 0.  1.
    10030    2    1    2    0    0  0.00000000000E+00  0.00000000000E+00  0.11184717671E+03  0.12918705504E+04  0.12870197077E+04 0.  0.
        1    1    3    3  502    0  0.21935340342E+03 -0.42117456913E+03 -0.37999540806E+03  0.60819441254E+03  0.50400001928E-02 0.  1.
       -1    1    3    3    0  502 -0.21935340342E+03  0.42117456913E+03  0.49184258477E+03  0.68367613787E+03  0.50400001928E-02 0. -1.
</event>
<event>
 5   0  0.2478236E-03  0.1304822E+04  0.7818609E-02  0.9025750E-01
        2   -1    0    0  501    0  0.00000000000E+00  0.00000000000E+00  0.11891111890E+04  0.11891111890E+04  0.25500000920E-02 0.  1.
       -2   -1    0    0    0  501  0.00000000000E+00  0.00000000000E+00 -0.35794832000E+03  0.35794832001E+03  0.25500000920E-02 0. -1.
    10030    2    1    2    0    0  0.00000000000E+00  0.00000000000E+00  0.83116286901E+03  0.15470595090E+04  0.13048223671E+04 0.  0.
        3    1    3    3  502    0  0.50771514051E+01 -0.21912180131E+03 -0.31298932154E+03  0.38210269153E+03  0.10100000352E+00 0. -1.
       -3    1    3    3    0  502 -0.50771514051E+01  0.21912180131E+03  0.11441521906E+04  0.11649568175E+04  0.10100000352E+00 0.  1.
</event>
<event>
 5   0  0.2361043E-03  0.1312791E+04  0.7818609E-02  0.9019483E-01
        2   -1    0    0  501    0  0.00000000000E+00  0.00000000000E+00  0.56443930464E+03  0.56443930464E+03  0.25500000920E-02 0.  1.
       -2   -1    0    0    0  501  0.00000000000E+00  0.00000000000E+00 -0.76333328005E+03  0.76333328005E+03  0.25500000920E-02 0. -1.
    10030    2    1    2    0    0  0.00000000000E+00  0.00000000000E+00 -0.19889397541E+03  0.13277725847E+04  0.13127913860E+04 0.  0.
        2    1    3    3  502    0  0.37414633259E+02  0.45732642074E+03 -0.57417308694E+03  0.73499798888E+03  0.25500000920E-02 0. -1.
       -2    1    3    3    0  502 -0.37414633259E+02 -0.45732642074E+03  0.37527911152E+03  0.59277459581E+03  0.25500000920E-02 0.  1.
</event>
<event>
 5   0  0.2334946E-03  0.1297090E+04  0.7818609E-02  0.9031876E-01
       -2   -1    0    0    0  501  0.00000000000E+00  0.00000000000E+00  0.13529578176E+04  0.13529578176E+04  0.25500000920E-02 0.  1.
        2   -1    0    0  501    0  0.00000000000E+00  0.00000000000E+00 -0.31088245542E+03  0.31088245543E+03  0.25500000920E-02 0. -1.
    10030    2    1    2    0    0  0.00000000000E+00  0.00000000000E+00  0.10420753622E+04  0.16638402730E+04  0.12970903568E+04 0.  0.
        1    1    3    3  502    0  0.91445463072E+01 -0.67968127011E+02  0.13482934579E+04  0.13500364949E+04  0.50400001928E-02 0.  1.
       -1    1    3    3    0  502 -0.91445463072E+01  0.67968127011E+02 -0.30621809569E+03  0.31380377813E+03  0.50400001928E-02 0. -1.
</event>
<event>
 5   0  0.2312105E-03  0.1299412E+04  0.7818609E-02  0.9030032E-01
       -2   -1    0    0    0  501  0.00000000000E+00  0.00000000000E+00  0.17150746194E+03  0.17150746196E+03  0.25500000920E-02 0. -1.
        2   -1    0    0  501    0  0.00000000000E+00  0.00000000000E+00 -0.24612210267E+04  0.24612210267E+04  0.25500000920E-02 0.  1.
    10030    2    1    2    0    0  0.00000000000E+00  0.00000000000E+00 -0.22897135648E+04  0.26327284886E+04  0.12994118232E+04 0.  0.
        5    1    3    3  502    0 -0.15506529170E+03 -0.23921720738E+03  0.37981413777E+02  0.28763656720E+03  0.46999998093E+01 0. -1.
       -5    1    3    3    0  502  0.15506529170E+03  0.23921720738E+03 -0.23276949785E+04  0.23450919215E+04  0.46999998093E+01 0.  1.
</event>
<event>
 5   0  0.2361043E-03  0.1293994E+04  0.7818609E-02  0.9034342E-01
       -2   -1    0    0    0  501  0.00000000000E+00  0.00000000000E+00  0.24198055411E+03  0.24198055413E+03  0.25500000920E-02 0. -1.
        2   -1    0    0  501    0  0.00000000000E+00  0.00000000000E+00 -0.17299121113E+04  0.17299121113E+04  0.25500000920E-02 0.  1.
    10030    2    1    2    0    0  0.00000000000E+00  0.00000000000E+00 -0.14879315572E+04  0.19718926654E+04  0.12939939587E+04 0.  0.
        2    1    3    3  502    0  0.24472753112E+03 -0.30263603774E+03  0.43638840061E+02  0.39164331246E+03  0.25500000920E-02 0. -1.
       -2    1    3    3    0  502 -0.24472753112E+03  0.30263603774E+03 -0.15315703973E+04  0.15802493530E+04  0.25500000920E-02 0.  1.
</event>
<event>
 5   0  0.1387622E-03  0.1238573E+04  0.7818609E-02  0.9079748E-01
        1   -1    0    0  501    0  0.00000000000E+00  0.00000000000E+00  0.82382890191E+03  0.82382890192E+03  0.50400001928E-02 0. -1.
       -1   -1    0    0    0  501  0.00000000000E+00  0.00000000000E+00 -0.46552867470E+03  0.46552867473E+03  0.50400001928E-02 0.  1.
    10030    2    1    2    0    0  0.00000000000E+00  0.00000000000E+00  0.35830022721E+03  0.12893575766E+04  0.12385733356E+04 0.  0.
        3    1    3    3  502    0  0.39361230664E+03  0.23982811780E+03  0.60971219150E+03  0.76432790129E+03  0.10100000352E+00 0. -1.
       -3    1    3    3    0  502 -0.39361230664E+03 -0.23982811780E+03 -0.25141196429E+03  0.52502967536E+03  0.10100000352E+00 0.  1.
</event>
<event>
 5   0  0.1324721E-03  0.1342598E+04  0.7818609E-02  0.8996450E-01
        1   -1    0    0  501    0  0.00000000000E+00  0.00000000000E+00  0.10031606957E+04  0.10031606957E+04  0.50400001928E-02 0. -1.
       -1   -1    0    0    0  501  0.00000000000E+00  0.00000000000E+00 -0.44922271124E+03  0.44922271126E+03  0.50400001928E-02 0.  1.
    10030    2    1    2    0    0  0.00000000000E+00  0.00000000000E+00  0.55393798444E+03  0.14523834070E+04  0.13425983279E+04 0.  0.
        1    1    3    3  502    0  0.24040059078E+03  0.48439811970E+03 -0.15331005659E+03  0.56208358443E+03  0.50400001928E-02 0.  1.
       -1    1    3    3    0  502 -0.24040059078E+03 -0.48439811970E+03  0.70724804103E+03  0.89029982252E+03  0.50400001928E-02 0. -1.
</event>
<event>
 5   0  0.2361043E-03  0.1305451E+04  0.7818609E-02  0.9025254E-01
       -2   -1    0    0    0  501  0.00000000000E+00  0.00000000000E+00  0.10670316525E+04  0.10670316525E+04  0.25500000920E-02 0.  1.
        2   -1    0    0  501    0  0.00000000000E+00  0.00000000000E+00 -0.39928574318E+03  0.39928574319E+03  0.25500000920E-02 0. -1.
    10030    2    1    2    0    0  0.00000000000E+00  0.00000000000E+00  0.66774590930E+03  0.14663173957E+04  0.13054509204E+04 0.  0.
        2    1    3    3  502    0  0.64328959667E+03  0.83353060717E+02  0.41550062126E+03  0.77033110037E+03  0.25500000920E-02 0.  1.
       -2    1    3    3    0  502 -0.64328959667E+03 -0.83353060717E+02  0.25224528804E+03  0.69598629531E+03  0.25500000920E-02 0. -1.
</event>
<event>
 5   0  0.2312105E-03  0.1259299E+04  0.7818609E-02  0.9062479E-01
       -2   -1    0    0    0  501  0.00000000000E+00  0.00000000000E+00  0.39223502966E+03  0.39223502966E+03  0.25500000920E-02 0.  1.
        2   -1    0    0  501    0  0.00000000000E+00  0.00000000000E+00 -0.10107681765E+04  0.10107681765E+04  0.25500000920E-02 0. -1.
    10030    2    1    2    0    0  0.00000000000E+00  0.00000000000E+00 -0.61853314681E+03  0.14030032061E+04  0.12592993062E+04 0.  0.
        5    1    3    3  502    0 -0.32952974700E+03  0.26893828944E+03 -0.82648312991E+03  0.92952359395E+03  0.46999998093E+01 0. -1.
       -5    1    3    3    0  502  0.32952974700E+03 -0.26893828944E+03  0.20794998310E+03  0.47347961218E+03  0.46999998093E+01 0.  1.
</event>
<event>
 5   0  0.2312105E-03  0.1338147E+04  0.7818609E-02  0.8999850E-01
        2   -1    0    0  501    0  0.00000000000E+00  0.00000000000E+00  0.19766050662E+04  0.19766050662E+04  0.25500000920E-02 0. -1.
       -2   -1    0    0    0  501  0.00000000000E+00  0.00000000000E+00 -0.22647880479E+03  0.22647880481E+03  0.25500000920E-02 0.  1.
    10030    2    1    2    0    0  0.00000000000E+00  0.00000000000E+00  0.17501262614E+04  0.22030838710E+04  0.13381467079E+04 0.  0.
        5    1    3    3  502    0  0.56409938409E+03  0.15788094972E+03  0.14072825936E+04  0.15243362154E+04  0.46999998093E+01 0. -1.
       -5    1    3    3    0  502 -0.56409938409E+03 -0.15788094972E+03  0.34284366782E+03  0.67874765560E+03  0.46999998093E+01 0.  1.
</event>
<event>
 5   0  0.1310461E-03  0.1338576E+04  0.7818609E-02  0.8999522E-01
       -1   -1    0    0    0  501  0.00000000000E+00  0.00000000000E+00  0.59924715714E+03  0.59924715716E+03  0.50400001928E-02 0. -1.
        1   -1    0    0  501    0  0.00000000000E+00  0.00000000000E+00 -0.74751487154E+03  0.74751487156E+03  0.50400001928E-02 0.  1.
    10030    2    1    2    0    0  0.00000000000E+00  0.00000000000E+00 -0.14826771440E+03  0.13467620287E+04  0.13385756037E+04 0.  0.
        4    1    3    3  502    0  0.61584314190E+03  0.11951911274E+02  0.18926664739E+03  0.64438272813E+03  0.12699999809E+01 0. -1.
       -4    1    3    3    0  502 -0.61584314190E+03 -0.11951911274E+02 -0.33753436179E+03  0.70237930059E+03  0.12699999809E+01 0.  1.
</event>
<event>
 5   0  0.1332630E-03  0.1292048E+04  0.7818609E-02  0.9035895E-01
       -1   -1    0    0    0  501  0.00000000000E+00  0.00000000000E+00  0.34738670988E+03  0.34738670992E+03  0.50400001928E-02 0. -1.
        1   -1    0    0  501    0  0.00000000000E+00  0.00000000000E+00 -0.12013900707E+04  0.12013900707E+04  0.50400001928E-02 0.  1.
    10030    2    1    2    0    0  0.00000000000E+00  0.00000000000E+00 -0.85400336079E+03  0.15487767806E+04  0.12920479000E+04 0.  0.
        5    1    3    3  502    0 -0.30422172297E+03 -0.32545117610E+03  0.13377374840E+03  0.46517397875E+03  0.46999998093E+01 0. -1.
       -5    1    3    3    0  502  0.30422172297E+03  0.32545117610E+03 -0.98777710919E+03  0.10836028019E+04  0.46999998093E+01 0.  1.
</event>
<event>
 5   0  0.2334946E-03  0.1295445E+04  0.7818609E-02  0.9033185E-01
        2   -1    0    0  501    0  0.00000000000E+00  0.00000000000E+00  0.10759408984E+04  0.10759408984E+04  0.25500000920E-02 0.  1.
       -2   -1    0    0    0  501  0.00000000000E+00  0.00000000000E+00 -0.38993256693E+03  0.38993256694E+03  0.25500000920E-02 0. -1.
    10030    2    1    2    0    0  0.00000000000E+00  0.00000000000E+00  0.68600833149E+03  0.14658734654E+04  0.12954449373E+04 0.  0.
        1    1    3    3  502    0 -0.64642865249E+03 -0.30288916884E+02  0.31187135525E+03  0.71836701170E+03  0.50400001928E-02 0.  1.
       -1    1    3    3    0  502  0.64642865249E+03  0.30288916884E+02  0.37413697624E+03  0.74750645366E+03  0.50400001928E-02 0. -1.
</event>
<event>
 5   0  0.2401211E-03  0.1296746E+04  0.7818609E-02  0.9032150E-01
        2   -1    0    0  501    0  0.00000000000E+00  0.00000000000E+00  0.94500589064E+03  0.94500589064E+03  0.25500000920E-02 0. -1.
       -2   -1    0    0    0  501  0.00000000000E+00  0.00000000000E+00 -0.44485168159E+03  0.44485168159E+03  0.25500000920E-02 0.  1.
    10030    2    1    2    0    0  0.00000000000E+00  0.00000000000E+00  0.50015420905E+03  0.13898575722E+04  0.12967458650E+04 0.  0.
        4    1    3    3  502    0  0.19915538496E+03 -0.46442063487E+03 -0.18533988082E+03  0.53823961000E+03  0.12699999809E+01 0.  1.
       -4    1    3    3    0  502 -0.19915538496E+03  0.46442063487E+03  0.68549408987E+03  0.85161796223E+03  0.12699999809E+01 0. -1.
</event>
<event>
 5   0  0.2361043E-03  0.1201013E+04  0.7818609E-02  0.9111971E-01
       -2   -1    0    0    0  501  0.00000000000E+00  0.00000000000E+00  0.88648383183E+03  0.88648383183E+03  0.25500000920E-02 0.  1.
        2   -1    0    0  501    0  0.00000000000E+00  0.00000000000E+00 -0.40678435811E+03  0.40678435812E+03  0.25500000920E-02 0. -1.
    10030    2    1    2    0    0  0.00000000000E+00  0.00000000000E+00  0.47969947372E+03  0.12932681900E+04  0.12010125004E+04 0.  0.
        2    1    3    3  502    0 -0.35960049566E+03 -0.38532241864E+03 -0.70044567042E+02  0.53168799513E+03  0.25500000920E-02 0. -1.
       -2    1    3    3    0  502  0.35960049566E+03  0.38532241864E+03  0.54974404076E+03  0.76158019482E+03  0.25500000920E-02 0.  1.
</event>
<event>
 5   0  0.2361043E-03  0.1306541E+04  0.7818609E-02  0.9024394E-01
        2   -1    0    0  501    0  0.00000000000E+00  0.00000000000E+00  0.80640922910E+03  0.80640922910E+03  0.25500000920E-02 0. -1.
       -2   -1    0    0    0  501  0.00000000000E+00  0.00000000000E+00 -0.52921329296E+03  0.52921329297E+03  0.25500000920E-02 0.  1.
    10030    2    1    2    0    0  0.00000000000E+00  0.00000000000E+00  0.27719593613E+03  0.13356225221E+04  0.13065412104E+04 0.  0.
        2    1    3    3  502    0 -0.81753850695E+01 -0.30947335712E+03  0.72666030821E+03  0.78985808803E+03  0.25500000920E-02 0. -1.
       -2    1    3    3    0  502  0.81753850695E+01  0.30947335712E+03 -0.44946437208E+03  0.54576443404E+03  0.25500000920E-02 0.  1.
</event>
<event>
 5   0  0.9131250E-04  0.1293496E+04  0.7818609E-02  0.9034739E-01
        4   -1    0    0  501    0  0.00000000000E+00  0.00000000000E+00  0.12669727651E+04  0.12669734017E+04  0.12699999809E+01 0.  1.
       -4   -1    0    0    0  501  0.00000000000E+00  0.00000000000E+00 -0.33014146509E+03  0.33014390782E+03  0.12699999809E+01 0. -1.
    10030    2    1    2    0    0  0.00000000000E+00  0.00000000000E+00  0.93683130005E+03  0.15971173095E+04  0.12934955800E+04 0.  0.
        4    1    3    3  502    0  0.11439218202E+03 -0.67345783537E+02  0.12499712805E+04  0.12570007322E+04  0.12699999809E+01 0.  1.
       -4    1    3    3    0  502 -0.11439218202E+03  0.67345783537E+02 -0.31313998045E+03  0.34011657725E+03  0.12699999809E+01 0. -1.
</event>
<event>
 5   0  0.1324721E-03  0.1308338E+04  0.7818609E-02  0.9022979E-01
        1   -1    0    0  501    0  0.00000000000E+00  0.00000000000E+00  0.19811303298E+04  0.19811303298E+04  0.50400001928E-02 0. -1.
       -1   -1    0    0    0  501  0.00000000000E+00  0.00000000000E+00 -0.21600639563E+03  0.21600639568E+03  0.50400001928E-02 0.  1.
    10030    2    1    2    0    0  0.00000000000E+00  0.00000000000E+00  0.17651239342E+04  0.21971367255E+04  0.13083376046E+04 0.  0.
        1    1    3    3  502    0  0.32289850018E+03 -0.55868442876E+03  0.10630032520E+04  0.12435303157E+04  0.50400001928E-02 0.  1.
       -1    1    3    3    0  502 -0.32289850018E+03  0.55868442876E+03  0.70212068215E+03  0.95360640974E+03  0.50400001928E-02 0. -1.
</event>
<event>
 5   0  0.2312105E-03  0.1307033E+04  0.7818609E-02  0.9024006E-01
        2   -1    0    0  501    0  0.00000000000E+00  0.00000000000E+00  0.92690196265E+03  0.92690196265E+03  0.25500000920E-02 0. -1.
       -2   -1    0    0    0  501  0.00000000000E+00  0.00000000000E+00 -0.46076502077E+03  0.46076502078E+03  0.25500000920E-02 0.  1.
    10030    2    1    2    0    0  0.00000000000E+00  0.00000000000E+00  0.46613694188E+03  0.13876669834E+04  0.13070332851E+04 0.  0.
        5    1    3    3  502    0  0.40408420205E+01  0.47534386199E+03  0.70916821116E+03  0.85376211983E+03  0.46999998093E+01 0. -1.
       -5    1    3    3    0  502 -0.40408420205E+01 -0.47534386199E+03 -0.24303126928E+03  0.53390486360E+03  0.46999998093E+01 0.  1.
</event>
<event>
 5   0  0.2334946E-03  0.1303048E+04  0.7818609E-02  0.9027152E-01
        2   -1    0    0  501    0  0.00000000000E+00  0.00000000000E+00  0.86055960158E+03  0.86055960159E+03  0.25500000920E-02 0. -1.
       -2   -1    0    0    0  501  0.00000000000E+00  0.00000000000E+00 -0.49326437214E+03  0.49326437214E+03  0.25500000920E-02 0.  1.
    10030    2    1    2    0    0  0.00000000000E+00  0.00000000000E+00  0.36729522945E+03  0.13538239737E+04  0.13030477989E+04 0.  0.
        1    1    3    3  502    0 -0.32428095059E+03 -0.56507555400E+03  0.17964052713E+03  0.67582485576E+03  0.50400001928E-02 0. -1.
       -1    1    3    3    0  502  0.32428095059E+03  0.56507555400E+03  0.18765470232E+03  0.67799911797E+03  0.50400001928E-02 0.  1.
</event>
<event>
 5   0  0.1310461E-03  0.1308943E+04  0.7818609E-02  0.9022503E-01
        1   -1    0    0  501    0  0.00000000000E+00  0.00000000000E+00  0.73090498264E+03  0.73090498266E+03  0.50400001928E-02 0.  1.
       -1   -1    0    0    0  501  0.00000000000E+00  0.00000000000E+00 -0.58603133093E+03  0.58603133095E+03  0.50400001928E-02 0. -1.
    10030    2    1    2    0    0  0.00000000000E+00  0.00000000000E+00  0.14487365171E+03  0.13169363136E+04  0.13089434209E+04 0.  0.
        4    1    3    3  502    0 -0.50660506423E+02 -0.61665447152E+02  0.72598984189E+03  0.73036427740E+03  0.12699999809E+01 0.  1.
       -4    1    3    3    0  502  0.50660506423E+02  0.61665447152E+02 -0.58111619017E+03  0.58657203621E+03  0.12699999809E+01 0. -1.
</event>
<event>
 5   0  0.1387622E-03  0.1196000E+04  0.7818609E-02  0.9116365E-01
        1   -1    0    0  501    0  0.00000000000E+00  0.00000000000E+00  0.10468873933E+04  0.10468873933E+04  0.50400001928E-02 0.  1.
       -1   -1    0    0    0  501  0.00000000000E+00  0.00000000000E+00 -0.34158796977E+03  0.34158796980E+03  0.50400001928E-02 0. -1.
    10030    2    1    2    0    0  0.00000000000E+00  0.00000000000E+00  0.70529942349E+03  0.13884753631E+04  0.11960002329E+04 0.  0.
        3    1    3    3  502    0 -0.50167942364E+02  0.31200793905E+03 -0.23673170450E+03  0.39485147409E+03  0.10100000352E+00 0. -1.
       -3    1    3    3    0  502  0.50167942364E+02 -0.31200793905E+03  0.94203112798E+03  0.99362388899E+03  0.10100000352E+00 0.  1.
</event>
<event>
 5   0  0.2312105E-03  0.1316545E+04  0.7818609E-02  0.9016547E-01
       -2   -1    0    0    0  501  0.00000000000E+00  0.00000000000E+00  0.31686477780E+03  0.31686477781E+03  0.25500000920E-02 0. -1.
        2   -1    0    0  501    0  0.00000000000E+00  0.00000000000E+00 -0.13675312259E+04  0.13675312259E+04  0.25500000920E-02 0.  1.
    10030    2    1    2    0    0  0.00000000000E+00  0.00000000000E+00 -0.10506664481E+04  0.16843960037E+04  0.13165446867E+04 0.  0.
        5    1    3    3  502    0 -0.57803953799E+03  0.11166494907E+03 -0.90205628233E+03  0.10771844758E+04  0.46999998093E+01 0.  1.
       -5    1    3    3    0  502  0.57803953799E+03 -0.11166494907E+03 -0.14861016580E+03  0.60721152798E+03  0.46999998093E+01 0. -1.
</event>
<event>
 5   0  0.2312105E-03  0.1463073E+04  0.7818609E-02  0.8909387E-01
        2   -1    0    0  501    0  0.00000000000E+00  0.00000000000E+00  0.31740575128E+03  0.31740575129E+03  0.25500000920E-02 0.  1.
       -2   -1    0    0    0  501  0.00000000000E+00  0.00000000000E+00 -0.16859983130E+04  0.16859983130E+04  0.25500000920E-02 0. -1.
    10030    2    1    2    0    0  0.00000000000E+00  0.00000000000E+00 -0.13685925617E+04  0.20034040643E+04  0.14630728775E+04 0.  0.
        5    1    3    3  502    0 -0.11130278569E+03  0.55825517475E+03 -0.13134150417E+04  0.14314741744E+04  0.46999998093E+01 0. -1.
       -5    1    3    3    0  502  0.11130278569E+03 -0.55825517475E+03 -0.55177520033E+02  0.57192988989E+03  0.46999998093E+01 0.  1.
</event>
<event>
 5   0  0.2361043E-03  0.1302590E+04  0.7818609E-02  0.9027514E-01
        2   -1    0    0  501    0  0.00000000000E+00  0.00000000000E+00  0.12185855943E+04  0.12185855943E+04  0.25500000920E-02 0. -1.
       -2   -1    0    0    0  501  0.00000000000E+00  0.00000000000E+00 -0.34809607251E+03  0.34809607252E+03  0.25500000920E-02 0.  1.
    10030    2    1    2    0    0  0.00000000000E+00  0.00000000000E+00  0.87048952179E+03  0.15666816668E+04  0.13025895123E+04 0.  0.
        2    1    3    3  502    0  0.42798311979E+03  0.41142464979E+02  0.10236344397E+04  0.11102656076E+04  0.25500000920E-02 0. -1.
       -2    1    3    3    0  502 -0.42798311979E+03 -0.41142464979E+02 -0.15314491790E+03  0.45641605924E+03  0.25500000920E-02 0.  1.
</event>
<event>
 5   0  0.2401211E-03  0.1273186E+04  0.7818609E-02  0.9051103E-01
       -2   -1    0    0    0  501  0.00000000000E+00  0.00000000000E+00  0.32107237802E+03  0.32107237803E+03  0.25500000920E-02 0.  1.
        2   -1    0    0  501    0  0.00000000000E+00  0.00000000000E+00 -0.12621786502E+04  0.12621786502E+04  0.25500000920E-02 0. -1.
    10030    2    1    2    0    0  0.00000000000E+00  0.00000000000E+00 -0.94110627214E+03  0.15832510282E+04  0.12731860833E+04 0.  0.
        4    1    3    3  502    0 -0.46774594560E+03 -0.42439801305E+03 -0.56963986878E+03  0.85052403618E+03  0.12699999809E+01 0. -1.
       -4    1    3    3    0  502  0.46774594560E+03  0.42439801305E+03 -0.37146640336E+03  0.73272699202E+03  0.12699999809E+01 0.  1.
</event>
<event>
 5   0  0.1324721E-03  0.1425137E+04  0.7818609E-02  0.8935821E-01
        1   -1    0    0  501    0  0.00000000000E+00  0.00000000000E+00  0.10354311456E+04  0.10354311456E+04  0.50400001928E-02 0. -1.
       -1   -1    0    0    0  501  0.00000000000E+00  0.00000000000E+00 -0.49037948738E+03  0.49037948741E+03  0.50400001928E-02 0.  1.
    10030    2    1    2    0    0  0.00000000000E+00  0.00000000000E+00  0.54505165818E+03  0.15258106330E+04  0.14251374592E+04 0.  0.
        1    1    3    3  502    0 -0.53409380939E+03 -0.43007118767E+03  0.47995619583E+03  0.83700380742E+03  0.50400001928E-02 0. -1.
       -1    1    3    3    0  502  0.53409380939E+03  0.43007118767E+03  0.65095462349E+02  0.68880682556E+03  0.50400001928E-02 0.  1.
</event>
<event>
 5   0  0.1324721E-03  0.1297794E+04  0.7818609E-02  0.9031316E-01
       -1   -1    0    0    0  501  0.00000000000E+00  0.00000000000E+00  0.14073371979E+04  0.14073371979E+04  0.50400001928E-02 0.  1.
        1   -1    0    0  501    0  0.00000000000E+00  0.00000000000E+00 -0.29919429461E+03  0.29919429465E+03  0.50400001928E-02 0. -1.
    10030    2    1    2    0    0  0.00000000000E+00  0.00000000000E+00  0.11081429032E+04  0.17065314925E+04  0.12977939131E+04 0.  0.
        1    1    3    3  502    0 -0.15642557684E+03  0.49274959119E+03  0.10697526428E+04  0.11881253459E+04  0.50400001928E-02 0. -1.
       -1    1    3    3    0  502  0.15642557684E+03 -0.49274959119E+03  0.38390260403E+02  0.51840614660E+03  0.50400001928E-02 0.  1.
</event>
<event>
 5   0  0.1387622E-03  0.1280877E+04  0.7818609E-02  0.9044868E-01
        1   -1    0    0  501    0  0.00000000000E+00  0.00000000000E+00  0.13374392263E+04  0.13374392263E+04  0.50400001928E-02 0. -1.
       -1   -1    0    0    0  501  0.00000000000E+00  0.00000000000E+00 -0.30667694272E+03  0.30667694276E+03  0.50400001928E-02 0.  1.
    10030    2    1    2    0    0  0.00000000000E+00  0.00000000000E+00  0.10307622836E+04  0.16441161691E+04  0.12808774696E+04 0.  0.
        3    1    3    3  502    0  0.43916525209E+03  0.43579520391E+03  0.30299448124E+03  0.68890437962E+03  0.10100000352E+00 0.  1.
       -3    1    3    3    0  502 -0.43916525209E+03 -0.43579520391E+03  0.72776780235E+03  0.95521178947E+03  0.10100000352E+00 0. -1.
</event>
<event>
 5   0  0.2334946E-03  0.1282675E+04  0.7818609E-02  0.9043418E-01
       -2   -1    0    0    0  501  0.00000000000E+00  0.00000000000E+00  0.10304514065E+04  0.10304514065E+04  0.25500000920E-02 0.  1.
        2   -1    0    0  501    0  0.00000000000E+00  0.00000000000E+00 -0.39915860355E+03  0.39915860356E+03  0.25500000920E-02 0. -1.
    10030    2    1    2    0    0  0.00000000000E+00  0.00000000000E+00  0.63129280297E+03  0.14296100101E+04  0.12826746189E+04 0.  0.
        1    1    3    3  502    0  0.17321967143E+03  0.67872213282E+02 -0.36842267309E+03  0.41273109645E+03  0.50400001928E-02 0. -1.
       -1    1    3    3    0  502 -0.17321967143E+03 -0.67872213282E+02  0.99971547606E+03  0.10168789136E+04  0.50400001928E-02 0.  1.
</event>
<event>
 5   0  0.9131250E-04  0.1303316E+04  0.7818609E-02  0.9026939E-01
       -3   -1    0    0    0  501  0.00000000000E+00  0.00000000000E+00  0.79671398806E+03  0.79671399446E+03  0.10100000352E+00 0.  1.
        3   -1    0    0  501    0  0.00000000000E+00  0.00000000000E+00 -0.53301236880E+03  0.53301237837E+03  0.10100000352E+00 0. -1.
    10030    2    1    2    0    0  0.00000000000E+00  0.00000000000E+00  0.26370161926E+03  0.13297263728E+04  0.13033164169E+04 0.  0.
        4    1    3    3  502    0  0.10245885443E+03  0.57977128021E+03  0.41683923896E+03  0.72138000959E+03  0.12699999809E+01 0.  1.
       -4    1    3    3    0  502 -0.10245885443E+03 -0.57977128021E+03 -0.15313761970E+03  0.60834636324E+03  0.12699999809E+01 0. -1.
</event>
<event>
 5   0  0.2401211E-03  0.1303775E+04  0.7818609E-02  0.9026577E-01
        2   -1    0    0  501    0  0.00000000000E+00  0.00000000000E+00  0.95462836599E+03  0.95462836599E+03  0.25500000920E-02 0. -1.
       -2   -1    0    0    0  501  0.00000000000E+00  0.00000000000E+00 -0.44515494131E+03  0.44515494132E+03  0.25500000920E-02 0.  1.
    10030    2    1    2    0    0  0.00000000000E+00  0.00000000000E+00  0.50947342467E+03  0.13997833073E+04  0.13037753399E+04 0.  0.
        4    1    3    3  502    0  0.55475739121E+03  0.21290495361E+03 -0.33093794294E+02  0.59513115739E+03  0.12699999809E+01 0.  1.
       -4    1    3    3    0  502 -0.55475739121E+03 -0.21290495361E+03  0.54256721897E+03  0.80465214992E+03  0.12699999809E+01 0. -1.
</event>
<event>
 5   0  0.1310461E-03  0.1315676E+04  0.7818609E-02  0.9017226E-01
        1   -1    0    0  501    0  0.00000000000E+00  0.00000000000E+00  0.80501014505E+03  0.80501014506E+03  0.50400001928E-02 0.  1.
       -1   -1    0    0    0  501  0.00000000000E+00  0.00000000000E+00 -0.53757171661E+03  0.53757171664E+03  0.50400001928E-02 0. -1.
    10030    2    1    2    0    0  0.00000000000E+00  0.00000000000E+00  0.26743842843E+03  0.13425818617E+04  0.13156757740E+04 0.  0.
        4    1    3    3  502    0  0.64236096884E+03 -0.64618870161E+02  0.26257854492E+03  0.69695933728E+03  0.12699999809E+01 0. -1.
       -4    1    3    3    0  502 -0.64236096884E+03  0.64618870161E+02  0.48598835077E+01  0.64562252442E+03  0.12699999809E+01 0.  1.
</event>
<event>
 5   0  0.1332630E-03  0.1337035E+04  0.7818609E-02  0.9000701E-01
       -1   -1    0    0    0  501  0.00000000000E+00  0.00000000000E+00  0.39512659463E+03  0.39512659467E+03  0.50400001928E-02 0.  1.
        1   -1    0    0  501    0  0.00000000000E+00  0.00000000000E+00 -0.11310700756E+04  0.11310700756E+04  0.50400001928E-02 0. -1.
    10030    2    1    2    0    0  0.00000000000E+00  0.00000000000E+00 -0.73594348099E+03  0.15261966703E+04  0.13370353283E+04 0.  0.
        5    1    3    3  502    0  0.21070827267E+03  0.29310549634E+03  0.27429105426E+03  0.45339439851E+03  0.46999998093E+01 0.  1.
       -5    1    3    3    0  502 -0.21070827267E+03 -0.29310549634E+03 -0.10102345352E+04  0.10728022718E+04  0.46999998093E+01 0. -1.
</event>
<event>
 5   0  0.2334946E-03  0.1303615E+04  0.7818609E-02  0.9026703E-01
        2   -1    0    0  501    0  0.00000000000E+00  0.00000000000E+00  0.49067747479E+03  0.49067747479E+03  0.25500000920E-02 0. -1.
       -2   -1    0    0    0  501  0.00000000000E+00  0.00000000000E+00 -0.86584964558E+03  0.86584964558E+03  0.25500000920E-02 0.  1.
    10030    2    1    2    0    0  0.00000000000E+00  0.00000000000E+00 -0.37517217079E+03  0.13565271204E+04  0.13036148475E+04 0.  0.
        1    1    3    3  502    0 -0.74182896922E+02  0.33296975469E+03 -0.76554020409E+03  0.83810725079E+03  0.50400001928E-02 0.  1.
       -1    1    3    3    0  502  0.74182896922E+02 -0.33296975469E+03  0.39036803329E+03  0.51841986958E+03  0.50400001928E-02 0. -1.
</event>
<event>
 5   0  0.1387622E-03  0.1285857E+04  0.7818609E-02  0.9040856E-01
        1   -1    0    0  501    0  0.00000000000E+00  0.00000000000E+00  0.13286511642E+04  0.13286511642E+04  0.50400001928E-02 0.  1.
       -1   -1    0    0    0  501  0.00000000000E+00  0.00000000000E+00 -0.31111049825E+03  0.31111049829E+03  0.50400001928E-02 0. -1.
    10030    2    1    2    0    0  0.00000000000E+00  0.00000000000E+00  0.10175406659E+04  0.16397616625E+04  0.12858574194E+04 0.  0.
        3    1    3    3  502    0 -0.21180119218E+03  0.27713877888E+03 -0.17996113325E+03  0.39249416231E+03  0.10100000352E+00 0. -1.
       -3    1    3    3    0  502  0.21180119218E+03 -0.27713877888E+03  0.11975017992E+04  0.12472675002E+04  0.10100000352E+00 0.  1.
</event>
<event>
 5   0  0.2361043E-03  0.1079344E+04  0.7818609E-02  0.9225562E-01
        2   -1    0    0  501    0  0.00000000000E+00  0.00000000000E+00  0.19516501143E+04  0.19516501143E+04  0.25500000920E-02 0. -1.
       -2   -1    0    0    0  501  0.00000000000E+00  0.00000000000E+00 -0.14923060530E+03  0.14923060532E+03  0.25500000920E-02 0.  1.
    10030    2    1    2    0    0  0.00000000000E+00  0.00000000000E+00  0.18024195090E+04  0.21008807196E+04  0.10793441118E+04 0.  0.
        2    1    3    3  502    0  0.17179030269E+03 -0.46831976139E+03  0.13020568897E+04  0.13943412248E+04  0.25500000920E-02 0. -1.
       -2    1    3    3    0  502 -0.17179030269E+03  0.46831976139E+03  0.50036261926E+03  0.70653949484E+03  0.25500000920E-02 0.  1.
</event>
<event>
 5   0  0.2361043E-03  0.1255542E+04  0.7818609E-02  0.9065583E-01
        2   -1    0    0  501    0  0.00000000000E+00  0.00000000000E+00  0.11322002930E+04  0.11322002930E+04  0.25500000920E-02 0. -1.
       -2   -1    0    0    0  501  0.00000000000E+00  0.00000000000E+00 -0.34808007635E+03  0.34808007636E+03  0.25500000920E-02 0.  1.
    10030    2    1    2    0    0  0.00000000000E+00  0.00000000000E+00  0.78412021660E+03  0.14802803693E+04  0.12555418980E+04 0.  0.
        2    1    3    3  502    0 -0.34189056297E+03 -0.29504711686E+03  0.90618184569E+03  0.10124759235E+04  0.25500000920E-02 0. -1.
       -2    1    3    3    0  502  0.34189056297E+03  0.29504711686E+03 -0.12206162909E+03  0.46780444581E+03  0.25500000920E-02 0.  1.
</event>
<event>
 5   0  0.2401211E-03  0.1307360E+04  0.7818609E-02  0.9023749E-01
        2   -1    0    0  501    0  0.00000000000E+00  0.00000000000E+00  0.91570568782E+03  0.91570568782E+03  0.25500000920E-02 0.  1.
       -2   -1    0    0    0  501  0.00000000000E+00  0.00000000000E+00 -0.46663174079E+03  0.46663174080E+03  0.25500000920E-02 0. -1.
    10030    2    1    2    0    0  0.00000000000E+00  0.00000000000E+00  0.44907394702E+03  0.13823374286E+04  0.13073596891E+04 0.  0.
        4    1    3    3  502    0  0.62772906048E+03  0.18122127817E+03  0.20310634813E+03  0.68420664027E+03  0.12699999809E+01 0.  1.
       -4    1    3    3    0  502 -0.62772906048E+03 -0.18122127817E+03  0.24596759890E+03  0.69813078835E+03  0.12699999809E+01 0. -1.
</event>
<event>
 5   0  0.2478236E-03  0.1287284E+04  0.7818609E-02  0.9039711E-01
       -2   -1    0    0    0  501  0.00000000000E+00  0.00000000000E+00  0.32548504636E+03  0.32548504637E+03  0.25500000920E-02 0.  1.
        2   -1    0    0  501    0  0.00000000000E+00  0.00000000000E+00 -0.12727918536E+04  0.12727918536E+04  0.25500000920E-02 0. -1.
    10030    2    1    2    0    0  0.00000000000E+00  0.00000000000E+00 -0.94730680727E+03  0.15982769000E+04  0.12872835204E+04 0.  0.
        3    1    3    3  502    0  0.51964798824E+03 -0.37884451981E+03 -0.44039588842E+03  0.77942655242E+03  0.10100000352E+00 0. -1.
       -3    1    3    3    0  502 -0.51964798824E+03  0.37884451981E+03 -0.50691091885E+03  0.81885034758E+03  0.10100000352E+00 0.  1.
</event>
<event>
 5   0  0.2334946E-03  0.1369350E+04  0.7818609E-02  0.8976308E-01
       -2   -1    0    0    0  501  0.00000000000E+00  0.00000000000E+00  0.38282093081E+03  0.38282093082E+03  0.25500000920E-02 0. -1.
        2   -1    0    0  501    0  0.00000000000E+00  0.00000000000E+00 -0.12245405632E+04  0.12245405632E+04  0.25500000920E-02 0.  1.
    10030    2    1    2    0    0  0.00000000000E+00  0.00000000000E+00 -0.84171963240E+03  0.16073614940E+04  0.13693498578E+04 0.  0.
        1    1    3    3  502    0  0.25956500867E+03 -0.42314770958E+03  0.13264250273E+03  0.51383072252E+03  0.50400001928E-02 0. -1.
       -1    1    3    3    0  502 -0.25956500867E+03  0.42314770958E+03 -0.97436213513E+03  0.10935307715E+04  0.50400001928E-02 0.  1.
</event>
<event>
 5   0  0.2312105E-03  0.1298994E+04  0.7818609E-02  0.9030363E-01
        2   -1    0    0  501    0  0.00000000000E+00  0.00000000000E+00  0.18126958589E+04  0.18126958589E+04  0.25500000920E-02 0. -1.
       -2   -1    0    0    0  501  0.00000000000E+00  0.00000000000E+00 -0.23271780743E+03  0.23271780744E+03  0.25500000920E-02 0.  1.
    10030    2    1    2    0    0  0.00000000000E+00  0.00000000000E+00  0.15799780515E+04  0.20454136664E+04  0.12989943893E+04 0.  0.
        5    1    3    3  502    0 -0.12113753479E+03 -0.41611542347E+03  0.15516822751E+04  0.16110761375E+04  0.46999998093E+01 0. -1.
       -5    1    3    3    0  502  0.12113753479E+03  0.41611542347E+03  0.28295776357E+02  0.43433752882E+03  0.46999998093E+01 0.  1.
</event>
<event>
 5   0  0.1310461E-03  0.1284816E+04  0.7818609E-02  0.9041694E-01
        1   -1    0    0  501    0  0.00000000000E+00  0.00000000000E+00  0.43342736683E+03  0.43342736686E+03  0.50400001928E-02 0.  1.
       -1   -1    0    0    0  501  0.00000000000E+00  0.00000000000E+00 -0.95215048616E+03  0.95215048617E+03  0.50400001928E-02 0. -1.
    10030    2    1    2    0    0  0.00000000000E+00  0.00000000000E+00 -0.51872311933E+03  0.13855778530E+04  0.12848160617E+04 0.  0.
        4    1    3    3  502    0 -0.25502981727E+03  0.27808967613E+03 -0.82005174198E+03  0.90269626569E+03  0.12699999809E+01 0. -1.
       -4    1    3    3    0  502  0.25502981727E+03 -0.27808967613E+03  0.30132862265E+03  0.48288158734E+03  0.12699999809E+01 0.  1.
</event>
<event>
 5   0  0.1332630E-03  0.1302376E+04  0.7818609E-02  0.9027683E-01
       -1   -1    0    0    0  501  0.00000000000E+00  0.00000000000E+00  0.42307049587E+03  0.42307049590E+03  0.50400001928E-02 0.  1.
        1   -1    0    0  501    0  0.00000000000E+00  0.00000000000E+00 -0.10023052234E+04  0.10023052234E+04  0.50400001928E-02 0. -1.
    10030    2    1    2    0    0  0.00000000000E+00  0.00000000000E+00 -0.57923472754E+03  0.14253757193E+04  0.13023759333E+04 0.  0.
        5    1    3    3  502    0  0.12780225667E+03  0.51172763244E+03  0.12831800197E+03  0.54285005871E+03  0.46999998093E+01 0.  1.
       -5    1    3    3    0  502 -0.12780225667E+03 -0.51172763244E+03 -0.70755272951E+03  0.88252566062E+03  0.46999998093E+01 0. -1.
</event>
<event>
 5   0  0.2401211E-03  0.1300536E+04  0.7818609E-02  0.9029140E-01
        2   -1    0    0  501    0  0.00000000000E+00  0.00000000000E+00  0.13592384680E+04  0.13592384680E+04  0.25500000920E-02 0. -1.
       -2   -1    0    0    0  501  0.00000000000E+00  0.00000000000E+00 -0.31109238305E+03  0.31109238306E+03  0.25500000920E-02 0.  1.
    10030    2    1    2    0    0  0.00000000000E+00  0.00000000000E+00  0.10481460850E+04  0.16703308511E+04  0.13005364034E+04 0.  0.
        4    1    3    3  502    0 -0.48552345225E+03 -0.39391571533E+03  0.29452262343E+03  0.69112068561E+03  0.12699999809E+01 0.  1.
       -4    1    3    3    0  502  0.48552345225E+03  0.39391571533E+03  0.75362346156E+03  0.97921016548E+03  0.12699999809E+01 0. -1.
</event>
<event>
 5   0  0.2361043E-03  0.1298643E+04  0.7818609E-02  0.9030642E-01
        2   -1    0    0  501    0  0.00000000000E+00  0.00000000000E+00  0.16654560516E+04  0.16654560516E+04  0.25500000920E-02 0. -1.
       -2   -1    0    0    0  501  0.00000000000E+00  0.00000000000E+00 -0.25315478671E+03  0.25315478672E+03  0.25500000920E-02 0.  1.
    10030    2    1    2    0    0  0.00000000000E+00  0.00000000000E+00  0.14123012649E+04  0.19186108383E+04  0.12986426322E+04 0.  0.
        2    1    3    3  502    0  0.31171638208E+03 -0.47079744016E+03  0.23245915927E+03  0.61061820580E+03  0.25500000920E-02 0.  1.
       -2    1    3    3    0  502 -0.31171638208E+03  0.47079744016E+03  0.11798421056E+04  0.13079926325E+04  0.25500000920E-02 0. -1.
</event>
<event>
 5   0  0.1332630E-03  0.1280026E+04  0.7818609E-02  0.9045556E-01
       -1   -1    0    0    0  501  0.00000000000E+00  0.00000000000E+00  0.18937127608E+03  0.18937127615E+03  0.50400001928E-02 0.  1.
        1   -1    0    0  501    0  0.00000000000E+00  0.00000000000E+00 -0.21630361676E+04  0.21630361676E+04  0.50400001928E-02 0. -1.
    10030    2    1    2    0    0  0.00000000000E+00  0.00000000000E+00 -0.19736648915E+04  0.23524074438E+04  0.12800264362E+04 0.  0.
        5    1    3    3  502    0  0.59337882671E+03  0.23843789316E+03 -0.10334616993E+04  0.12153255674E+04  0.46999998093E+01 0.  1.
       -5    1    3    3    0  502 -0.59337882671E+03 -0.23843789316E+03 -0.94020319226E+03  0.11370818764E+04  0.46999998093E+01 0. -1.
</event>
<event>
 5   0  0.1346593E-03  0.1278781E+04  0.7818609E-02  0.9046564E-01
        1   -1    0    0  501    0  0.00000000000E+00  0.00000000000E+00  0.39738832196E+03  0.39738832199E+03  0.50400001928E-02 0. -1.
       -1   -1    0    0    0  501  0.00000000000E+00  0.00000000000E+00 -0.10287669763E+04  0.10287669763E+04  0.50400001928E-02 0.  1.
    10030    2    1    2    0    0  0.00000000000E+00  0.00000000000E+00 -0.63137865432E+03  0.14261552983E+04  0.12787806417E+04 0.  0.
        2    1    3    3  502    0 -0.52672227877E+03  0.13005571591E+03 -0.69301379262E+03  0.88012440311E+03  0.25500000920E-02 0.  1.
       -2    1    3    3    0  502  0.52672227877E+03 -0.13005571591E+03  0.61635138301E+02  0.54603089516E+03  0.25500000920E-02 0. -1.
</event>
<event>
 5   0  0.2312105E-03  0.1338440E+04  0.7818609E-02  0.8999626E-01
       -2   -1    0    0    0  501  0.00000000000E+00  0.00000000000E+00  0.29377215430E+03  0.29377215431E+03  0.25500000920E-02 0.  1.
        2   -1    0    0  501    0  0.00000000000E+00  0.00000000000E+00 -0.15244981063E+04  0.15244981063E+04  0.25500000920E-02 0. -1.
    10030    2    1    2    0    0  0.00000000000E+00  0.00000000000E+00 -0.12307259520E+04  0.18182702606E+04  0.13384395286E+04 0.  0.
        5    1    3    3  502    0 -0.63727835348E+03  0.85934380587E+02 -0.86705087243E+03  0.10794941977E+04  0.46999998093E+01 0. -1.
       -5    1    3    3    0  502  0.63727835348E+03 -0.85934380587E+02 -0.36367507959E+03  0.73877606289E+03  0.46999998093E+01 0.  1.
</event>
<event>
 5   0  0.1346593E-03  0.1302534E+04  0.7818609E-02  0.9027558E-01
       -1   -1    0    0    0  501  0.00000000000E+00  0.00000000000E+00  0.40149020204E+03  0.40149020208E+03  0.50400001928E-02 0. -1.
        1   -1    0    0  501    0  0.00000000000E+00  0.00000000000E+00 -0.10564357627E+04  0.10564357627E+04  0.50400001928E-02 0.  1.
    10030    2    1    2    0    0  0.00000000000E+00  0.00000000000E+00 -0.65494556061E+03  0.14579259647E+04  0.13025338503E+04 0.  0.
        2    1    3    3  502    0 -0.58966652002E+03 -0.70166569123E+01 -0.63683877843E+03  0.86793978365E+03  0.25500000920E-02 0.  1.
       -2    1    3    3    0  502  0.58966652002E+03  0.70166569123E+01 -0.18106782173E+02  0.58998618109E+03  0.25500000920E-02 0. -1.
</event>
<event>
 5   0  0.1387622E-03  0.1297600E+04  0.7818609E-02  0.9031470E-01
        1   -1    0    0  501    0  0.00000000000E+00  0.00000000000E+00  0.11889575503E+04  0.11889575503E+04  0.50400001928E-02 0. -1.
       -1   -1    0    0    0  501  0.00000000000E+00  0.00000000000E+00 -0.35404271367E+03  0.35404271370E+03  0.50400001928E-02 0.  1.
    10030    2    1    2    0    0  0.00000000000E+00  0.00000000000E+00  0.83491483666E+03  0.15430002640E+04  0.12976004895E+04 0.  0.
        3    1    3    3  502    0 -0.32497312034E+03 -0.54190309891E+03  0.24238930330E+03  0.67677107068E+03  0.10100000352E+00 0.  1.
       -3    1    3    3    0  502  0.32497312034E+03  0.54190309891E+03  0.59252553336E+03  0.86622919337E+03  0.10100000352E+00 0. -1.
</event>
<event>
 5   0  0.1324721E-03  0.1277833E+04  0.7818609E-02  0.9047331E-01
        1   -1    0    0  501    0  0.00000000000E+00  0.00000000000E+00  0.63074913823E+03  0.63074913825E+03  0.50400001928E-02 0.  1.
       -1   -1    0    0    0  501  0.00000000000E+00  0.00000000000E+00 -0.64718935337E+03  0.64718935339E+03  0.50400001928E-02 0. -1.
    10030    2    1    2    0    0  0.00000000000E+00  0.00000000000E+00 -0.16440215145E+02  0.12779384916E+04  0.12778327386E+04 0.  0.
        1    1    3    3  502    0  0.16077583486E+03 -0.19240579194E+03  0.57948937234E+03  0.63140857654E+03  0.50400001928E-02 0.  1.
       -1    1    3    3    0  502 -0.16077583486E+03  0.19240579194E+03 -0.59592958749E+03  0.64652991510E+03  0.50400001928E-02 0. -1.
</event>
<event>
 5   0  0.2334946E-03  0.1302783E+04  0.7818609E-02  0.9027361E-01
       -2   -1    0    0    0  501  0.00000000000E+00  0.00000000000E+00  0.36911303095E+03  0.36911303096E+03  0.25500000920E-02 0.  1.
        2   -1    0    0  501    0  0.00000000000E+00  0.00000000000E+00 -0.11495412947E+04  0.11495412947E+04  0.25500000920E-02 0. -1.
    10030    2    1    2    0    0  0.00000000000E+00  0.00000000000E+00 -0.78042826377E+03  0.15186543257E+04  0.13027826703E+04 0.  0.
        1    1    3    3  502    0 -0.58326875441E+03  0.90611440019E+02 -0.71135941540E+03  0.92436199123E+03  0.50400001928E-02 0. -1.
       -1    1    3    3    0  502  0.58326875441E+03 -0.90611440019E+02 -0.69068848365E+02  0.59429233444E+03  0.50400001928E-02 0.  1.
</event>
<event>
 5   0  0.9131250E-04  0.1215560E+04  0.7818609E-02  0.9099345E-01
        3   -1    0    0  501    0  0.00000000000E+00  0.00000000000E+00  0.57001830132E+03  0.57001831027E+03  0.10100000352E+00 0.  1.
       -3   -1    0    0    0  501  0.00000000000E+00  0.00000000000E+00 -0.64804365325E+03  0.64804366112E+03  0.10100000352E+00 0. -1.
    10030    2    1    2    0    0  0.00000000000E+00  0.00000000000E+00 -0.78025351934E+02  0.12180619714E+04  0.12155603690E+04 0.  0.
        1    1    3    3  502    0 -0.45236189987E+03  0.20222185642E+03  0.31366587684E+03  0.58643946831E+03  0.50400001928E-02 0. -1.
       -1    1    3    3    0  502  0.45236189987E+03 -0.20222185642E+03 -0.39169122878E+03  0.63162250308E+03  0.50400001928E-02 0.  1.
</event>
<event>
 5   0  0.2478236E-03  0.1285802E+04  0.7818609E-02  0.9040901E-01
       -2   -1    0    0    0  501  0.00000000000E+00  0.00000000000E+00  0.56088155650E+03  0.56088155651E+03  0.25500000920E-02 0.  1.
        2   -1    0    0  501    0  0.00000000000E+00  0.00000000000E+00 -0.73691446869E+03  0.73691446869E+03  0.25500000920E-02 0. -1.
    10030    2    1    2    0    0  0.00000000000E+00  0.00000000000E+00 -0.17603291218E+03  0.12977960252E+04  0.12858020597E+04 0.  0.
        3    1    3    3  502    0 -0.58073394846E+03 -0.10308750435E+00  0.19036380899E+03  0.61113854362E+03  0.10100000352E+00 0.  1.
       -3    1    3    3    0  502  0.58073394846E+03  0.10308750435E+00 -0.36639672117E+03  0.68665748158E+03  0.10100000352E+00 0. -1.
</event>
<event>
 5   0  0.2312105E-03  0.1324645E+04  0.7818609E-02  0.9010247E-01
        2   -1    0    0  501    0  0.00000000000E+00  0.00000000000E+00  0.14157089242E+04  0.14157089242E+04  0.25500000920E-02 0.  1.
       -2   -1    0    0    0  501  0.00000000000E+00  0.00000000000E+00 -0.30985958937E+03  0.30985958938E+03  0.25500000920E-02 0. -1.
    10030    2    1    2    0    0  0.00000000000E+00  0.00000000000E+00  0.11058493348E+04  0.17255685136E+04  0.13246448368E+04 0.  0.
        5    1    3    3  502    0  0.53095020796E+03 -0.37896839082E+03  0.40369285196E+03  0.76714742605E+03  0.46999998093E+01 0. -1.
       -5    1    3    3    0  502 -0.53095020796E+03  0.37896839082E+03  0.70215648286E+03  0.95842108752E+03  0.46999998093E+01 0.  1.
</event>
<event>
 5   0  0.2401211E-03  0.1316259E+04  0.7818609E-02  0.9016770E-01
       -2   -1    0    0    0  501  0.00000000000E+00  0.00000000000E+00  0.64463927269E+03  0.64463927270E+03  0.25500000920E-02 0.  1.
        2   -1    0    0  501    0  0.00000000000E+00  0.00000000000E+00 -0.67190228313E+03  0.67190228313E+03  0.25500000920E-02 0. -1.
    10030    2    1    2    0    0  0.00000000000E+00  0.00000000000E+00 -0.27263010431E+02  0.13165415558E+04  0.13162592436E+04 0.  0.
        4    1    3    3  502    0  0.47721439841E+03  0.12326920444E+02 -0.46677111270E+03  0.66765441627E+03  0.12699999809E+01 0. -1.
       -4    1    3    3    0  502 -0.47721439841E+03 -0.12326920444E+02  0.43950810227E+03  0.64888713956E+03  0.12699999809E+01 0.  1.
</event>
<event>
 5   0  0.2334946E-03  0.1298635E+04  0.7818609E-02  0.9030649E-01
        2   -1    0    0  501    0  0.00000000000E+00  0.00000000000E+00  0.90025586878E+03  0.90025586879E+03  0.25500000920E-02 0.  1.
       -2   -1    0    0    0  501  0.00000000000E+00  0.00000000000E+00 -0.46832571443E+03  0.46832571444E+03  0.25500000920E-02 0. -1.
    10030    2    1    2    0    0  0.00000000000E+00  0.00000000000E+00  0.43193015435E+03  0.13685815832E+04  0.12986346259E+04 0.  0.
        1    1    3    3  502    0 -0.37475675637E+03  0.23517197812E+03 -0.28488493535E+03  0.52622040263E+03  0.50400001928E-02 0. -1.
       -1    1    3    3    0  502  0.37475675637E+03 -0.23517197812E+03  0.71681508969E+03  0.84236118059E+03  0.50400001928E-02 0.  1.
</event>
<event>
 5   0  0.1346593E-03  0.1305209E+04  0.7818609E-02  0.9025445E-01
        1   -1    0    0  501    0  0.00000000000E+00  0.00000000000E+00  0.59726095582E+03  0.59726095585E+03  0.50400001928E-02 0. -1.
       -1   -1    0    0    0  501  0.00000000000E+00  0.00000000000E+00 -0.71307578592E+03  0.71307578594E+03  0.50400001928E-02 0.  1.
    10030    2    1    2    0    0  0.00000000000E+00  0.00000000000E+00 -0.11581483010E+03  0.13103367418E+04  0.13052085282E+04 0.  0.
        2    1    3    3  502    0  0.52588673507E+03  0.26368207858E+03  0.22570427732E+03  0.63010119623E+03  0.25500000920E-02 0. -1.
       -2    1    3    3    0  502 -0.52588673507E+03 -0.26368207858E+03 -0.34151910742E+03  0.68023554555E+03  0.25500000920E-02 0.  1.
</event>
<event>
 5   0  0.1387622E-03  0.1277917E+04  0.7818609E-02  0.9047263E-01
        1   -1    0    0  501    0  0.00000000000E+00  0.00000000000E+00  0.72759428328E+03  0.72759428330E+03  0.50400001928E-02 0.  1.
       -1   -1    0    0    0  501  0.00000000000E+00  0.00000000000E+00 -0.56112021467E+03  0.56112021469E+03  0.50400001928E-02 0. -1.
    10030    2    1    2    0    0  0.00000000000E+00  0.00000000000E+00  0.16647406861E+03  0.12887144980E+04  0.12779168368E+04 0.  0.
        3    1    3    3  502    0 -0.19945263217E+03  0.21920070029E+03  0.65409205368E+03  0.71809938336E+03  0.10100000352E+00 0.  1.
       -3    1    3    3    0  502  0.19945263217E+03 -0.21920070029E+03 -0.48761798507E+03  0.57061511464E+03  0.10100000352E+00 0. -1.
</event>
<event>
 5   0  0.9131250E-04  0.1295702E+04  0.7818609E-02  0.9032980E-01
       -3   -1    0    0    0  501  0.00000000000E+00  0.00000000000E+00  0.68205826916E+03  0.68205827664E+03  0.10100000352E+00 0. -1.
        3   -1    0    0  501    0  0.00000000000E+00  0.00000000000E+00 -0.61535948757E+03  0.61535949586E+03  0.10100000352E+00 0.  1.
    10030    2    1    2    0    0  0.00000000000E+00  0.00000000000E+00  0.66698781592E+02  0.12974177725E+04  0.12957021837E+04 0.  0.
        5    1    3    3  502    0 -0.10724023760E+02 -0.32733120992E+03 -0.52634348691E+03  0.61993570786E+03  0.46999998093E+01 0.  1.
       -5    1    3    3    0  502  0.10724023760E+02  0.32733120992E+03  0.59304226850E+03  0.67748206464E+03  0.46999998093E+01 0. -1.
</event>
<event>
 5   0  0.2478236E-03  0.1313109E+04  0.7818609E-02  0.9019234E-01
        2   -1    0    0  501    0  0.00000000000E+00  0.00000000000E+00  0.11949104661E+04  0.11949104661E+04  0.25500000920E-02 0.  1.
       -2   -1    0    0    0  501  0.00000000000E+00  0.00000000000E+00 -0.36074986244E+03  0.36074986245E+03  0.25500000920E-02 0. -1.
    10030    2    1    2    0    0  0.00000000000E+00  0.00000000000E+00  0.83416060364E+03  0.15556603285E+04  0.13131089616E+04 0.  0.
        3    1    3    3  502    0 -0.49727183970E+03  0.10191601844E+02  0.92482533692E+03  0.10500881226E+04  0.10100000352E+00 0.  1.
       -3    1    3    3    0  502  0.49727183970E+03 -0.10191601844E+02 -0.90664733272E+02  0.50557220589E+03  0.10100000352E+00 0. -1.
</event>
<event>
 5   0  0.2478236E-03  0.1295682E+04  0.7818609E-02  0.9032996E-01
       -2   -1    0    0    0  501  0.00000000000E+00  0.00000000000E+00  0.99284495086E+03  0.99284495086E+03  0.25500000920E-02 0. -1.
        2   -1    0    0  501    0  0.00000000000E+00  0.00000000000E+00 -0.42272253062E+03  0.42272253062E+03  0.25500000920E-02 0.  1.
    10030    2    1    2    0    0  0.00000000000E+00  0.00000000000E+00  0.57012242025E+03  0.14155674815E+04  0.12956819519E+04 0.  0.
        3    1    3    3  502    0  0.31639454143E+03 -0.63064975140E+01 -0.33253322555E+03  0.45904643998E+03  0.10100000352E+00 0.  1.
       -3    1    3    3    0  502 -0.31639454143E+03  0.63064975140E+01  0.90265564580E+03  0.95652104151E+03  0.10100000352E+00 0. -1.
</event>
<event>
 5   0  0.1346593E-03  0.1297337E+04  0.7818609E-02  0.9031680E-01
        1   -1    0    0  501    0  0.00000000000E+00  0.00000000000E+00  0.44935967697E+03  0.44935967700E+03  0.50400001928E-02 0. -1.
       -1   -1    0    0    0  501  0.00000000000E+00  0.00000000000E+00 -0.93637862862E+03  0.93637862864E+03  0.50400001928E-02 0.  1.
    10030    2    1    2    0    0  0.00000000000E+00  0.00000000000E+00 -0.48701895165E+03  0.13857383056E+04  0.12973369618E+04 0.  0.
        2    1    3    3  502    0  0.27337332148E+03 -0.76076600876E+02 -0.86656623238E+03  0.91184300030E+03  0.25500000920E-02 0.  1.
       -2    1    3    3    0  502 -0.27337332148E+03  0.76076600876E+02  0.37954728073E+03  0.47389530533E+03  0.25500000920E-02 0. -1.
</event>
<event>
 5   0  0.1324721E-03  0.1295478E+04  0.7818609E-02  0.9033159E-01
        1   -1    0    0  501    0  0.00000000000E+00  0.00000000000E+00  0.90135880903E+03  0.90135880905E+03  0.50400001928E-02 0. -1.
       -1   -1    0    0    0  501  0.00000000000E+00  0.00000000000E+00 -0.46548142641E+03  0.46548142644E+03  0.50400001928E-02 0.  1.
    10030    2    1    2    0    0  0.00000000000E+00  0.00000000000E+00  0.43587738262E+03  0.13668402355E+04  0.12954779568E+04 0.  0.
        1    1    3    3  502    0 -0.56869014788E+03 -0.28679453047E+03  0.34235918431E+03  0.72309708761E+03  0.50400001928E-02 0.  1.
       -1    1    3    3    0  502  0.56869014788E+03  0.28679453047E+03  0.93518198312E+02  0.64374314788E+03  0.50400001928E-02 0. -1.
</event>
<event>
 5   0  0.2312105E-03  0.1260822E+04  0.7818609E-02  0.9061224E-01
       -2   -1    0    0    0  501  0.00000000000E+00  0.00000000000E+00  0.74157119217E+03  0.74157119217E+03  0.25500000920E-02 0.  1.
        2   -1    0    0  501    0  0.00000000000E+00  0.00000000000E+00 -0.53591365999E+03  0.53591366000E+03  0.25500000920E-02 0. -1.
    10030    2    1    2    0    0  0.00000000000E+00  0.00000000000E+00  0.20565753218E+03  0.12774848522E+04  0.12608221631E+04 0.  0.
        5    1    3    3  502    0 -0.54003447877E+03  0.21805170551E+03  0.34728951876E+03  0.67809725289E+03  0.46999998093E+01 0. -1.
       -5    1    3    3    0  502  0.54003447877E+03 -0.21805170551E+03 -0.14163198659E+03  0.59938759927E+03  0.46999998093E+01 0.  1.
</event>
<event>
 5   0  0.1310461E-03  0.1276489E+04  0.7818609E-02  0.9048420E-01
       -1   -1    0    0    0  501  0.00000000000E+00  0.00000000000E+00  0.32284036592E+03  0.32284036596E+03  0.50400001928E-02 0. -1.
        1   -1    0    0  501    0  0.00000000000E+00  0.00000000000E+00 -0.12617881903E+04  0.12617881903E+04  0.50400001928E-02 0.  1.
    10030    2    1    2    0    0  0.00000000000E+00  0.00000000000E+00 -0.93894782437E+03  0.15846285563E+04  0.12764891870E+04 0.  0.
        4    1    3    3  502    0  0.49566177511E+03 -0.89961195668E+02 -0.95596959761E+03  0.10805799815E+04  0.12699999809E+01 0.  1.
       -4    1    3    3    0  502 -0.49566177511E+03  0.89961195668E+02  0.17021773234E+02  0.50404857473E+03  0.12699999809E+01 0. -1.
</event>
<event>
 5   0  0.1324721E-03  0.1311654E+04  0.7818609E-02  0.9020374E-01
        1   -1    0    0  501    0  0.00000000000E+00  0.00000000000E+00  0.17919177795E+04  0.17919177795E+04  0.50400001928E-02 0.  1.
       -1   -1    0    0    0  501  0.00000000000E+00  0.00000000000E+00 -0.24002724100E+03  0.24002724105E+03  0.50400001928E-02 0. -1.
    10030    2    1    2    0    0  0.00000000000E+00  0.00000000000E+00  0.15518905385E+04  0.20319450206E+04  0.13116540409E+04 0.  0.
        1    1    3    3  502    0 -0.45238207205E+03  0.41330230076E+03  0.11380639892E+04  0.12925393512E+04  0.50400001928E-02 0.  1.
       -1    1    3    3    0  502  0.45238207205E+03 -0.41330230076E+03  0.41382654933E+03  0.73940566936E+03  0.50400001928E-02 0. -1.
</event>
<event>
 5   0  0.2401211E-03  0.1292985E+04  0.7818609E-02  0.9035146E-01
       -2   -1    0    0    0  501  0.00000000000E+00  0.00000000000E+00  0.32225961880E+03  0.32225961881E+03  0.25500000920E-02 0. -1.
        2   -1    0    0  501    0  0.00000000000E+00  0.00000000000E+00 -0.12969444272E+04  0.12969444272E+04  0.25500000920E-02 0.  1.
    10030    2    1    2    0    0  0.00000000000E+00  0.00000000000E+00 -0.97468480838E+03  0.16192040460E+04  0.12929854086E+04 0.  0.
        4    1    3    3  502    0 -0.25078742947E+03  0.53785556845E+03 -0.16618634436E+03  0.61628115438E+03  0.12699999809E+01 0. -1.
       -4    1    3    3    0  502  0.25078742947E+03 -0.53785556845E+03 -0.80849846402E+03  0.10029228916E+04  0.12699999809E+01 0.  1.
</event>
<event>
 5   0  0.1324721E-03  0.1292259E+04  0.7818609E-02  0.9035726E-01
       -1   -1    0    0    0  501  0.00000000000E+00  0.00000000000E+00  0.14311710070E+04  0.14311710071E+04  0.50400001928E-02 0.  1.
        1   -1    0    0  501    0  0.00000000000E+00  0.00000000000E+00 -0.29170765767E+03  0.29170765771E+03  0.50400001928E-02 0. -1.
    10030    2    1    2    0    0  0.00000000000E+00  0.00000000000E+00  0.11394633494E+04  0.17228786648E+04  0.12922593273E+04 0.  0.
        1    1    3    3  502    0 -0.43028854910E+03 -0.47738480947E+03  0.48090363954E+03  0.80269097562E+03  0.50400001928E-02 0.  1.
       -1    1    3    3    0  502  0.43028854910E+03  0.47738480947E+03  0.65855970984E+03  0.92018768914E+03  0.50400001928E-02 0. -1.
</event>
<event>
 5   0  0.1324721E-03  0.1309957E+04  0.7818609E-02  0.9021706E-01
       -1   -1    0    0    0  501  0.00000000000E+00  0.00000000000E+00  0.45914643327E+03  0.45914643330E+03  0.50400001928E-02 0.  1.
        1   -1    0    0  501    0  0.00000000000E+00  0.00000000000E+00 -0.93433524256E+03  0.93433524258E+03  0.50400001928E-02 0. -1.
    10030    2    1    2    0    0  0.00000000000E+00  0.00000000000E+00 -0.47518880930E+03  0.13934816759E+04  0.13099567842E+04 0.  0.
        1    1    3    3  502    0  0.20802236614E+03 -0.37475979183E+03 -0.76442868201E+03  0.87639569619E+03  0.50400001928E-02 0. -1.
       -1    1    3    3    0  502 -0.20802236614E+03  0.37475979183E+03  0.28923987272E+03  0.51708597968E+03  0.50400001928E-02 0.  1.
</event>
<event>
 5   0  0.1324721E-03  0.1399531E+04  0.7818609E-02  0.8954158E-01
        1   -1    0    0  501    0  0.00000000000E+00  0.00000000000E+00  0.91643369494E+03  0.91643369495E+03  0.50400001928E-02 0.  1.
       -1   -1    0    0    0  501  0.00000000000E+00  0.00000000000E+00 -0.53432293854E+03  0.53432293856E+03  0.50400001928E-02 0. -1.
    10030    2    1    2    0    0  0.00000000000E+00  0.00000000000E+00  0.38211075640E+03  0.14507566335E+04  0.13995306997E+04 0.  0.
        1    1    3    3  502    0 -0.33606275650E+03  0.24231439363E+03 -0.39351576659E+03  0.57140974812E+03  0.50400001928E-02 0. -1.
       -1    1    3    3    0  502  0.33606275650E+03 -0.24231439363E+03  0.77562652299E+03  0.87934688540E+03  0.50400001928E-02 0.  1.
</event>
<event>
 5   0  0.1332630E-03  0.1300063E+04  0.7818609E-02  0.9029515E-01
       -1   -1    0    0    0  501  0.00000000000E+00  0.00000000000E+00  0.18905637179E+03  0.18905637186E+03  0.50400001928E-02 0. -1.
        1   -1    0    0  501    0  0.00000000000E+00  0.00000000000E+00 -0.22349986874E+04  0.22349986874E+04  0.50400001928E-02 0.  1.
    10030    2    1    2    0    0  0.00000000000E+00  0.00000000000E+00 -0.20459423156E+04  0.24240550593E+04  0.13000626799E+04 0.  0.
        5    1    3    3  502    0 -0.25003744251E+03  0.15571353325E+03 -0.21033803874E+04  0.21239106787E+04  0.46999998093E+01 0.  1.
       -5    1    3    3    0  502  0.25003744251E+03 -0.15571353325E+03  0.57438071770E+02  0.30014438056E+03  0.46999998093E+01 0. -1.
</event>
<event>
 5   0  0.1332630E-03  0.1311283E+04  0.7818609E-02  0.9020665E-01
       -1   -1    0    0    0  501  0.00000000000E+00  0.00000000000E+00  0.59462501855E+03  0.59462501857E+03  0.50400001928E-02 0. -1.
        1   -1    0    0  501    0  0.00000000000E+00  0.00000000000E+00 -0.72291960538E+03  0.72291960539E+03  0.50400001928E-02 0.  1.
    10030    2    1    2    0    0  0.00000000000E+00  0.00000000000E+00 -0.12829458682E+03  0.13175446240E+04  0.13112834686E+04 0.  0.
        5    1    3    3  502    0  0.56274599875E+03  0.11829076447E+03  0.25226622318E+03  0.62796186303E+03  0.46999998093E+01 0. -1.
       -5    1    3    3    0  502 -0.56274599875E+03 -0.11829076447E+03 -0.38056081000E+03  0.68958276093E+03  0.46999998093E+01 0.  1.
</event>
<event>
 5   0  0.1346593E-03  0.1305939E+04  0.7818609E-02  0.9024868E-01
        1   -1    0    0  501    0  0.00000000000E+00  0.00000000000E+00  0.39880433146E+03  0.39880433149E+03  0.50400001928E-02 0. -1.
       -1   -1    0    0    0  501  0.00000000000E+00  0.00000000000E+00 -0.10691193306E+04  0.10691193306E+04  0.50400001928E-02 0.  1.
    10030    2    1    2    0    0  0.00000000000E+00  0.00000000000E+00 -0.67031499912E+03  0.14679236621E+04  0.13059393859E+04 0.  0.
        2    1    3    3  502    0  0.49561489209E+03 -0.28155691256E+03 -0.69319624615E+03  0.89745721456E+03  0.25500000920E-02 0.  1.
       -2    1    3    3    0  502 -0.49561489209E+03  0.28155691256E+03  0.22881247035E+02  0.57046644752E+03  0.25500000920E-02 0. -1.
</event>
<event>
 5   0  0.1346593E-03  0.1279244E+04  0.7818609E-02  0.9046188E-01
       -1   -1    0    0    0  501  0.00000000000E+00  0.00000000000E+00  0.69982407480E+03  0.69982407481E+03  0.50400001928E-02 0.  1.
        1   -1    0    0  501    0  0.00000000000E+00  0.00000000000E+00 -0.58459912115E+03  0.58459912117E+03  0.50400001928E-02 0. -1.
    10030    2    1    2    0    0  0.00000000000E+00  0.00000000000E+00  0.11522495365E+03  0.12844231960E+04  0.12792443693E+04 0.  0.
        2    1    3    3  502    0 -0.57824538299E+03 -0.14906804626E+03  0.28772917355E+03  0.66285525018E+03  0.25500000920E-02 0.  1.
       -2    1    3    3    0  502  0.57824538299E+03  0.14906804626E+03 -0.17250421991E+03  0.62156794581E+03  0.25500000920E-02 0. -1.
</event>
<event>
 5   0  0.1346593E-03  0.1293553E+04  0.7818609E-02  0.9034694E-01
       -1   -1    0    0    0  501  0.00000000000E+00  0.00000000000E+00  0.58793600547E+03  0.58793600549E+03  0.50400001928E-02 0. -1.
        1   -1    0    0  501    0  0.00000000000E+00  0.00000000000E+00 -0.71150527021E+03  0.71150527023E+03  0.50400001928E-02 0.  1.
    10030    2    1    2    0    0  0.00000000000E+00  0.00000000000E+00 -0.12356926474E+03  0.12994412757E+04  0.12935525756E+04 0.  0.
        2    1    3    3  502    0 -0.10189282122E+03 -0.21287936473E+03 -0.66670516652E+03  0.70724504241E+03  0.25500000920E-02 0.  1.
       -2    1    3    3    0  502  0.10189282122E+03  0.21287936473E+03  0.54313590178E+03  0.59219623331E+03  0.25500000920E-02 0. -1.
</event>
<event>
 5   0  0.2312105E-03  0.1298734E+04  0.7818609E-02  0.9030569E-01
        2   -1    0    0  501    0  0.00000000000E+00  0.00000000000E+00  0.11906460834E+04  0.11906460834E+04  0.25500000920E-02 0. -1.
       -2   -1    0    0    0  501  0.00000000000E+00  0.00000000000E+00 -0.35415875744E+03  0.35415875745E+03  0.25500000920E-02 0.  1.
    10030    2    1    2    0    0  0.00000000000E+00  0.00000000000E+00  0.83648732593E+03  0.15448048408E+04  0.12987343646E+04 0.  0.
        5    1    3    3  502    0  0.19431164880E+03 -0.19918851838E+03 -0.27962381147E+03  0.39451824882E+03  0.46999998093E+01 0.  1.
       -5    1    3    3    0  502 -0.19431164880E+03  0.19918851838E+03  0.11161111374E+04  0.11502865920E+04  0.46999998093E+01 0. -1.
</event>
<event>
 5   0  0.1324721E-03  0.1286270E+04  0.7818609E-02  0.9040524E-01
        1   -1    0    0  501    0  0.00000000000E+00  0.00000000000E+00  0.14459042190E+04  0.14459042190E+04  0.50400001928E-02 0. -1.
       -1   -1    0    0    0  501  0.00000000000E+00  0.00000000000E+00 -0.28606510577E+03  0.28606510582E+03  0.50400001928E-02 0.  1.
    10030    2    1    2    0    0  0.00000000000E+00  0.00000000000E+00  0.11598391133E+04  0.17319693249E+04  0.12862701791E+04 0.  0.
        1    1    3    3  502    0  0.62121486188E+03 -0.84121821690E+02  0.77335923630E+03  0.99552443159E+03  0.50400001928E-02 0.  1.
       -1    1    3    3    0  502 -0.62121486188E+03  0.84121821690E+02  0.38647987697E+03  0.73644489327E+03  0.50400001928E-02 0. -1.
</event>
<event>
 5   0  0.1332630E-03  0.1307111E+04  0.7818609E-02  0.9023945E-01
       -1   -1    0    0    0  501  0.00000000000E+00  0.00000000000E+00  0.56993935926E+03  0.56993935928E+03  0.50400001928E-02 0. -1.
        1   -1    0    0  501    0  0.00000000000E+00  0.00000000000E+00 -0.74943859745E+03  0.74943859747E+03  0.50400001928E-02 0.  1.
    10030    2    1    2    0    0  0.00000000000E+00  0.00000000000E+00 -0.17949923819E+03  0.13193779567E+04  0.13071106366E+04 0.  0.
        5    1    3    3  502    0 -0.28525857958E+03  0.10879328611E+02 -0.68316301081E+03  0.74042191104E+03  0.46999998093E+01 0.  1.
       -5    1    3    3    0  502  0.28525857958E+03 -0.10879328611E+02  0.50366377262E+03  0.57895604570E+03  0.46999998093E+01 0. -1.
</event>
<event>
 5   0  0.2478236E-03  0.1307923E+04  0.7818609E-02  0.9023306E-01
        2   -1    0    0  501    0  0.00000000000E+00  0.00000000000E+00  0.81631709942E+03  0.81631709943E+03  0.25500000920E-02 0. -1.
       -2   -1    0    0    0  501  0.00000000000E+00  0.00000000000E+00 -0.52389655930E+03  0.52389655931E+03  0.25500000920E-02 0.  1.
    10030    2    1    2    0    0  0.00000000000E+00  0.00000000000E+00  0.29242054012E+03  0.13402136587E+04  0.13079231165E+04 0.  0.
        3    1    3    3  502    0 -0.25799466272E+03  0.27343290941E+03 -0.40210710234E+03  0.55046973930E+03  0.10100000352E+00 0.  1.
       -3    1    3    3    0  502  0.25799466272E+03 -0.27343290941E+03  0.69452764246E+03  0.78974391943E+03  0.10100000352E+00 0. -1.
</event>
<event>
 5   0  0.1310461E-03  0.1298378E+04  0.7818609E-02  0.9030852E-01
        1   -1    0    0  501    0  0.00000000000E+00  0.00000000000E+00  0.91976000177E+03  0.91976000178E+03  0.50400001928E-02 0. -1.
       -1   -1    0    0    0  501  0.00000000000E+00  0.00000000000E+00 -0.45821345478E+03  0.45821345481E+03  0.50400001928E-02 0.  1.
    10030    2    1    2    0    0  0.00000000000E+00  0.00000000000E+00  0.46154654699E+03  0.13779734566E+04  0.12983780775E+04 0.  0.
        4    1    3    3  502    0 -0.31757521301E+03 -0.55146713333E+03  0.94550571461E+02  0.64335949401E+03  0.12699999809E+01 0.  1.
       -4    1    3    3    0  502  0.31757521301E+03  0.55146713333E+03  0.36699597553E+03  0.73461396258E+03  0.12699999809E+01 0. -1.
</event>
<event>
 5   0  0.2401211E-03  0.1306749E+04  0.7818609E-02  0.9024230E-01
       -2   -1    0    0    0  501  0.00000000000E+00  0.00000000000E+00  0.63954970640E+03  0.63954970641E+03  0.25500000920E-02 0.  1.
        2   -1    0    0  501    0  0.00000000000E+00  0.00000000000E+00 -0.66749849014E+03  0.66749849014E+03  0.25500000920E-02 0. -1.
    10030    2    1    2    0    0  0.00000000000E+00  0.00000000000E+00 -0.27948783732E+02  0.13070481965E+04  0.13067493461E+04 0.  0.
        4    1    3    3  502    0  0.60907565767E+03  0.16223932875E+03 -0.18606633049E+03  0.65720396286E+03  0.12699999809E+01 0.  1.
       -4    1    3    3    0  502 -0.60907565767E+03 -0.16223932875E+03  0.15811754676E+03  0.64984423369E+03  0.12699999809E+01 0. -1.
</event>
<event>
 5   0  0.2334946E-03  0.1280631E+04  0.7818609E-02  0.9045068E-01
       -2   -1    0    0    0  501  0.00000000000E+00  0.00000000000E+00  0.19615820712E+03  0.19615820714E+03  0.25500000920E-02 0.  1.
        2   -1    0    0  501    0  0.00000000000E+00  0.00000000000E+00 -0.20901693900E+04  0.20901693900E+04  0.25500000920E-02 0. -1.
    10030    2    1    2    0    0  0.00000000000E+00  0.00000000000E+00 -0.18940111829E+04  0.22863275972E+04  0.12806309073E+04 0.  0.
        1    1    3    3  502    0  0.44467244792E+03  0.45858051485E+03 -0.86768048414E+03  0.10774502759E+04  0.50400001928E-02 0.  1.
       -1    1    3    3    0  502 -0.44467244792E+03 -0.45858051485E+03 -0.10263306988E+04  0.12088773212E+04  0.50400001928E-02 0. -1.
</event>
<event>
 5   0  0.1387622E-03  0.1317620E+04  0.7818609E-02  0.9015708E-01
        1   -1    0    0  501    0  0.00000000000E+00  0.00000000000E+00  0.81026989429E+03  0.81026989430E+03  0.50400001928E-02 0. -1.
       -1   -1    0    0    0  501  0.00000000000E+00  0.00000000000E+00 -0.53566212692E+03  0.53566212694E+03  0.50400001928E-02 0.  1.
    10030    2    1    2    0    0  0.00000000000E+00  0.00000000000E+00  0.27460776737E+03  0.13459320212E+04  0.13176204233E+04 0.  0.
        3    1    3    3  502    0 -0.55317882039E+03  0.33082012665E+03  0.27654915398E+03  0.70137593935E+03  0.10100000352E+00 0. -1.
       -3    1    3    3    0  502  0.55317882039E+03 -0.33082012665E+03 -0.19413866137E+01  0.64455608190E+03  0.10100000352E+00 0.  1.
</event>
<event>
 5   0  0.2478236E-03  0.1269386E+04  0.7818609E-02  0.9054201E-01
        2   -1    0    0  501    0  0.00000000000E+00  0.00000000000E+00  0.48269838978E+03  0.48269838978E+03  0.25500000920E-02 0. -1.
       -2   -1    0    0    0  501  0.00000000000E+00  0.00000000000E+00 -0.83454824908E+03  0.83454824909E+03  0.25500000920E-02 0.  1.
    10030    2    1    2    0    0  0.00000000000E+00  0.00000000000E+00 -0.35184985931E+03  0.13172466389E+04  0.12693858295E+04 0.  0.
        3    1    3    3  502    0  0.11990139695E+03  0.22085766807E+03 -0.78072083920E+03  0.82017040515E+03  0.10100000352E+00 0.  1.
       -3    1    3    3    0  502 -0.11990139695E+03 -0.22085766807E+03  0.42887097989E+03  0.49707623372E+03  0.10100000352E+00 0. -1.
</event>
<event>
 5   0  0.1310461E-03  0.1150125E+04  0.7818609E-02  0.9157668E-01
       -1   -1    0    0    0  501  0.00000000000E+00  0.00000000000E+00  0.53543138398E+03  0.53543138401E+03  0.50400001928E-02 0. -1.
        1   -1    0    0  501    0  0.00000000000E+00  0.00000000000E+00 -0.61762695292E+03  0.61762695294E+03  0.50400001928E-02 0.  1.
    10030    2    1    2    0    0  0.00000000000E+00  0.00000000000E+00 -0.82195568941E+02  0.11530583369E+04  0.11501249571E+04 0.  0.
        4    1    3    3  502    0  0.42681314668E+03 -0.34736094231E+03 -0.20845512892E+03  0.58845920853E+03  0.12699999809E+01 0.  1.
       -4    1    3    3    0  502 -0.42681314668E+03  0.34736094231E+03  0.12625955998E+03  0.56459912842E+03  0.12699999809E+01 0. -1.
</event>
<event>
 5   0  0.2361043E-03  0.1323751E+04  0.7818609E-02  0.9010939E-01
       -2   -1    0    0    0  501  0.00000000000E+00  0.00000000000E+00  0.55420981169E+03  0.55420981169E+03  0.25500000920E-02 0. -1.
        2   -1    0    0  501    0  0.00000000000E+00  0.00000000000E+00 -0.79045758827E+03  0.79045758827E+03  0.25500000920E-02 0.  1.
    10030    2    1    2    0    0  0.00000000000E+00  0.00000000000E+00 -0.23624777658E+03  0.13446674000E+04  0.13237512624E+04 0.  0.
        2    1    3    3  502    0 -0.24958542592E+02  0.44931482847E+03  0.37490331546E+03  0.58571259153E+03  0.25500000920E-02 0. -1.
       -2    1    3    3    0  502  0.24958542592E+02 -0.44931482847E+03 -0.61115109204E+03  0.75895480843E+03  0.25500000920E-02 0.  1.
</event>
<event>
 5   0  0.1310461E-03  0.1301332E+04  0.7818609E-02  0.9028509E-01
        1   -1    0    0  501    0  0.00000000000E+00  0.00000000000E+00  0.13141287839E+04  0.13141287839E+04  0.50400001928E-02 0.  1.
       -1   -1    0    0    0  501  0.00000000000E+00  0.00000000000E+00 -0.32216515206E+03  0.32216515210E+03  0.50400001928E-02 0. -1.
    10030    2    1    2    0    0  0.00000000000E+00  0.00000000000E+00  0.99196363179E+03  0.16362939360E+04  0.13013323934E+04 0.  0.
        4    1    3    3  502    0  0.24950536031E+03  0.23328635718E+02 -0.25905218989E+03  0.36042585930E+03  0.12699999809E+01 0. -1.
       -4    1    3    3    0  502 -0.24950536031E+03 -0.23328635718E+02  0.12510158217E+04  0.12758680767E+04  0.12699999809E+01 0.  1.
</event>
<event>
 5   0  0.1310461E-03  0.1292390E+04  0.7818609E-02  0.9035622E-01
       -1   -1    0    0    0  501  0.00000000000E+00  0.00000000000E+00  0.60876657382E+03  0.60876657384E+03  0.50400001928E-02 0.  1.
        1   -1    0    0  501    0  0.00000000000E+00  0.00000000000E+00 -0.68592447314E+03  0.68592447315E+03  0.50400001928E-02 0. -1.
    10030    2    1    2    0    0  0.00000000000E+00  0.00000000000E+00 -0.77157899316E+02  0.12946910470E+04  0.12923898660E+04 0.  0.
        4    1    3    3  502    0 -0.30451845902E+03 -0.43189054990E+03 -0.41113538922E+03  0.66954825080E+03  0.12699999809E+01 0. -1.
       -4    1    3    3    0  502  0.30451845902E+03  0.43189054990E+03  0.33397748991E+03  0.62514279620E+03  0.12699999809E+01 0.  1.
</event>
<event>
 5   0  0.1346593E-03  0.1288008E+04  0.7818609E-02  0.9039130E-01
       -1   -1    0    0    0  501  0.00000000000E+00  0.00000000000E+00  0.78909354138E+03  0.78909354140E+03  0.50400001928E-02 0. -1.
        1   -1    0    0  501    0  0.00000000000E+00  0.00000000000E+00 -0.52559166768E+03  0.52559166771E+03  0.50400001928E-02 0.  1.
    10030    2    1    2    0    0  0.00000000000E+00  0.00000000000E+00  0.26350187370E+03  0.13146852091E+04  0.12880077490E+04 0.  0.
        2    1    3    3  502    0 -0.39679321601E+03  0.33879930219E+03 -0.25357456189E+03  0.58011195633E+03  0.25500000920E-02 0.  1.
       -2    1    3    3    0  502  0.39679321601E+03 -0.33879930219E+03  0.51707643559E+03  0.73457325277E+03  0.25500000920E-02 0. -1.
</event>
<event>
 5   0  0.2361043E-03  0.1294284E+04  0.7818609E-02  0.9034110E-01
       -2   -1    0    0    0  501  0.00000000000E+00  0.00000000000E+00  0.88130171903E+03  0.88130171903E+03  0.25500000920E-02 0.  1.
        2   -1    0    0  501    0  0.00000000000E+00  0.00000000000E+00 -0.47519821779E+03  0.47519821780E+03  0.25500000920E-02 0. -1.
    10030    2    1    2    0    0  0.00000000000E+00  0.00000000000E+00  0.40610350124E+03  0.13564999368E+04  0.12942843679E+04 0.  0.
        2    1    3    3  502    0  0.42804881054E+03 -0.27550423917E+03 -0.21573645289E+03  0.55287483856E+03  0.25500000920E-02 0. -1.
       -2    1    3    3    0  502 -0.42804881054E+03  0.27550423917E+03  0.62183995413E+03  0.80362509827E+03  0.25500000920E-02 0.  1.
</event>
<event>
 5   0  0.2334946E-03  0.1301882E+04  0.7818609E-02  0.9028074E-01
        2   -1    0    0  501    0  0.00000000000E+00  0.00000000000E+00  0.75331588023E+03  0.75331588024E+03  0.25500000920E-02 0.  1.
       -2   -1    0    0    0  501  0.00000000000E+00  0.00000000000E+00 -0.56247907701E+03  0.56247907702E+03  0.25500000920E-02 0. -1.
    10030    2    1    2    0    0  0.00000000000E+00  0.00000000000E+00  0.19083680322E+03  0.13157949573E+04  0.13018823618E+04 0.  0.
        1    1    3    3  502    0 -0.70390364826E+02  0.61525952727E+03 -0.10728745247E+03  0.62849796089E+03  0.50400001928E-02 0. -1.
       -1    1    3    3    0  502  0.70390364826E+02 -0.61525952727E+03  0.29812425569E+03  0.68729699637E+03  0.50400001928E-02 0.  1.
</event>
<event>
 5   0  0.2312105E-03  0.1261512E+04  0.7818609E-02  0.9060656E-01
        2   -1    0    0  501    0  0.00000000000E+00  0.00000000000E+00  0.87225967684E+03  0.87225967684E+03  0.25500000920E-02 0. -1.
       -2   -1    0    0    0  501  0.00000000000E+00  0.00000000000E+00 -0.45611791666E+03  0.45611791666E+03  0.25500000920E-02 0.  1.
    10030    2    1    2    0    0  0.00000000000E+00  0.00000000000E+00  0.41614176018E+03  0.13283775935E+04  0.12615122141E+04 0.  0.
        5    1    3    3  502    0  0.60718224058E+03 -0.70249227272E+02  0.37196768395E+03  0.71553286096E+03  0.46999998093E+01 0.  1.
       -5    1    3    3    0  502 -0.60718224058E+03  0.70249227272E+02  0.44174076230E+02  0.61284473255E+03  0.46999998093E+01 0. -1.
</event>
<event>
 5   0  0.2334946E-03  0.1386210E+04  0.7818609E-02  0.8963862E-01
       -2   -1    0    0    0  501  0.00000000000E+00  0.00000000000E+00  0.59386181479E+03  0.59386181480E+03  0.25500000920E-02 0. -1.
        2   -1    0    0  501    0  0.00000000000E+00  0.00000000000E+00 -0.80893282167E+03  0.80893282167E+03  0.25500000920E-02 0.  1.
    10030    2    1    2    0    0  0.00000000000E+00  0.00000000000E+00 -0.21507100687E+03  0.14027946365E+04  0.13862096718E+04 0.  0.
        1    1    3    3  502    0 -0.19410725148E+03  0.60450141620E+03 -0.38888108800E+03  0.74453212684E+03  0.50400001928E-02 0.  1.
       -1    1    3    3    0  502  0.19410725148E+03 -0.60450141620E+03  0.17381008112E+03  0.65826250963E+03  0.50400001928E-02 0. -1.
</event>
<event>
 5   0  0.1324721E-03  0.1237995E+04  0.7818609E-02  0.9080234E-01
        1   -1    0    0  501    0  0.00000000000E+00  0.00000000000E+00  0.57013615625E+03  0.57013615627E+03  0.50400001928E-02 0. -1.
       -1   -1    0    0    0  501  0.00000000000E+00  0.00000000000E+00 -0.67204641395E+03  0.67204641397E+03  0.50400001928E-02 0.  1.
    10030    2    1    2    0    0  0.00000000000E+00  0.00000000000E+00 -0.10191025771E+03  0.12421825702E+04  0.12379950877E+04 0.  0.
        1    1    3    3  502    0  0.24815576025E+03  0.68761827961E+02 -0.61575206202E+03  0.66742795285E+03  0.50400001928E-02 0.  1.
       -1    1    3    3    0  502 -0.24815576025E+03 -0.68761827961E+02  0.51384180432E+03  0.57475461740E+03  0.50400001928E-02 0. -1.
</event>
<event>
 5   0  0.2312105E-03  0.1273233E+04  0.7818609E-02  0.9051065E-01
        2   -1    0    0  501    0  0.00000000000E+00  0.00000000000E+00  0.14136549608E+04  0.14136549608E+04  0.25500000920E-02 0. -1.
       -2   -1    0    0    0  501  0.00000000000E+00  0.00000000000E+00 -0.28669008724E+03  0.28669008725E+03  0.25500000920E-02 0.  1.
    10030    2    1    2    0    0  0.00000000000E+00  0.00000000000E+00  0.11269648736E+04  0.17003450481E+04  0.12732334649E+04 0.  0.
        5    1    3    3  502    0 -0.51985507666E+03  0.62243024455E+02  0.10470852168E+04  0.11706976707E+04  0.46999998093E+01 0. -1.
       -5    1    3    3    0  502  0.51985507666E+03 -0.62243024455E+02  0.79879656757E+02  0.52964737740E+03  0.46999998093E+01 0.  1.
</event>
<event>
 5   0  0.9131250E-04  0.1438891E+04  0.7818609E-02  0.8926138E-01
       -3   -1    0    0    0  501  0.00000000000E+00  0.00000000000E+00  0.80789816980E+03  0.80789817611E+03  0.10100000352E+00 0. -1.
        3   -1    0    0  501    0  0.00000000000E+00  0.00000000000E+00 -0.64067734280E+03  0.64067735076E+03  0.10100000352E+00 0.  1.
    10030    2    1    2    0    0  0.00000000000E+00  0.00000000000E+00  0.16722082700E+03  0.14485755269E+04  0.14388913274E+04 0.  0.
        4    1    3    3  502    0 -0.21176097336E+02  0.28094691508E+03  0.75004828570E+03  0.80122009459E+03  0.12699999809E+01 0. -1.
       -4    1    3    3    0  502  0.21176097336E+02 -0.28094691508E+03 -0.58282745870E+03  0.64735543228E+03  0.12699999809E+01 0.  1.
</event>
<event>
 5   0  0.2401211E-03  0.1331848E+04  0.7818609E-02  0.9004684E-01
        2   -1    0    0  501    0  0.00000000000E+00  0.00000000000E+00  0.53836261582E+03  0.53836261582E+03  0.25500000920E-02 0.  1.
       -2   -1    0    0    0  501  0.00000000000E+00  0.00000000000E+00 -0.82371020055E+03  0.82371020055E+03  0.25500000920E-02 0. -1.
    10030    2    1    2    0    0  0.00000000000E+00  0.00000000000E+00 -0.28534758473E+03  0.13620728164E+04  0.13318480067E+04 0.  0.
        4    1    3    3  502    0 -0.85742575842E+02 -0.13953182117E+03 -0.80279259149E+03  0.81932806389E+03  0.12699999809E+01 0. -1.
       -4    1    3    3    0  502  0.85742575842E+02  0.13953182117E+03  0.51744500676E+03  0.54274475249E+03  0.12699999809E+01 0.  1.
</event>
<event>
 5   0  0.2401211E-03  0.1271132E+04  0.7818609E-02  0.9052776E-01
       -2   -1    0    0    0  501  0.00000000000E+00  0.00000000000E+00  0.29323993873E+03  0.29323993874E+03  0.25500000920E-02 0. -1.
        2   -1    0    0  501    0  0.00000000000E+00  0.00000000000E+00 -0.13775210303E+04  0.13775210303E+04  0.25500000920E-02 0.  1.
    10030    2    1    2    0    0  0.00000000000E+00  0.00000000000E+00 -0.10842810916E+04  0.16707609690E+04  0.12711320664E+04 0.  0.
        4    1    3    3  502    0 -0.29293244732E+03 -0.36059835249E+02 -0.12819821351E+04  0.13155187335E+04  0.12699999809E+01 0.  1.
       -4    1    3    3    0  502  0.29293244732E+03  0.36059835249E+02  0.19770104356E+03  0.35524223557E+03  0.12699999809E+01 0. -1.
</event>
<event>
 5   0  0.1346593E-03  0.1309874E+04  0.7818609E-02  0.9021772E-01
       -1   -1    0    0    0  501  0.00000000000E+00  0.00000000000E+00  0.70167941418E+03  0.70167941420E+03  0.50400001928E-02 0.  1.
        1   -1    0    0  501    0  0.00000000000E+00  0.00000000000E+00 -0.61130823833E+03  0.61130823835E+03  0.50400001928E-02 0. -1.
    10030    2    1    2    0    0  0.00000000000E+00  0.00000000000E+00  0.90371175853E+02  0.13129876525E+04  0.13098738971E+04 0.  0.
        2    1    3    3  502    0 -0.11802789438E+03 -0.47916074370E+03  0.47680970228E+03  0.68620193409E+03  0.25500000920E-02 0.  1.
       -2    1    3    3    0  502  0.11802789438E+03  0.47916074370E+03 -0.38643852642E+03  0.62678571846E+03  0.25500000920E-02 0. -1.
</event>
<event>
 5   0  0.1324721E-03  0.1295081E+04  0.7818609E-02  0.9033475E-01
       -1   -1    0    0    0  501  0.00000000000E+00  0.00000000000E+00  0.46689071208E+03  0.46689071211E+03  0.50400001928E-02 0. -1.
        1   -1    0    0  501    0  0.00000000000E+00  0.00000000000E+00 -0.89808808989E+03  0.89808808990E+03  0.50400001928E-02 0.  1.
    10030    2    1    2    0    0  0.00000000000E+00  0.00000000000E+00 -0.43119737781E+03  0.13649788020E+04  0.12950814458E+04 0.  0.
        1    1    3    3  502    0  0.31311169024E+02 -0.56329333827E+03  0.11940709991E+03  0.57666093138E+03  0.50400001928E-02 0. -1.
       -1    1    3    3    0  502 -0.31311169024E+02  0.56329333827E+03 -0.55060447772E+03  0.78831787063E+03  0.50400001928E-02 0.  1.
</event>
<event>
 5   0  0.1332630E-03  0.1287008E+04  0.7818609E-02  0.9039932E-01
       -1   -1    0    0    0  501  0.00000000000E+00  0.00000000000E+00  0.13557625589E+03  0.13557625598E+03  0.50400001928E-02 0.  1.
        1   -1    0    0  501    0  0.00000000000E+00  0.00000000000E+00 -0.30543514464E+04  0.30543514464E+04  0.50400001928E-02 0. -1.
    10030    2    1    2    0    0  0.00000000000E+00  0.00000000000E+00 -0.29187751905E+04  0.31899277024E+04  0.12870082104E+04 0.  0.
        5    1    3    3  502    0 -0.50699767940E+03  0.34079020803E+03 -0.95818594881E+03  0.11363657049E+04  0.46999998093E+01 0.  1.
       -5    1    3    3    0  502  0.50699767940E+03 -0.34079020803E+03 -0.19605892417E+04  0.20535619975E+04  0.46999998093E+01 0. -1.
</event>
<event>
 5   0  0.2401211E-03  0.1295020E+04  0.7818609E-02  0.9033524E-01
       -2   -1    0    0    0  501  0.00000000000E+00  0.00000000000E+00  0.19209027207E+03  0.19209027209E+03  0.25500000920E-02 0. -1.
        2   -1    0    0  501    0  0.00000000000E+00  0.00000000000E+00 -0.21826664504E+04  0.21826664504E+04  0.25500000920E-02 0.  1.
    10030    2    1    2    0    0  0.00000000000E+00  0.00000000000E+00 -0.19905761783E+04  0.23747567225E+04  0.12950196791E+04 0.  0.
        4    1    3    3  502    0  0.61163834896E+03 -0.50917468046E+02 -0.61692259587E+03  0.87022362681E+03  0.12699999809E+01 0. -1.
       -4    1    3    3    0  502 -0.61163834896E+03  0.50917468046E+02 -0.13736535825E+04  0.15045330957E+04  0.12699999809E+01 0.  1.
</event>
<event>
 5   0  0.2312105E-03  0.1319799E+04  0.7818609E-02  0.9014010E-01
        2   -1    0    0  501    0  0.00000000000E+00  0.00000000000E+00  0.64455526744E+03  0.64455526745E+03  0.25500000920E-02 0.  1.
       -2   -1    0    0    0  501  0.00000000000E+00  0.00000000000E+00 -0.67560864395E+03  0.67560864395E+03  0.25500000920E-02 0. -1.
    10030    2    1    2    0    0  0.00000000000E+00  0.00000000000E+00 -0.31053376501E+02  0.13201639114E+04  0.13197986364E+04 0.  0.
        5    1    3    3  502    0 -0.16741979729E+03 -0.56471370927E+03  0.28206877596E+03  0.65308180677E+03  0.46999998093E+01 0.  1.
       -5    1    3    3    0  502  0.16741979729E+03  0.56471370927E+03 -0.31312215246E+03  0.66708210463E+03  0.46999998093E+01 0. -1.
</event>
<event>
 5   0  0.2334946E-03  0.1304673E+04  0.7818609E-02  0.9025867E-01
       -2   -1    0    0    0  501  0.00000000000E+00  0.00000000000E+00  0.36804572019E+03  0.36804572020E+03  0.25500000920E-02 0.  1.
        2   -1    0    0  501    0  0.00000000000E+00  0.00000000000E+00 -0.11562238262E+04  0.11562238262E+04  0.25500000920E-02 0. -1.
    10030    2    1    2    0    0  0.00000000000E+00  0.00000000000E+00 -0.78817810597E+03  0.15242695464E+04  0.13046734930E+04 0.  0.
        1    1    3    3  502    0 -0.49111515725E+03 -0.39990555803E+03 -0.57667794588E+03  0.85654889312E+03  0.50400001928E-02 0.  1.
       -1    1    3    3    0  502  0.49111515725E+03  0.39990555803E+03 -0.21150016010E+03  0.66772065324E+03  0.50400001928E-02 0. -1.
</event>
<event>
 5   0  0.2334946E-03  0.1350345E+04  0.7818609E-02  0.8990567E-01
        2   -1    0    0  501    0  0.00000000000E+00  0.00000000000E+00  0.18059548548E+04  0.18059548548E+04  0.25500000920E-02 0. -1.
       -2   -1    0    0    0  501  0.00000000000E+00  0.00000000000E+00 -0.25241945222E+03  0.25241945223E+03  0.25500000920E-02 0.  1.
    10030    2    1    2    0    0  0.00000000000E+00  0.00000000000E+00  0.15535354026E+04  0.20583743070E+04  0.13503453413E+04 0.  0.
        1    1    3    3  502    0  0.39157104175E+03  0.48757829824E+03  0.11647922075E+04  0.13220443881E+04  0.50400001928E-02 0. -1.
       -1    1    3    3    0  502 -0.39157104175E+03 -0.48757829824E+03  0.38874319511E+03  0.73632991887E+03  0.50400001928E-02 0.  1.
</event>
<event>
 5   0  0.1332630E-03  0.1330625E+04  0.7818609E-02  0.9005625E-01
        1   -1    0    0  501    0  0.00000000000E+00  0.00000000000E+00  0.11180376305E+04  0.11180376305E+04  0.50400001928E-02 0. -1.
       -1   -1    0    0    0  501  0.00000000000E+00  0.00000000000E+00 -0.39590878385E+03  0.39590878388E+03  0.50400001928E-02 0.  1.
    10030    2    1    2    0    0  0.00000000000E+00  0.00000000000E+00  0.72212884669E+03  0.15139464144E+04  0.13306252946E+04 0.  0.
        5    1    3    3  502    0  0.28531085063E+02 -0.36348093708E+03 -0.27209898107E+03  0.45496413038E+03  0.46999998093E+01 0.  1.
       -5    1    3    3    0  502 -0.28531085063E+02  0.36348093708E+03  0.99422782776E+03  0.10589822840E+04  0.46999998093E+01 0. -1.
</event>
<event>
 5   0  0.1332630E-03  0.1299059E+04  0.7818609E-02  0.9030312E-01
        1   -1    0    0  501    0  0.00000000000E+00  0.00000000000E+00  0.10018366707E+04  0.10018366707E+04  0.50400001928E-02 0. -1.
       -1   -1    0    0    0  501  0.00000000000E+00  0.00000000000E+00 -0.42111481280E+03  0.42111481283E+03  0.50400001928E-02 0.  1.
    10030    2    1    2    0    0  0.00000000000E+00  0.00000000000E+00  0.58072185788E+03  0.14229514835E+04  0.12990585238E+04 0.  0.
        5    1    3    3  502    0 -0.53971415005E+03  0.36129315781E+03  0.29746501850E+03  0.71437499738E+03  0.46999998093E+01 0. -1.
       -5    1    3    3    0  502  0.53971415005E+03 -0.36129315781E+03  0.28325683938E+03  0.70857648613E+03  0.46999998093E+01 0.  1.
</event>
<event>
 5   0  0.2401211E-03  0.1324847E+04  0.7818609E-02  0.9010090E-01
        2   -1    0    0  501    0  0.00000000000E+00  0.00000000000E+00  0.11227752818E+04  0.11227752818E+04  0.25500000920E-02 0.  1.
       -2   -1    0    0    0  501  0.00000000000E+00  0.00000000000E+00 -0.39082168907E+03  0.39082168908E+03  0.25500000920E-02 0. -1.
    10030    2    1    2    0    0  0.00000000000E+00  0.00000000000E+00  0.73195359275E+03  0.15135969709E+04  0.13248470585E+04 0.  0.
        4    1    3    3  502    0 -0.25265525634E+03 -0.31740172883E+02  0.10646237628E+04  0.10946540487E+04  0.12699999809E+01 0.  1.
       -4    1    3    3    0  502  0.25265525634E+03  0.31740172883E+02 -0.33267017004E+03  0.41894292220E+03  0.12699999809E+01 0. -1.
</event>
<event>
 5   0  0.1310461E-03  0.1310675E+04  0.7818609E-02  0.9021142E-01
        1   -1    0    0  501    0  0.00000000000E+00  0.00000000000E+00  0.53791181137E+03  0.53791181139E+03  0.50400001928E-02 0.  1.
       -1   -1    0    0    0  501  0.00000000000E+00  0.00000000000E+00 -0.79839702381E+03  0.79839702383E+03  0.50400001928E-02 0. -1.
    10030    2    1    2    0    0  0.00000000000E+00  0.00000000000E+00 -0.26048521245E+03  0.13363088352E+04  0.13106749243E+04 0.  0.
        4    1    3    3  502    0 -0.37217179675E+03 -0.64199626103E+02  0.41579902367E+03  0.56171512288E+03  0.12699999809E+01 0.  1.
       -4    1    3    3    0  502  0.37217179675E+03  0.64199626103E+02 -0.67628423611E+03  0.77459371234E+03  0.12699999809E+01 0. -1.
</event>
<event>
 5   0  0.2401211E-03  0.1294685E+04  0.7818609E-02  0.9033790E-01
       -2   -1    0    0    0  501  0.00000000000E+00  0.00000000000E+00  0.72514494825E+03  0.72514494825E+03  0.25500000920E-02 0. -1.
        2   -1    0    0  501    0  0.00000000000E+00  0.00000000000E+00 -0.57788790979E+03  0.57788790979E+03  0.25500000920E-02 0.  1.
    10030    2    1    2    0    0  0.00000000000E+00  0.00000000000E+00  0.14725703846E+03  0.13030328580E+04  0.12946852875E+04 0.  0.
        4    1    3    3  502    0 -0.83460812176E+02 -0.57041162317E+03  0.37000256461E+03  0.68500995448E+03  0.12699999809E+01 0. -1.
       -4    1    3    3    0  502  0.83460812176E+02  0.57041162317E+03 -0.22274552615E+03  0.61802290357E+03  0.12699999809E+01 0.  1.
</event>
<event>
 5   0  0.1387622E-03  0.1312960E+04  0.7818609E-02  0.9019351E-01
       -1   -1    0    0    0  501  0.00000000000E+00  0.00000000000E+00  0.13959089679E+04  0.13959089680E+04  0.50400001928E-02 0. -1.
        1   -1    0    0  501    0  0.00000000000E+00  0.00000000000E+00 -0.30873483627E+03  0.30873483631E+03  0.50400001928E-02 0.  1.
    10030    2    1    2    0    0  0.00000000000E+00  0.00000000000E+00  0.10871741317E+04  0.17046438043E+04  0.13129595983E+04 0.  0.
        3    1    3    3  502    0 -0.51077134433E+03  0.17854898730E+02  0.86540621978E+01  0.51115659694E+03  0.10100000352E+00 0.  1.
       -3    1    3    3    0  502  0.51077134433E+03 -0.17854898730E+02  0.10785200695E+04  0.11934872073E+04  0.10100000352E+00 0. -1.
</event>
<event>
 5   0  0.1310461E-03  0.1307482E+04  0.7818609E-02  0.9023653E-01
       -1   -1    0    0    0  501  0.00000000000E+00  0.00000000000E+00  0.36580630855E+03  0.36580630859E+03  0.50400001928E-02 0. -1.
        1   -1    0    0  501    0  0.00000000000E+00  0.00000000000E+00 -0.11683155940E+04  0.11683155941E+04  0.50400001928E-02 0.  1.
    10030    2    1    2    0    0  0.00000000000E+00  0.00000000000E+00 -0.80250928549E+03  0.15341219026E+04  0.13074818771E+04 0.  0.
        4    1    3    3  502    0  0.38787025590E+03 -0.51528519314E+03 -0.27590231615E+03  0.70148832252E+03  0.12699999809E+01 0. -1.
       -4    1    3    3    0  502 -0.38787025590E+03  0.51528519314E+03 -0.52660696934E+03  0.83263358012E+03  0.12699999809E+01 0.  1.
</event>
<event>
 5   0  0.1346593E-03  0.1299908E+04  0.7818609E-02  0.9029638E-01
        1   -1    0    0  501    0  0.00000000000E+00  0.00000000000E+00  0.17050821024E+04  0.17050821024E+04  0.50400001928E-02 0.  1.
       -1   -1    0    0    0  501  0.00000000000E+00  0.00000000000E+00 -0.24775348194E+03  0.24775348199E+03  0.50400001928E-02 0. -1.
    10030    2    1    2    0    0  0.00000000000E+00  0.00000000000E+00  0.14573286205E+04  0.19528355844E+04  0.12999077320E+04 0.  0.
        2    1    3    3  502    0 -0.31875028493E+03 -0.55971099212E+03  0.85930194369E+03  0.10739078030E+04  0.25500000920E-02 0.  1.
       -2    1    3    3    0  502  0.31875028493E+03  0.55971099212E+03  0.59802667678E+03  0.87892778144E+03  0.25500000920E-02 0. -1.
</event>
<event>
 5   0  0.2334946E-03  0.1302208E+04  0.7818609E-02  0.9027816E-01
        2   -1    0    0  501    0  0.00000000000E+00  0.00000000000E+00  0.18493489262E+04  0.18493489262E+04  0.25500000920E-02 0. -1.
       -2   -1    0    0    0  501  0.00000000000E+00  0.00000000000E+00 -0.22923532031E+03  0.22923532033E+03  0.25500000920E-02 0.  1.
    10030    2    1    2    0    0  0.00000000000E+00  0.00000000000E+00  0.16201136059E+04  0.20785842466E+04  0.13022075003E+04 0.  0.
        1    1    3    3  502    0 -0.20700134815E+03 -0.27356627609E+03  0.16933890587E+04  0.17277889251E+04  0.50400001928E-02 0. -1.
       -1    1    3    3    0  502  0.20700134815E+03  0.27356627609E+03 -0.73275452788E+02  0.35079532145E+03  0.50400001928E-02 0.  1.
</event>
<event>
 5   0  0.1324721E-03  0.1293623E+04  0.7818609E-02  0.9034638E-01
        1   -1    0    0  501    0  0.00000000000E+00  0.00000000000E+00  0.58737425753E+03  0.58737425755E+03  0.50400001928E-02 0.  1.
       -1   -1    0    0    0  501  0.00000000000E+00  0.00000000000E+00 -0.71226329443E+03  0.71226329445E+03  0.50400001928E-02 0. -1.
    10030    2    1    2    0    0  0.00000000000E+00  0.00000000000E+00 -0.12488903690E+03  0.12996375520E+04  0.12936230112E+04 0.  0.
        1    1    3    3  502    0  0.16468868117E+03  0.16802206574E+03 -0.66775001788E+03  0.70798577859E+03  0.50400001928E-02 0. -1.
       -1    1    3    3    0  502 -0.16468868117E+03 -0.16802206574E+03  0.54286098098E+03  0.59165177341E+03  0.50400001928E-02 0.  1.
</event>
<event>
 5   0  0.2334946E-03  0.1150910E+04  0.7818609E-02  0.9156945E-01
       -2   -1    0    0    0  501  0.00000000000E+00  0.00000000000E+00  0.24186539897E+03  0.24186539898E+03  0.25500000920E-02 0. -1.
        2   -1    0    0  501    0  0.00000000000E+00  0.00000000000E+00 -0.13691424602E+04  0.13691424602E+04  0.25500000920E-02 0.  1.
    10030    2    1    2    0    0  0.00000000000E+00  0.00000000000E+00 -0.11272770612E+04  0.16110078592E+04  0.11509095314E+04 0.  0.
        1    1    3    3  502    0  0.42085611962E+02  0.24390360371E+02  0.23898253523E+03  0.24388263691E+03  0.50400001928E-02 0. -1.
       -1    1    3    3    0  502 -0.42085611962E+02 -0.24390360371E+02 -0.13662595965E+04  0.13671252223E+04  0.50400001928E-02 0.  1.
</event>
<event>
 5   0  0.2361043E-03  0.1359229E+04  0.7818609E-02  0.8983871E-01
        2   -1    0    0  501    0  0.00000000000E+00  0.00000000000E+00  0.14468368347E+04  0.14468368347E+04  0.25500000920E-02 0.  1.
       -2   -1    0    0    0  501  0.00000000000E+00  0.00000000000E+00 -0.31923146254E+03  0.31923146255E+03  0.25500000920E-02 0. -1.
    10030    2    1    2    0    0  0.00000000000E+00  0.00000000000E+00  0.11276053721E+04  0.17660682972E+04  0.13592289561E+04 0.  0.
        2    1    3    3  502    0  0.30163544927E+02  0.56125408772E+03  0.10602024639E+04  0.11999771893E+04  0.25500000920E-02 0.  1.
       -2    1    3    3    0  502 -0.30163544927E+02 -0.56125408772E+03  0.67402908264E+02  0.56609110792E+03  0.25500000920E-02 0. -1.
</event>
<event>
 5   0  0.2401211E-03  0.1280177E+04  0.7818609E-02  0.9045435E-01
       -2   -1    0    0    0  501  0.00000000000E+00  0.00000000000E+00  0.25488724814E+03  0.25488724815E+03  0.25500000920E-02 0.  1.
        2   -1    0    0  501    0  0.00000000000E+00  0.00000000000E+00 -0.16074286787E+04  0.16074286787E+04  0.25500000920E-02 0. -1.
    10030    2    1    2    0    0  0.00000000000E+00  0.00000000000E+00 -0.13525414306E+04  0.18623159269E+04  0.12801766636E+04 0.  0.
        4    1    3    3  502    0  0.36189312334E+02  0.39801824071E+03 -0.14036131510E+04  0.14594038772E+04  0.12699999809E+01 0. -1.
       -4    1    3    3    0  502 -0.36189312334E+02 -0.39801824071E+03  0.51071720389E+02  0.40291204969E+03  0.12699999809E+01 0.  1.
</event>
<event>
 5   0  0.1346593E-03  0.1262015E+04  0.7818609E-02  0.9060242E-01
       -1   -1    0    0    0  501  0.00000000000E+00  0.00000000000E+00  0.99605086991E+03  0.99605086992E+03  0.50400001928E-02 0.  1.
        1   -1    0    0  501    0  0.00000000000E+00  0.00000000000E+00 -0.39974936568E+03  0.39974936571E+03  0.50400001928E-02 0. -1.
    10030    2    1    2    0    0  0.00000000000E+00  0.00000000000E+00  0.59630150423E+03  0.13958002356E+04  0.12620153778E+04 0.  0.
        2    1    3    3  502    0 -0.62749471216E+03  0.65225670613E+02  0.28387074392E+03  0.69179953827E+03  0.25500000920E-02 0.  1.
       -2    1    3    3    0  502  0.62749471216E+03 -0.65225670613E+02  0.31243076030E+03  0.70400069736E+03  0.25500000920E-02 0. -1.
</event>
<event>
 5   0  0.1324721E-03  0.1308320E+04  0.7818609E-02  0.9022993E-01
       -1   -1    0    0    0  501  0.00000000000E+00  0.00000000000E+00  0.58365931131E+03  0.58365931133E+03  0.50400001928E-02 0. -1.
        1   -1    0    0  501    0  0.00000000000E+00  0.00000000000E+00 -0.73317687419E+03  0.73317687421E+03  0.50400001928E-02 0.  1.
    10030    2    1    2    0    0  0.00000000000E+00  0.00000000000E+00 -0.14951756288E+03  0.13168361855E+04  0.13083203117E+04 0.  0.
        1    1    3    3  502    0 -0.23178949835E+03 -0.69637143809E+02  0.53693857821E+03  0.58896412466E+03  0.50400001928E-02 0. -1.
       -1    1    3    3    0  502  0.23178949835E+03  0.69637143809E+02 -0.68645614109E+03  0.72787206088E+03  0.50400001928E-02 0.  1.
</event>
<event>
 5   0  0.2401211E-03  0.1302197E+04  0.7818609E-02  0.9027825E-01
       -2   -1    0    0    0  501  0.00000000000E+00  0.00000000000E+00  0.84171201267E+03  0.84171201268E+03  0.25500000920E-02 0. -1.
        2   -1    0    0  501    0  0.00000000000E+00  0.00000000000E+00 -0.50365127959E+03  0.50365127959E+03  0.25500000920E-02 0.  1.
    10030    2    1    2    0    0  0.00000000000E+00  0.00000000000E+00  0.33806073309E+03  0.13453632923E+04  0.13021971160E+04 0.  0.
        4    1    3    3  502    0 -0.50396787761E+02  0.11812305411E+03 -0.49043488921E+03  0.50697227299E+03  0.12699999809E+01 0.  1.
       -4    1    3    3    0  502  0.50396787761E+02 -0.11812305411E+03  0.82849562230E+03  0.83839101928E+03  0.12699999809E+01 0. -1.
</event>
<event>
 5   0  0.2312105E-03  0.1303905E+04  0.7818609E-02  0.9026474E-01
       -2   -1    0    0    0  501  0.00000000000E+00  0.00000000000E+00  0.47395640032E+03  0.47395640033E+03  0.25500000920E-02 0. -1.
        2   -1    0    0  501    0  0.00000000000E+00  0.00000000000E+00 -0.89679635178E+03  0.89679635178E+03  0.25500000920E-02 0.  1.
    10030    2    1    2    0    0  0.00000000000E+00  0.00000000000E+00 -0.42283995146E+03  0.13707527521E+04  0.13039054731E+04 0.  0.
        5    1    3    3  502    0  0.33969268914E+03 -0.14658257534E+03 -0.77572878974E+03  0.85945030088E+03  0.46999998093E+01 0.  1.
       -5    1    3    3    0  502 -0.33969268914E+03  0.14658257534E+03  0.35288883829E+03  0.51130245123E+03  0.46999998093E+01 0. -1.
</event>
<event>
 5   0  0.1346593E-03  0.1289008E+04  0.7818609E-02  0.9038327E-01
        1   -1    0    0  501    0  0.00000000000E+00  0.00000000000E+00  0.64159275078E+03  0.64159275080E+03  0.50400001928E-02 0. -1.
       -1   -1    0    0    0  501  0.00000000000E+00  0.00000000000E+00 -0.64742881294E+03  0.64742881295E+03  0.50400001928E-02 0.  1.
    10030    2    1    2    0    0  0.00000000000E+00  0.00000000000E+00 -0.58360621556E+01  0.12890215638E+04  0.12890083523E+04 0.  0.
        2    1    3    3  502    0 -0.50714866914E+03  0.14890154492E+03  0.36588676618E+03  0.64284101329E+03  0.25500000920E-02 0. -1.
       -2    1    3    3    0  502  0.50714866914E+03 -0.14890154492E+03 -0.37172282833E+03  0.64618055047E+03  0.25500000920E-02 0.  1.
</event>
<event>
 5   0  0.9131250E-04  0.1273969E+04  0.7818609E-02  0.9050467E-01
       -3   -1    0    0    0  501  0.00000000000E+00  0.00000000000E+00  0.37136805206E+03  0.37136806579E+03  0.10100000352E+00 0.  1.
        3   -1    0    0  501    0  0.00000000000E+00  0.00000000000E+00 -0.10925796681E+04  0.10925796728E+04  0.10100000352E+00 0. -1.
    10030    2    1    2    0    0  0.00000000000E+00  0.00000000000E+00 -0.72121161605E+03  0.14639477386E+04  0.12739689110E+04 0.  0.
        1    1    3    3  502    0 -0.49706160811E+03  0.22139948487E+03  0.19928032685E+02  0.54450445423E+03  0.50400001928E-02 0.  1.
       -1    1    3    3    0  502  0.49706160811E+03 -0.22139948487E+03 -0.74113964874E+03  0.91944328434E+03  0.50400001928E-02 0. -1.
</event>
<event>
 5   0  0.1387622E-03  0.1296591E+04  0.7818609E-02  0.9032273E-01
       -1   -1    0    0    0  501  0.00000000000E+00  0.00000000000E+00  0.21523437274E+03  0.21523437280E+03  0.50400001928E-02 0. -1.
        1   -1    0    0  501    0  0.00000000000E+00  0.00000000000E+00 -0.19526940728E+04  0.19526940728E+04  0.50400001928E-02 0.  1.
    10030    2    1    2    0    0  0.00000000000E+00  0.00000000000E+00 -0.17374597001E+04  0.21679284456E+04  0.12965907357E+04 0.  0.
        3    1    3    3  502    0  0.25847430564E+03 -0.85507413689E+02 -0.18524792461E+04  0.18723781273E+04  0.10100000352E+00 0.  1.
       -3    1    3    3    0  502 -0.25847430564E+03  0.85507413689E+02  0.11501954598E+03  0.29555031828E+03  0.10100000352E+00 0. -1.
</event>
<event>
 5   0  0.2361043E-03  0.1325698E+04  0.7818609E-02  0.9009431E-01
        2   -1    0    0  501    0  0.00000000000E+00  0.00000000000E+00  0.10603719340E+04  0.10603719340E+04  0.25500000920E-02 0.  1.
       -2   -1    0    0    0  501  0.00000000000E+00  0.00000000000E+00 -0.41435347385E+03  0.41435347386E+03  0.25500000920E-02 0. -1.
    10030    2    1    2    0    0  0.00000000000E+00  0.00000000000E+00  0.64601846011E+03  0.14747254078E+04  0.13256979964E+04 0.  0.
        2    1    3    3  502    0  0.63977307795E+03 -0.12602432976E+03  0.45546162852E+03  0.79538482385E+03  0.25500000920E-02 0.  1.
       -2    1    3    3    0  502 -0.63977307795E+03  0.12602432976E+03  0.19055683160E+03  0.67934058398E+03  0.25500000920E-02 0. -1.
</event>
<event>
 5   0  0.2401211E-03  0.1320706E+04  0.7818609E-02  0.9013304E-01
        2   -1    0    0  501    0  0.00000000000E+00  0.00000000000E+00  0.91135697321E+03  0.91135697321E+03  0.25500000920E-02 0.  1.
       -2   -1    0    0    0  501  0.00000000000E+00  0.00000000000E+00 -0.47848021045E+03  0.47848021045E+03  0.25500000920E-02 0. -1.
    10030    2    1    2    0    0  0.00000000000E+00  0.00000000000E+00  0.43287676276E+03  0.13898371837E+04  0.13207062903E+04 0.  0.
        4    1    3    3  502    0 -0.36591494836E+03 -0.45063112917E+03 -0.11484525467E+03  0.59173744974E+03  0.12699999809E+01 0.  1.
       -4    1    3    3    0  502  0.36591494836E+03  0.45063112917E+03  0.54772201743E+03  0.79809973392E+03  0.12699999809E+01 0. -1.
</event>
<event>
 5   0  0.1324721E-03  0.1333960E+04  0.7818609E-02  0.9003060E-01
       -1   -1    0    0    0  501  0.00000000000E+00  0.00000000000E+00  0.43981596632E+03  0.43981596635E+03  0.50400001928E-02 0.  1.
        1   -1    0    0  501    0  0.00000000000E+00  0.00000000000E+00 -0.10114738042E+04  0.10114738042E+04  0.50400001928E-02 0. -1.
    10030    2    1    2    0    0  0.00000000000E+00  0.00000000000E+00 -0.57165783785E+03  0.14512897705E+04  0.13339600123E+04 0.  0.
        1    1    3    3  502    0  0.50877043672E+03  0.43059678236E+03 -0.31250897005E+03  0.73615406176E+03  0.50400001928E-02 0.  1.
       -1    1    3    3    0  502 -0.50877043672E+03 -0.43059678236E+03 -0.25914886780E+03  0.71513570878E+03  0.50400001928E-02 0. -1.
</event>
<event>
 5   0  0.1324721E-03  0.1299780E+04  0.7818609E-02  0.9029739E-01
       -1   -1    0    0    0  501  0.00000000000E+00  0.00000000000E+00  0.46854152573E+03  0.46854152576E+03  0.50400001928E-02 0.  1.
        1   -1    0    0  501    0  0.00000000000E+00  0.00000000000E+00 -0.90142980967E+03  0.90142980968E+03  0.50400001928E-02 0. -1.
    10030    2    1    2    0    0  0.00000000000E+00  0.00000000000E+00 -0.43288828394E+03  0.13699713354E+04  0.12997804405E+04 0.  0.
        1    1    3    3  502    0  0.38063743939E+03  0.51368274819E+03 -0.33937202662E+03  0.72382884616E+03  0.50400001928E-02 0. -1.
       -1    1    3    3    0  502 -0.38063743939E+03 -0.51368274819E+03 -0.93516257312E+02  0.64614248929E+03  0.50400001928E-02 0.  1.
</event>
<event>
 5   0  0.2478236E-03  0.1297604E+04  0.7818609E-02  0.9031467E-01
       -2   -1    0    0    0  501  0.00000000000E+00  0.00000000000E+00  0.43811341193E+03  0.43811341193E+03  0.25500000920E-02 0.  1.
        2   -1    0    0  501    0  0.00000000000E+00  0.00000000000E+00 -0.96081129991E+03  0.96081129991E+03  0.25500000920E-02 0. -1.
    10030    2    1    2    0    0  0.00000000000E+00  0.00000000000E+00 -0.52269788798E+03  0.13989247118E+04  0.12976044341E+04 0.  0.
        3    1    3    3  502    0 -0.41159825478E+03 -0.45502271014E+03 -0.48873369686E+03  0.78442298967E+03  0.10100000352E+00 0. -1.
       -3    1    3    3    0  502  0.41159825478E+03  0.45502271014E+03 -0.33964191128E+02  0.61450172218E+03  0.10100000352E+00 0.  1.
</event>
<event>
 5   0  0.1310461E-03  0.1323101E+04  0.7818609E-02  0.9011444E-01
       -1   -1    0    0    0  501  0.00000000000E+00  0.00000000000E+00  0.58137665276E+03  0.58137665279E+03  0.50400001928E-02 0. -1.
        1   -1    0    0  501    0  0.00000000000E+00  0.00000000000E+00 -0.75278042392E+03  0.75278042394E+03  0.50400001928E-02 0.  1.
    10030    2    1    2    0    0  0.00000000000E+00  0.00000000000E+00 -0.17140377116E+03  0.13341570767E+04  0.13231008475E+04 0.  0.
        4    1    3    3  502    0  0.24647862199E+03  0.52082428544E+03  0.24203361789E+03  0.62497322542E+03  0.12699999809E+01 0. -1.
       -4    1    3    3    0  502 -0.24647862199E+03 -0.52082428544E+03 -0.41343738904E+03  0.70918385131E+03  0.12699999809E+01 0.  1.
</event>
<event>
 5   0  0.1324721E-03  0.1297644E+04  0.7818609E-02  0.9031435E-01
        1   -1    0    0  501    0  0.00000000000E+00  0.00000000000E+00  0.87147240923E+03  0.87147240924E+03  0.50400001928E-02 0.  1.
       -1   -1    0    0    0  501  0.00000000000E+00  0.00000000000E+00 -0.48305609030E+03  0.48305609032E+03  0.50400001928E-02 0. -1.
    10030    2    1    2    0    0  0.00000000000E+00  0.00000000000E+00  0.38841631893E+03  0.13545284996E+04  0.12976441035E+04 0.  0.
        1    1    3    3  502    0  0.20153040585E+02  0.64731926031E+03  0.15322264671E+03  0.66551149449E+03  0.50400001928E-02 0.  1.
       -1    1    3    3    0  502 -0.20153040585E+02 -0.64731926031E+03  0.23519367222E+03  0.68901700508E+03  0.50400001928E-02 0. -1.
</event>
<event>
 5   0  0.9131250E-04  0.1294571E+04  0.7818609E-02  0.9033882E-01
        3   -1    0    0  501    0  0.00000000000E+00  0.00000000000E+00  0.91375297222E+03  0.91375297781E+03  0.10100000352E+00 0. -1.
       -3   -1    0    0    0  501  0.00000000000E+00  0.00000000000E+00 -0.45852485052E+03  0.45852486164E+03  0.10100000352E+00 0.  1.
    10030    2    1    2    0    0  0.00000000000E+00  0.00000000000E+00  0.45522812171E+03  0.13722778394E+04  0.12945709041E+04 0.  0.
        3    1    3    3  502    0 -0.51780328250E+03 -0.16830970902E+03 -0.14344027547E+03  0.56304841741E+03  0.10100000352E+00 0.  1.
       -3    1    3    3    0  502  0.51780328250E+03  0.16830970902E+03  0.59866839718E+03  0.80922942204E+03  0.10100000352E+00 0. -1.
</event>
<event>
 5   0  0.1324721E-03  0.1301875E+04  0.7818609E-02  0.9028080E-01
       -1   -1    0    0    0  501  0.00000000000E+00  0.00000000000E+00  0.57563401139E+03  0.57563401141E+03  0.50400001928E-02 0.  1.
        1   -1    0    0  501    0  0.00000000000E+00  0.00000000000E+00 -0.73609200064E+03  0.73609200066E+03  0.50400001928E-02 0. -1.
    10030    2    1    2    0    0  0.00000000000E+00  0.00000000000E+00 -0.16045798925E+03  0.13117260121E+04  0.13018749419E+04 0.  0.
        1    1    3    3  502    0 -0.64655170784E+03  0.22833115707E+02 -0.77883096980E+01  0.64700163823E+03  0.50400001928E-02 0.  1.
       -1    1    3    3    0  502  0.64655170784E+03 -0.22833115707E+02 -0.15266967956E+03  0.66472437383E+03  0.50400001928E-02 0. -1.
</event>
<event>
 5   0  0.1387622E-03  0.1298547E+04  0.7818609E-02  0.9030718E-01
        1   -1    0    0  501    0  0.00000000000E+00  0.00000000000E+00  0.39012841612E+03  0.39012841615E+03  0.50400001928E-02 0.  1.
       -1   -1    0    0    0  501  0.00000000000E+00  0.00000000000E+00 -0.10805570837E+04  0.10805570837E+04  0.50400001928E-02 0. -1.
    10030    2    1    2    0    0  0.00000000000E+00  0.00000000000E+00 -0.69042866759E+03  0.14706854999E+04  0.12985469166E+04 0.  0.
        3    1    3    3  502    0 -0.44107462373E+03 -0.45676432131E+03 -0.49874045358E+03  0.80741719028E+03  0.10100000352E+00 0.  1.
       -3    1    3    3    0  502  0.44107462373E+03  0.45676432131E+03 -0.19168821401E+03  0.66326830959E+03  0.10100000352E+00 0. -1.
</event>
<event>
 5   0  0.2312105E-03  0.1351203E+04  0.7818609E-02  0.8989918E-01
        2   -1    0    0  501    0  0.00000000000E+00  0.00000000000E+00  0.11479528911E+04  0.11479528911E+04  0.25500000920E-02 0. -1.
       -2   -1    0    0    0  501  0.00000000000E+00  0.00000000000E+00 -0.39760959048E+03  0.39760959049E+03  0.25500000920E-02 0.  1.
    10030    2    1    2    0    0  0.00000000000E+00  0.00000000000E+00  0.75034330062E+03  0.15455624816E+04  0.13512025443E+04 0.  0.
        5    1    3    3  502    0  0.22201202661E+03  0.48740427665E+03  0.84618292147E+03  0.10014488981E+04  0.46999998093E+01 0. -1.
       -5    1    3    3    0  502 -0.22201202661E+03 -0.48740427665E+03 -0.95839620848E+02  0.54411358353E+03  0.46999998093E+01 0.  1.
</event>
<event>
 5   0  0.1310461E-03  0.1298282E+04  0.7818609E-02  0.9030928E-01
       -1   -1    0    0    0  501  0.00000000000E+00  0.00000000000E+00  0.70595605757E+03  0.70595605759E+03  0.50400001928E-02 0.  1.
        1   -1    0    0  501    0  0.00000000000E+00  0.00000000000E+00 -0.59689878122E+03  0.59689878124E+03  0.50400001928E-02 0. -1.
    10030    2    1    2    0    0  0.00000000000E+00  0.00000000000E+00  0.10905727635E+03  0.13028548388E+04  0.12982824198E+04 0.  0.
        4    1    3    3  502    0  0.14027989042E+03 -0.21240050269E+03  0.65378354967E+03  0.70158888525E+03  0.12699999809E+01 0.  1.
       -4    1    3    3    0  502 -0.14027989042E+03  0.21240050269E+03 -0.54472627331E+03  0.60126595358E+03  0.12699999809E+01 0. -1.
</event>
<event>
 5   0  0.1324721E-03  0.1301706E+04  0.7818609E-02  0.9028213E-01
       -1   -1    0    0    0  501  0.00000000000E+00  0.00000000000E+00  0.64192728644E+03  0.64192728646E+03  0.50400001928E-02 0. -1.
        1   -1    0    0  501    0  0.00000000000E+00  0.00000000000E+00 -0.65990303773E+03  0.65990303775E+03  0.50400001928E-02 0.  1.
    10030    2    1    2    0    0  0.00000000000E+00  0.00000000000E+00 -0.17975751296E+02  0.13018303242E+04  0.13017062132E+04 0.  0.
        1    1    3    3  502    0 -0.33507924454E+03  0.33945955612E+03 -0.45186062463E+03  0.65703037562E+03  0.50400001928E-02 0.  1.
       -1    1    3    3    0  502  0.33507924454E+03 -0.33945955612E+03  0.43388487334E+03  0.64479994859E+03  0.50400001928E-02 0. -1.
</event>
<event>
 5   0  0.1324721E-03  0.1300408E+04  0.7818609E-02  0.9029242E-01
       -1   -1    0    0    0  501  0.00000000000E+00  0.00000000000E+00  0.36460297444E+03  0.36460297448E+03  0.50400001928E-02 0. -1.
        1   -1    0    0  501    0  0.00000000000E+00  0.00000000000E+00 -0.11595214122E+04  0.11595214122E+04  0.50400001928E-02 0.  1.
    10030    2    1    2    0    0  0.00000000000E+00  0.00000000000E+00 -0.79491843771E+03  0.15241243866E+04  0.13004075605E+04 0.  0.
        1    1    3    3  502    0 -0.91997959889E+02  0.42943278725E+03 -0.95941202552E+03  0.10551528696E+04  0.50400001928E-02 0.  1.
       -1    1    3    3    0  502  0.91997959889E+02 -0.42943278725E+03  0.16449358781E+03  0.46897151709E+03  0.50400001928E-02 0. -1.
</event>
<event>
 5   0  0.2312105E-03  0.1215223E+04  0.7818609E-02  0.9099636E-01
        2   -1    0    0  501    0  0.00000000000E+00  0.00000000000E+00  0.39470141413E+03  0.39470141414E+03  0.25500000920E-02 0. -1.
       -2   -1    0    0    0  501  0.00000000000E+00  0.00000000000E+00 -0.93536910612E+03  0.93536910612E+03  0.25500000920E-02 0.  1.
    10030    2    1    2    0    0  0.00000000000E+00  0.00000000000E+00 -0.54066769199E+03  0.13300705203E+04  0.12152226280E+04 0.  0.
        5    1    3    3  502    0 -0.23124413263E+03  0.18959420921E+03  0.30856617034E+03  0.42971500383E+03  0.46999998093E+01 0. -1.
       -5    1    3    3    0  502  0.23124413263E+03 -0.18959420921E+03 -0.84923386233E+03  0.90035551643E+03  0.46999998093E+01 0.  1.
</event>
<event>
 5   0  0.2401211E-03  0.1303711E+04  0.7818609E-02  0.9026627E-01
       -2   -1    0    0    0  501  0.00000000000E+00  0.00000000000E+00  0.25436955393E+03  0.25436955394E+03  0.25500000920E-02 0. -1.
        2   -1    0    0  501    0  0.00000000000E+00  0.00000000000E+00 -0.16704665277E+04  0.16704665277E+04  0.25500000920E-02 0.  1.
    10030    2    1    2    0    0  0.00000000000E+00  0.00000000000E+00 -0.14160969738E+04  0.19248360816E+04  0.13037113569E+04 0.  0.
        4    1    3    3  502    0  0.38857037851E+03 -0.41998839446E+03 -0.11691505318E+04  0.13016496339E+04  0.12699999809E+01 0.  1.
       -4    1    3    3    0  502 -0.38857037851E+03  0.41998839446E+03 -0.24694644198E+03  0.62318644774E+03  0.12699999809E+01 0. -1.
</event>
<event>
 5   0  0.1332630E-03  0.1316527E+04  0.7818609E-02  0.9016561E-01
       -1   -1    0    0    0  501  0.00000000000E+00  0.00000000000E+00  0.37228449658E+03  0.37228449661E+03  0.50400001928E-02 0. -1.
        1   -1    0    0  501    0  0.00000000000E+00  0.00000000000E+00 -0.11639236570E+04  0.11639236570E+04  0.50400001928E-02 0.  1.
    10030    2    1    2    0    0  0.00000000000E+00  0.00000000000E+00 -0.79163916044E+03  0.15362081536E+04  0.13165268440E+04 0.  0.
        5    1    3    3  502    0  0.55639937829E+03  0.33939079653E+02  0.12677113485E+02  0.55759746098E+03  0.46999998093E+01 0. -1.
       -5    1    3    3    0  502 -0.55639937829E+03 -0.33939079653E+02 -0.80431627393E+03  0.97861069266E+03  0.46999998093E+01 0.  1.
</event>
<event>
 5   0  0.2401211E-03  0.1294831E+04  0.7818609E-02  0.9033674E-01
        2   -1    0    0  501    0  0.00000000000E+00  0.00000000000E+00  0.61401122883E+03  0.61401122884E+03  0.25500000920E-02 0. -1.
       -2   -1    0    0    0  501  0.00000000000E+00  0.00000000000E+00 -0.68263715091E+03  0.68263715091E+03  0.25500000920E-02 0.  1.
    10030    2    1    2    0    0  0.00000000000E+00  0.00000000000E+00 -0.68625922073E+02  0.12966483797E+04  0.12948310714E+04 0.  0.
        4    1    3    3  502    0 -0.37025244108E+03  0.48646486855E+03  0.17908310656E+03  0.63703007026E+03  0.12699999809E+01 0. -1.
       -4    1    3    3    0  502  0.37025244108E+03 -0.48646486855E+03 -0.24770902863E+03  0.65961830949E+03  0.12699999809E+01 0.  1.
</event>
<event>
 5   0  0.1387622E-03  0.1257298E+04  0.7818609E-02  0.9064131E-01
       -1   -1    0    0    0  501  0.00000000000E+00  0.00000000000E+00  0.42928639103E+03  0.42928639106E+03  0.50400001928E-02 0.  1.
        1   -1    0    0  501    0  0.00000000000E+00  0.00000000000E+00 -0.92059677987E+03  0.92059677989E+03  0.50400001928E-02 0. -1.
    10030    2    1    2    0    0  0.00000000000E+00  0.00000000000E+00 -0.49131038885E+03  0.13498831709E+04  0.12572981655E+04 0.  0.
        3    1    3    3  502    0  0.18086736937E+03  0.59360616251E+03 -0.35365260483E+03  0.71424887579E+03  0.10100000352E+00 0. -1.
       -3    1    3    3    0  502 -0.18086736937E+03 -0.59360616251E+03 -0.13765778402E+03  0.63563429515E+03  0.10100000352E+00 0.  1.
</event>
<event>
 5   0  0.2361043E-03  0.1112564E+04  0.7818609E-02  0.9193032E-01
        2   -1    0    0  501    0  0.00000000000E+00  0.00000000000E+00  0.13587878097E+04  0.13587878097E+04  0.25500000920E-02 0.  1.
       -2   -1    0    0    0  501  0.00000000000E+00  0.00000000000E+00 -0.22773953320E+03  0.22773953322E+03  0.25500000920E-02 0. -1.
    10030    2    1    2    0    0  0.00000000000E+00  0.00000000000E+00  0.11310482765E+04  0.15865273429E+04  0.11125640683E+04 0.  0.
        2    1    3    3  502    0 -0.21677693278E+03  0.39331191252E+03  0.97403513447E+02  0.45953666182E+03  0.25500000920E-02 0. -1.
       -2    1    3    3    0  502  0.21677693278E+03 -0.39331191252E+03  0.10336447631E+04  0.11269906811E+04  0.25500000920E-02 0.  1.
</event>
<event>
 5   0  0.2334946E-03  0.1314675E+04  0.7818609E-02  0.9018008E-01
       -2   -1    0    0    0  501  0.00000000000E+00  0.00000000000E+00  0.33537113899E+03  0.33537113900E+03  0.25500000920E-02 0. -1.
        2   -1    0    0  501    0  0.00000000000E+00  0.00000000000E+00 -0.12884005117E+04  0.12884005117E+04  0.25500000920E-02 0.  1.
    10030    2    1    2    0    0  0.00000000000E+00  0.00000000000E+00 -0.95302937269E+03  0.16237716507E+04  0.13146746321E+04 0.  0.
        1    1    3    3  502    0  0.55247501670E+03  0.31465107672E+03 -0.68266537002E+03  0.93288045945E+03  0.50400001928E-02 0.  1.
       -1    1    3    3    0  502 -0.55247501670E+03 -0.31465107672E+03 -0.27036400266E+03  0.69089119123E+03  0.50400001928E-02 0. -1.
</event>
<event>
 5   0  0.1310461E-03  0.1288294E+04  0.7818609E-02  0.9038900E-01
       -1   -1    0    0    0  501  0.00000000000E+00  0.00000000000E+00  0.24547760373E+03  0.24547760378E+03  0.50400001928E-02 0. -1.
        1   -1    0    0  501    0  0.00000000000E+00  0.00000000000E+00 -0.16902773314E+04  0.16902773314E+04  0.50400001928E-02 0.  1.
    10030    2    1    2    0    0  0.00000000000E+00  0.00000000000E+00 -0.14447997276E+04  0.19357549351E+04  0.12882938003E+04 0.  0.
        4    1    3    3  502    0  0.54143067109E+03 -0.21851336828E+03 -0.11312220912E+04  0.12730122923E+04  0.12699999809E+01 0.  1.
       -4    1    3    3    0  502 -0.54143067109E+03  0.21851336828E+03 -0.31357763639E+03  0.66274264285E+03  0.12699999809E+01 0. -1.
</event>
<event>
 5   0  0.2334946E-03  0.1295646E+04  0.7818609E-02  0.9033025E-01
       -2   -1    0    0    0  501  0.00000000000E+00  0.00000000000E+00  0.29611342517E+03  0.29611342518E+03  0.25500000920E-02 0. -1.
        2   -1    0    0  501    0  0.00000000000E+00  0.00000000000E+00 -0.14172763732E+04  0.14172763732E+04  0.25500000920E-02 0.  1.
    10030    2    1    2    0    0  0.00000000000E+00  0.00000000000E+00 -0.11211629480E+04  0.17133897983E+04  0.12956458795E+04 0.  0.
        1    1    3    3  502    0 -0.27056336623E+03  0.22550477531E+03 -0.12795916194E+04  0.13271818456E+04  0.50400001928E-02 0.  1.
       -1    1    3    3    0  502  0.27056336623E+03 -0.22550477531E+03  0.15842867138E+03  0.38620795276E+03  0.50400001928E-02 0. -1.
</event>
<event>
 5   0  0.9131250E-04  0.1136357E+04  0.7818609E-02  0.9170463E-01
       -4   -1    0    0    0  501  0.00000000000E+00  0.00000000000E+00  0.75689486488E+03  0.75689593035E+03  0.12699999809E+01 0. -1.
        4   -1    0    0  501    0  0.00000000000E+00  0.00000000000E+00 -0.42651253611E+03  0.42651442690E+03  0.12699999809E+01 0.  1.
    10030    2    1    2    0    0  0.00000000000E+00  0.00000000000E+00  0.33038232877E+03  0.11834103573E+04  0.11363571580E+04 0.  0.
        3    1    3    3  502    0 -0.38550535296E+02  0.21474873990E+03 -0.38114939897E+03  0.43917882417E+03  0.10100000352E+00 0.  1.
       -3    1    3    3    0  502  0.38550535296E+02 -0.21474873990E+03  0.71153172774E+03  0.74423153309E+03  0.10100000352E+00 0. -1.
</event>
<event>
 5   0  0.2401211E-03  0.1309980E+04  0.7818609E-02  0.9021688E-01
       -2   -1    0    0    0  501  0.00000000000E+00  0.00000000000E+00  0.81986762655E+03  0.81986762656E+03  0.25500000920E-02 0.  1.
        2   -1    0    0  501    0  0.00000000000E+00  0.00000000000E+00 -0.52326981555E+03  0.52326981555E+03  0.25500000920E-02 0. -1.
    10030    2    1    2    0    0  0.00000000000E+00  0.00000000000E+00  0.29659781101E+03  0.13431374421E+04  0.13099801246E+04 0.  0.
        4    1    3    3  502    0  0.14453106442E+03  0.60505624303E+03  0.35849543450E+03  0.71798528903E+03  0.12699999809E+01 0.  1.
       -4    1    3    3    0  502 -0.14453106442E+03 -0.60505624303E+03 -0.61897623498E+02  0.62515215308E+03  0.12699999809E+01 0. -1.
</event>
<event>
 5   0  0.2478236E-03  0.1273382E+04  0.7818609E-02  0.9050944E-01
        2   -1    0    0  501    0  0.00000000000E+00  0.00000000000E+00  0.12407338638E+04  0.12407338638E+04  0.25500000920E-02 0. -1.
       -2   -1    0    0    0  501  0.00000000000E+00  0.00000000000E+00 -0.32672254936E+03  0.32672254937E+03  0.25500000920E-02 0.  1.
    10030    2    1    2    0    0  0.00000000000E+00  0.00000000000E+00  0.91401131442E+03  0.15674564132E+04  0.12733824737E+04 0.  0.
        3    1    3    3  502    0 -0.24598462432E+03  0.37154189406E+03 -0.10279960081E+03  0.45729594638E+03  0.10100000352E+00 0.  1.
       -3    1    3    3    0  502  0.24598462432E+03 -0.37154189406E+03  0.10168109152E+04  0.11101604668E+04  0.10100000352E+00 0. -1.
</event>
<event>
 5   0  0.1346593E-03  0.1311719E+04  0.7818609E-02  0.9020323E-01
       -1   -1    0    0    0  501  0.00000000000E+00  0.00000000000E+00  0.31799669356E+03  0.31799669360E+03  0.50400001928E-02 0. -1.
        1   -1    0    0  501    0  0.00000000000E+00  0.00000000000E+00 -0.13526927694E+04  0.13526927694E+04  0.50400001928E-02 0.  1.
    10030    2    1    2    0    0  0.00000000000E+00  0.00000000000E+00 -0.10346960758E+04  0.16706894630E+04  0.13117192201E+04 0.  0.
        2    1    3    3  502    0  0.53498952134E+03 -0.89457374854E+02 -0.47755523612E+02  0.54451538078E+03  0.25500000920E-02 0. -1.
       -2    1    3    3    0  502 -0.53498952134E+03  0.89457374854E+02 -0.98694055223E+03  0.11261740822E+04  0.25500000920E-02 0.  1.
</event>
<event>
 5   0  0.1310461E-03  0.1338213E+04  0.7818609E-02  0.8999799E-01
       -1   -1    0    0    0  501  0.00000000000E+00  0.00000000000E+00  0.14289480018E+04  0.14289480018E+04  0.50400001928E-02 0. -1.
        1   -1    0    0  501    0  0.00000000000E+00  0.00000000000E+00 -0.31330998121E+03  0.31330998125E+03  0.50400001928E-02 0.  1.
    10030    2    1    2    0    0  0.00000000000E+00  0.00000000000E+00  0.11156380206E+04  0.17422579830E+04  0.13382132440E+04 0.  0.
        4    1    3    3  502    0 -0.44562299337E+03  0.28699347818E+03  0.26164979285E+02  0.53068948339E+03  0.12699999809E+01 0.  1.
       -4    1    3    3    0  502  0.44562299337E+03 -0.28699347818E+03  0.10894730413E+04  0.12115684997E+04  0.12699999809E+01 0. -1.
</event>
<event>
 5   0  0.1387622E-03  0.1294223E+04  0.7818609E-02  0.9034159E-01
        1   -1    0    0  501    0  0.00000000000E+00  0.00000000000E+00  0.68398350934E+03  0.68398350936E+03  0.50400001928E-02 0. -1.
       -1   -1    0    0    0  501  0.00000000000E+00  0.00000000000E+00 -0.61222696023E+03  0.61222696025E+03  0.50400001928E-02 0.  1.
    10030    2    1    2    0    0  0.00000000000E+00  0.00000000000E+00  0.71756549111E+02  0.12962104696E+04  0.12942227703E+04 0.  0.
        3    1    3    3  502    0 -0.35120326461E+03  0.52493581663E+03 -0.10523449775E+03  0.64029341272E+03  0.10100000352E+00 0.  1.
       -3    1    3    3    0  502  0.35120326461E+03 -0.52493581663E+03  0.17699104686E+03  0.65591705690E+03  0.10100000352E+00 0. -1.
</event>
<event>
 5   0  0.1387622E-03  0.1258961E+04  0.7818609E-02  0.9062758E-01
        1   -1    0    0  501    0  0.00000000000E+00  0.00000000000E+00  0.35199418982E+03  0.35199418986E+03  0.50400001928E-02 0. -1.
       -1   -1    0    0    0  501  0.00000000000E+00  0.00000000000E+00 -0.11257163933E+04  0.11257163933E+04  0.50400001928E-02 0.  1.
    10030    2    1    2    0    0  0.00000000000E+00  0.00000000000E+00 -0.77372220344E+03  0.14777105831E+04  0.12589608888E+04 0.  0.
        3    1    3    3  502    0 -0.38024768637E+03 -0.23938708881E+03  0.13059163676E+03  0.46791950918E+03  0.10100000352E+00 0. -1.
       -3    1    3    3    0  502  0.38024768637E+03  0.23938708881E+03 -0.90431384020E+03  0.10097910740E+04  0.10100000352E+00 0.  1.
</event>
<event>
 5   0  0.2334946E-03  0.1322838E+04  0.7818609E-02  0.9011648E-01
        2   -1    0    0  501    0  0.00000000000E+00  0.00000000000E+00  0.69797029899E+03  0.69797029899E+03  0.25500000920E-02 0. -1.
       -2   -1    0    0    0  501  0.00000000000E+00  0.00000000000E+00 -0.62678217990E+03  0.62678217991E+03  0.25500000920E-02 0.  1.
    10030    2    1    2    0    0  0.00000000000E+00  0.00000000000E+00  0.71188119084E+02  0.13247524789E+04  0.13228383809E+04 0.  0.
        1    1    3    3  502    0 -0.31233130770E+02 -0.37217567781E+02  0.69618076108E+03  0.69787413474E+03  0.50400001928E-02 0. -1.
       -1    1    3    3    0  502  0.31233130770E+02  0.37217567781E+02 -0.62499264200E+03  0.62687834417E+03  0.50400001928E-02 0.  1.
</event>
<event>
 5   0  0.2312105E-03  0.1312763E+04  0.7818609E-02  0.9019505E-01
       -2   -1    0    0    0  501  0.00000000000E+00  0.00000000000E+00  0.85171049685E+03  0.85171049685E+03  0.25500000920E-02 0. -1.
        2   -1    0    0  501    0  0.00000000000E+00  0.00000000000E+00 -0.50584887688E+03  0.50584887689E+03  0.25500000920E-02 0.  1.
    10030    2    1    2    0    0  0.00000000000E+00  0.00000000000E+00  0.34586161997E+03  0.13575593737E+04  0.13127631900E+04 0.  0.
        5    1    3    3  502    0  0.90019847738E+02 -0.95232143110E+02 -0.49216581401E+03  0.50933487270E+03  0.46999998093E+01 0.  1.
       -5    1    3    3    0  502 -0.90019847738E+02  0.95232143110E+02  0.83802743398E+03  0.84822450104E+03  0.46999998093E+01 0. -1.
</event>
<event>
 5   0  0.2361043E-03  0.1300375E+04  0.7818609E-02  0.9029268E-01
        2   -1    0    0  501    0  0.00000000000E+00  0.00000000000E+00  0.85089078220E+03  0.85089078221E+03  0.25500000920E-02 0. -1.
       -2   -1    0    0    0  501  0.00000000000E+00  0.00000000000E+00 -0.49682470127E+03  0.49682470127E+03  0.25500000920E-02 0.  1.
    10030    2    1    2    0    0  0.00000000000E+00  0.00000000000E+00  0.35406608094E+03  0.13477154835E+04  0.13003746517E+04 0.  0.
        2    1    3    3  502    0  0.28640305473E+03 -0.52067019050E+03 -0.96427624714E+02  0.60201531862E+03  0.25500000920E-02 0.  1.
       -2    1    3    3    0  502 -0.28640305473E+03  0.52067019050E+03  0.45049370565E+03  0.74570016486E+03  0.25500000920E-02 0. -1.
</event>
<event>
 5   0  0.1324721E-03  0.1281963E+04  0.7818609E-02  0.9043992E-01
        1   -1    0    0  501    0  0.00000000000E+00  0.00000000000E+00  0.85640919137E+03  0.85640919139E+03  0.50400001928E-02 0.  1.
       -1   -1    0    0    0  501  0.00000000000E+00  0.00000000000E+00 -0.47974405623E+03  0.47974405626E+03  0.50400001928E-02 0. -1.
    10030    2    1    2    0    0  0.00000000000E+00  0.00000000000E+00  0.37666513514E+03  0.13361532477E+04  0.12819629001E+04 0.  0.
        1    1    3    3  502    0 -0.20694186298E+02 -0.55368767043E+03  0.52422695264E+03  0.76276613954E+03  0.50400001928E-02 0.  1.
       -1    1    3    3    0  502  0.20694186298E+02  0.55368767043E+03 -0.14756181750E+03  0.57338710811E+03  0.50400001928E-02 0. -1.
</event>
<event>
 5   0  0.2361043E-03  0.1301453E+04  0.7818609E-02  0.9028414E-01
        2   -1    0    0  501    0  0.00000000000E+00  0.00000000000E+00  0.22824168063E+04  0.22824168063E+04  0.25500000920E-02 0.  1.
       -2   -1    0    0    0  501  0.00000000000E+00  0.00000000000E+00 -0.18552478812E+03  0.18552478814E+03  0.25500000920E-02 0. -1.
    10030    2    1    2    0    0  0.00000000000E+00  0.00000000000E+00  0.20968920182E+04  0.24679415945E+04  0.13014528719E+04 0.  0.
        2    1    3    3  502    0  0.28755888068E+03  0.57671286049E+03  0.87717916734E+03  0.10884535474E+04  0.25500000920E-02 0. -1.
       -2    1    3    3    0  502 -0.28755888068E+03 -0.57671286049E+03  0.12197128509E+04  0.13794880470E+04  0.25500000920E-02 0.  1.
</event>
<event>
 5   0  0.1324721E-03  0.1301134E+04  0.7818609E-02  0.9028666E-01
       -1   -1    0    0    0  501  0.00000000000E+00  0.00000000000E+00  0.38923432558E+03  0.38923432561E+03  0.50400001928E-02 0. -1.
        1   -1    0    0  501    0  0.00000000000E+00  0.00000000000E+00 -0.10873596070E+04  0.10873596070E+04  0.50400001928E-02 0.  1.
    10030    2    1    2    0    0  0.00000000000E+00  0.00000000000E+00 -0.69812528145E+03  0.14765939326E+04  0.13011344025E+04 0.  0.
        1    1    3    3  502    0 -0.40765061303E+03  0.30111821933E+03  0.11384882237E+03  0.51943503800E+03  0.50400001928E-02 0. -1.
       -1    1    3    3    0  502  0.40765061303E+03 -0.30111821933E+03 -0.81197410382E+03  0.95715889465E+03  0.50400001928E-02 0.  1.
</event>
<event>
 5   0  0.1332630E-03  0.1299077E+04  0.7818609E-02  0.9030298E-01
       -1   -1    0    0    0  501  0.00000000000E+00  0.00000000000E+00  0.61899354730E+03  0.61899354732E+03  0.50400001928E-02 0. -1.
        1   -1    0    0  501    0  0.00000000000E+00  0.00000000000E+00 -0.68159023591E+03  0.68159023593E+03  0.50400001928E-02 0.  1.
    10030    2    1    2    0    0  0.00000000000E+00  0.00000000000E+00 -0.62596688608E+02  0.13005837832E+04  0.12990765304E+04 0.  0.
        5    1    3    3  502    0  0.80312061870E+02 -0.14263369777E+03  0.59798759353E+03  0.62000455727E+03  0.46999998093E+01 0. -1.
       -5    1    3    3    0  502 -0.80312061870E+02  0.14263369777E+03 -0.66058428214E+03  0.68057922598E+03  0.46999998093E+01 0.  1.
</event>
<event>
 5   0  0.2401211E-03  0.1296511E+04  0.7818609E-02  0.9032337E-01
        2   -1    0    0  501    0  0.00000000000E+00  0.00000000000E+00  0.11467966080E+04  0.11467966080E+04  0.25500000920E-02 0.  1.
       -2   -1    0    0    0  501  0.00000000000E+00  0.00000000000E+00 -0.36644260118E+03  0.36644260119E+03  0.25500000920E-02 0. -1.
    10030    2    1    2    0    0  0.00000000000E+00  0.00000000000E+00  0.78035400678E+03  0.15132392092E+04  0.12965109056E+04 0.  0.
        4    1    3    3  502    0  0.38306822739E+03  0.40228332225E+03  0.16231432875E+00  0.55549507418E+03  0.12699999809E+01 0. -1.
       -4    1    3    3    0  502 -0.38306822739E+03 -0.40228332225E+03  0.78019169246E+03  0.95774413497E+03  0.12699999809E+01 0.  1.
</event>
<event>
 5   0  0.1324721E-03  0.1288199E+04  0.7818609E-02  0.9038976E-01
        1   -1    0    0  501    0  0.00000000000E+00  0.00000000000E+00  0.27853374080E+04  0.27853374080E+04  0.50400001928E-02 0. -1.
       -1   -1    0    0    0  501  0.00000000000E+00  0.00000000000E+00 -0.14894578841E+03  0.14894578849E+03  0.50400001928E-02 0.  1.
    10030    2    1    2    0    0  0.00000000000E+00  0.00000000000E+00  0.26363916196E+04  0.29342831965E+04  0.12881991715E+04 0.  0.
        1    1    3    3  502    0  0.57361873305E+02 -0.55921614521E+03  0.20343556646E+04  0.21105961366E+04  0.50400001928E-02 0. -1.
       -1    1    3    3    0  502 -0.57361873305E+02  0.55921614521E+03  0.60203595498E+03  0.82368705992E+03  0.50400001928E-02 0.  1.
</event>
<event>
 5   0  0.1332630E-03  0.1301703E+04  0.7818609E-02  0.9028216E-01
       -1   -1    0    0    0  501  0.00000000000E+00  0.00000000000E+00  0.49726009124E+03  0.49726009126E+03  0.50400001928E-02 0. -1.
        1   -1    0    0  501    0  0.00000000000E+00  0.00000000000E+00 -0.85188320989E+03  0.85188320991E+03  0.50400001928E-02 0.  1.
    10030    2    1    2    0    0  0.00000000000E+00  0.00000000000E+00 -0.35462311865E+03  0.13491433012E+04  0.13017027659E+04 0.  0.
        5    1    3    3  502    0  0.35258027130E+03  0.41284979353E+03  0.19469514542E+03  0.57678946712E+03  0.46999998093E+01 0. -1.
       -5    1    3    3    0  502 -0.35258027130E+03 -0.41284979353E+03 -0.54931826407E+03  0.77235383405E+03  0.46999998093E+01 0.  1.
</event>
<event>
 5   0  0.1324721E-03  0.1341880E+04  0.7818609E-02  0.8996998E-01
        1   -1    0    0  501    0  0.00000000000E+00  0.00000000000E+00  0.18599986389E+04  0.18599986389E+04  0.50400001928E-02 0. -1.
       -1   -1    0    0    0  501  0.00000000000E+00  0.00000000000E+00 -0.24202183624E+03  0.24202183629E+03  0.50400001928E-02 0.  1.
    10030    2    1    2    0    0  0.00000000000E+00  0.00000000000E+00  0.16179768027E+04  0.21020204752E+04  0.13418797056E+04 0.  0.
        1    1    3    3  502    0 -0.23260303137E+03  0.59399606698E+03  0.48330937236E+03  0.80032708765E+03  0.50400001928E-02 0.  1.
       -1    1    3    3    0  502  0.23260303137E+03 -0.59399606698E+03  0.11346674303E+04  0.13016933876E+04  0.50400001928E-02 0. -1.
</event>
<event>
 5   0  0.1346593E-03  0.1229369E+04  0.7818609E-02  0.9087531E-01
        1   -1    0    0  501    0  0.00000000000E+00  0.00000000000E+00  0.34507293020E+03  0.34507293023E+03  0.50400001928E-02 0.  1.
       -1   -1    0    0    0  501  0.00000000000E+00  0.00000000000E+00 -0.10949486527E+04  0.10949486527E+04  0.50400001928E-02 0. -1.
    10030    2    1    2    0    0  0.00000000000E+00  0.00000000000E+00 -0.74987572246E+03  0.14400215829E+04  0.12293691716E+04 0.  0.
        2    1    3    3  502    0  0.45418461107E+03  0.35705871938E+03 -0.62081689430E+03  0.84804964847E+03  0.25500000920E-02 0. -1.
       -2    1    3    3    0  502 -0.45418461107E+03 -0.35705871938E+03 -0.12905882816E+03  0.59197193443E+03  0.25500000920E-02 0.  1.
</event>
<event>
 5   0  0.1310461E-03  0.1291265E+04  0.7818609E-02  0.9036521E-01
       -1   -1    0    0    0  501  0.00000000000E+00  0.00000000000E+00  0.35255488129E+03  0.35255488132E+03  0.50400001928E-02 0.  1.
        1   -1    0    0  501    0  0.00000000000E+00  0.00000000000E+00 -0.11823440677E+04  0.11823440677E+04  0.50400001928E-02 0. -1.
    10030    2    1    2    0    0  0.00000000000E+00  0.00000000000E+00 -0.82978918644E+03  0.15348989491E+04  0.12912647637E+04 0.  0.
        4    1    3    3  502    0 -0.10563890004E+02 -0.52040750619E+03 -0.86893873318E+03  0.10129124855E+04  0.12699999809E+01 0. -1.
       -4    1    3    3    0  502  0.10563890004E+02  0.52040750619E+03  0.39149546747E+02  0.52198646360E+03  0.12699999809E+01 0.  1.
</event>
<event>
 5   0  0.1332630E-03  0.1309285E+04  0.7818609E-02  0.9022234E-01
        1   -1    0    0  501    0  0.00000000000E+00  0.00000000000E+00  0.98739759388E+03  0.98739759390E+03  0.50400001928E-02 0.  1.
       -1   -1    0    0    0  501  0.00000000000E+00  0.00000000000E+00 -0.43402649552E+03  0.43402649555E+03  0.50400001928E-02 0. -1.
    10030    2    1    2    0    0  0.00000000000E+00  0.00000000000E+00  0.55337109837E+03  0.14214240894E+04  0.13092848695E+04 0.  0.
        5    1    3    3  502    0  0.37065209449E+03 -0.23652195854E+03  0.80320752723E+03  0.91569101438E+03  0.46999998093E+01 0.  1.
       -5    1    3    3    0  502 -0.37065209449E+03  0.23652195854E+03 -0.24983642886E+03  0.50573307506E+03  0.46999998093E+01 0. -1.
</event>
<event>
 5   0  0.2334946E-03  0.1297285E+04  0.7818609E-02  0.9031721E-01
        2   -1    0    0  501    0  0.00000000000E+00  0.00000000000E+00  0.85382491639E+03  0.85382491640E+03  0.25500000920E-02 0. -1.
       -2   -1    0    0    0  501  0.00000000000E+00  0.00000000000E+00 -0.49276739911E+03  0.49276739912E+03  0.25500000920E-02 0.  1.
    10030    2    1    2    0    0  0.00000000000E+00  0.00000000000E+00  0.36105751728E+03  0.13465923155E+04  0.12972849854E+04 0.  0.
        1    1    3    3  502    0  0.59314505354E+03 -0.25657669574E+03  0.23817726483E+03  0.68875326848E+03  0.50400001928E-02 0.  1.
       -1    1    3    3    0  502 -0.59314505354E+03  0.25657669574E+03  0.12288025245E+03  0.65783904704E+03  0.50400001928E-02 0. -1.
</event>
<event>
 5   0  0.1346593E-03  0.1262977E+04  0.7818609E-02  0.9059451E-01
       -1   -1    0    0    0  501  0.00000000000E+00  0.00000000000E+00  0.65410849321E+03  0.65410849323E+03  0.50400001928E-02 0.  1.
        1   -1    0    0  501    0  0.00000000000E+00  0.00000000000E+00 -0.60965101077E+03  0.60965101079E+03  0.50400001928E-02 0. -1.
    10030    2    1    2    0    0  0.00000000000E+00  0.00000000000E+00  0.44457482440E+02  0.12637595040E+04  0.12629772826E+04 0.  0.
        2    1    3    3  502    0 -0.49112467538E+03  0.26524337264E+03 -0.27328518985E+03  0.62148394066E+03  0.25500000920E-02 0.  1.
       -2    1    3    3    0  502  0.49112467538E+03 -0.26524337264E+03  0.31774267229E+03  0.64227556337E+03  0.25500000920E-02 0. -1.
</event>
<event>
 5   0  0.2478236E-03  0.1309362E+04  0.7818609E-02  0.9022174E-01
        2   -1    0    0  501    0  0.00000000000E+00  0.00000000000E+00  0.47237852591E+03  0.47237852592E+03  0.25500000920E-02 0. -1.
       -2   -1    0    0    0  501  0.00000000000E+00  0.00000000000E+00 -0.90733790861E+03  0.90733790861E+03  0.25500000920E-02 0.  1.
    10030    2    1    2    0    0  0.00000000000E+00  0.00000000000E+00 -0.43495938270E+03  0.13797164345E+04  0.13093615907E+04 0.  0.
        3    1    3    3  502    0  0.66363643258E+02  0.61740600522E+03 -0.43601832077E+03  0.75875311840E+03  0.10100000352E+00 0.  1.
       -3    1    3    3    0  502 -0.66363643258E+02 -0.61740600522E+03  0.10589380676E+01  0.62096331613E+03  0.10100000352E+00 0. -1.
</event>
<event>
 5   0  0.1310461E-03  0.1301454E+04  0.7818609E-02  0.9028413E-01
       -1   -1    0    0    0  501  0.00000000000E+00  0.00000000000E+00  0.79440454003E+03  0.79440454005E+03  0.50400001928E-02 0.  1.
        1   -1    0    0  501    0  0.00000000000E+00  0.00000000000E+00 -0.53303513281E+03  0.53303513284E+03  0.50400001928E-02 0. -1.
    10030    2    1    2    0    0  0.00000000000E+00  0.00000000000E+00  0.26136940721E+03  0.13274396729E+04  0.13014538479E+04 0.  0.
        4    1    3    3  502    0 -0.33606484419E+03 -0.14006546049E+03  0.68079203654E+03  0.77203453462E+03  0.12699999809E+01 0.  1.
       -4    1    3    3    0  502  0.33606484419E+03  0.14006546049E+03 -0.41942262933E+03  0.55540513827E+03  0.12699999809E+01 0. -1.
</event>
<event>
 5   0  0.2334946E-03  0.1262665E+04  0.7818609E-02  0.9059707E-01
        2   -1    0    0  501    0  0.00000000000E+00  0.00000000000E+00  0.19697988985E+04  0.19697988985E+04  0.25500000920E-02 0.  1.
       -2   -1    0    0    0  501  0.00000000000E+00  0.00000000000E+00 -0.20234599874E+03  0.20234599876E+03  0.25500000920E-02 0. -1.
    10030    2    1    2    0    0  0.00000000000E+00  0.00000000000E+00  0.17674528998E+04  0.21721448973E+04  0.12626653166E+04 0.  0.
        1    1    3    3  502    0  0.37272527401E+00 -0.54980716957E+03  0.34990307040E+03  0.65170562475E+03  0.50400001928E-02 0. -1.
       -1    1    3    3    0  502 -0.37272527401E+00  0.54980716957E+03  0.14175498294E+04  0.15204392725E+04  0.50400001928E-02 0.  1.
</event>
<event>
 5   0  0.1387622E-03  0.1228761E+04  0.7818609E-02  0.9088048E-01
       -1   -1    0    0    0  501  0.00000000000E+00  0.00000000000E+00  0.61645038024E+03  0.61645038027E+03  0.50400001928E-02 0. -1.
        1   -1    0    0  501    0  0.00000000000E+00  0.00000000000E+00 -0.61231798367E+03  0.61231798370E+03  0.50400001928E-02 0.  1.
    10030    2    1    2    0    0  0.00000000000E+00  0.00000000000E+00  0.41323965701E+01  0.12287683640E+04  0.12287614152E+04 0.  0.
        3    1    3    3  502    0 -0.23452744643E+03  0.56781956777E+03 -0.43727058444E+01  0.61436252769E+03  0.10100000352E+00 0. -1.
       -3    1    3    3    0  502  0.23452744643E+03 -0.56781956777E+03  0.85051024144E+01  0.61440583627E+03  0.10100000352E+00 0.  1.
</event>
<event>
 5   0  0.2401211E-03  0.1227316E+04  0.7818609E-02  0.9089277E-01
        2   -1    0    0  501    0  0.00000000000E+00  0.00000000000E+00  0.89951668599E+03  0.89951668599E+03  0.25500000920E-02 0. -1.
       -2   -1    0    0    0  501  0.00000000000E+00  0.00000000000E+00 -0.41864297242E+03  0.41864297243E+03  0.25500000920E-02 0.  1.
    10030    2    1    2    0    0  0.00000000000E+00  0.00000000000E+00  0.48087371357E+03  0.13181596584E+04  0.12273163230E+04 0.  0.
        4    1    3    3  502    0 -0.77148115642E+02 -0.43773616924E+03 -0.21397544518E+03  0.49330709467E+03  0.12699999809E+01 0.  1.
       -4    1    3    3    0  502  0.77148115642E+02  0.43773616924E+03  0.69484915875E+03  0.82485256375E+03  0.12699999809E+01 0. -1.
</event>
<event>
 5   0  0.9131250E-04  0.1303589E+04  0.7818609E-02  0.9026724E-01
       -3   -1    0    0    0  501  0.00000000000E+00  0.00000000000E+00  0.34184541328E+03  0.34184542820E+03  0.10100000352E+00 0. -1.
        3   -1    0    0  501    0  0.00000000000E+00  0.00000000000E+00 -0.12427721610E+04  0.12427721651E+04  0.10100000352E+00 0.  1.
    10030    2    1    2    0    0  0.00000000000E+00  0.00000000000E+00 -0.90092674770E+03  0.15846175933E+04  0.13035888586E+04 0.  0.
        1    1    3    3  502    0 -0.17432521961E+03 -0.37434645443E+03  0.16254551437E+03  0.44378552748E+03  0.50400001928E-02 0. -1.
       -1    1    3    3    0  502  0.17432521961E+03  0.37434645443E+03 -0.10634722621E+04  0.11408320658E+04  0.50400001928E-02 0.  1.
</event>
<event>
 5   0  0.2401211E-03  0.1464647E+04  0.7818609E-02  0.8908308E-01
       -2   -1    0    0    0  501  0.00000000000E+00  0.00000000000E+00  0.29380416212E+03  0.29380416213E+03  0.25500000920E-02 0.  1.
        2   -1    0    0  501    0  0.00000000000E+00  0.00000000000E+00 -0.18253583627E+04  0.18253583627E+04  0.25500000920E-02 0. -1.
    10030    2    1    2    0    0  0.00000000000E+00  0.00000000000E+00 -0.15315542006E+04  0.21191625249E+04  0.14646472399E+04 0.  0.
        4    1    3    3  502    0 -0.51465362873E+03 -0.51727789614E+03 -0.67598342862E+03  0.99468587407E+03  0.12699999809E+01 0. -1.
       -4    1    3    3    0  502  0.51465362873E+03  0.51727789614E+03 -0.85557077199E+03  0.11244766508E+04  0.12699999809E+01 0.  1.
</event>
<event>
 5   0  0.2312105E-03  0.1326476E+04  0.7818609E-02  0.9008829E-01
       -2   -1    0    0    0  501  0.00000000000E+00  0.00000000000E+00  0.30724729782E+03  0.30724729783E+03  0.25500000920E-02 0. -1.
        2   -1    0    0  501    0  0.00000000000E+00  0.00000000000E+00 -0.14316953020E+04  0.14316953020E+04  0.25500000920E-02 0.  1.
    10030    2    1    2    0    0  0.00000000000E+00  0.00000000000E+00 -0.11244480042E+04  0.17389425998E+04  0.13264758013E+04 0.  0.
        5    1    3    3  502    0  0.23319207620E+01 -0.21694939582E+03  0.25938671553E+03  0.33819526370E+03  0.46999998093E+01 0. -1.
       -5    1    3    3    0  502 -0.23319207620E+01  0.21694939582E+03 -0.13838347197E+04  0.14007473361E+04  0.46999998093E+01 0.  1.
</event>
<event>
 5   0  0.2361043E-03  0.1295300E+04  0.7818609E-02  0.9033301E-01
       -2   -1    0    0    0  501  0.00000000000E+00  0.00000000000E+00  0.33053678110E+03  0.33053678111E+03  0.25500000920E-02 0. -1.
        2   -1    0    0  501    0  0.00000000000E+00  0.00000000000E+00 -0.12689973976E+04  0.12689973976E+04  0.25500000920E-02 0.  1.
    10030    2    1    2    0    0  0.00000000000E+00  0.00000000000E+00 -0.93846061651E+03  0.15995341787E+04  0.12952996797E+04 0.  0.
        2    1    3    3  502    0  0.48922818786E+03  0.13539223175E+03  0.27452379632E+02  0.50835903589E+03  0.25500000920E-02 0. -1.
       -2    1    3    3    0  502 -0.48922818786E+03 -0.13539223175E+03 -0.96591299615E+03  0.10911751428E+04  0.25500000920E-02 0.  1.
</event>
<event>
 5   0  0.2478236E-03  0.1170495E+04  0.7818609E-02  0.9139082E-01
        2   -1    0    0  501    0  0.00000000000E+00  0.00000000000E+00  0.10725095072E+04  0.10725095072E+04  0.25500000920E-02 0.  1.
       -2   -1    0    0    0  501  0.00000000000E+00  0.00000000000E+00 -0.31935792688E+03  0.31935792689E+03  0.25500000920E-02 0. -1.
    10030    2    1    2    0    0  0.00000000000E+00  0.00000000000E+00  0.75315158030E+03  0.13918674341E+04  0.11704946182E+04 0.  0.
        3    1    3    3  502    0 -0.15889525740E+03  0.16573067589E+03 -0.26356820375E+03  0.34954623154E+03  0.10100000352E+00 0. -1.
       -3    1    3    3    0  502  0.15889525740E+03 -0.16573067589E+03  0.10167197841E+04  0.10423212025E+04  0.10100000352E+00 0.  1.
</event>
<event>
 5   0  0.2478236E-03  0.1301446E+04  0.7818609E-02  0.9028419E-01
       -2   -1    0    0    0  501  0.00000000000E+00  0.00000000000E+00  0.23191654865E+03  0.23191654866E+03  0.25500000920E-02 0. -1.
        2   -1    0    0  501    0  0.00000000000E+00  0.00000000000E+00 -0.18258322968E+04  0.18258322968E+04  0.25500000920E-02 0.  1.
    10030    2    1    2    0    0  0.00000000000E+00  0.00000000000E+00 -0.15939157481E+04  0.20577488454E+04  0.13014464641E+04 0.  0.
        3    1    3    3  502    0 -0.53560021335E+03 -0.10054974987E+03 -0.23468441741E+03  0.59334191383E+03  0.10100000352E+00 0. -1.
       -3    1    3    3    0  502  0.53560021335E+03  0.10054974987E+03 -0.13592313307E+04  0.14644069316E+04  0.10100000352E+00 0.  1.
</event>
<event>
 5   0  0.2361043E-03  0.1309616E+04  0.7818609E-02  0.9021974E-01
        2   -1    0    0  501    0  0.00000000000E+00  0.00000000000E+00  0.11932730945E+04  0.11932730945E+04  0.25500000920E-02 0. -1.
       -2   -1    0    0    0  501  0.00000000000E+00  0.00000000000E+00 -0.35932579177E+03  0.35932579178E+03  0.25500000920E-02 0.  1.
    10030    2    1    2    0    0  0.00000000000E+00  0.00000000000E+00  0.83394730274E+03  0.15525988863E+04  0.13096164316E+04 0.  0.
        2    1    3    3  502    0 -0.43479447845E+02 -0.46166222999E+03 -0.13113866377E+03  0.48189192370E+03  0.25500000920E-02 0.  1.
       -2    1    3    3    0  502  0.43479447845E+02  0.46166222999E+03  0.96508596651E+03  0.10707069626E+04  0.25500000920E-02 0. -1.
</event>
<event>
 5   0  0.9131250E-04  0.1211190E+04  0.7818609E-02  0.9103118E-01
        3   -1    0    0  501    0  0.00000000000E+00  0.00000000000E+00  0.11220820547E+04  0.11220820592E+04  0.10100000352E+00 0. -1.
       -3   -1    0    0    0  501  0.00000000000E+00  0.00000000000E+00 -0.32684368307E+03  0.32684369868E+03  0.10100000352E+00 0.  1.
    10030    2    1    2    0    0  0.00000000000E+00  0.00000000000E+00  0.79523837159E+03  0.14489257579E+04  0.12111902345E+04 0.  0.
        2    1    3    3  502    0  0.41674292741E+03  0.22986234293E+03 -0.50362809840E+02  0.47858936142E+03  0.25500000920E-02 0.  1.
       -2    1    3    3    0  502 -0.41674292741E+03 -0.22986234293E+03  0.84560118143E+03  0.97033639645E+03  0.25500000920E-02 0. -1.
</event>
<event>
 5   0  0.2312105E-03  0.1287271E+04  0.7818609E-02  0.9039720E-01
       -2   -1    0    0    0  501  0.00000000000E+00  0.00000000000E+00  0.39244357876E+03  0.39244357877E+03  0.25500000920E-02 0. -1.
        2   -1    0    0  501    0  0.00000000000E+00  0.00000000000E+00 -0.10556086519E+04  0.10556086519E+04  0.25500000920E-02 0.  1.
    10030    2    1    2    0    0  0.00000000000E+00  0.00000000000E+00 -0.66316507315E+03  0.14480522307E+04  0.12872712801E+04 0.  0.
        5    1    3    3  502    0  0.45914888972E+03  0.10872014604E+03  0.16081945770E+03  0.49852057235E+03  0.46999998093E+01 0. -1.
       -5    1    3    3    0  502 -0.45914888972E+03 -0.10872014604E+03 -0.82398453085E+03  0.94953165833E+03  0.46999998093E+01 0.  1.
</event>
<event>
 5   0  0.2478236E-03  0.1368387E+04  0.7818609E-02  0.8977025E-01
       -2   -1    0    0    0  501  0.00000000000E+00  0.00000000000E+00  0.77766311678E+03  0.77766311679E+03  0.25500000920E-02 0.  1.
        2   -1    0    0  501    0  0.00000000000E+00  0.00000000000E+00 -0.60195820945E+03  0.60195820946E+03  0.25500000920E-02 0. -1.
    10030    2    1    2    0    0  0.00000000000E+00  0.00000000000E+00  0.17570490733E+03  0.13796213262E+04  0.13683869297E+04 0.  0.
        3    1    3    3  502    0  0.19054868766E+03 -0.59644088999E+03 -0.19022009456E+03  0.65439608205E+03  0.10100000352E+00 0.  1.
       -3    1    3    3    0  502 -0.19054868766E+03  0.59644088999E+03  0.36592500189E+03  0.72522524420E+03  0.10100000352E+00 0. -1.
</event>
<event>
 5   0  0.1310461E-03  0.1255894E+04  0.7818609E-02  0.9065292E-01
       -1   -1    0    0    0  501  0.00000000000E+00  0.00000000000E+00  0.11947572795E+04  0.11947572795E+04  0.50400001928E-02 0. -1.
        1   -1    0    0  501    0  0.00000000000E+00  0.00000000000E+00 -0.33003981345E+03  0.33003981349E+03  0.50400001928E-02 0.  1.
    10030    2    1    2    0    0  0.00000000000E+00  0.00000000000E+00  0.86471746605E+03  0.15247970930E+04  0.12558940555E+04 0.  0.
        4    1    3    3  502    0  0.21178546448E+03 -0.41002137716E+03 -0.84666972242E+02  0.46919156192E+03  0.12699999809E+01 0.  1.
       -4    1    3    3    0  502 -0.21178546448E+03  0.41002137716E+03  0.94938443829E+03  0.10556055311E+04  0.12699999809E+01 0. -1.
</event>
<event>
 5   0  0.2334946E-03  0.1307583E+04  0.7818609E-02  0.9023573E-01
        2   -1    0    0  501    0  0.00000000000E+00  0.00000000000E+00  0.19236794118E+04  0.19236794118E+04  0.25500000920E-02 0.  1.
       -2   -1    0    0    0  501  0.00000000000E+00  0.00000000000E+00 -0.22220084867E+03  0.22220084868E+03  0.25500000920E-02 0. -1.
    10030    2    1    2    0    0  0.00000000000E+00  0.00000000000E+00  0.17014785632E+04  0.21458802605E+04  0.13075828049E+04 0.  0.
        1    1    3    3  502    0  0.18272101433E+02  0.34813839849E+03 -0.56939952073E+02  0.35323699178E+03  0.50400001928E-02 0. -1.
       -1    1    3    3    0  502 -0.18272101433E+02 -0.34813839849E+03  0.17584185152E+04  0.17926432687E+04  0.50400001928E-02 0.  1.
</event>
<event>
 5   0  0.2361043E-03  0.1075231E+04  0.7818609E-02  0.9229675E-01
        2   -1    0    0  501    0  0.00000000000E+00  0.00000000000E+00  0.98769138055E+03  0.98769138056E+03  0.25500000920E-02 0.  1.
       -2   -1    0    0    0  501  0.00000000000E+00  0.00000000000E+00 -0.29263254586E+03  0.29263254587E+03  0.25500000920E-02 0. -1.
    10030    2    1    2    0    0  0.00000000000E+00  0.00000000000E+00  0.69505883470E+03  0.12803239264E+04  0.10752314043E+04 0.  0.
        2    1    3    3  502    0 -0.32949378519E+03  0.59853672285E+02 -0.15326534031E+03  0.36829184230E+03  0.25500000920E-02 0. -1.
       -2    1    3    3    0  502  0.32949378519E+03 -0.59853672285E+02  0.84832417500E+03  0.91203208412E+03  0.25500000920E-02 0.  1.
</event>
<event>
 5   0  0.1346593E-03  0.1307768E+04  0.7818609E-02  0.9023427E-01
       -1   -1    0    0    0  501  0.00000000000E+00  0.00000000000E+00  0.24710437475E+03  0.24710437480E+03  0.50400001928E-02 0. -1.
        1   -1    0    0  501    0  0.00000000000E+00  0.00000000000E+00 -0.17302990535E+04  0.17302990535E+04  0.50400001928E-02 0.  1.
    10030    2    1    2    0    0  0.00000000000E+00  0.00000000000E+00 -0.14831946787E+04  0.19774034283E+04  0.13077682758E+04 0.  0.
        2    1    3    3  502    0  0.26726625336E+02  0.23062557980E+03  0.18268349790E+03  0.29542466209E+03  0.25500000920E-02 0. -1.
       -2    1    3    3    0  502 -0.26726625336E+02 -0.23062557980E+03 -0.16658781766E+04  0.16819787662E+04  0.25500000920E-02 0.  1.
</event>
<event>
 5   0  0.2312105E-03  0.1301381E+04  0.7818609E-02  0.9028471E-01
        2   -1    0    0  501    0  0.00000000000E+00  0.00000000000E+00  0.54570796077E+03  0.54570796078E+03  0.25500000920E-02 0.  1.
       -2   -1    0    0    0  501  0.00000000000E+00  0.00000000000E+00 -0.77586951481E+03  0.77586951481E+03  0.25500000920E-02 0. -1.
    10030    2    1    2    0    0  0.00000000000E+00  0.00000000000E+00 -0.23016155403E+03  0.13215774756E+04  0.13013810676E+04 0.  0.
        5    1    3    3  502    0 -0.28562660533E+03 -0.99299811008E+02  0.46999673443E+03  0.55889357708E+03  0.46999998093E+01 0.  1.
       -5    1    3    3    0  502  0.28562660533E+03  0.99299811008E+02 -0.70015828846E+03  0.76268389850E+03  0.46999998093E+01 0. -1.
</event>
<event>
 5   0  0.1387622E-03  0.1298528E+04  0.7818609E-02  0.9030733E-01
       -1   -1    0    0    0  501  0.00000000000E+00  0.00000000000E+00  0.33954110533E+03  0.33954110536E+03  0.50400001928E-02 0. -1.
        1   -1    0    0  501    0  0.00000000000E+00  0.00000000000E+00 -0.12415098325E+04  0.12415098325E+04  0.50400001928E-02 0.  1.
    10030    2    1    2    0    0  0.00000000000E+00  0.00000000000E+00 -0.90196872713E+03  0.15810509378E+04  0.12985278138E+04 0.  0.
        3    1    3    3  502    0 -0.46475118542E+03  0.21756580105E+03 -0.93528888931E+03  0.10668148194E+04  0.10100000352E+00 0.  1.
       -3    1    3    3    0  502  0.46475118542E+03 -0.21756580105E+03  0.33320162181E+02  0.51423611847E+03  0.10100000352E+00 0. -1.
</event>
<event>
 5   0  0.1387622E-03  0.1298002E+04  0.7818609E-02  0.9031151E-01
       -1   -1    0    0    0  501  0.00000000000E+00  0.00000000000E+00  0.26237645077E+03  0.26237645082E+03  0.50400001928E-02 0.  1.
        1   -1    0    0  501    0  0.00000000000E+00  0.00000000000E+00 -0.16053361687E+04  0.16053361687E+04  0.50400001928E-02 0. -1.
    10030    2    1    2    0    0  0.00000000000E+00  0.00000000000E+00 -0.13429597179E+04  0.18677126195E+04  0.12980021669E+04 0.  0.
        3    1    3    3  502    0 -0.43115786942E+03  0.46879813176E+03 -0.85081718331E+03  0.10628069845E+04  0.10100000352E+00 0. -1.
       -3    1    3    3    0  502  0.43115786942E+03 -0.46879813176E+03 -0.49214253463E+03  0.80490563503E+03  0.10100000352E+00 0.  1.
</event>
<event>
 5   0  0.1310461E-03  0.1293605E+04  0.7818609E-02  0.9034652E-01
       -1   -1    0    0    0  501  0.00000000000E+00  0.00000000000E+00  0.86478837608E+03  0.86478837609E+03  0.50400001928E-02 0.  1.
        1   -1    0    0  501    0  0.00000000000E+00  0.00000000000E+00 -0.48376390271E+03  0.48376390274E+03  0.50400001928E-02 0. -1.
    10030    2    1    2    0    0  0.00000000000E+00  0.00000000000E+00  0.38102447337E+03  0.13485522788E+04  0.12936048854E+04 0.  0.
        4    1    3    3  502    0 -0.22105928909E+03  0.57338470064E+03 -0.19837042280E+02  0.61484335027E+03  0.12699999809E+01 0. -1.
       -4    1    3    3    0  502  0.22105928909E+03 -0.57338470064E+03  0.40086151565E+03  0.73370892856E+03  0.12699999809E+01 0.  1.
</event>
<event>
 5   0  0.2401211E-03  0.1291716E+04  0.7818609E-02  0.9036160E-01
        2   -1    0    0  501    0  0.00000000000E+00  0.00000000000E+00  0.11296960985E+04  0.11296960985E+04  0.25500000920E-02 0.  1.
       -2   -1    0    0    0  501  0.00000000000E+00  0.00000000000E+00 -0.36924334590E+03  0.36924334591E+03  0.25500000920E-02 0. -1.
    10030    2    1    2    0    0  0.00000000000E+00  0.00000000000E+00  0.76045275261E+03  0.14989394444E+04  0.12917163269E+04 0.  0.
        4    1    3    3  502    0 -0.24713146444E+03  0.19694760759E+03 -0.27340161916E+03  0.41786646086E+03  0.12699999809E+01 0. -1.
       -4    1    3    3    0  502  0.24713146444E+03 -0.19694760759E+03  0.10338543718E+04  0.10810729836E+04  0.12699999809E+01 0.  1.
</event>
<event>
 5   0  0.2361043E-03  0.1293880E+04  0.7818609E-02  0.9034432E-01
        2   -1    0    0  501    0  0.00000000000E+00  0.00000000000E+00  0.20862566628E+04  0.20862566628E+04  0.25500000920E-02 0. -1.
       -2   -1    0    0    0  501  0.00000000000E+00  0.00000000000E+00 -0.20061361211E+03  0.20061361213E+03  0.25500000920E-02 0.  1.
    10030    2    1    2    0    0  0.00000000000E+00  0.00000000000E+00  0.18856430507E+04  0.22868702749E+04  0.12938801876E+04 0.  0.
        2    1    3    3  502    0  0.11996055692E+03  0.28631200288E+03  0.19460216555E+04  0.19706256321E+04  0.25500000920E-02 0. -1.
       -2    1    3    3    0  502 -0.11996055692E+03 -0.28631200288E+03 -0.60378604790E+02  0.31624464285E+03  0.25500000920E-02 0.  1.
</event>
<event>
 5   0  0.2401211E-03  0.1301750E+04  0.7818609E-02  0.9028179E-01
        2   -1    0    0  501    0  0.00000000000E+00  0.00000000000E+00  0.13003608977E+04  0.13003608977E+04  0.25500000920E-02 0. -1.
       -2   -1    0    0    0  501  0.00000000000E+00  0.00000000000E+00 -0.32578509888E+03  0.32578509889E+03  0.25500000920E-02 0.  1.
    10030    2    1    2    0    0  0.00000000000E+00  0.00000000000E+00  0.97457579887E+03  0.16261459966E+04  0.13017499048E+04 0.  0.
        4    1    3    3  502    0 -0.35674932733E+03  0.50217087225E+03  0.74989019448E+03  0.97045483366E+03  0.12699999809E+01 0. -1.
       -4    1    3    3    0  502  0.35674932733E+03 -0.50217087225E+03  0.22468560439E+03  0.65569116298E+03  0.12699999809E+01 0.  1.
</event>
<event>
 5   0  0.2334946E-03  0.1267118E+04  0.7818609E-02  0.9056055E-01
       -2   -1    0    0    0  501  0.00000000000E+00  0.00000000000E+00  0.50003522871E+03  0.50003522871E+03  0.25500000920E-02 0. -1.
        2   -1    0    0  501    0  0.00000000000E+00  0.00000000000E+00 -0.80273704205E+03  0.80273704206E+03  0.25500000920E-02 0.  1.
    10030    2    1    2    0    0  0.00000000000E+00  0.00000000000E+00 -0.30270181334E+03  0.13027722708E+04  0.12671176748E+04 0.  0.
        1    1    3    3  502    0 -0.41924849398E+03 -0.26340484544E+02 -0.63896786504E+03  0.76468493735E+03  0.50400001928E-02 0.  1.
       -1    1    3    3    0  502  0.41924849398E+03  0.26340484544E+02  0.33626605170E+03  0.53808733342E+03  0.50400001928E-02 0. -1.
</event>
<event>
 5   0  0.2478236E-03  0.1362049E+04  0.7818609E-02  0.8981757E-01
       -2   -1    0    0    0  501  0.00000000000E+00  0.00000000000E+00  0.59735201990E+03  0.59735201990E+03  0.25500000920E-02 0. -1.
        2   -1    0    0  501    0  0.00000000000E+00  0.00000000000E+00 -0.77641773588E+03  0.77641773589E+03  0.25500000920E-02 0.  1.
    10030    2    1    2    0    0  0.00000000000E+00  0.00000000000E+00 -0.17906571599E+03  0.13737697558E+04  0.13620494893E+04 0.  0.
        3    1    3    3  502    0  0.43271254042E+03 -0.52635531250E+01 -0.61991600096E+03  0.75601832391E+03  0.10100000352E+00 0.  1.
       -3    1    3    3    0  502 -0.43271254042E+03  0.52635531250E+01  0.44085028497E+03  0.61775143188E+03  0.10100000352E+00 0. -1.
</event>
<event>
 5   0  0.1324721E-03  0.1073671E+04  0.7818609E-02  0.9231241E-01
        1   -1    0    0  501    0  0.00000000000E+00  0.00000000000E+00  0.50456416033E+03  0.50456416035E+03  0.50400001928E-02 0. -1.
       -1   -1    0    0    0  501  0.00000000000E+00  0.00000000000E+00 -0.57117064126E+03  0.57117064128E+03  0.50400001928E-02 0.  1.
    10030    2    1    2    0    0  0.00000000000E+00  0.00000000000E+00 -0.66606480936E+02  0.10757348016E+04  0.10736707783E+04 0.  0.
        1    1    3    3  502    0 -0.43252818978E+03 -0.21488870420E+03 -0.26813479648E+03  0.55240751194E+03  0.50400001928E-02 0.  1.
       -1    1    3    3    0  502  0.43252818978E+03  0.21488870420E+03  0.20152831554E+03  0.52332728969E+03  0.50400001928E-02 0. -1.
</event>
<event>
 5   0  0.2361043E-03  0.1283945E+04  0.7818609E-02  0.9042395E-01
        2   -1    0    0  501    0  0.00000000000E+00  0.00000000000E+00  0.68231178581E+03  0.68231178582E+03  0.25500000920E-02 0.  1.
       -2   -1    0    0    0  501  0.00000000000E+00  0.00000000000E+00 -0.60401829805E+03  0.60401829805E+03  0.25500000920E-02 0. -1.
    10030    2    1    2    0    0  0.00000000000E+00  0.00000000000E+00  0.78293487767E+02  0.12863300839E+04  0.12839451758E+04 0.  0.
        2    1    3    3  502    0 -0.29105498300E+03  0.13823805060E+03 -0.51713776325E+03  0.60930634983E+03  0.25500000920E-02 0. -1.
       -2    1    3    3    0  502  0.29105498300E+03 -0.13823805060E+03  0.59543125102E+03  0.67702373404E+03  0.25500000920E-02 0.  1.
</event>
<event>
 5   0  0.1346593E-03  0.1290254E+04  0.7818609E-02  0.9037329E-01
       -1   -1    0    0    0  501  0.00000000000E+00  0.00000000000E+00  0.74057908158E+03  0.74057908160E+03  0.50400001928E-02 0.  1.
        1   -1    0    0  501    0  0.00000000000E+00  0.00000000000E+00 -0.56197783570E+03  0.56197783572E+03  0.50400001928E-02 0. -1.
    10030    2    1    2    0    0  0.00000000000E+00  0.00000000000E+00  0.17860124588E+03  0.13025569173E+04  0.12902542842E+04 0.  0.
        2    1    3    3  502    0 -0.15606228719E+03 -0.44351886550E+03  0.53524164152E+03  0.71242405656E+03  0.25500000920E-02 0.  1.
       -2    1    3    3    0  502  0.15606228719E+03  0.44351886550E+03 -0.35664039564E+03  0.59013286076E+03  0.25500000920E-02 0. -1.
</event>
<event>
 5   0  0.2361043E-03  0.1309204E+04  0.7818609E-02  0.9022298E-01
       -2   -1    0    0    0  501  0.00000000000E+00  0.00000000000E+00  0.93859009106E+03  0.93859009107E+03  0.25500000920E-02 0.  1.
        2   -1    0    0  501    0  0.00000000000E+00  0.00000000000E+00 -0.45653951613E+03  0.45653951614E+03  0.25500000920E-02 0. -1.
    10030    2    1    2    0    0  0.00000000000E+00  0.00000000000E+00  0.48205057493E+03  0.13951296072E+04  0.13092035228E+04 0.  0.
        2    1    3    3  502    0  0.10885894495E+03  0.20757273851E+01  0.92887332629E+03  0.93523271694E+03  0.25500000920E-02 0.  1.
       -2    1    3    3    0  502 -0.10885894495E+03 -0.20757273851E+01 -0.44682275135E+03  0.45989689026E+03  0.25500000920E-02 0. -1.
</event>
<event>
 5   0  0.2401211E-03  0.1313859E+04  0.7818609E-02  0.9018646E-01
        2   -1    0    0  501    0  0.00000000000E+00  0.00000000000E+00  0.60530550727E+03  0.60530550728E+03  0.25500000920E-02 0. -1.
       -2   -1    0    0    0  501  0.00000000000E+00  0.00000000000E+00 -0.71295677585E+03  0.71295677586E+03  0.25500000920E-02 0.  1.
    10030    2    1    2    0    0  0.00000000000E+00  0.00000000000E+00 -0.10765126858E+03  0.13182622831E+04  0.13138594489E+04 0.  0.
        4    1    3    3  502    0  0.79036106994E+02  0.55485260906E+03 -0.39767936842E+03  0.68721075149E+03  0.12699999809E+01 0.  1.
       -4    1    3    3    0  502 -0.79036106994E+02 -0.55485260906E+03  0.29002809985E+03  0.63105153164E+03  0.12699999809E+01 0. -1.
</event>
<event>
 5   0  0.1324721E-03  0.1320708E+04  0.7818609E-02  0.9013303E-01
       -1   -1    0    0    0  501  0.00000000000E+00  0.00000000000E+00  0.32244762440E+03  0.32244762444E+03  0.50400001928E-02 0.  1.
        1   -1    0    0  501    0  0.00000000000E+00  0.00000000000E+00 -0.13523665449E+04  0.13523665449E+04  0.50400001928E-02 0. -1.
    10030    2    1    2    0    0  0.00000000000E+00  0.00000000000E+00 -0.10299189205E+04  0.16748141694E+04  0.13207079613E+04 0.  0.
        1    1    3    3  502    0 -0.32433636345E+02  0.54275899152E+03 -0.39748043880E+02  0.54517810912E+03  0.50400001928E-02 0.  1.
       -1    1    3    3    0  502  0.32433636345E+02 -0.54275899152E+03 -0.99017087665E+03  0.11296360603E+04  0.50400001928E-02 0. -1.
</event>
<event>
 5   0  0.1387622E-03  0.1319260E+04  0.7818609E-02  0.9014429E-01
       -1   -1    0    0    0  501  0.00000000000E+00  0.00000000000E+00  0.38374078562E+03  0.38374078565E+03  0.50400001928E-02 0. -1.
        1   -1    0    0  501    0  0.00000000000E+00  0.00000000000E+00 -0.11338694166E+04  0.11338694166E+04  0.50400001928E-02 0.  1.
    10030    2    1    2    0    0  0.00000000000E+00  0.00000000000E+00 -0.75012863095E+03  0.15176102022E+04  0.13192603090E+04 0.  0.
        3    1    3    3  502    0  0.48024264799E+03 -0.38176259924E+03 -0.65385794073E+03  0.89660799683E+03  0.10100000352E+00 0.  1.
       -3    1    3    3    0  502 -0.48024264799E+03  0.38176259924E+03 -0.96270690218E+02  0.62100220540E+03  0.10100000352E+00 0. -1.
</event>
<event>
 5   0  0.2478236E-03  0.1303180E+04  0.7818609E-02  0.9027047E-01
        2   -1    0    0  501    0  0.00000000000E+00  0.00000000000E+00  0.57175721609E+03  0.57175721609E+03  0.25500000920E-02 0.  1.
       -2   -1    0    0    0  501  0.00000000000E+00  0.00000000000E+00 -0.74256948842E+03  0.74256948842E+03  0.25500000920E-02 0. -1.
    10030    2    1    2    0    0  0.00000000000E+00  0.00000000000E+00 -0.17081227233E+03  0.13143267045E+04  0.13031799008E+04 0.  0.
        3    1    3    3  502    0 -0.19330938020E+03 -0.20177870793E+03  0.50825960288E+03  0.58000948059E+03  0.10100000352E+00 0.  1.
       -3    1    3    3    0  502  0.19330938020E+03  0.20177870793E+03 -0.67907187521E+03  0.73431722393E+03  0.10100000352E+00 0. -1.
</event>
<event>
 5   0  0.1332630E-03  0.1280451E+04  0.7818609E-02  0.9045213E-01
        1   -1    0    0  501    0  0.00000000000E+00  0.00000000000E+00  0.10610572010E+04  0.10610572010E+04  0.50400001928E-02 0.  1.
       -1   -1    0    0    0  501  0.00000000000E+00  0.00000000000E+00 -0.38630245947E+03  0.38630245950E+03  0.50400001928E-02 0. -1.
    10030    2    1    2    0    0  0.00000000000E+00  0.00000000000E+00  0.67475474149E+03  0.14473596605E+04  0.12804514929E+04 0.  0.
        5    1    3    3  502    0 -0.61366777806E+03  0.68758896137E+02  0.52837321159E+03  0.81272151955E+03  0.46999998093E+01 0. -1.
       -5    1    3    3    0  502  0.61366777806E+03 -0.68758896137E+02  0.14638152991E+03  0.63463814093E+03  0.46999998093E+01 0.  1.
</event>
<event>
 5   0  0.1310461E-03  0.1303809E+04  0.7818609E-02  0.9026550E-01
       -1   -1    0    0    0  501  0.00000000000E+00  0.00000000000E+00  0.25335762410E+03  0.25335762415E+03  0.50400001928E-02 0. -1.
        1   -1    0    0  501    0  0.00000000000E+00  0.00000000000E+00 -0.16773903542E+04  0.16773903542E+04  0.50400001928E-02 0.  1.
    10030    2    1    2    0    0  0.00000000000E+00  0.00000000000E+00 -0.14240327301E+04  0.19307479784E+04  0.13038092420E+04 0.  0.
        4    1    3    3  502    0  0.63600773142E+03 -0.10046719359E+03 -0.56115450151E+03  0.85410507485E+03  0.12699999809E+01 0. -1.
       -4    1    3    3    0  502 -0.63600773142E+03  0.10046719359E+03 -0.86287822861E+03  0.10766429035E+04  0.12699999809E+01 0.  1.
</event>
<event>
 5   0  0.2401211E-03  0.1316232E+04  0.7818609E-02  0.9016791E-01
        2   -1    0    0  501    0  0.00000000000E+00  0.00000000000E+00  0.83643641190E+03  0.83643641191E+03  0.25500000920E-02 0.  1.
       -2   -1    0    0    0  501  0.00000000000E+00  0.00000000000E+00 -0.51781191399E+03  0.51781191400E+03  0.25500000920E-02 0. -1.
    10030    2    1    2    0    0  0.00000000000E+00  0.00000000000E+00  0.31862449791E+03  0.13542483259E+04  0.13162321063E+04 0.  0.
        4    1    3    3  502    0  0.62806864279E+03 -0.93778413329E+02  0.33707540241E+03  0.71894787758E+03  0.12699999809E+01 0.  1.
       -4    1    3    3    0  502 -0.62806864279E+03  0.93778413329E+02 -0.18450904500E+02  0.63530044833E+03  0.12699999809E+01 0. -1.
</event>
<event>
 5   0  0.2334946E-03  0.1291829E+04  0.7818609E-02  0.9036070E-01
        2   -1    0    0  501    0  0.00000000000E+00  0.00000000000E+00  0.26576251268E+04  0.26576251268E+04  0.25500000920E-02 0. -1.
       -2   -1    0    0    0  501  0.00000000000E+00  0.00000000000E+00 -0.15698436502E+03  0.15698436504E+03  0.25500000920E-02 0.  1.
    10030    2    1    2    0    0  0.00000000000E+00  0.00000000000E+00  0.25006407618E+04  0.28146094919E+04  0.12918290801E+04 0.  0.
        1    1    3    3  502    0 -0.52023732418E+03 -0.27674053524E+02  0.41840102596E+03  0.66818571165E+03  0.50400001928E-02 0.  1.
       -1    1    3    3    0  502  0.52023732418E+03  0.27674053524E+02  0.20822397359E+04  0.21464237802E+04  0.50400001928E-02 0. -1.
</event>
<event>
 5   0  0.1346593E-03  0.1307502E+04  0.7818609E-02  0.9023637E-01
        1   -1    0    0  501    0  0.00000000000E+00  0.00000000000E+00  0.19691630227E+03  0.19691630234E+03  0.50400001928E-02 0.  1.
       -1   -1    0    0    0  501  0.00000000000E+00  0.00000000000E+00 -0.21704176959E+04  0.21704176959E+04  0.50400001928E-02 0. -1.
    10030    2    1    2    0    0  0.00000000000E+00  0.00000000000E+00 -0.19735013937E+04  0.23673339983E+04  0.13075023933E+04 0.  0.
        2    1    3    3  502    0 -0.24328898449E+02 -0.63940111437E+03 -0.12294284751E+04  0.13859726028E+04  0.25500000920E-02 0.  1.
       -2    1    3    3    0  502  0.24328898449E+02  0.63940111437E+03 -0.74407291860E+03  0.98136139549E+03  0.25500000920E-02 0. -1.
</event>
<event>
 5   0  0.2361043E-03  0.1312969E+04  0.7818609E-02  0.9019343E-01
        2   -1    0    0  501    0  0.00000000000E+00  0.00000000000E+00  0.65232237119E+03  0.65232237119E+03  0.25500000920E-02 0.  1.
       -2   -1    0    0    0  501  0.00000000000E+00  0.00000000000E+00 -0.66067345778E+03  0.66067345779E+03  0.25500000920E-02 0. -1.
    10030    2    1    2    0    0  0.00000000000E+00  0.00000000000E+00 -0.83510865966E+01  0.13129958290E+04  0.13129692709E+04 0.  0.
        2    1    3    3  502    0  0.43198452470E+03 -0.45455862896E+03 -0.19844192361E+03  0.65773351275E+03  0.25500000920E-02 0. -1.
       -2    1    3    3    0  502 -0.43198452470E+03  0.45455862896E+03  0.19009083701E+03  0.65526231623E+03  0.25500000920E-02 0.  1.
</event>
<event>
 5   0  0.2334946E-03  0.1259713E+04  0.7818609E-02  0.9062138E-01
       -2   -1    0    0    0  501  0.00000000000E+00  0.00000000000E+00  0.23507531903E+03  0.23507531905E+03  0.25500000920E-02 0.  1.
        2   -1    0    0  501    0  0.00000000000E+00  0.00000000000E+00 -0.16876252148E+04  0.16876252148E+04  0.25500000920E-02 0. -1.
    10030    2    1    2    0    0  0.00000000000E+00  0.00000000000E+00 -0.14525498957E+04  0.19227005338E+04  0.12597127225E+04 0.  0.
        1    1    3    3  502    0 -0.10089014013E+03  0.60626986862E+03 -0.93653395883E+03  0.11201954428E+04  0.50400001928E-02 0. -1.
       -1    1    3    3    0  502  0.10089014013E+03 -0.60626986862E+03 -0.51601593692E+03  0.80250509105E+03  0.50400001928E-02 0.  1.
</event>
<event>
 5   0  0.2478236E-03  0.1298044E+04  0.7818609E-02  0.9031118E-01
       -2   -1    0    0    0  501  0.00000000000E+00  0.00000000000E+00  0.48228939745E+03  0.48228939745E+03  0.25500000920E-02 0. -1.
        2   -1    0    0  501    0  0.00000000000E+00  0.00000000000E+00 -0.87339541440E+03  0.87339541440E+03  0.25500000920E-02 0.  1.
    10030    2    1    2    0    0  0.00000000000E+00  0.00000000000E+00 -0.39110601695E+03  0.13556848119E+04  0.12980436790E+04 0.  0.
        3    1    3    3  502    0 -0.31351002551E+03 -0.56540241916E+03 -0.25519313840E+03  0.69504818522E+03  0.10100000352E+00 0.  1.
       -3    1    3    3    0  502  0.31351002551E+03  0.56540241916E+03 -0.13591287856E+03  0.66063662663E+03  0.10100000352E+00 0. -1.
</event>
<event>
 5   0  0.2361043E-03  0.1300691E+04  0.7818609E-02  0.9029017E-01
       -2   -1    0    0    0  501  0.00000000000E+00  0.00000000000E+00  0.16647047715E+03  0.16647047717E+03  0.25500000920E-02 0.  1.
        2   -1    0    0  501    0  0.00000000000E+00  0.00000000000E+00 -0.25406867830E+04  0.25406867830E+04  0.25500000920E-02 0. -1.
    10030    2    1    2    0    0  0.00000000000E+00  0.00000000000E+00 -0.23742163059E+04  0.27071572602E+04  0.13006911103E+04 0.  0.
        2    1    3    3  502    0 -0.51843624746E+03 -0.20796302187E+03 -0.49391668400E+03  0.74563962601E+03  0.25500000920E-02 0.  1.
       -2    1    3    3    0  502  0.51843624746E+03  0.20796302187E+03 -0.18802996219E+04  0.19615176342E+04  0.25500000920E-02 0. -1.
</event>
<event>
 5   0  0.1332630E-03  0.1215905E+04  0.7818609E-02  0.9099048E-01
        1   -1    0    0  501    0  0.00000000000E+00  0.00000000000E+00  0.13567690832E+04  0.13567690832E+04  0.50400001928E-02 0. -1.
       -1   -1    0    0    0  501  0.00000000000E+00  0.00000000000E+00 -0.27241629852E+03  0.27241629856E+03  0.50400001928E-02 0.  1.
    10030    2    1    2    0    0  0.00000000000E+00  0.00000000000E+00  0.10843527847E+04  0.16291853818E+04  0.12159046207E+04 0.  0.
        5    1    3    3  502    0 -0.58832869867E+03  0.10751537280E+03  0.39604967029E+03  0.71733370505E+03  0.46999998093E+01 0. -1.
       -5    1    3    3    0  502  0.58832869867E+03 -0.10751537280E+03  0.68830311442E+03  0.91185167675E+03  0.46999998093E+01 0.  1.
</event>
<event>
 5   0  0.2401211E-03  0.1296107E+04  0.7818609E-02  0.9032658E-01
       -2   -1    0    0    0  501  0.00000000000E+00  0.00000000000E+00  0.23075442786E+03  0.23075442788E+03  0.25500000920E-02 0. -1.
        2   -1    0    0  501    0  0.00000000000E+00  0.00000000000E+00 -0.18199999598E+04  0.18199999598E+04  0.25500000920E-02 0.  1.
    10030    2    1    2    0    0  0.00000000000E+00  0.00000000000E+00 -0.15892455320E+04  0.20507543877E+04  0.12961065534E+04 0.  0.
        4    1    3    3  502    0 -0.34278860668E+03 -0.17322914308E+03  0.31269842250E+02  0.38534631284E+03  0.12699999809E+01 0. -1.
       -4    1    3    3    0  502  0.34278860668E+03  0.17322914308E+03 -0.16205153742E+04  0.16654080749E+04  0.12699999809E+01 0.  1.
</event>
<event>
 5   0  0.1387622E-03  0.1289358E+04  0.7818609E-02  0.9038047E-01
       -1   -1    0    0    0  501  0.00000000000E+00  0.00000000000E+00  0.11750775351E+04  0.11750775351E+04  0.50400001928E-02 0. -1.
        1   -1    0    0  501    0  0.00000000000E+00  0.00000000000E+00 -0.35368818163E+03  0.35368818167E+03  0.50400001928E-02 0.  1.
    10030    2    1    2    0    0  0.00000000000E+00  0.00000000000E+00  0.82138935345E+03  0.15287657168E+04  0.12893580367E+04 0.  0.
        3    1    3    3  502    0 -0.42749199377E+03  0.45336717794E+03  0.21471711513E+03  0.65908622539E+03  0.10100000352E+00 0.  1.
       -3    1    3    3    0  502  0.42749199377E+03 -0.45336717794E+03  0.60667223831E+03  0.86967949137E+03  0.10100000352E+00 0. -1.
</event>
<event>
 5   0  0.1324721E-03  0.1411206E+04  0.7818609E-02  0.8945747E-01
       -1   -1    0    0    0  501  0.00000000000E+00  0.00000000000E+00  0.49810992990E+03  0.49810992993E+03  0.50400001928E-02 0.  1.
        1   -1    0    0  501    0  0.00000000000E+00  0.00000000000E+00 -0.99952896039E+03  0.99952896040E+03  0.50400001928E-02 0. -1.
    10030    2    1    2    0    0  0.00000000000E+00  0.00000000000E+00 -0.50141903049E+03  0.14976388903E+04  0.14112055845E+04 0.  0.
        1    1    3    3  502    0  0.48269871843E+03 -0.50833077298E+03 -0.16530000841E+03  0.72022379879E+03  0.50400001928E-02 0.  1.
       -1    1    3    3    0  502 -0.48269871843E+03  0.50833077298E+03 -0.33611902208E+03  0.77741509155E+03  0.50400001928E-02 0. -1.
</event>
<event>
 5   0  0.2478236E-03  0.1418924E+04  0.7818609E-02  0.8940233E-01
        2   -1    0    0  501    0  0.00000000000E+00  0.00000000000E+00  0.19442387240E+04  0.19442387240E+04  0.25500000920E-02 0.  1.
       -2   -1    0    0    0  501  0.00000000000E+00  0.00000000000E+00 -0.25888596111E+03  0.25888596113E+03  0.25500000920E-02 0. -1.
    10030    2    1    2    0    0  0.00000000000E+00  0.00000000000E+00  0.16853527629E+04  0.22031246851E+04  0.14189236917E+04 0.  0.
        3    1    3    3  502    0  0.67109766267E+03  0.22583046157E+03  0.77385546428E+03  0.10489155161E+04  0.10100000352E+00 0.  1.
       -3    1    3    3    0  502 -0.67109766267E+03 -0.22583046157E+03  0.91149729860E+03  0.11542091690E+04  0.10100000352E+00 0. -1.
</event>
<event>
 5   0  0.1332630E-03  0.1335342E+04  0.7818609E-02  0.9001999E-01
       -1   -1    0    0    0  501  0.00000000000E+00  0.00000000000E+00  0.81717997510E+03  0.81717997511E+03  0.50400001928E-02 0. -1.
        1   -1    0    0  501    0  0.00000000000E+00  0.00000000000E+00 -0.54551569439E+03  0.54551569441E+03  0.50400001928E-02 0.  1.
    10030    2    1    2    0    0  0.00000000000E+00  0.00000000000E+00  0.27166428071E+03  0.13626956695E+04  0.13353419061E+04 0.  0.
        5    1    3    3  502    0  0.80869686821E+02  0.61862320949E+03 -0.10679398036E+03  0.63297837705E+03  0.46999998093E+01 0.  1.
       -5    1    3    3    0  502 -0.80869686821E+02 -0.61862320949E+03  0.37845826107E+03  0.72971729247E+03  0.46999998093E+01 0. -1.
</event>
<event>
 5   0  0.1387622E-03  0.1291594E+04  0.7818609E-02  0.9036258E-01
        1   -1    0    0  501    0  0.00000000000E+00  0.00000000000E+00  0.56646586548E+03  0.56646586550E+03  0.50400001928E-02 0.  1.
       -1   -1    0    0    0  501  0.00000000000E+00  0.00000000000E+00 -0.73623846286E+03  0.73623846287E+03  0.50400001928E-02 0. -1.
    10030    2    1    2    0    0  0.00000000000E+00  0.00000000000E+00 -0.16977259737E+03  0.13027043284E+04  0.12915942987E+04 0.  0.
        3    1    3    3  502    0 -0.64022109130E+03 -0.73464430094E+02 -0.42406562276E+02  0.64581606898E+03  0.10100000352E+00 0. -1.
       -3    1    3    3    0  502  0.64022109130E+03  0.73464430094E+02 -0.12736603510E+03  0.65688825939E+03  0.10100000352E+00 0.  1.
</event>
<event>
 5   0  0.1310461E-03  0.1325210E+04  0.7818609E-02  0.9009809E-01
       -1   -1    0    0    0  501  0.00000000000E+00  0.00000000000E+00  0.64864398418E+03  0.64864398420E+03  0.50400001928E-02 0. -1.
        1   -1    0    0  501    0  0.00000000000E+00  0.00000000000E+00 -0.67686640036E+03  0.67686640038E+03  0.50400001928E-02 0.  1.
    10030    2    1    2    0    0  0.00000000000E+00  0.00000000000E+00 -0.28222416182E+02  0.13255103846E+04  0.13252098984E+04 0.  0.
        4    1    3    3  502    0 -0.39356700781E+03 -0.96537935998E+02  0.51024915472E+03  0.65159065026E+03  0.12699999809E+01 0. -1.
       -4    1    3    3    0  502  0.39356700781E+03  0.96537935998E+02 -0.53847157090E+03  0.67391973431E+03  0.12699999809E+01 0.  1.
</event>
<event>
 5   0  0.1332630E-03  0.1201542E+04  0.7818609E-02  0.9111508E-01
       -1   -1    0    0    0  501  0.00000000000E+00  0.00000000000E+00  0.53209422979E+03  0.53209422981E+03  0.50400001928E-02 0.  1.
        1   -1    0    0  501    0  0.00000000000E+00  0.00000000000E+00 -0.67831203396E+03  0.67831203398E+03  0.50400001928E-02 0. -1.
    10030    2    1    2    0    0  0.00000000000E+00  0.00000000000E+00 -0.14621780417E+03  0.12104062638E+04  0.12015422078E+04 0.  0.
        5    1    3    3  502    0 -0.19161812632E+03  0.45890376517E+03 -0.41263188074E+03  0.64621771179E+03  0.46999998093E+01 0. -1.
       -5    1    3    3    0  502  0.19161812632E+03 -0.45890376517E+03  0.26641407656E+03  0.56418855201E+03  0.46999998093E+01 0.  1.
</event>
<event>
 5   0  0.1310461E-03  0.1307673E+04  0.7818609E-02  0.9023502E-01
        1   -1    0    0  501    0  0.00000000000E+00  0.00000000000E+00  0.26805312473E+04  0.26805312474E+04  0.50400001928E-02 0. -1.
       -1   -1    0    0    0  501  0.00000000000E+00  0.00000000000E+00 -0.15948423825E+03  0.15948423833E+03  0.50400001928E-02 0.  1.
    10030    2    1    2    0    0  0.00000000000E+00  0.00000000000E+00  0.25210470091E+04  0.28400154857E+04  0.13076734825E+04 0.  0.
        4    1    3    3  502    0  0.12432810225E+03  0.25314453932E+03 -0.20587683167E+02  0.28278101138E+03  0.12699999809E+01 0.  1.
       -4    1    3    3    0  502 -0.12432810225E+03 -0.25314453932E+03  0.25416346923E+04  0.25572344743E+04  0.12699999809E+01 0. -1.
</event>
<event>
 5   0  0.2334946E-03  0.1227911E+04  0.7818609E-02  0.9088771E-01
       -2   -1    0    0    0  501  0.00000000000E+00  0.00000000000E+00  0.49003547868E+03  0.49003547869E+03  0.25500000920E-02 0. -1.
        2   -1    0    0  501    0  0.00000000000E+00  0.00000000000E+00 -0.76921276899E+03  0.76921276899E+03  0.25500000920E-02 0.  1.
    10030    2    1    2    0    0  0.00000000000E+00  0.00000000000E+00 -0.27917729031E+03  0.12592482477E+04  0.12279113119E+04 0.  0.
        1    1    3    3  502    0  0.23877637196E+03 -0.55177957488E+03 -0.26712766609E+03  0.65789972266E+03  0.50400001928E-02 0. -1.
       -1    1    3    3    0  502 -0.23877637196E+03  0.55177957488E+03 -0.12049624223E+02  0.60134852501E+03  0.50400001928E-02 0.  1.
</event>
<event>
 5   0  0.1310461E-03  0.1446570E+04  0.7818609E-02  0.8920782E-01
        1   -1    0    0  501    0  0.00000000000E+00  0.00000000000E+00  0.10572340107E+04  0.10572340107E+04  0.50400001928E-02 0. -1.
       -1   -1    0    0    0  501  0.00000000000E+00  0.00000000000E+00 -0.49482059247E+03  0.49482059249E+03  0.50400001928E-02 0.  1.
    10030    2    1    2    0    0  0.00000000000E+00  0.00000000000E+00  0.56241341826E+03  0.15520546032E+04  0.14465699563E+04 0.  0.
        4    1    3    3  502    0  0.23922053988E+02 -0.61205134949E+03 -0.13149887399E+03  0.62647640485E+03  0.12699999809E+01 0.  1.
       -4    1    3    3    0  502 -0.23922053988E+02  0.61205134949E+03  0.69391229225E+03  0.92557819838E+03  0.12699999809E+01 0. -1.
</event>
<event>
 5   0  0.2478236E-03  0.1300599E+04  0.7818609E-02  0.9029091E-01
        2   -1    0    0  501    0  0.00000000000E+00  0.00000000000E+00  0.80361481228E+03  0.80361481229E+03  0.25500000920E-02 0. -1.
       -2   -1    0    0    0  501  0.00000000000E+00  0.00000000000E+00 -0.52623369140E+03  0.52623369141E+03  0.25500000920E-02 0.  1.
    10030    2    1    2    0    0  0.00000000000E+00  0.00000000000E+00  0.27738112088E+03  0.13298485037E+04  0.13005986147E+04 0.  0.
        3    1    3    3  502    0  0.42046870426E+03  0.46133544556E+03 -0.47797784638E+02  0.62602632773E+03  0.10100000352E+00 0.  1.
       -3    1    3    3    0  502 -0.42046870426E+03 -0.46133544556E+03  0.32517890552E+03  0.70382217597E+03  0.10100000352E+00 0. -1.
</event>
<event>
 5   0  0.2401211E-03  0.1318097E+04  0.7818609E-02  0.9015336E-01
       -2   -1    0    0    0  501  0.00000000000E+00  0.00000000000E+00  0.18325235534E+03  0.18325235535E+03  0.25500000920E-02 0.  1.
        2   -1    0    0  501    0  0.00000000000E+00  0.00000000000E+00 -0.23702023197E+04  0.23702023197E+04  0.25500000920E-02 0. -1.
    10030    2    1    2    0    0  0.00000000000E+00  0.00000000000E+00 -0.21869499643E+04  0.25534546750E+04  0.13180973526E+04 0.  0.
        4    1    3    3  502    0  0.24840879863E+03 -0.45209473195E+03 -0.29886450426E+03  0.59616959223E+03  0.12699999809E+01 0.  1.
       -4    1    3    3    0  502 -0.24840879863E+03  0.45209473195E+03 -0.18880854601E+04  0.19572850828E+04  0.12699999809E+01 0. -1.
</event>
<event>
 5   0  0.1310461E-03  0.1348806E+04  0.7818609E-02  0.8991733E-01
       -1   -1    0    0    0  501  0.00000000000E+00  0.00000000000E+00  0.70478908392E+03  0.70478908393E+03  0.50400001928E-02 0.  1.
        1   -1    0    0  501    0  0.00000000000E+00  0.00000000000E+00 -0.64532682249E+03  0.64532682251E+03  0.50400001928E-02 0. -1.
    10030    2    1    2    0    0  0.00000000000E+00  0.00000000000E+00  0.59462261427E+02  0.13501159064E+04  0.13488058423E+04 0.  0.
        4    1    3    3  502    0 -0.18871324929E+02 -0.30834914527E+02  0.70381730126E+03  0.70474628435E+03  0.12699999809E+01 0.  1.
       -4    1    3    3    0  502  0.18871324929E+02  0.30834914527E+02 -0.64435503983E+03  0.64536962209E+03  0.12699999809E+01 0. -1.
</event>
<event>
 5   0  0.1324721E-03  0.1294572E+04  0.7818609E-02  0.9033880E-01
        1   -1    0    0  501    0  0.00000000000E+00  0.00000000000E+00  0.13476344882E+04  0.13476344883E+04  0.50400001928E-02 0. -1.
       -1   -1    0    0    0  501  0.00000000000E+00  0.00000000000E+00 -0.31089986836E+03  0.31089986840E+03  0.50400001928E-02 0.  1.
    10030    2    1    2    0    0  0.00000000000E+00  0.00000000000E+00  0.10367346199E+04  0.16585343567E+04  0.12945723387E+04 0.  0.
        1    1    3    3  502    0 -0.17560111261E+02  0.35452183855E+03  0.12118267425E+04  0.12627423116E+04  0.50400001928E-02 0. -1.
       -1    1    3    3    0  502  0.17560111261E+02 -0.35452183855E+03 -0.17509212263E+03  0.39579204508E+03  0.50400001928E-02 0.  1.
</event>
<event>
 5   0  0.2361043E-03  0.1278513E+04  0.7818609E-02  0.9046780E-01
       -2   -1    0    0    0  501  0.00000000000E+00  0.00000000000E+00  0.34450890868E+03  0.34450890869E+03  0.25500000920E-02 0.  1.
        2   -1    0    0  501    0  0.00000000000E+00  0.00000000000E+00 -0.11861775235E+04  0.11861775235E+04  0.25500000920E-02 0. -1.
    10030    2    1    2    0    0  0.00000000000E+00  0.00000000000E+00 -0.84166861486E+03  0.15306864322E+04  0.12785127675E+04 0.  0.
        2    1    3    3  502    0  0.49228057547E+03  0.38038650738E+03 -0.59685162951E+03  0.86212871871E+03  0.25500000920E-02 0. -1.
       -2    1    3    3    0  502 -0.49228057547E+03 -0.38038650738E+03 -0.24481698536E+03  0.66855771352E+03  0.25500000920E-02 0.  1.
</event>
<event>
 5   0  0.2478236E-03  0.1196148E+04  0.7818609E-02  0.9116235E-01
       -2   -1    0    0    0  501  0.00000000000E+00  0.00000000000E+00  0.53736483060E+03  0.53736483061E+03  0.25500000920E-02 0.  1.
        2   -1    0    0  501    0  0.00000000000E+00  0.00000000000E+00 -0.66564186516E+03  0.66564186517E+03  0.25500000920E-02 0. -1.
    10030    2    1    2    0    0  0.00000000000E+00  0.00000000000E+00 -0.12827703456E+03  0.12030066958E+04  0.11961480312E+04 0.  0.
        3    1    3    3  502    0 -0.11227122369E+03  0.58431234457E+03 -0.12503962617E+03  0.60799725493E+03  0.10100000352E+00 0. -1.
       -3    1    3    3    0  502  0.11227122369E+03 -0.58431234457E+03 -0.32374083902E+01  0.59500944085E+03  0.10100000352E+00 0.  1.
</event>
<event>
 5   0  0.1310461E-03  0.1295888E+04  0.7818609E-02  0.9032832E-01
       -1   -1    0    0    0  501  0.00000000000E+00  0.00000000000E+00  0.53604591491E+03  0.53604591494E+03  0.50400001928E-02 0.  1.
        1   -1    0    0  501    0  0.00000000000E+00  0.00000000000E+00 -0.78320068883E+03  0.78320068885E+03  0.50400001928E-02 0. -1.
    10030    2    1    2    0    0  0.00000000000E+00  0.00000000000E+00 -0.24715477392E+03  0.13192466038E+04  0.12958881585E+04 0.  0.
        4    1    3    3  502    0 -0.13922738482E+03 -0.56127459469E+03  0.17395161306E+03  0.60388261435E+03  0.12699999809E+01 0.  1.
       -4    1    3    3    0  502  0.13922738482E+03  0.56127459469E+03 -0.42110638698E+03  0.71536398944E+03  0.12699999809E+01 0. -1.
</event>
<event>
 5   0  0.1346593E-03  0.1273240E+04  0.7818609E-02  0.9051060E-01
       -1   -1    0    0    0  501  0.00000000000E+00  0.00000000000E+00  0.61698284157E+03  0.61698284159E+03  0.50400001928E-02 0.  1.
        1   -1    0    0  501    0  0.00000000000E+00  0.00000000000E+00 -0.65688165962E+03  0.65688165964E+03  0.50400001928E-02 0. -1.
    10030    2    1    2    0    0  0.00000000000E+00  0.00000000000E+00 -0.39898818052E+02  0.12738645012E+04  0.12732395108E+04 0.  0.
        2    1    3    3  502    0 -0.14968695424E+03  0.56863138528E+03 -0.26407097711E+03  0.64457840295E+03  0.25500000920E-02 0.  1.
       -2    1    3    3    0  502  0.14968695424E+03 -0.56863138528E+03  0.22417215906E+03  0.62928609828E+03  0.25500000920E-02 0. -1.
</event>
<event>
 5   0  0.1324721E-03  0.1312883E+04  0.7818609E-02  0.9019411E-01
        1   -1    0    0  501    0  0.00000000000E+00  0.00000000000E+00  0.40457813416E+03  0.40457813419E+03  0.50400001928E-02 0. -1.
       -1   -1    0    0    0  501  0.00000000000E+00  0.00000000000E+00 -0.10650977123E+04  0.10650977123E+04  0.50400001928E-02 0.  1.
    10030    2    1    2    0    0  0.00000000000E+00  0.00000000000E+00 -0.66051957813E+03  0.14696758465E+04  0.13128826988E+04 0.  0.
        1    1    3    3  502    0 -0.66485427872E+02 -0.12635255152E+02 -0.10611821859E+04  0.10633379488E+04  0.50400001928E-02 0.  1.
       -1    1    3    3    0  502  0.66485427872E+02  0.12635255152E+02  0.40066260775E+03  0.40633789765E+03  0.50400001928E-02 0. -1.
</event>
<event>
 5   0  0.2361043E-03  0.1298742E+04  0.7818609E-02  0.9030563E-01
        2   -1    0    0  501    0  0.00000000000E+00  0.00000000000E+00  0.16725951503E+04  0.16725951503E+04  0.25500000920E-02 0. -1.
       -2   -1    0    0    0  501  0.00000000000E+00  0.00000000000E+00 -0.25211291091E+03  0.25211291092E+03  0.25500000920E-02 0.  1.
    10030    2    1    2    0    0  0.00000000000E+00  0.00000000000E+00  0.14204822394E+04  0.19247080612E+04  0.12987422102E+04 0.  0.
        2    1    3    3  502    0 -0.19642045267E+03 -0.58957870574E+03  0.43101973910E+03  0.75628173321E+03  0.25500000920E-02 0.  1.
       -2    1    3    3    0  502  0.19642045267E+03  0.58957870574E+03  0.98946250032E+03  0.11684263280E+04  0.25500000920E-02 0. -1.
</event>
<event>
 5   0  0.1332630E-03  0.1301236E+04  0.7818609E-02  0.9028586E-01
        1   -1    0    0  501    0  0.00000000000E+00  0.00000000000E+00  0.48716980817E+03  0.48716980819E+03  0.50400001928E-02 0.  1.
       -1   -1    0    0    0  501  0.00000000000E+00  0.00000000000E+00 -0.86890409168E+03  0.86890409170E+03  0.50400001928E-02 0. -1.
    10030    2    1    2    0    0  0.00000000000E+00  0.00000000000E+00 -0.38173428351E+03  0.13560738999E+04  0.13012360888E+04 0.  0.
        5    1    3    3  502    0 -0.30471965570E+03 -0.45502049921E+03 -0.55693089393E+03  0.78108375600E+03  0.46999998093E+01 0. -1.
       -5    1    3    3    0  502  0.30471965570E+03  0.45502049921E+03  0.17519661042E+03  0.57499014389E+03  0.46999998093E+01 0.  1.
</event>
<event>
 5   0  0.1387622E-03  0.1291094E+04  0.7818609E-02  0.9036657E-01
        1   -1    0    0  501    0  0.00000000000E+00  0.00000000000E+00  0.54291956891E+03  0.54291956893E+03  0.50400001928E-02 0.  1.
       -1   -1    0    0    0  501  0.00000000000E+00  0.00000000000E+00 -0.76757423560E+03  0.76757423562E+03  0.50400001928E-02 0. -1.
    10030    2    1    2    0    0  0.00000000000E+00  0.00000000000E+00 -0.22465466669E+03  0.13104938046E+04  0.12910942229E+04 0.  0.
        3    1    3    3  502    0  0.44811824588E+03  0.41520493939E+03  0.99436216376E+02  0.61894480797E+03  0.10100000352E+00 0.  1.
       -3    1    3    3    0  502 -0.44811824588E+03 -0.41520493939E+03 -0.32409088307E+03  0.69154899658E+03  0.10100000352E+00 0. -1.
</event>
<event>
 5   0  0.2478236E-03  0.1314491E+04  0.7818609E-02  0.9018152E-01
       -2   -1    0    0    0  501  0.00000000000E+00  0.00000000000E+00  0.12432105944E+04  0.12432105944E+04  0.25500000920E-02 0. -1.
        2   -1    0    0  501    0  0.00000000000E+00  0.00000000000E+00 -0.34746459840E+03  0.34746459841E+03  0.25500000920E-02 0.  1.
    10030    2    1    2    0    0  0.00000000000E+00  0.00000000000E+00  0.89574599596E+03  0.15906751928E+04  0.13144910344E+04 0.  0.
        3    1    3    3  502    0 -0.25446387888E+03  0.59738176999E+03  0.32473416011E+03  0.72599526839E+03  0.10100000352E+00 0.  1.
       -3    1    3    3    0  502  0.25446387888E+03 -0.59738176999E+03  0.57101183585E+03  0.86467992439E+03  0.10100000352E+00 0. -1.
</event>
<event>
 5   0  0.2478236E-03  0.1284949E+04  0.7818609E-02  0.9041587E-01
       -2   -1    0    0    0  501  0.00000000000E+00  0.00000000000E+00  0.48720881833E+03  0.48720881834E+03  0.25500000920E-02 0. -1.
        2   -1    0    0  501    0  0.00000000000E+00  0.00000000000E+00 -0.84722081066E+03  0.84722081066E+03  0.25500000920E-02 0.  1.
    10030    2    1    2    0    0  0.00000000000E+00  0.00000000000E+00 -0.36001199233E+03  0.13344296290E+04  0.12849489485E+04 0.  0.
        3    1    3    3  502    0 -0.35861807562E+03  0.48009823060E+03  0.60587853026E+02  0.60230568096E+03  0.10100000352E+00 0. -1.
       -3    1    3    3    0  502  0.35861807562E+03 -0.48009823060E+03 -0.42059984535E+03  0.73212394804E+03  0.10100000352E+00 0.  1.
</event>
<event>
 5   0  0.1324721E-03  0.1292056E+04  0.7818609E-02  0.9035889E-01
        1   -1    0    0  501    0  0.00000000000E+00  0.00000000000E+00  0.93059943505E+03  0.93059943506E+03  0.50400001928E-02 0.  1.
       -1   -1    0    0    0  501  0.00000000000E+00  0.00000000000E+00 -0.44847657585E+03  0.44847657588E+03  0.50400001928E-02 0. -1.
    10030    2    1    2    0    0  0.00000000000E+00  0.00000000000E+00  0.48212285920E+03  0.13790760109E+04  0.12920558009E+04 0.  0.
        1    1    3    3  502    0  0.26354351917E+03  0.28257133800E+03  0.79366677683E+03  0.88272798768E+03  0.50400001928E-02 0.  1.
       -1    1    3    3    0  502 -0.26354351917E+03 -0.28257133800E+03 -0.31154391763E+03  0.49634802326E+03  0.50400001928E-02 0. -1.
</event>
<event>
 5   0  0.2334946E-03  0.1288621E+04  0.7818609E-02  0.9038638E-01
       -2   -1    0    0    0  501  0.00000000000E+00  0.00000000000E+00  0.52311224991E+03  0.52311224991E+03  0.25500000920E-02 0. -1.
        2   -1    0    0  501    0  0.00000000000E+00  0.00000000000E+00 -0.79358881869E+03  0.79358881869E+03  0.25500000920E-02 0.  1.
    10030    2    1    2    0    0  0.00000000000E+00  0.00000000000E+00 -0.27047656878E+03  0.13167010686E+04  0.12886210187E+04 0.  0.
        1    1    3    3  502    0 -0.38890940889E+03  0.12568342563E+03 -0.64417746887E+03  0.76289675790E+03  0.50400001928E-02 0.  1.
       -1    1    3    3    0  502  0.38890940889E+03 -0.12568342563E+03  0.37370090009E+03  0.55380431070E+03  0.50400001928E-02 0. -1.
</event>
<event>
 5   0  0.1346593E-03  0.1276365E+04  0.7818609E-02  0.9048521E-01
       -1   -1    0    0    0  501  0.00000000000E+00  0.00000000000E+00  0.47407032955E+03  0.47407032958E+03  0.50400001928E-02 0. -1.
        1   -1    0    0  501    0  0.00000000000E+00  0.00000000000E+00 -0.85910636416E+03  0.85910636417E+03  0.50400001928E-02 0.  1.
    10030    2    1    2    0    0  0.00000000000E+00  0.00000000000E+00 -0.38503603461E+03  0.13331766937E+04  0.12763648964E+04 0.  0.
        2    1    3    3  502    0 -0.26224133586E+03 -0.47497438389E+03  0.15845255678E+03  0.56522420006E+03  0.25500000920E-02 0. -1.
       -2    1    3    3    0  502  0.26224133586E+03  0.47497438389E+03 -0.54348859138E+03  0.76795249368E+03  0.25500000920E-02 0.  1.
</event>
<event>
 5   0  0.1324721E-03  0.1275774E+04  0.7818609E-02  0.9049000E-01
        1   -1    0    0  501    0  0.00000000000E+00  0.00000000000E+00  0.79323957250E+03  0.79323957252E+03  0.50400001928E-02 0. -1.
       -1   -1    0    0    0  501  0.00000000000E+00  0.00000000000E+00 -0.51295974375E+03  0.51295974378E+03  0.50400001928E-02 0.  1.
    10030    2    1    2    0    0  0.00000000000E+00  0.00000000000E+00  0.28027982875E+03  0.13061993163E+04  0.12757742243E+04 0.  0.
        1    1    3    3  502    0 -0.56300888302E+03 -0.17247905810E+03  0.39128959809E+03  0.70699050732E+03  0.50400001928E-02 0. -1.
       -1    1    3    3    0  502  0.56300888302E+03  0.17247905810E+03 -0.11100976933E+03  0.59920880898E+03  0.50400001928E-02 0.  1.
</event>
<event>
 5   0  0.9131250E-04  0.1290786E+04  0.7818609E-02  0.9036904E-01
       -4   -1    0    0    0  501  0.00000000000E+00  0.00000000000E+00  0.10242992149E+04  0.10243000022E+04  0.12699999809E+01 0. -1.
        4   -1    0    0  501    0  0.00000000000E+00  0.00000000000E+00 -0.40664889408E+03  0.40665087724E+03  0.12699999809E+01 0.  1.
    10030    2    1    2    0    0  0.00000000000E+00  0.00000000000E+00  0.61765032082E+03  0.14309508795E+04  0.12907860011E+04 0.  0.
        2    1    3    3  502    0 -0.29445361987E+03 -0.45196043085E+03  0.70164896056E+03  0.88503244527E+03  0.25500000920E-02 0. -1.
       -2    1    3    3    0  502  0.29445361987E+03  0.45196043085E+03 -0.83998639740E+02  0.54591843420E+03  0.25500000920E-02 0.  1.
</event>
<event>
 5   0  0.2334946E-03  0.1317114E+04  0.7818609E-02  0.9016103E-01
        2   -1    0    0  501    0  0.00000000000E+00  0.00000000000E+00  0.73432568288E+03  0.73432568288E+03  0.25500000920E-02 0.  1.
       -2   -1    0    0    0  501  0.00000000000E+00  0.00000000000E+00 -0.59060603825E+03  0.59060603826E+03  0.25500000920E-02 0. -1.
    10030    2    1    2    0    0  0.00000000000E+00  0.00000000000E+00  0.14371964463E+03  0.13249317211E+04  0.13171137876E+04 0.  0.
        1    1    3    3  502    0  0.27299011959E+03  0.30341101272E+03 -0.44803993193E+03  0.60607064659E+03  0.50400001928E-02 0. -1.
       -1    1    3    3    0  502 -0.27299011959E+03 -0.30341101272E+03  0.59175957655E+03  0.71886107455E+03  0.50400001928E-02 0.  1.
</event>
<event>
 5   0  0.1346593E-03  0.1309233E+04  0.7818609E-02  0.9022275E-01
        1   -1    0    0  501    0  0.00000000000E+00  0.00000000000E+00  0.95321085550E+03  0.95321085551E+03  0.50400001928E-02 0.  1.
       -1   -1    0    0    0  501  0.00000000000E+00  0.00000000000E+00 -0.44955718963E+03  0.44955718965E+03  0.50400001928E-02 0. -1.
    10030    2    1    2    0    0  0.00000000000E+00  0.00000000000E+00  0.50365366587E+03  0.14027680452E+04  0.13092330478E+04 0.  0.
        2    1    3    3  502    0  0.53023413991E+03 -0.24897649611E+03  0.56491045084E+03  0.81379441889E+03  0.25500000920E-02 0.  1.
       -2    1    3    3    0  502 -0.53023413991E+03  0.24897649611E+03 -0.61256784966E+02  0.58897362628E+03  0.25500000920E-02 0. -1.
</event>
<event>
 5   0  0.1346593E-03  0.1300664E+04  0.7818609E-02  0.9029039E-01
        1   -1    0    0  501    0  0.00000000000E+00  0.00000000000E+00  0.93742257300E+03  0.93742257302E+03  0.50400001928E-02 0.  1.
       -1   -1    0    0    0  501  0.00000000000E+00  0.00000000000E+00 -0.45116458581E+03  0.45116458584E+03  0.50400001928E-02 0. -1.
    10030    2    1    2    0    0  0.00000000000E+00  0.00000000000E+00  0.48625798719E+03  0.13885871589E+04  0.13006642409E+04 0.  0.
        2    1    3    3  502    0 -0.25187750521E+03  0.23696144073E+03  0.83112174600E+03  0.90019795528E+03  0.25500000920E-02 0.  1.
       -2    1    3    3    0  502  0.25187750521E+03 -0.23696144073E+03 -0.34486375881E+03  0.48838920357E+03  0.25500000920E-02 0. -1.
</event>
<event>
 5   0  0.2361043E-03  0.1312108E+04  0.7818609E-02  0.9020018E-01
        2   -1    0    0  501    0  0.00000000000E+00  0.00000000000E+00  0.88035236522E+03  0.88035236523E+03  0.25500000920E-02 0.  1.
       -2   -1    0    0    0  501  0.00000000000E+00  0.00000000000E+00 -0.48890302148E+03  0.48890302149E+03  0.25500000920E-02 0. -1.
    10030    2    1    2    0    0  0.00000000000E+00  0.00000000000E+00  0.39144934374E+03  0.13692553867E+04  0.13121081226E+04 0.  0.
        2    1    3    3  502    0  0.63450639194E+03 -0.15137185451E+03  0.26873713823E+03  0.70550084991E+03  0.25500000920E-02 0.  1.
       -2    1    3    3    0  502 -0.63450639194E+03  0.15137185451E+03  0.12271220551E+03  0.66375453681E+03  0.25500000920E-02 0. -1.
</event>
<event>
 5   0  0.9131250E-04  0.1340400E+04  0.7818609E-02  0.8998127E-01
       -3   -1    0    0    0  501  0.00000000000E+00  0.00000000000E+00  0.10968072831E+04  0.10968072877E+04  0.10100000352E+00 0. -1.
        3   -1    0    0  501    0  0.00000000000E+00  0.00000000000E+00 -0.40952322560E+03  0.40952323805E+03  0.10100000352E+00 0.  1.
    10030    2    1    2    0    0  0.00000000000E+00  0.00000000000E+00  0.68728405746E+03  0.15063305258E+04  0.13404000437E+04 0.  0.
        1    1    3    3  502    0 -0.66591851919E+03  0.42330922473E+02  0.27320360674E+03  0.72102676231E+03  0.50400001928E-02 0.  1.
       -1    1    3    3    0  502  0.66591851919E+03 -0.42330922473E+02  0.41408045072E+03  0.78530376346E+03  0.50400001928E-02 0. -1.
</event>
<event>
 5   0  0.1387622E-03  0.1298836E+04  0.7818609E-02  0.9030489E-01
       -1   -1    0    0    0  501  0.00000000000E+00  0.00000000000E+00  0.51923337179E+03  0.51923337181E+03  0.50400001928E-02 0. -1.
        1   -1    0    0  501    0  0.00000000000E+00  0.00000000000E+00 -0.81224343987E+03  0.81224343989E+03  0.50400001928E-02 0.  1.
    10030    2    1    2    0    0  0.00000000000E+00  0.00000000000E+00 -0.29301006808E+03  0.13314768117E+04  0.12988362484E+04 0.  0.
        3    1    3    3  502    0 -0.39147063574E+03  0.24311144188E+03  0.32258767976E+03  0.56250800274E+03  0.10100000352E+00 0. -1.
       -3    1    3    3    0  502  0.39147063574E+03 -0.24311144188E+03 -0.61559774784E+03  0.76896880896E+03  0.10100000352E+00 0.  1.
</event>
<event>
 5   0  0.2312105E-03  0.1319485E+04  0.7818609E-02  0.9014254E-01
       -2   -1    0    0    0  501  0.00000000000E+00  0.00000000000E+00  0.66168159387E+03  0.66168159388E+03  0.25500000920E-02 0.  1.
        2   -1    0    0  501    0  0.00000000000E+00  0.00000000000E+00 -0.65780957697E+03  0.65780957697E+03  0.25500000920E-02 0. -1.
    10030    2    1    2    0    0  0.00000000000E+00  0.00000000000E+00  0.38720169072E+01  0.13194911709E+04  0.13194854897E+04 0.  0.
        5    1    3    3  502    0 -0.19693344140E+03  0.45308897616E+03 -0.43529121494E+03  0.65846255206E+03  0.46999998093E+01 0. -1.
       -5    1    3    3    0  502  0.19693344140E+03 -0.45308897616E+03  0.43916323185E+03  0.66102861879E+03  0.46999998093E+01 0.  1.
</event>
<event>
 5   0  0.1387622E-03  0.1316149E+04  0.7818609E-02  0.9016856E-01
       -1   -1    0    0    0  501  0.00000000000E+00  0.00000000000E+00  0.29494634513E+03  0.29494634517E+03  0.50400001928E-02 0. -1.
        1   -1    0    0  501    0  0.00000000000E+00  0.00000000000E+00 -0.14682746425E+04  0.14682746425E+04  0.50400001928E-02 0.  1.
    10030    2    1    2    0    0  0.00000000000E+00  0.00000000000E+00 -0.11733282974E+04  0.17632209877E+04  0.13161492917E+04 0.  0.
        3    1    3    3  502    0 -0.18195597045E+03 -0.26574532078E+03  0.18214698643E+03  0.37000822364E+03  0.10100000352E+00 0. -1.
       -3    1    3    3    0  502  0.18195597045E+03  0.26574532078E+03 -0.13554752838E+04  0.13932127640E+04  0.10100000352E+00 0.  1.
</event>
<event>
 5   0  0.2361043E-03  0.1285751E+04  0.7818609E-02  0.9040941E-01
        2   -1    0    0  501    0  0.00000000000E+00  0.00000000000E+00  0.13947432577E+04  0.13947432577E+04  0.25500000920E-02 0.  1.
       -2   -1    0    0    0  501  0.00000000000E+00  0.00000000000E+00 -0.29631919108E+03  0.29631919110E+03  0.25500000920E-02 0. -1.
    10030    2    1    2    0    0  0.00000000000E+00  0.00000000000E+00  0.10984240666E+04  0.16910624488E+04  0.12857514439E+04 0.  0.
        2    1    3    3  502    0  0.75421187550E+02 -0.22621040397E+02 -0.28995299483E+03  0.30045433299E+03  0.25500000920E-02 0. -1.
       -2    1    3    3    0  502 -0.75421187550E+02  0.22621040397E+02  0.13883770614E+04  0.13906081158E+04  0.25500000920E-02 0.  1.
</event>
<event>
 5   0  0.2361043E-03  0.1288440E+04  0.7818609E-02  0.9038783E-01
       -2   -1    0    0    0  501  0.00000000000E+00  0.00000000000E+00  0.97303487076E+03  0.97303487076E+03  0.25500000920E-02 0.  1.
        2   -1    0    0  501    0  0.00000000000E+00  0.00000000000E+00 -0.42652091050E+03  0.42652091051E+03  0.25500000920E-02 0. -1.
    10030    2    1    2    0    0  0.00000000000E+00  0.00000000000E+00  0.54651396025E+03  0.13995557813E+04  0.12884404822E+04 0.  0.
        2    1    3    3  502    0  0.21496288652E+03 -0.46601822771E+03  0.69624632519E+03  0.86495143013E+03  0.25500000920E-02 0.  1.
       -2    1    3    3    0  502 -0.21496288652E+03  0.46601822771E+03 -0.14973236494E+03  0.53460435114E+03  0.25500000920E-02 0. -1.
</event>
<event>
 5   0  0.1324721E-03  0.1291509E+04  0.7818609E-02  0.9036326E-01
        1   -1    0    0  501    0  0.00000000000E+00  0.00000000000E+00  0.10160661446E+04  0.10160661446E+04  0.50400001928E-02 0.  1.
       -1   -1    0    0    0  501  0.00000000000E+00  0.00000000000E+00 -0.41040503552E+03  0.41040503555E+03  0.50400001928E-02 0. -1.
    10030    2    1    2    0    0  0.00000000000E+00  0.00000000000E+00  0.60566110908E+03  0.14264711802E+04  0.12915086716E+04 0.  0.
        1    1    3    3  502    0  0.36895496396E+03  0.60747400877E+02  0.88432708756E+03  0.96013145452E+03  0.50400001928E-02 0.  1.
       -1    1    3    3    0  502 -0.36895496396E+03 -0.60747400877E+02 -0.27866597847E+03  0.46633972566E+03  0.50400001928E-02 0. -1.
</event>
<event>
 5   0  0.2478236E-03  0.1301061E+04  0.7818609E-02  0.9028724E-01
        2   -1    0    0  501    0  0.00000000000E+00  0.00000000000E+00  0.12089218719E+04  0.12089218719E+04  0.25500000920E-02 0.  1.
       -2   -1    0    0    0  501  0.00000000000E+00  0.00000000000E+00 -0.35005582169E+03  0.35005582170E+03  0.25500000920E-02 0. -1.
    10030    2    1    2    0    0  0.00000000000E+00  0.00000000000E+00  0.85886605026E+03  0.15589776936E+04  0.13010613195E+04 0.  0.
        3    1    3    3  502    0 -0.35132747819E+03  0.19379240201E+03 -0.18413326557E+03  0.44146524404E+03  0.10100000352E+00 0. -1.
       -3    1    3    3    0  502  0.35132747819E+03 -0.19379240201E+03  0.10429993158E+04  0.11175124496E+04  0.10100000352E+00 0.  1.
</event>
<event>
 5   0  0.2361043E-03  0.1289484E+04  0.7818609E-02  0.9037946E-01
        2   -1    0    0  501    0  0.00000000000E+00  0.00000000000E+00  0.10463730793E+04  0.10463730793E+04  0.25500000920E-02 0.  1.
       -2   -1    0    0    0  501  0.00000000000E+00  0.00000000000E+00 -0.39726969530E+03  0.39726969531E+03  0.25500000920E-02 0. -1.
    10030    2    1    2    0    0  0.00000000000E+00  0.00000000000E+00  0.64910338397E+03  0.14436427746E+04  0.12894841052E+04 0.  0.
        2    1    3    3  502    0 -0.40260137414E+03  0.41277759051E+03  0.15868270534E+01  0.57660707914E+03  0.25500000920E-02 0.  1.
       -2    1    3    3    0  502  0.40260137414E+03 -0.41277759051E+03  0.64751655692E+03  0.86703569545E+03  0.25500000920E-02 0. -1.
</event>
<event>
 5   0  0.1387622E-03  0.1329885E+04  0.7818609E-02  0.9006196E-01
       -1   -1    0    0    0  501  0.00000000000E+00  0.00000000000E+00  0.88018963093E+03  0.88018963094E+03  0.50400001928E-02 0.  1.
        1   -1    0    0  501    0  0.00000000000E+00  0.00000000000E+00 -0.50233307800E+03  0.50233307803E+03  0.50400001928E-02 0. -1.
    10030    2    1    2    0    0  0.00000000000E+00  0.00000000000E+00  0.37785655293E+03  0.13825227090E+04  0.13298847567E+04 0.  0.
        3    1    3    3  502    0  0.15030926465E+03 -0.57164539986E+03 -0.12772097853E+03  0.60471811349E+03  0.10100000352E+00 0. -1.
       -3    1    3    3    0  502 -0.15030926465E+03  0.57164539986E+03  0.50557753146E+03  0.77780459548E+03  0.10100000352E+00 0.  1.
</event>
<event>
 5   0  0.1387622E-03  0.1295871E+04  0.7818609E-02  0.9032846E-01
        1   -1    0    0  501    0  0.00000000000E+00  0.00000000000E+00  0.14448355149E+04  0.14448355150E+04  0.50400001928E-02 0. -1.
       -1   -1    0    0    0  501  0.00000000000E+00  0.00000000000E+00 -0.29056622080E+03  0.29056622084E+03  0.50400001928E-02 0.  1.
    10030    2    1    2    0    0  0.00000000000E+00  0.00000000000E+00  0.11542692941E+04  0.17354017358E+04  0.12958709740E+04 0.  0.
        3    1    3    3  502    0 -0.16875974499E+03 -0.35606069751E+03  0.12659478043E+04  0.13258517734E+04  0.10100000352E+00 0. -1.
       -3    1    3    3    0  502  0.16875974499E+03  0.35606069751E+03 -0.11167851012E+03  0.40954996235E+03  0.10100000352E+00 0.  1.
</event>
<event>
 5   0  0.1310461E-03  0.1291315E+04  0.7818609E-02  0.9036481E-01
       -1   -1    0    0    0  501  0.00000000000E+00  0.00000000000E+00  0.11747267107E+03  0.11747267118E+03  0.50400001928E-02 0. -1.
        1   -1    0    0  501    0  0.00000000000E+00  0.00000000000E+00 -0.35486857622E+04  0.35486857622E+04  0.50400001928E-02 0.  1.
    10030    2    1    2    0    0  0.00000000000E+00  0.00000000000E+00 -0.34312130912E+04  0.36661584334E+04  0.12913149817E+04 0.  0.
        4    1    3    3  502    0 -0.26043576202E+03  0.50693313719E+03 -0.25770443718E+04  0.26393118988E+04  0.12699999809E+01 0. -1.
       -4    1    3    3    0  502  0.26043576202E+03 -0.50693313719E+03 -0.85416871935E+03  0.10268465347E+04  0.12699999809E+01 0.  1.
</event>
<event>
 5   0  0.2478236E-03  0.1281846E+04  0.7818609E-02  0.9044087E-01
       -2   -1    0    0    0  501  0.00000000000E+00  0.00000000000E+00  0.21048775924E+03  0.21048775925E+03  0.25500000920E-02 0. -1.
        2   -1    0    0  501    0  0.00000000000E+00  0.00000000000E+00 -0.19515721822E+04  0.19515721822E+04  0.25500000920E-02 0.  1.
    10030    2    1    2    0    0  0.00000000000E+00  0.00000000000E+00 -0.17410844230E+04  0.21620599415E+04  0.12818456313E+04 0.  0.
        3    1    3    3  502    0  0.37067705594E+03  0.48171319028E+03 -0.52763209456E+03  0.80488801389E+03  0.10100000352E+00 0. -1.
       -3    1    3    3    0  502 -0.37067705594E+03 -0.48171319028E+03 -0.12134523284E+04  0.13571719276E+04  0.10100000352E+00 0.  1.
</event>
<event>
 5   0  0.2361043E-03  0.1301878E+04  0.7818609E-02  0.9028077E-01
        2   -1    0    0  501    0  0.00000000000E+00  0.00000000000E+00  0.42198656506E+03  0.42198656506E+03  0.25500000920E-02 0. -1.
       -2   -1    0    0    0  501  0.00000000000E+00  0.00000000000E+00 -0.10041121119E+04  0.10041121119E+04  0.25500000920E-02 0.  1.
    10030    2    1    2    0    0  0.00000000000E+00  0.00000000000E+00 -0.58212554688E+03  0.14260986770E+04  0.13018783677E+04 0.  0.
        2    1    3    3  502    0  0.10696435805E+03  0.47596787003E+03 -0.76315416461E+03  0.90575441824E+03  0.25500000920E-02 0.  1.
       -2    1    3    3    0  502 -0.10696435805E+03 -0.47596787003E+03  0.18102861773E+03  0.52034425877E+03  0.25500000920E-02 0. -1.
</event>
<event>
 5   0  0.2401211E-03  0.1291556E+04  0.7818609E-02  0.9036288E-01
       -2   -1    0    0    0  501  0.00000000000E+00  0.00000000000E+00  0.38880945648E+03  0.38880945649E+03  0.25500000920E-02 0. -1.
        2   -1    0    0  501    0  0.00000000000E+00  0.00000000000E+00 -0.10725801417E+04  0.10725801417E+04  0.25500000920E-02 0.  1.
    10030    2    1    2    0    0  0.00000000000E+00  0.00000000000E+00 -0.68377068524E+03  0.14613895982E+04  0.12915561187E+04 0.  0.
        4    1    3    3  502    0  0.35934086707E+03  0.44269002989E+03  0.11786541387E+01  0.57017832600E+03  0.12699999809E+01 0. -1.
       -4    1    3    3    0  502 -0.35934086707E+03 -0.44269002989E+03 -0.68494933938E+03  0.89121127222E+03  0.12699999809E+01 0.  1.
</event>
<event>
 5   0  0.1346593E-03  0.1302139E+04  0.7818609E-02  0.9027870E-01
       -1   -1    0    0    0  501  0.00000000000E+00  0.00000000000E+00  0.52460775329E+03  0.52460775332E+03  0.50400001928E-02 0. -1.
        1   -1    0    0  501    0  0.00000000000E+00  0.00000000000E+00 -0.80801636627E+03  0.80801636629E+03  0.50400001928E-02 0.  1.
    10030    2    1    2    0    0  0.00000000000E+00  0.00000000000E+00 -0.28340861298E+03  0.13326241196E+04  0.13021392407E+04 0.  0.
        2    1    3    3  502    0  0.23682451921E+03  0.59350736952E+03 -0.26934303168E+03  0.69345693399E+03  0.25500000920E-02 0. -1.
       -2    1    3    3    0  502 -0.23682451921E+03 -0.59350736952E+03 -0.14065581294E+02  0.63916718561E+03  0.25500000920E-02 0.  1.
</event>
<event>
 5   0  0.9131250E-04  0.1319659E+04  0.7818609E-02  0.9014119E-01
        3   -1    0    0  501    0  0.00000000000E+00  0.00000000000E+00  0.86988901448E+03  0.86988902034E+03  0.10100000352E+00 0. -1.
       -3   -1    0    0    0  501  0.00000000000E+00  0.00000000000E+00 -0.50049502320E+03  0.50049503339E+03  0.10100000352E+00 0.  1.
    10030    2    1    2    0    0  0.00000000000E+00  0.00000000000E+00  0.36939399128E+03  0.13703840537E+04  0.13196592492E+04 0.  0.
        2    1    3    3  502    0 -0.23154516219E+03 -0.15062609892E+03 -0.43756362650E+03  0.51745851144E+03  0.25500000920E-02 0.  1.
       -2    1    3    3    0  502  0.23154516219E+03  0.15062609892E+03  0.80695761778E+03  0.85292554230E+03  0.25500000920E-02 0. -1.
</event>
<event>
 5   0  0.2334946E-03  0.1306422E+04  0.7818609E-02  0.9024488E-01
       -2   -1    0    0    0  501  0.00000000000E+00  0.00000000000E+00  0.12332707130E+04  0.12332707130E+04  0.25500000920E-02 0. -1.
        2   -1    0    0  501    0  0.00000000000E+00  0.00000000000E+00 -0.34597807649E+03  0.34597807650E+03  0.25500000920E-02 0.  1.
    10030    2    1    2    0    0  0.00000000000E+00  0.00000000000E+00  0.88729263648E+03  0.15792487895E+04  0.13064220284E+04 0.  0.
        1    1    3    3  502    0 -0.14477862421E+03 -0.43037046961E+03  0.10112906638E+04  0.11085523884E+04  0.50400001928E-02 0. -1.
       -1    1    3    3    0  502  0.14477862421E+03  0.43037046961E+03 -0.12399802735E+03  0.47069640104E+03  0.50400001928E-02 0.  1.
</event>
<event>
 5   0  0.2361043E-03  0.1134003E+04  0.7818609E-02  0.9172670E-01
        2   -1    0    0  501    0  0.00000000000E+00  0.00000000000E+00  0.58278464882E+03  0.58278464883E+03  0.25500000920E-02 0. -1.
       -2   -1    0    0    0  501  0.00000000000E+00  0.00000000000E+00 -0.55164572123E+03  0.55164572124E+03  0.25500000920E-02 0.  1.
    10030    2    1    2    0    0  0.00000000000E+00  0.00000000000E+00  0.31138927592E+02  0.11344303701E+04  0.11340029240E+04 0.  0.
        2    1    3    3  502    0 -0.40802962809E+02 -0.19858126471E+03  0.54528889535E+03  0.58175542960E+03  0.25500000920E-02 0. -1.
       -2    1    3    3    0  502  0.40802962809E+02  0.19858126471E+03 -0.51414996776E+03  0.55267494047E+03  0.25500000920E-02 0.  1.
</event>
<event>
 5   0  0.1324721E-03  0.1307436E+04  0.7818609E-02  0.9023689E-01
       -1   -1    0    0    0  501  0.00000000000E+00  0.00000000000E+00  0.26531198891E+03  0.26531198896E+03  0.50400001928E-02 0. -1.
        1   -1    0    0  501    0  0.00000000000E+00  0.00000000000E+00 -0.16107339911E+04  0.16107339911E+04  0.50400001928E-02 0.  1.
    10030    2    1    2    0    0  0.00000000000E+00  0.00000000000E+00 -0.13454220022E+04  0.18760459801E+04  0.13074357175E+04 0.  0.
        1    1    3    3  502    0  0.28303018406E+03  0.44897307512E+03 -0.12203564023E+04  0.13307714515E+04  0.50400001928E-02 0.  1.
       -1    1    3    3    0  502 -0.28303018406E+03 -0.44897307512E+03 -0.12506559987E+03  0.54527452863E+03  0.50400001928E-02 0. -1.
</event>
<event>
 5   0  0.1387622E-03  0.1292389E+04  0.7818609E-02  0.9035623E-01
        1   -1    0    0  501    0  0.00000000000E+00  0.00000000000E+00  0.16863878394E+04  0.16863878394E+04  0.50400001928E-02 0.  1.
       -1   -1    0    0    0  501  0.00000000000E+00  0.00000000000E+00 -0.24761035291E+03  0.24761035296E+03  0.50400001928E-02 0. -1.
    10030    2    1    2    0    0  0.00000000000E+00  0.00000000000E+00  0.14387774865E+04  0.19339981923E+04  0.12923886228E+04 0.  0.
        3    1    3    3  502    0  0.77261614161E+01  0.10325682233E+03 -0.23511503009E+03  0.25690611612E+03  0.10100000352E+00 0. -1.
       -3    1    3    3    0  502 -0.77261614161E+01 -0.10325682233E+03  0.16738925165E+04  0.16770920762E+04  0.10100000352E+00 0.  1.
</event>
<event>
 5   0  0.1310461E-03  0.1311829E+04  0.7818609E-02  0.9020237E-01
       -1   -1    0    0    0  501  0.00000000000E+00  0.00000000000E+00  0.10358087008E+04  0.10358087009E+04  0.50400001928E-02 0. -1.
        1   -1    0    0  501    0  0.00000000000E+00  0.00000000000E+00 -0.41535078066E+03  0.41535078069E+03  0.50400001928E-02 0.  1.
    10030    2    1    2    0    0  0.00000000000E+00  0.00000000000E+00  0.62045792019E+03  0.14511594815E+04  0.13118291848E+04 0.  0.
        4    1    3    3  502    0  0.42595274963E+03  0.26072573432E+03  0.78060750077E+03  0.92669484546E+03  0.12699999809E+01 0. -1.
       -4    1    3    3    0  502 -0.42595274963E+03 -0.26072573432E+03 -0.16014958058E+03  0.52446463609E+03  0.12699999809E+01 0.  1.
</event>
<event>
 5   0  0.9131250E-04  0.1306318E+04  0.7818609E-02  0.9024570E-01
        3   -1    0    0  501    0  0.00000000000E+00  0.00000000000E+00  0.65366389657E+03  0.65366390438E+03  0.10100000352E+00 0. -1.
       -3   -1    0    0    0  501  0.00000000000E+00  0.00000000000E+00 -0.65265401699E+03  0.65265402481E+03  0.10100000352E+00 0.  1.
    10030    2    1    2    0    0  0.00000000000E+00  0.00000000000E+00  0.10098795821E+01  0.13063179292E+04  0.13063175388E+04 0.  0.
        1    1    3    3  502    0  0.14153827593E+03 -0.24622080489E+03  0.58868757850E+03  0.65361367292E+03  0.50400001928E-02 0. -1.
       -1    1    3    3    0  502 -0.14153827593E+03  0.24622080489E+03 -0.58767769892E+03  0.65270425627E+03  0.50400001928E-02 0.  1.
</event>
<event>
 5   0  0.1324721E-03  0.1302528E+04  0.7818609E-02  0.9027563E-01
       -1   -1    0    0    0  501  0.00000000000E+00  0.00000000000E+00  0.46234040845E+03  0.46234040848E+03  0.50400001928E-02 0.  1.
        1   -1    0    0  501    0  0.00000000000E+00  0.00000000000E+00 -0.91738697368E+03  0.91738697369E+03  0.50400001928E-02 0. -1.
    10030    2    1    2    0    0  0.00000000000E+00  0.00000000000E+00 -0.45504656522E+03  0.13797273822E+04  0.13025284153E+04 0.  0.
        1    1    3    3  502    0  0.11693670748E+03  0.12084309381E+03 -0.89399416081E+03  0.90967181250E+03  0.50400001928E-02 0. -1.
       -1    1    3    3    0  502 -0.11693670748E+03 -0.12084309381E+03  0.43894759559E+03  0.47005556967E+03  0.50400001928E-02 0.  1.
</event>
<event>
 5   0  0.2478236E-03  0.1301531E+04  0.7818609E-02  0.9028352E-01
        2   -1    0    0  501    0  0.00000000000E+00  0.00000000000E+00  0.25666432773E+04  0.25666432773E+04  0.25500000920E-02 0. -1.
       -2   -1    0    0    0  501  0.00000000000E+00  0.00000000000E+00 -0.16499976311E+03  0.16499976313E+03  0.25500000920E-02 0.  1.
    10030    2    1    2    0    0  0.00000000000E+00  0.00000000000E+00  0.24016435141E+04  0.27316430404E+04  0.13015306877E+04 0.  0.
        3    1    3    3  502    0  0.50331127999E+03 -0.75353776618E+02  0.20520499503E+04  0.21142160355E+04  0.10100000352E+00 0. -1.
       -3    1    3    3    0  502 -0.50331127999E+03  0.75353776618E+02  0.34959356384E+03  0.61742700484E+03  0.10100000352E+00 0.  1.
</event>
<event>
 5   0  0.1346593E-03  0.1323471E+04  0.7818609E-02  0.9011157E-01
        1   -1    0    0  501    0  0.00000000000E+00  0.00000000000E+00  0.87075058641E+03  0.87075058642E+03  0.50400001928E-02 0.  1.
       -1   -1    0    0    0  501  0.00000000000E+00  0.00000000000E+00 -0.50289259184E+03  0.50289259187E+03  0.50400001928E-02 0. -1.
    10030    2    1    2    0    0  0.00000000000E+00  0.00000000000E+00  0.36785799457E+03  0.13736431783E+04  0.13234712226E+04 0.  0.
        2    1    3    3  502    0  0.35033747181E+03 -0.13078645923E+02  0.76644181646E+03  0.84281697489E+03  0.25500000920E-02 0.  1.
       -2    1    3    3    0  502 -0.35033747181E+03  0.13078645923E+02 -0.39858382189E+03  0.53082620340E+03  0.25500000920E-02 0. -1.
</event>
<event>
 5   0  0.2334946E-03  0.1297063E+04  0.7818609E-02  0.9031897E-01
       -2   -1    0    0    0  501  0.00000000000E+00  0.00000000000E+00  0.48960677884E+03  0.48960677885E+03  0.25500000920E-02 0. -1.
        2   -1    0    0  501    0  0.00000000000E+00  0.00000000000E+00 -0.85904277860E+03  0.85904277861E+03  0.25500000920E-02 0.  1.
    10030    2    1    2    0    0  0.00000000000E+00  0.00000000000E+00 -0.36943599976E+03  0.13486495575E+04  0.12970630944E+04 0.  0.
        1    1    3    3  502    0 -0.14094346629E+03 -0.60560737046E+03  0.69156840786E+01  0.62183050308E+03  0.50400001928E-02 0. -1.
       -1    1    3    3    0  502  0.14094346629E+03  0.60560737046E+03 -0.37635168384E+03  0.72681905438E+03  0.50400001928E-02 0.  1.
</event>
<event>
 5   0  0.1346593E-03  0.1258352E+04  0.7818609E-02  0.9063260E-01
       -1   -1    0    0    0  501  0.00000000000E+00  0.00000000000E+00  0.13932211251E+04  0.13932211251E+04  0.50400001928E-02 0.  1.
        1   -1    0    0  501    0  0.00000000000E+00  0.00000000000E+00 -0.28413489097E+03  0.28413489101E+03  0.50400001928E-02 0. -1.
    10030    2    1    2    0    0  0.00000000000E+00  0.00000000000E+00  0.11090862341E+04  0.16773560161E+04  0.12583524665E+04 0.  0.
        2    1    3    3  502    0 -0.37985997836E+03  0.58323330958E+02 -0.10949867804E+03  0.39960627447E+03  0.25500000920E-02 0. -1.
       -2    1    3    3    0  502  0.37985997836E+03 -0.58323330958E+02  0.12185849121E+04  0.12777497416E+04  0.25500000920E-02 0.  1.
</event>
<event>
 5   0  0.1387622E-03  0.1162080E+04  0.7818609E-02  0.9146711E-01
       -1   -1    0    0    0  501  0.00000000000E+00  0.00000000000E+00  0.48126309896E+03  0.48126309899E+03  0.50400001928E-02 0. -1.
        1   -1    0    0  501    0  0.00000000000E+00  0.00000000000E+00 -0.70150288342E+03  0.70150288343E+03  0.50400001928E-02 0.  1.
    10030    2    1    2    0    0  0.00000000000E+00  0.00000000000E+00 -0.22023978445E+03  0.11827659824E+04  0.11620799484E+04 0.  0.
        3    1    3    3  502    0 -0.39737443974E+02  0.12008961146E+02 -0.69999161923E+03  0.70122147485E+03  0.10100000352E+00 0.  1.
       -3    1    3    3    0  502  0.39737443974E+02 -0.12008961146E+02  0.47975183478E+03  0.48154450757E+03  0.10100000352E+00 0. -1.
</event>
<event>
 5   0  0.2401211E-03  0.1322844E+04  0.7818609E-02  0.9011644E-01
       -2   -1    0    0    0  501  0.00000000000E+00  0.00000000000E+00  0.23313997451E+03  0.23313997452E+03  0.25500000920E-02 0. -1.
        2   -1    0    0  501    0  0.00000000000E+00  0.00000000000E+00 -0.18764640572E+04  0.18764640572E+04  0.25500000920E-02 0.  1.
    10030    2    1    2    0    0  0.00000000000E+00  0.00000000000E+00 -0.16433240827E+04  0.21096040317E+04  0.13228435773E+04 0.  0.
        4    1    3    3  502    0 -0.60926485021E+03 -0.15663015134E+03 -0.11474772229E+04  0.13086031683E+04  0.12699999809E+01 0.  1.
       -4    1    3    3    0  502  0.60926485021E+03  0.15663015134E+03 -0.49584685980E+03  0.80100086347E+03  0.12699999809E+01 0. -1.
</event>
<event>
 5   0  0.1310461E-03  0.1297335E+04  0.7818609E-02  0.9031681E-01
        1   -1    0    0  501    0  0.00000000000E+00  0.00000000000E+00  0.12926832443E+04  0.12926832443E+04  0.50400001928E-02 0.  1.
       -1   -1    0    0    0  501  0.00000000000E+00  0.00000000000E+00 -0.32550110395E+03  0.32550110399E+03  0.50400001928E-02 0. -1.
    10030    2    1    2    0    0  0.00000000000E+00  0.00000000000E+00  0.96718214031E+03  0.16181843483E+04  0.12973354587E+04 0.  0.
        4    1    3    3  502    0 -0.10490899736E+03  0.63285026807E+03  0.36354497456E+03  0.73734111573E+03  0.12699999809E+01 0. -1.
       -4    1    3    3    0  502  0.10490899736E+03 -0.63285026807E+03  0.60363716576E+03  0.88084323254E+03  0.12699999809E+01 0.  1.
</event>
<event>
 5   0  0.2361043E-03  0.1296873E+04  0.7818609E-02  0.9032048E-01
       -2   -1    0    0    0  501  0.00000000000E+00  0.00000000000E+00  0.37192923850E+03  0.37192923851E+03  0.25500000920E-02 0.  1.
        2   -1    0    0  501    0  0.00000000000E+00  0.00000000000E+00 -0.11305109041E+04  0.11305109041E+04  0.25500000920E-02 0. -1.
    10030    2    1    2    0    0  0.00000000000E+00  0.00000000000E+00 -0.75858166560E+03  0.15024401426E+04  0.12968732547E+04 0.  0.
        2    1    3    3  502    0 -0.18629055370E+02  0.55518673195E+03 -0.76681309868E+03  0.94687996988E+03  0.25500000920E-02 0. -1.
       -2    1    3    3    0  502  0.18629055370E+02 -0.55518673195E+03  0.82314330868E+01  0.55556017274E+03  0.25500000920E-02 0.  1.
</event>
<event>
 5   0  0.1387622E-03  0.1297168E+04  0.7818609E-02  0.9031814E-01
       -1   -1    0    0    0  501  0.00000000000E+00  0.00000000000E+00  0.94987767216E+03  0.94987767217E+03  0.50400001928E-02 0. -1.
        1   -1    0    0  501    0  0.00000000000E+00  0.00000000000E+00 -0.44285816776E+03  0.44285816779E+03  0.50400001928E-02 0.  1.
    10030    2    1    2    0    0  0.00000000000E+00  0.00000000000E+00  0.50701950440E+03  0.13927358400E+04  0.12971678157E+04 0.  0.
        3    1    3    3  502    0  0.64183128479E+03  0.93207335552E+02  0.24802772441E+03  0.69437221129E+03  0.10100000352E+00 0.  1.
       -3    1    3    3    0  502 -0.64183128479E+03 -0.93207335552E+02  0.25899177999E+03  0.69836362866E+03  0.10100000352E+00 0. -1.
</event>
<event>
 5   0  0.2478236E-03  0.1296175E+04  0.7818609E-02  0.9032604E-01
       -2   -1    0    0    0  501  0.00000000000E+00  0.00000000000E+00  0.36695103768E+03  0.36695103769E+03  0.25500000920E-02 0.  1.
        2   -1    0    0  501    0  0.00000000000E+00  0.00000000000E+00 -0.11446149215E+04  0.11446149215E+04  0.25500000920E-02 0. -1.
    10030    2    1    2    0    0  0.00000000000E+00  0.00000000000E+00 -0.77766388381E+03  0.15115659592E+04  0.12961753480E+04 0.  0.
        3    1    3    3  502    0 -0.71440184856E+02  0.97758939595E+02  0.35364375821E+03  0.37379730899E+03  0.10100000352E+00 0.  1.
       -3    1    3    3    0  502  0.71440184856E+02 -0.97758939595E+02 -0.11313076420E+04  0.11377686502E+04  0.10100000352E+00 0. -1.
</event>
<event>
 5   0  0.1346593E-03  0.1275888E+04  0.7818609E-02  0.9048908E-01
       -1   -1    0    0    0  501  0.00000000000E+00  0.00000000000E+00  0.25048126578E+03  0.25048126583E+03  0.50400001928E-02 0. -1.
        1   -1    0    0  501    0  0.00000000000E+00  0.00000000000E+00 -0.16247615003E+04  0.16247615003E+04  0.50400001928E-02 0.  1.
    10030    2    1    2    0    0  0.00000000000E+00  0.00000000000E+00 -0.13742802345E+04  0.18752427661E+04  0.12758876396E+04 0.  0.
        2    1    3    3  502    0 -0.20222634684E+03 -0.75296196665E+02  0.19521185535E+03  0.29098570595E+03  0.25500000920E-02 0. -1.
       -2    1    3    3    0  502  0.20222634684E+03  0.75296196665E+02 -0.15694920898E+04  0.15842570602E+04  0.25500000920E-02 0.  1.
</event>
<event>
 5   0  0.2361043E-03  0.1257055E+04  0.7818609E-02  0.9064332E-01
        2   -1    0    0  501    0  0.00000000000E+00  0.00000000000E+00  0.56366103827E+03  0.56366103828E+03  0.25500000920E-02 0. -1.
       -2   -1    0    0    0  501  0.00000000000E+00  0.00000000000E+00 -0.70085882640E+03  0.70085882641E+03  0.25500000920E-02 0.  1.
    10030    2    1    2    0    0  0.00000000000E+00  0.00000000000E+00 -0.13719778813E+03  0.12645198647E+04  0.12570549929E+04 0.  0.
        2    1    3    3  502    0  0.16259844625E+03  0.35776045854E+03  0.42484029952E+03  0.57872280111E+03  0.25500000920E-02 0. -1.
       -2    1    3    3    0  502 -0.16259844625E+03 -0.35776045854E+03 -0.56203808765E+03  0.68579706357E+03  0.25500000920E-02 0.  1.
</event>
<event>
 5   0  0.2334946E-03  0.1312186E+04  0.7818609E-02  0.9019957E-01
        2   -1    0    0  501    0  0.00000000000E+00  0.00000000000E+00  0.18283631741E+04  0.18283631741E+04  0.25500000920E-02 0. -1.
       -2   -1    0    0    0  501  0.00000000000E+00  0.00000000000E+00 -0.23543338823E+03  0.23543338825E+03  0.25500000920E-02 0.  1.
    10030    2    1    2    0    0  0.00000000000E+00  0.00000000000E+00  0.15929297859E+04  0.20637965624E+04  0.13121855616E+04 0.  0.
        1    1    3    3  502    0 -0.63678605193E+03 -0.10311609807E+03  0.98472982794E+03  0.11772095139E+04  0.50400001928E-02 0. -1.
       -1    1    3    3    0  502  0.63678605193E+03  0.10311609807E+03  0.60819995795E+03  0.88658704845E+03  0.50400001928E-02 0.  1.
</event>
<event>
 5   0  0.1324721E-03  0.1086202E+04  0.7818609E-02  0.9218745E-01
        1   -1    0    0  501    0  0.00000000000E+00  0.00000000000E+00  0.20438475580E+04  0.20438475580E+04  0.50400001928E-02 0. -1.
       -1   -1    0    0    0  501  0.00000000000E+00  0.00000000000E+00 -0.14431552311E+03  0.14431552319E+03  0.50400001928E-02 0.  1.
    10030    2    1    2    0    0  0.00000000000E+00  0.00000000000E+00  0.18995320349E+04  0.21881630812E+04  0.10862024297E+04 0.  0.
        1    1    3    3  502    0  0.14166965418E+03  0.52364589325E+03  0.10024374808E+04  0.11398053410E+04  0.50400001928E-02 0. -1.
       -1    1    3    3    0  502 -0.14166965418E+03 -0.52364589325E+03  0.89709455415E+03  0.10483577403E+04  0.50400001928E-02 0.  1.
</event>
<event>
 5   0  0.1346593E-03  0.1162823E+04  0.7818609E-02  0.9146035E-01
       -1   -1    0    0    0  501  0.00000000000E+00  0.00000000000E+00  0.18415046044E+03  0.18415046051E+03  0.50400001928E-02 0. -1.
        1   -1    0    0  501    0  0.00000000000E+00  0.00000000000E+00 -0.18356677443E+04  0.18356677443E+04  0.50400001928E-02 0.  1.
    10030    2    1    2    0    0  0.00000000000E+00  0.00000000000E+00 -0.16515172839E+04  0.20198182048E+04  0.11628225323E+04 0.  0.
        2    1    3    3  502    0 -0.33697148643E+03 -0.20715291400E+03 -0.15659247578E+04  0.16151106648E+04  0.25500000920E-02 0.  1.
       -2    1    3    3    0  502  0.33697148643E+03  0.20715291400E+03 -0.85592526098E+02  0.40470754006E+03  0.25500000920E-02 0. -1.
</event>
<event>
 5   0  0.2361043E-03  0.9341685E+03  0.7818609E-02  0.9383849E-01
       -2   -1    0    0    0  501  0.00000000000E+00  0.00000000000E+00  0.33482859433E+03  0.33482859434E+03  0.25500000920E-02 0. -1.
        2   -1    0    0  501    0  0.00000000000E+00  0.00000000000E+00 -0.65158022801E+03  0.65158022801E+03  0.25500000920E-02 0.  1.
    10030    2    1    2    0    0  0.00000000000E+00  0.00000000000E+00 -0.31675163368E+03  0.98640882235E+03  0.93416848982E+03 0.  0.
        2    1    3    3  502    0 -0.33732022337E+03  0.31393923383E+03 -0.77786666914E+02  0.46732594748E+03  0.25500000920E-02 0. -1.
       -2    1    3    3    0  502  0.33732022337E+03 -0.31393923383E+03 -0.23896496676E+03  0.51908287487E+03  0.25500000920E-02 0.  1.
</event>
<event>
 5   0  0.2401211E-03  0.1314217E+04  0.7818609E-02  0.9018366E-01
        2   -1    0    0  501    0  0.00000000000E+00  0.00000000000E+00  0.72605574236E+03  0.72605574237E+03  0.25500000920E-02 0. -1.
       -2   -1    0    0    0  501  0.00000000000E+00  0.00000000000E+00 -0.59470878272E+03  0.59470878273E+03  0.25500000920E-02 0.  1.
    10030    2    1    2    0    0  0.00000000000E+00  0.00000000000E+00  0.13134695964E+03  0.13207645251E+04  0.13142172221E+04 0.  0.
        4    1    3    3  502    0 -0.41945488937E+03  0.47595292369E+03 -0.10640021320E+03  0.64326993406E+03  0.12699999809E+01 0.  1.
       -4    1    3    3    0  502  0.41945488937E+03 -0.47595292369E+03  0.23774717284E+03  0.67749459104E+03  0.12699999809E+01 0. -1.
</event>
<event>
 5   0  0.2478236E-03  0.1304523E+04  0.7818609E-02  0.9025986E-01
        2   -1    0    0  501    0  0.00000000000E+00  0.00000000000E+00  0.23740733487E+04  0.23740733487E+04  0.25500000920E-02 0. -1.
       -2   -1    0    0    0  501  0.00000000000E+00  0.00000000000E+00 -0.17920481594E+03  0.17920481596E+03  0.25500000920E-02 0.  1.
    10030    2    1    2    0    0  0.00000000000E+00  0.00000000000E+00  0.21948685328E+04  0.25532781647E+04  0.13045234801E+04 0.  0.
        3    1    3    3  502    0 -0.35799175164E+03  0.16932425225E+03  0.21118421857E+04  0.21486521878E+04  0.10100000352E+00 0. -1.
       -3    1    3    3    0  502  0.35799175164E+03 -0.16932425225E+03  0.83026347062E+02  0.40462597686E+03  0.10100000352E+00 0.  1.
</event>
<event>
 5   0  0.2312105E-03  0.1289948E+04  0.7818609E-02  0.9037574E-01
        2   -1    0    0  501    0  0.00000000000E+00  0.00000000000E+00  0.89189524303E+03  0.89189524303E+03  0.25500000920E-02 0. -1.
       -2   -1    0    0    0  501  0.00000000000E+00  0.00000000000E+00 -0.46641310016E+03  0.46641310017E+03  0.25500000920E-02 0.  1.
    10030    2    1    2    0    0  0.00000000000E+00  0.00000000000E+00  0.42548214286E+03  0.13583083432E+04  0.12899482553E+04 0.  0.
        5    1    3    3  502    0 -0.20137288538E+03 -0.24204888011E+03 -0.37996557932E+03  0.49349228038E+03  0.46999998093E+01 0.  1.
       -5    1    3    3    0  502  0.20137288538E+03  0.24204888011E+03  0.80544772219E+03  0.86481606282E+03  0.46999998093E+01 0. -1.
</event>
<event>
 5   0  0.1310461E-03  0.1277041E+04  0.7818609E-02  0.9047973E-01
        1   -1    0    0  501    0  0.00000000000E+00  0.00000000000E+00  0.47623625528E+03  0.47623625530E+03  0.50400001928E-02 0. -1.
       -1   -1    0    0    0  501  0.00000000000E+00  0.00000000000E+00 -0.85610529477E+03  0.85610529479E+03  0.50400001928E-02 0.  1.
    10030    2    1    2    0    0  0.00000000000E+00  0.00000000000E+00 -0.37986903950E+03  0.13323415501E+04  0.12770409230E+04 0.  0.
        4    1    3    3  502    0 -0.32375589349E+02  0.42238739329E+03  0.30850647169E+03  0.52405834100E+03  0.12699999809E+01 0. -1.
       -4    1    3    3    0  502  0.32375589349E+02 -0.42238739329E+03 -0.68837551119E+03  0.80828320909E+03  0.12699999809E+01 0.  1.
</event>
<event>
 5   0  0.1387622E-03  0.1305924E+04  0.7818609E-02  0.9024880E-01
       -1   -1    0    0    0  501  0.00000000000E+00  0.00000000000E+00  0.48790775225E+03  0.48790775227E+03  0.50400001928E-02 0.  1.
        1   -1    0    0  501    0  0.00000000000E+00  0.00000000000E+00 -0.87385308934E+03  0.87385308935E+03  0.50400001928E-02 0. -1.
    10030    2    1    2    0    0  0.00000000000E+00  0.00000000000E+00 -0.38594533709E+03  0.13617608416E+04  0.13059244950E+04 0.  0.
        3    1    3    3  502    0  0.37301860283E+03  0.19268160005E+03 -0.71444523496E+03  0.82867429128E+03  0.10100000352E+00 0. -1.
       -3    1    3    3    0  502 -0.37301860283E+03 -0.19268160005E+03  0.32849989787E+03  0.53308655035E+03  0.10100000352E+00 0.  1.
</event>
<event>
 5   0  0.1324721E-03  0.1241973E+04  0.7818609E-02  0.9076891E-01
        1   -1    0    0  501    0  0.00000000000E+00  0.00000000000E+00  0.21600678040E+04  0.21600678040E+04  0.50400001928E-02 0.  1.
       -1   -1    0    0    0  501  0.00000000000E+00  0.00000000000E+00 -0.17852407442E+03  0.17852407449E+03  0.50400001928E-02 0. -1.
    10030    2    1    2    0    0  0.00000000000E+00  0.00000000000E+00  0.19815437296E+04  0.23385918785E+04  0.12419727944E+04 0.  0.
        1    1    3    3  502    0 -0.17029236873E+03  0.28909202821E+03  0.19747008943E+04  0.20030020753E+04  0.50400001928E-02 0.  1.
       -1    1    3    3    0  502  0.17029236873E+03 -0.28909202821E+03  0.68428353170E+01  0.33558980325E+03  0.50400001928E-02 0. -1.
</event>
<event>
 5   0  0.2401211E-03  0.1300410E+04  0.7818609E-02  0.9029240E-01
        2   -1    0    0  501    0  0.00000000000E+00  0.00000000000E+00  0.22880734216E+04  0.22880734216E+04  0.25500000920E-02 0. -1.
       -2   -1    0    0    0  501  0.00000000000E+00  0.00000000000E+00 -0.18476973293E+03  0.18476973295E+03  0.25500000920E-02 0.  1.
    10030    2    1    2    0    0  0.00000000000E+00  0.00000000000E+00  0.21033036886E+04  0.24728431545E+04  0.13004102661E+04 0.  0.
        4    1    3    3  502    0  0.39852100638E+03  0.26203129259E+03  0.21131884995E+03  0.52166719282E+03  0.12699999809E+01 0.  1.
       -4    1    3    3    0  502 -0.39852100638E+03 -0.26203129259E+03  0.18919848387E+04  0.19511759617E+04  0.12699999809E+01 0. -1.
</event>
<event>
 5   0  0.2401211E-03  0.1033457E+04  0.7818609E-02  0.9272592E-01
       -2   -1    0    0    0  501  0.00000000000E+00  0.00000000000E+00  0.38545846246E+03  0.38545846247E+03  0.25500000920E-02 0. -1.
        2   -1    0    0  501    0  0.00000000000E+00  0.00000000000E+00 -0.69270349914E+03  0.69270349914E+03  0.25500000920E-02 0.  1.
    10030    2    1    2    0    0  0.00000000000E+00  0.00000000000E+00 -0.30724503668E+03  0.10781619616E+04  0.10334571607E+04 0.  0.
        4    1    3    3  502    0 -0.50303439661E+03  0.11553355098E+03 -0.17949882271E+03  0.54645498060E+03  0.12699999809E+01 0.  1.
       -4    1    3    3    0  502  0.50303439661E+03 -0.11553355098E+03 -0.12774621397E+03  0.53170698101E+03  0.12699999809E+01 0. -1.
</event>
<event>
 5   0  0.1332630E-03  0.1235121E+04  0.7818609E-02  0.9082659E-01
       -1   -1    0    0    0  501  0.00000000000E+00  0.00000000000E+00  0.30180707004E+03  0.30180707008E+03  0.50400001928E-02 0. -1.
        1   -1    0    0  501    0  0.00000000000E+00  0.00000000000E+00 -0.12636585925E+04  0.12636585925E+04  0.50400001928E-02 0.  1.
    10030    2    1    2    0    0  0.00000000000E+00  0.00000000000E+00 -0.96185152244E+03  0.15654656626E+04  0.12351212044E+04 0.  0.
        5    1    3    3  502    0  0.55617650730E+03  0.10969432024E+03 -0.79137268254E+03  0.97347725389E+03  0.46999998093E+01 0.  1.
       -5    1    3    3    0  502 -0.55617650730E+03 -0.10969432024E+03 -0.17047883990E+03  0.59198840869E+03  0.46999998093E+01 0. -1.
</event>
<event>
 5   0  0.2361043E-03  0.1305245E+04  0.7818609E-02  0.9025416E-01
        2   -1    0    0  501    0  0.00000000000E+00  0.00000000000E+00  0.14538879563E+04  0.14538879563E+04  0.25500000920E-02 0.  1.
       -2   -1    0    0    0  501  0.00000000000E+00  0.00000000000E+00 -0.29294981303E+03  0.29294981304E+03  0.25500000920E-02 0. -1.
    10030    2    1    2    0    0  0.00000000000E+00  0.00000000000E+00  0.11609381432E+04  0.17468377693E+04  0.13052451187E+04 0.  0.
        2    1    3    3  502    0 -0.20263703052E+03 -0.61053016923E+03  0.72772916361E+03  0.97128707870E+03  0.25500000920E-02 0.  1.
       -2    1    3    3    0  502  0.20263703052E+03  0.61053016923E+03  0.43320897963E+03  0.77555069061E+03  0.25500000920E-02 0. -1.
</event>
<event>
 5   0  0.1346593E-03  0.1292292E+04  0.7818609E-02  0.9035700E-01
        1   -1    0    0  501    0  0.00000000000E+00  0.00000000000E+00  0.10499156230E+04  0.10499156230E+04  0.50400001928E-02 0.  1.
       -1   -1    0    0    0  501  0.00000000000E+00  0.00000000000E+00 -0.39765538659E+03  0.39765538662E+03  0.50400001928E-02 0. -1.
    10030    2    1    2    0    0  0.00000000000E+00  0.00000000000E+00  0.65226023644E+03  0.14475710097E+04  0.12922919221E+04 0.  0.
        2    1    3    3  502    0  0.28329687084E+03 -0.12041492565E+03  0.96250180162E+03  0.10105278766E+04  0.25500000920E-02 0.  1.
       -2    1    3    3    0  502 -0.28329687084E+03  0.12041492565E+03 -0.31024156518E+03  0.43704313302E+03  0.25500000920E-02 0. -1.
</event>
<event>
 5   0  0.1387622E-03  0.1315124E+04  0.7818609E-02  0.9017657E-01
        1   -1    0    0  501    0  0.00000000000E+00  0.00000000000E+00  0.17525547447E+04  0.17525547447E+04  0.50400001928E-02 0. -1.
       -1   -1    0    0    0  501  0.00000000000E+00  0.00000000000E+00 -0.24671845873E+03  0.24671845878E+03  0.50400001928E-02 0.  1.
    10030    2    1    2    0    0  0.00000000000E+00  0.00000000000E+00  0.15058362860E+04  0.19992732035E+04  0.13151237288E+04 0.  0.
        3    1    3    3  502    0 -0.31237410904E+03  0.12730937915E+03 -0.10516625854E+03  0.35333442254E+03  0.10100000352E+00 0.  1.
       -3    1    3    3    0  502  0.31237410904E+03 -0.12730937915E+03  0.16110025445E+04  0.16459387810E+04  0.10100000352E+00 0. -1.
</event>
<event>
 5   0  0.2312105E-03  0.1268412E+04  0.7818609E-02  0.9054997E-01
        2   -1    0    0  501    0  0.00000000000E+00  0.00000000000E+00  0.55432045229E+03  0.55432045230E+03  0.25500000920E-02 0.  1.
       -2   -1    0    0    0  501  0.00000000000E+00  0.00000000000E+00 -0.72560375735E+03  0.72560375735E+03  0.25500000920E-02 0. -1.
    10030    2    1    2    0    0  0.00000000000E+00  0.00000000000E+00 -0.17128330505E+03  0.12799242096E+04  0.12684116098E+04 0.  0.
        5    1    3    3  502    0 -0.23330087154E+03  0.44518705202E+03 -0.47590004541E+03  0.69218765604E+03  0.46999998093E+01 0. -1.
       -5    1    3    3    0  502  0.23330087154E+03 -0.44518705202E+03  0.30461674036E+03  0.58773655361E+03  0.46999998093E+01 0.  1.
</event>
<event>
 5   0  0.2334946E-03  0.1327301E+04  0.7818609E-02  0.9008191E-01
        2   -1    0    0  501    0  0.00000000000E+00  0.00000000000E+00  0.22531091510E+04  0.22531091510E+04  0.25500000920E-02 0.  1.
       -2   -1    0    0    0  501  0.00000000000E+00  0.00000000000E+00 -0.19547740676E+03  0.19547740678E+03  0.25500000920E-02 0. -1.
    10030    2    1    2    0    0  0.00000000000E+00  0.00000000000E+00  0.20576317442E+04  0.24485865578E+04  0.13273009214E+04 0.  0.
        1    1    3    3  502    0  0.44234982144E+03 -0.23615281998E+03  0.22683140947E+03  0.55035807186E+03  0.50400001928E-02 0. -1.
       -1    1    3    3    0  502 -0.44234982144E+03  0.23615281998E+03  0.18308003348E+04  0.18982284859E+04  0.50400001928E-02 0.  1.
</event>
<event>
 5   0  0.1310461E-03  0.1288079E+04  0.7818609E-02  0.9039072E-01
       -1   -1    0    0    0  501  0.00000000000E+00  0.00000000000E+00  0.53265214994E+03  0.53265214996E+03  0.50400001928E-02 0. -1.
        1   -1    0    0  501    0  0.00000000000E+00  0.00000000000E+00 -0.77871986962E+03  0.77871986963E+03  0.50400001928E-02 0.  1.
    10030    2    1    2    0    0  0.00000000000E+00  0.00000000000E+00 -0.24606771968E+03  0.13113720196E+04  0.12880788994E+04 0.  0.
        4    1    3    3  502    0 -0.32298550370E+03 -0.37906328758E+02  0.44292235932E+03  0.54948917609E+03  0.12699999809E+01 0. -1.
       -4    1    3    3    0  502  0.32298550370E+03  0.37906328758E+02 -0.68899007900E+03  0.76188284350E+03  0.12699999809E+01 0.  1.
</event>
<event>
 5   0  0.1310461E-03  0.1314602E+04  0.7818609E-02  0.9018065E-01
        1   -1    0    0  501    0  0.00000000000E+00  0.00000000000E+00  0.49256261666E+03  0.49256261669E+03  0.50400001928E-02 0.  1.
       -1   -1    0    0    0  501  0.00000000000E+00  0.00000000000E+00 -0.87713605773E+03  0.87713605774E+03  0.50400001928E-02 0. -1.
    10030    2    1    2    0    0  0.00000000000E+00  0.00000000000E+00 -0.38457344107E+03  0.13696986744E+04  0.13146017371E+04 0.  0.
        4    1    3    3  502    0 -0.30970815473E+03  0.34854040300E+03  0.29042680391E+03  0.54931675285E+03  0.12699999809E+01 0.  1.
       -4    1    3    3    0  502  0.30970815473E+03 -0.34854040300E+03 -0.67500024498E+03  0.82038192158E+03  0.12699999809E+01 0. -1.
</event>
<event>
 5   0  0.1387622E-03  0.1302765E+04  0.7818609E-02  0.9027376E-01
        1   -1    0    0  501    0  0.00000000000E+00  0.00000000000E+00  0.12730489368E+04  0.12730489368E+04  0.50400001928E-02 0. -1.
       -1   -1    0    0    0  501  0.00000000000E+00  0.00000000000E+00 -0.33329345245E+03  0.33329345249E+03  0.50400001928E-02 0.  1.
    10030    2    1    2    0    0  0.00000000000E+00  0.00000000000E+00  0.93975548430E+03  0.16063423893E+04  0.13027645609E+04 0.  0.
        3    1    3    3  502    0  0.62973683362E+02 -0.62560922968E+03  0.67965987847E+03  0.92589964557E+03  0.10100000352E+00 0. -1.
       -3    1    3    3    0  502 -0.62973683362E+02  0.62560922968E+03  0.26009560583E+03  0.68044274368E+03  0.10100000352E+00 0.  1.
</event>
<event>
 5   0  0.2401211E-03  0.1309318E+04  0.7818609E-02  0.9022208E-01
        2   -1    0    0  501    0  0.00000000000E+00  0.00000000000E+00  0.87666399314E+03  0.87666399314E+03  0.25500000920E-02 0. -1.
       -2   -1    0    0    0  501  0.00000000000E+00  0.00000000000E+00 -0.48887436154E+03  0.48887436155E+03  0.25500000920E-02 0.  1.
    10030    2    1    2    0    0  0.00000000000E+00  0.00000000000E+00  0.38778963160E+03  0.13655383547E+04  0.13093182194E+04 0.  0.
        4    1    3    3  502    0 -0.39337225988E+03 -0.37104970936E+02 -0.35049351993E+03  0.52817216333E+03  0.12699999809E+01 0.  1.
       -4    1    3    3    0  502  0.39337225988E+03  0.37104970936E+02  0.73828315153E+03  0.83736619136E+03  0.12699999809E+01 0. -1.
</event>
<event>
 5   0  0.1332630E-03  0.1288713E+04  0.7818609E-02  0.9038564E-01
       -1   -1    0    0    0  501  0.00000000000E+00  0.00000000000E+00  0.99077913095E+03  0.99077913097E+03  0.50400001928E-02 0. -1.
        1   -1    0    0  501    0  0.00000000000E+00  0.00000000000E+00 -0.41905953663E+03  0.41905953666E+03  0.50400001928E-02 0.  1.
    10030    2    1    2    0    0  0.00000000000E+00  0.00000000000E+00  0.57171959433E+03  0.14098386676E+04  0.12887132242E+04 0.  0.
        5    1    3    3  502    0 -0.53809955754E+03 -0.78593028661E+02  0.66395203939E+03  0.85824378739E+03  0.46999998093E+01 0. -1.
       -5    1    3    3    0  502  0.53809955754E+03  0.78593028661E+02 -0.92232445063E+02  0.55159488024E+03  0.46999998093E+01 0.  1.
</event>
<event>
 5   0  0.2478236E-03  0.1161419E+04  0.7818609E-02  0.9147313E-01
       -2   -1    0    0    0  501  0.00000000000E+00  0.00000000000E+00  0.72765097055E+03  0.72765097055E+03  0.25500000920E-02 0. -1.
        2   -1    0    0  501    0  0.00000000000E+00  0.00000000000E+00 -0.46344117407E+03  0.46344117408E+03  0.25500000920E-02 0.  1.
    10030    2    1    2    0    0  0.00000000000E+00  0.00000000000E+00  0.26420979648E+03  0.11910921446E+04  0.11614188221E+04 0.  0.
        3    1    3    3  502    0  0.18468425243E+03 -0.55027403978E+03  0.11394317887E+03  0.59151741324E+03  0.10100000352E+00 0.  1.
       -3    1    3    3    0  502 -0.18468425243E+03  0.55027403978E+03  0.15026661760E+03  0.59957473139E+03  0.10100000352E+00 0. -1.
</event>
<event>
 5   0  0.2478236E-03  0.1202774E+04  0.7818609E-02  0.9110432E-01
       -2   -1    0    0    0  501  0.00000000000E+00  0.00000000000E+00  0.28783814581E+03  0.28783814582E+03  0.25500000920E-02 0.  1.
        2   -1    0    0  501    0  0.00000000000E+00  0.00000000000E+00 -0.12564913746E+04  0.12564913746E+04  0.25500000920E-02 0. -1.
    10030    2    1    2    0    0  0.00000000000E+00  0.00000000000E+00 -0.96865322882E+03  0.15443295205E+04  0.12027737069E+04 0.  0.
        3    1    3    3  502    0 -0.22460344918E+03 -0.24423843280E+03 -0.11283222092E+04  0.11760995448E+04  0.10100000352E+00 0. -1.
       -3    1    3    3    0  502  0.22460344918E+03  0.24423843280E+03  0.15966898037E+03  0.36822997560E+03  0.10100000352E+00 0.  1.
</event>
<event>
 5   0  0.1332630E-03  0.1302079E+04  0.7818609E-02  0.9027918E-01
       -1   -1    0    0    0  501  0.00000000000E+00  0.00000000000E+00  0.53370472001E+03  0.53370472004E+03  0.50400001928E-02 0.  1.
        1   -1    0    0  501    0  0.00000000000E+00  0.00000000000E+00 -0.79417018149E+03  0.79417018151E+03  0.50400001928E-02 0. -1.
    10030    2    1    2    0    0  0.00000000000E+00  0.00000000000E+00 -0.26046546148E+03  0.13278749015E+04  0.13020789137E+04 0.  0.
        5    1    3    3  502    0  0.48435125493E+02  0.64877267728E+03 -0.10570767211E+03  0.65912680882E+03  0.46999998093E+01 0.  1.
       -5    1    3    3    0  502 -0.48435125493E+02 -0.64877267728E+03 -0.15475778937E+03  0.66874809273E+03  0.46999998093E+01 0. -1.
</event>
<event>
 5   0  0.1332630E-03  0.1206571E+04  0.7818609E-02  0.9107124E-01
       -1   -1    0    0    0  501  0.00000000000E+00  0.00000000000E+00  0.40865402098E+03  0.40865402101E+03  0.50400001928E-02 0.  1.
        1   -1    0    0  501    0  0.00000000000E+00  0.00000000000E+00 -0.89061560786E+03  0.89061560787E+03  0.50400001928E-02 0. -1.
    10030    2    1    2    0    0  0.00000000000E+00  0.00000000000E+00 -0.48196158688E+03  0.12992696289E+04  0.12065714224E+04 0.  0.
        5    1    3    3  502    0  0.19362092395E+03  0.34962172267E+03 -0.72759156927E+03  0.83014215218E+03  0.46999998093E+01 0. -1.
       -5    1    3    3    0  502 -0.19362092395E+03 -0.34962172267E+03  0.24562998239E+03  0.46912747671E+03  0.46999998093E+01 0.  1.
</event>
<event>
 5   0  0.2478236E-03  0.1292294E+04  0.7818609E-02  0.9035698E-01
       -2   -1    0    0    0  501  0.00000000000E+00  0.00000000000E+00  0.56698212215E+03  0.56698212216E+03  0.25500000920E-02 0. -1.
        2   -1    0    0  501    0  0.00000000000E+00  0.00000000000E+00 -0.73636551091E+03  0.73636551091E+03  0.25500000920E-02 0.  1.
    10030    2    1    2    0    0  0.00000000000E+00  0.00000000000E+00 -0.16938338875E+03  0.13033476331E+04  0.12922942081E+04 0.  0.
        3    1    3    3  502    0  0.41798742020E+03 -0.37894703940E+03  0.23294933678E+03  0.61039310761E+03  0.10100000352E+00 0. -1.
       -3    1    3    3    0  502 -0.41798742020E+03  0.37894703940E+03 -0.40233272554E+03  0.69295452546E+03  0.10100000352E+00 0.  1.
</event>
<event>
 5   0  0.9131250E-04  0.1292878E+04  0.7818609E-02  0.9035232E-01
        3   -1    0    0  501    0  0.00000000000E+00  0.00000000000E+00  0.46024643132E+03  0.46024644241E+03  0.10100000352E+00 0. -1.
       -3   -1    0    0    0  501  0.00000000000E+00  0.00000000000E+00 -0.90795502745E+03  0.90795503307E+03  0.10100000352E+00 0.  1.
    10030    2    1    2    0    0  0.00000000000E+00  0.00000000000E+00 -0.44770859613E+03  0.13682014755E+04  0.12928775234E+04 0.  0.
        4    1    3    3  502    0 -0.29341377833E+02 -0.44529800999E+02 -0.90562198194E+03  0.90719160418E+03  0.12699999809E+01 0.  1.
       -4    1    3    3    0  502  0.29341377833E+02  0.44529800999E+02  0.45791338581E+03  0.46100987129E+03  0.12699999809E+01 0. -1.
</event>
<event>
 5   0  0.2361043E-03  0.1301846E+04  0.7818609E-02  0.9028103E-01
       -2   -1    0    0    0  501  0.00000000000E+00  0.00000000000E+00  0.25267624701E+03  0.25267624702E+03  0.25500000920E-02 0. -1.
        2   -1    0    0  501    0  0.00000000000E+00  0.00000000000E+00 -0.16768523675E+04  0.16768523675E+04  0.25500000920E-02 0.  1.
    10030    2    1    2    0    0  0.00000000000E+00  0.00000000000E+00 -0.14241761205E+04  0.19295286146E+04  0.13018460171E+04 0.  0.
        2    1    3    3  502    0 -0.39686245896E+03 -0.36367284077E+03 -0.12545279794E+04  0.13651366955E+04  0.25500000920E-02 0.  1.
       -2    1    3    3    0  502  0.39686245896E+03  0.36367284077E+03 -0.16964814113E+03  0.56439191901E+03  0.25500000920E-02 0. -1.
</event>
<event>
 5   0  0.2334946E-03  0.1313603E+04  0.7818609E-02  0.9018847E-01
       -2   -1    0    0    0  501  0.00000000000E+00  0.00000000000E+00  0.43665493631E+03  0.43665493631E+03  0.25500000920E-02 0. -1.
        2   -1    0    0  501    0  0.00000000000E+00  0.00000000000E+00 -0.98793860465E+03  0.98793860466E+03  0.25500000920E-02 0.  1.
    10030    2    1    2    0    0  0.00000000000E+00  0.00000000000E+00 -0.55128366835E+03  0.14245935410E+04  0.13136030884E+04 0.  0.
        1    1    3    3  502    0  0.31941475674E+03 -0.39870118889E+03 -0.72331535366E+03  0.88553572809E+03  0.50400001928E-02 0.  1.
       -1    1    3    3    0  502 -0.31941475674E+03  0.39870118889E+03  0.17203168532E+03  0.53905781288E+03  0.50400001928E-02 0. -1.
</event>
<event>
 5   0  0.1324721E-03  0.1229400E+04  0.7818609E-02  0.9087505E-01
        1   -1    0    0  501    0  0.00000000000E+00  0.00000000000E+00  0.52858114958E+03  0.52858114960E+03  0.50400001928E-02 0.  1.
       -1   -1    0    0    0  501  0.00000000000E+00  0.00000000000E+00 -0.71484934280E+03  0.71484934282E+03  0.50400001928E-02 0. -1.
    10030    2    1    2    0    0  0.00000000000E+00  0.00000000000E+00 -0.18626819322E+03  0.12434304924E+04  0.12293996704E+04 0.  0.
        1    1    3    3  502    0  0.35553864770E+02 -0.91447579512E+02 -0.70687844193E+03  0.71365528709E+03  0.50400001928E-02 0. -1.
       -1    1    3    3    0  502 -0.35553864770E+02  0.91447579512E+02  0.52061024871E+03  0.52977520533E+03  0.50400001928E-02 0.  1.
</event>
<event>
 5   0  0.2401211E-03  0.1373179E+04  0.7818609E-02  0.8973465E-01
       -2   -1    0    0    0  501  0.00000000000E+00  0.00000000000E+00  0.93575788107E+03  0.93575788108E+03  0.25500000920E-02 0. -1.
        2   -1    0    0  501    0  0.00000000000E+00  0.00000000000E+00 -0.50376826912E+03  0.50376826913E+03  0.25500000920E-02 0.  1.
    10030    2    1    2    0    0  0.00000000000E+00  0.00000000000E+00  0.43198961195E+03  0.14395261502E+04  0.13731789804E+04 0.  0.
        4    1    3    3  502    0  0.53439167830E+03  0.31563607629E+02  0.66668895379E+03  0.85501257369E+03  0.12699999809E+01 0. -1.
       -4    1    3    3    0  502 -0.53439167830E+03 -0.31563607629E+02 -0.23469934184E+03  0.58451357651E+03  0.12699999809E+01 0.  1.
</event>
<event>
 5   0  0.2401211E-03  0.1310500E+04  0.7818609E-02  0.9021280E-01
        2   -1    0    0  501    0  0.00000000000E+00  0.00000000000E+00  0.16291417730E+04  0.16291417730E+04  0.25500000920E-02 0. -1.
       -2   -1    0    0    0  501  0.00000000000E+00  0.00000000000E+00 -0.26354527448E+03  0.26354527450E+03  0.25500000920E-02 0.  1.
    10030    2    1    2    0    0  0.00000000000E+00  0.00000000000E+00  0.13655964985E+04  0.18926870475E+04  0.13105000813E+04 0.  0.
        4    1    3    3  502    0  0.20973083511E+03  0.25278021117E+03 -0.13606122579E+03  0.35552655093E+03  0.12699999809E+01 0.  1.
       -4    1    3    3    0  502 -0.20973083511E+03 -0.25278021117E+03  0.15016577243E+04  0.15371604965E+04  0.12699999809E+01 0. -1.
</event>
<event>
 5   0  0.2312105E-03  0.1292180E+04  0.7818609E-02  0.9035790E-01
       -2   -1    0    0    0  501  0.00000000000E+00  0.00000000000E+00  0.21450098761E+03  0.21450098762E+03  0.25500000920E-02 0. -1.
        2   -1    0    0  501    0  0.00000000000E+00  0.00000000000E+00 -0.19460611930E+04  0.19460611930E+04  0.25500000920E-02 0.  1.
    10030    2    1    2    0    0  0.00000000000E+00  0.00000000000E+00 -0.17315602054E+04  0.21605621806E+04  0.12921796282E+04 0.  0.
        5    1    3    3  502    0 -0.50870305633E+03 -0.37207716176E+03 -0.11033597791E+04  0.12706868638E+04  0.46999998093E+01 0.  1.
       -5    1    3    3    0  502  0.50870305633E+03  0.37207716176E+03 -0.62820042632E+03  0.88987531680E+03  0.46999998093E+01 0. -1.
</event>
<event>
 5   0  0.1310461E-03  0.1303245E+04  0.7818609E-02  0.9026996E-01
        1   -1    0    0  501    0  0.00000000000E+00  0.00000000000E+00  0.11729258747E+04  0.11729258747E+04  0.50400001928E-02 0.  1.
       -1   -1    0    0    0  501  0.00000000000E+00  0.00000000000E+00 -0.36201061208E+03  0.36201061211E+03  0.50400001928E-02 0. -1.
    10030    2    1    2    0    0  0.00000000000E+00  0.00000000000E+00  0.81091526260E+03  0.15349364868E+04  0.13032445877E+04 0.  0.
        4    1    3    3  502    0 -0.12657141902E+03  0.63674957922E+03  0.33946353106E+03  0.73260320267E+03  0.12699999809E+01 0. -1.
       -4    1    3    3    0  502  0.12657141902E+03 -0.63674957922E+03  0.47145173154E+03  0.80233328413E+03  0.12699999809E+01 0.  1.
</event>
<event>
 5   0  0.1346593E-03  0.1284195E+04  0.7818609E-02  0.9042193E-01
        1   -1    0    0  501    0  0.00000000000E+00  0.00000000000E+00  0.79594992718E+03  0.79594992720E+03  0.50400001928E-02 0.  1.
       -1   -1    0    0    0  501  0.00000000000E+00  0.00000000000E+00 -0.51798415975E+03  0.51798415978E+03  0.50400001928E-02 0. -1.
    10030    2    1    2    0    0  0.00000000000E+00  0.00000000000E+00  0.27796576743E+03  0.13139340870E+04  0.12841953968E+04 0.  0.
        2    1    3    3  502    0 -0.46959728265E+03 -0.22593161801E+03 -0.24483448876E+03  0.57576959869E+03  0.25500000920E-02 0. -1.
       -2    1    3    3    0  502  0.46959728265E+03  0.22593161801E+03  0.52280025618E+03  0.73816448828E+03  0.25500000920E-02 0.  1.
</event>
<event>
 5   0  0.2478236E-03  0.1293679E+04  0.7818609E-02  0.9034593E-01
       -2   -1    0    0    0  501  0.00000000000E+00  0.00000000000E+00  0.50509767204E+03  0.50509767205E+03  0.25500000920E-02 0. -1.
        2   -1    0    0  501    0  0.00000000000E+00  0.00000000000E+00 -0.82835729023E+03  0.82835729024E+03  0.25500000920E-02 0.  1.
    10030    2    1    2    0    0  0.00000000000E+00  0.00000000000E+00 -0.32325961819E+03  0.13334549623E+04  0.12936790003E+04 0.  0.
        3    1    3    3  502    0 -0.79072929669E+02  0.20949474468E+03 -0.78713301728E+03  0.81836359483E+03  0.10100000352E+00 0.  1.
       -3    1    3    3    0  502  0.79072929669E+02 -0.20949474468E+03  0.46387339908E+03  0.51509136746E+03  0.10100000352E+00 0. -1.
</event>
<event>
 5   0  0.2401211E-03  0.1329885E+04  0.7818609E-02  0.9006196E-01
       -2   -1    0    0    0  501  0.00000000000E+00  0.00000000000E+00  0.23656056191E+03  0.23656056192E+03  0.25500000920E-02 0. -1.
        2   -1    0    0  501    0  0.00000000000E+00  0.00000000000E+00 -0.18690711900E+04  0.18690711900E+04  0.25500000920E-02 0.  1.
    10030    2    1    2    0    0  0.00000000000E+00  0.00000000000E+00 -0.16325106281E+04  0.21056317519E+04  0.13298850040E+04 0.  0.
        4    1    3    3  502    0 -0.53814341797E+03  0.86720978201E+02 -0.14192234168E+04  0.15203011498E+04  0.12699999809E+01 0.  1.
       -4    1    3    3    0  502  0.53814341797E+03 -0.86720978201E+02 -0.21328721126E+03  0.58533060210E+03  0.12699999809E+01 0. -1.
</event>
<event>
 5   0  0.2401211E-03  0.1299135E+04  0.7818609E-02  0.9030251E-01
       -2   -1    0    0    0  501  0.00000000000E+00  0.00000000000E+00  0.13331050276E+04  0.13331050276E+04  0.25500000920E-02 0. -1.
        2   -1    0    0  501    0  0.00000000000E+00  0.00000000000E+00 -0.31650777389E+03  0.31650777390E+03  0.25500000920E-02 0.  1.
    10030    2    1    2    0    0  0.00000000000E+00  0.00000000000E+00  0.10165972537E+04  0.16496128015E+04  0.12991352580E+04 0.  0.
        4    1    3    3  502    0  0.19302891657E+02 -0.97096175345E+02 -0.30687109846E+03  0.32244651163E+03  0.12699999809E+01 0.  1.
       -4    1    3    3    0  502 -0.19302891657E+02  0.97096175345E+02  0.13234683521E+04  0.13271662898E+04  0.12699999809E+01 0. -1.
</event>
<event>
 5   0  0.1387622E-03  0.1185816E+04  0.7818609E-02  0.9125363E-01
        1   -1    0    0  501    0  0.00000000000E+00  0.00000000000E+00  0.65573191264E+03  0.65573191266E+03  0.50400001928E-02 0.  1.
       -1   -1    0    0    0  501  0.00000000000E+00  0.00000000000E+00 -0.53610328807E+03  0.53610328810E+03  0.50400001928E-02 0. -1.
    10030    2    1    2    0    0  0.00000000000E+00  0.00000000000E+00  0.11962862457E+03  0.11918352008E+04  0.11858162328E+04 0.  0.
        3    1    3    3  502    0 -0.53361183154E+03  0.25705166668E+03  0.32791448277E+02  0.59320522198E+03  0.10100000352E+00 0. -1.
       -3    1    3    3    0  502  0.53361183154E+03 -0.25705166668E+03  0.86837176293E+02  0.59862997878E+03  0.10100000352E+00 0.  1.
</event>
<event>
 5   0  0.1324721E-03  0.1338443E+04  0.7818609E-02  0.8999623E-01
        1   -1    0    0  501    0  0.00000000000E+00  0.00000000000E+00  0.90996084341E+03  0.90996084343E+03  0.50400001928E-02 0. -1.
       -1   -1    0    0    0  501  0.00000000000E+00  0.00000000000E+00 -0.49217218989E+03  0.49217218992E+03  0.50400001928E-02 0.  1.
    10030    2    1    2    0    0  0.00000000000E+00  0.00000000000E+00  0.41778865352E+03  0.14021330333E+04  0.13384430074E+04 0.  0.
        1    1    3    3  502    0 -0.24060539720E+03 -0.22428265818E+03 -0.40164541690E+03  0.51914613440E+03  0.50400001928E-02 0.  1.
       -1    1    3    3    0  502  0.24060539720E+03  0.22428265818E+03  0.81943407042E+03  0.88298689894E+03  0.50400001928E-02 0. -1.
</event>
<event>
 5   0  0.1346593E-03  0.1289699E+04  0.7818609E-02  0.9037774E-01
       -1   -1    0    0    0  501  0.00000000000E+00  0.00000000000E+00  0.89058475581E+03  0.89058475583E+03  0.50400001928E-02 0.  1.
        1   -1    0    0  501    0  0.00000000000E+00  0.00000000000E+00 -0.46691873567E+03  0.46691873569E+03  0.50400001928E-02 0. -1.
    10030    2    1    2    0    0  0.00000000000E+00  0.00000000000E+00  0.42366602015E+03  0.13575034915E+04  0.12896987372E+04 0.  0.
        2    1    3    3  502    0  0.43231092453E+03 -0.40589649379E+02  0.71364759292E+03  0.83536407751E+03  0.25500000920E-02 0.  1.
       -2    1    3    3    0  502 -0.43231092453E+03  0.40589649379E+02 -0.28998157277E+03  0.52213941401E+03  0.25500000920E-02 0. -1.
</event>
<event>
 5   0  0.2334946E-03  0.1320163E+04  0.7818609E-02  0.9013727E-01
       -2   -1    0    0    0  501  0.00000000000E+00  0.00000000000E+00  0.33171841473E+03  0.33171841474E+03  0.25500000920E-02 0.  1.
        2   -1    0    0  501    0  0.00000000000E+00  0.00000000000E+00 -0.13134867423E+04  0.13134867423E+04  0.25500000920E-02 0. -1.
    10030    2    1    2    0    0  0.00000000000E+00  0.00000000000E+00 -0.98176832756E+03  0.16452051570E+04  0.13201632322E+04 0.  0.
        1    1    3    3  502    0 -0.46399529354E+03 -0.46046459086E+03 -0.37674524447E+03  0.75449072302E+03  0.50400001928E-02 0.  1.
       -1    1    3    3    0  502  0.46399529354E+03  0.46046459086E+03 -0.60502308309E+03  0.89071443401E+03  0.50400001928E-02 0. -1.
</event>
<event>
 5   0  0.2401211E-03  0.1304842E+04  0.7818609E-02  0.9025734E-01
       -2   -1    0    0    0  501  0.00000000000E+00  0.00000000000E+00  0.14919927388E+04  0.14919927388E+04  0.25500000920E-02 0. -1.
        2   -1    0    0  501    0  0.00000000000E+00  0.00000000000E+00 -0.28529158604E+03  0.28529158605E+03  0.25500000920E-02 0.  1.
    10030    2    1    2    0    0  0.00000000000E+00  0.00000000000E+00  0.12067011528E+04  0.17772843249E+04  0.13048417143E+04 0.  0.
        4    1    3    3  502    0 -0.19054656445E+03  0.40416315155E+03  0.12508643176E+04  0.13282767032E+04  0.12699999809E+01 0. -1.
       -4    1    3    3    0  502  0.19054656445E+03 -0.40416315155E+03 -0.44163164825E+02  0.44900762167E+03  0.12699999809E+01 0.  1.
</event>
<event>
 5   0  0.1332630E-03  0.1314360E+04  0.7818609E-02  0.9018254E-01
       -1   -1    0    0    0  501  0.00000000000E+00  0.00000000000E+00  0.24632601016E+03  0.24632601021E+03  0.50400001928E-02 0. -1.
        1   -1    0    0  501    0  0.00000000000E+00  0.00000000000E+00 -0.17533091662E+04  0.17533091662E+04  0.50400001928E-02 0.  1.
    10030    2    1    2    0    0  0.00000000000E+00  0.00000000000E+00 -0.15069831560E+04  0.19996351764E+04  0.13143601509E+04 0.  0.
        5    1    3    3  502    0 -0.12254272705E+03  0.64526553898E+03 -0.72018680489E+03  0.97471814371E+03  0.46999998093E+01 0. -1.
       -5    1    3    3    0  502  0.12254272705E+03 -0.64526553898E+03 -0.78679635111E+03  0.10249170327E+04  0.46999998093E+01 0.  1.
</event>
<event>
 5   0  0.2334946E-03  0.1295004E+04  0.7818609E-02  0.9033536E-01
       -2   -1    0    0    0  501  0.00000000000E+00  0.00000000000E+00  0.16542278119E+03  0.16542278121E+03  0.25500000920E-02 0. -1.
        2   -1    0    0  501    0  0.00000000000E+00  0.00000000000E+00 -0.25344689953E+04  0.25344689953E+04  0.25500000920E-02 0.  1.
    10030    2    1    2    0    0  0.00000000000E+00  0.00000000000E+00 -0.23690462141E+04  0.26998917765E+04  0.12950041082E+04 0.  0.
        1    1    3    3  502    0  0.29838064151E+03 -0.44437756952E+03 -0.19441547931E+04  0.20164920756E+04  0.50400001928E-02 0.  1.
       -1    1    3    3    0  502 -0.29838064151E+03  0.44437756952E+03 -0.42489142106E+03  0.68339970094E+03  0.50400001928E-02 0. -1.
</event>
<event>
 5   0  0.1387622E-03  0.1294601E+04  0.7818609E-02  0.9033858E-01
        1   -1    0    0  501    0  0.00000000000E+00  0.00000000000E+00  0.46175910191E+03  0.46175910194E+03  0.50400001928E-02 0. -1.
       -1   -1    0    0    0  501  0.00000000000E+00  0.00000000000E+00 -0.90739490670E+03  0.90739490672E+03  0.50400001928E-02 0.  1.
    10030    2    1    2    0    0  0.00000000000E+00  0.00000000000E+00 -0.44563580479E+03  0.13691540087E+04  0.12946008763E+04 0.  0.
        3    1    3    3  502    0  0.27157242889E+03 -0.48204486698E+03  0.13250483549E+03  0.56892563621E+03  0.10100000352E+00 0. -1.
       -3    1    3    3    0  502 -0.27157242889E+03  0.48204486698E+03 -0.57814064028E+03  0.80022837244E+03  0.10100000352E+00 0.  1.
</event>
<event>
 5   0  0.1332630E-03  0.1271058E+04  0.7818609E-02  0.9052836E-01
        1   -1    0    0  501    0  0.00000000000E+00  0.00000000000E+00  0.14549202773E+04  0.14549202773E+04  0.50400001928E-02 0. -1.
       -1   -1    0    0    0  501  0.00000000000E+00  0.00000000000E+00 -0.27760782547E+03  0.27760782552E+03  0.50400001928E-02 0.  1.
    10030    2    1    2    0    0  0.00000000000E+00  0.00000000000E+00  0.11773124518E+04  0.17325281028E+04  0.12710582275E+04 0.  0.
        5    1    3    3  502    0 -0.67261869229E+02 -0.13543420106E+03 -0.25270447184E+03  0.29453051108E+03  0.46999998093E+01 0.  1.
       -5    1    3    3    0  502  0.67261869229E+02  0.13543420106E+03  0.14300169236E+04  0.14379975917E+04  0.46999998093E+01 0. -1.
</event>
<event>
 5   0  0.1332630E-03  0.1306138E+04  0.7818609E-02  0.9024712E-01
        1   -1    0    0  501    0  0.00000000000E+00  0.00000000000E+00  0.28243028281E+03  0.28243028286E+03  0.50400001928E-02 0.  1.
       -1   -1    0    0    0  501  0.00000000000E+00  0.00000000000E+00 -0.15101031479E+04  0.15101031479E+04  0.50400001928E-02 0. -1.
    10030    2    1    2    0    0  0.00000000000E+00  0.00000000000E+00 -0.12276728651E+04  0.17925334307E+04  0.13061376025E+04 0.  0.
        5    1    3    3  502    0  0.35778507432E+03  0.91464225974E+02 -0.13530209696E+04  0.14025204805E+04  0.46999998093E+01 0. -1.
       -5    1    3    3    0  502 -0.35778507432E+03 -0.91464225974E+02  0.12534810455E+03  0.39001295023E+03  0.46999998093E+01 0.  1.
</event>
<event>
 5   0  0.2312105E-03  0.1326290E+04  0.7818609E-02  0.9008973E-01
       -2   -1    0    0    0  501  0.00000000000E+00  0.00000000000E+00  0.50079405047E+03  0.50079405048E+03  0.25500000920E-02 0.  1.
        2   -1    0    0  501    0  0.00000000000E+00  0.00000000000E+00 -0.87812804060E+03  0.87812804060E+03  0.25500000920E-02 0. -1.
    10030    2    1    2    0    0  0.00000000000E+00  0.00000000000E+00 -0.37733399013E+03  0.13789220911E+04  0.13262900110E+04 0.  0.
        5    1    3    3  502    0 -0.59283788131E+03  0.18569562390E+03  0.52484919206E+02  0.62347123029E+03  0.46999998093E+01 0. -1.
       -5    1    3    3    0  502  0.59283788131E+03 -0.18569562390E+03 -0.42981890933E+03  0.75545086079E+03  0.46999998093E+01 0.  1.
</event>
<event>
 5   0  0.2312105E-03  0.1292480E+04  0.7818609E-02  0.9035550E-01
       -2   -1    0    0    0  501  0.00000000000E+00  0.00000000000E+00  0.49998387432E+03  0.49998387432E+03  0.25500000920E-02 0.  1.
        2   -1    0    0  501    0  0.00000000000E+00  0.00000000000E+00 -0.83527979450E+03  0.83527979451E+03  0.25500000920E-02 0. -1.
    10030    2    1    2    0    0  0.00000000000E+00  0.00000000000E+00 -0.33529592019E+03  0.13352636688E+04  0.12924804491E+04 0.  0.
        5    1    3    3  502    0  0.14063208626E+03  0.27293898964E+03  0.41979661667E+03  0.52011956809E+03  0.46999998093E+01 0.  1.
       -5    1    3    3    0  502 -0.14063208626E+03 -0.27293898964E+03 -0.75509253686E+03  0.81514410074E+03  0.46999998093E+01 0. -1.
</event>
<event>
 5   0  0.2401211E-03  0.1201001E+04  0.7818609E-02  0.9111981E-01
        2   -1    0    0  501    0  0.00000000000E+00  0.00000000000E+00  0.18802231506E+04  0.18802231506E+04  0.25500000920E-02 0.  1.
       -2   -1    0    0    0  501  0.00000000000E+00  0.00000000000E+00 -0.19178627144E+03  0.19178627146E+03  0.25500000920E-02 0. -1.
    10030    2    1    2    0    0  0.00000000000E+00  0.00000000000E+00  0.16884368791E+04  0.20720094220E+04  0.12010012282E+04 0.  0.
        4    1    3    3  502    0  0.35922196158E+02 -0.28438290688E+03  0.17545727378E+04  0.17778332731E+04  0.12699999809E+01 0.  1.
       -4    1    3    3    0  502 -0.35922196158E+02  0.28438290688E+03 -0.66135858645E+02  0.29417614893E+03  0.12699999809E+01 0. -1.
</event>
<event>
 5   0  0.1324721E-03  0.1291584E+04  0.7818609E-02  0.9036266E-01
        1   -1    0    0  501    0  0.00000000000E+00  0.00000000000E+00  0.94209953758E+03  0.94209953759E+03  0.50400001928E-02 0.  1.
       -1   -1    0    0    0  501  0.00000000000E+00  0.00000000000E+00 -0.44267850898E+03  0.44267850901E+03  0.50400001928E-02 0. -1.
    10030    2    1    2    0    0  0.00000000000E+00  0.00000000000E+00  0.49942102860E+03  0.13847780466E+04  0.12915838628E+04 0.  0.
        1    1    3    3  502    0 -0.41314537530E+02  0.37979890687E+03 -0.30852415627E+03  0.49106135635E+03  0.50400001928E-02 0. -1.
       -1    1    3    3    0  502  0.41314537530E+02 -0.37979890687E+03  0.80794518486E+03  0.89371669025E+03  0.50400001928E-02 0.  1.
</event>
<event>
 5   0  0.2312105E-03  0.1309145E+04  0.7818609E-02  0.9022345E-01
        2   -1    0    0  501    0  0.00000000000E+00  0.00000000000E+00  0.31118249519E+03  0.31118249520E+03  0.25500000920E-02 0. -1.
       -2   -1    0    0    0  501  0.00000000000E+00  0.00000000000E+00 -0.13768925510E+04  0.13768925510E+04  0.25500000920E-02 0.  1.
    10030    2    1    2    0    0  0.00000000000E+00  0.00000000000E+00 -0.10657100558E+04  0.16880750462E+04  0.13091445446E+04 0.  0.
        5    1    3    3  502    0 -0.16927867277E+03  0.60322091002E+03 -0.77721167271E+03  0.99830396650E+03  0.46999998093E+01 0.  1.
       -5    1    3    3    0  502  0.16927867277E+03 -0.60322091002E+03 -0.28849838310E+03  0.68977107970E+03  0.46999998093E+01 0. -1.
</event>
<event>
 5   0  0.1332630E-03  0.1295834E+04  0.7818609E-02  0.9032876E-01
       -1   -1    0    0    0  501  0.00000000000E+00  0.00000000000E+00  0.62174675142E+03  0.62174675144E+03  0.50400001928E-02 0.  1.
        1   -1    0    0  501    0  0.00000000000E+00  0.00000000000E+00 -0.67518834391E+03  0.67518834393E+03  0.50400001928E-02 0. -1.
    10030    2    1    2    0    0  0.00000000000E+00  0.00000000000E+00 -0.53441592493E+02  0.12969350954E+04  0.12958335687E+04 0.  0.
        5    1    3    3  502    0 -0.39451577481E+03 -0.51330192825E+03 -0.52286654705E+02  0.64952101612E+03  0.46999998093E+01 0. -1.
       -5    1    3    3    0  502  0.39451577481E+03  0.51330192825E+03 -0.11549377875E+01  0.64741407924E+03  0.46999998093E+01 0.  1.
</event>
<event>
 5   0  0.2478236E-03  0.1284926E+04  0.7818609E-02  0.9041605E-01
        2   -1    0    0  501    0  0.00000000000E+00  0.00000000000E+00  0.36616311280E+03  0.36616311281E+03  0.25500000920E-02 0.  1.
       -2   -1    0    0    0  501  0.00000000000E+00  0.00000000000E+00 -0.11272538467E+04  0.11272538467E+04  0.25500000920E-02 0. -1.
    10030    2    1    2    0    0  0.00000000000E+00  0.00000000000E+00 -0.76109073388E+03  0.14934169595E+04  0.12849261106E+04 0.  0.
        3    1    3    3  502    0  0.22908748517E+03  0.40695890509E+02 -0.10765643869E+04  0.11014209553E+04  0.10100000352E+00 0. -1.
       -3    1    3    3    0  502 -0.22908748517E+03 -0.40695890509E+02  0.31547365303E+03  0.39199600422E+03  0.10100000352E+00 0.  1.
</event>
<event>
 5   0  0.2312105E-03  0.1279552E+04  0.7818609E-02  0.9045940E-01
       -2   -1    0    0    0  501  0.00000000000E+00  0.00000000000E+00  0.78719829193E+03  0.78719829193E+03  0.25500000920E-02 0.  1.
        2   -1    0    0  501    0  0.00000000000E+00  0.00000000000E+00 -0.51996184968E+03  0.51996184968E+03  0.25500000920E-02 0. -1.
    10030    2    1    2    0    0  0.00000000000E+00  0.00000000000E+00  0.26723644225E+03  0.13071601416E+04  0.12795516089E+04 0.  0.
        5    1    3    3  502    0 -0.19308956511E+03  0.59883466826E+03  0.15342532036E+02  0.62939973257E+03  0.46999998093E+01 0. -1.
       -5    1    3    3    0  502  0.19308956511E+03 -0.59883466826E+03  0.25189391021E+03  0.67776040905E+03  0.46999998093E+01 0.  1.
</event>
<event>
 5   0  0.1310461E-03  0.1335082E+04  0.7818609E-02  0.9002198E-01
        1   -1    0    0  501    0  0.00000000000E+00  0.00000000000E+00  0.59862199981E+03  0.59862199983E+03  0.50400001928E-02 0. -1.
       -1   -1    0    0    0  501  0.00000000000E+00  0.00000000000E+00 -0.74439494158E+03  0.74439494160E+03  0.50400001928E-02 0.  1.
    10030    2    1    2    0    0  0.00000000000E+00  0.00000000000E+00 -0.14577294178E+03  0.13430169414E+04  0.13350823025E+04 0.  0.
        4    1    3    3  502    0  0.36043521344E+03  0.55979178962E+03 -0.24338013630E+02  0.66623895310E+03  0.12699999809E+01 0.  1.
       -4    1    3    3    0  502 -0.36043521344E+03 -0.55979178962E+03 -0.12143492815E+03  0.67677798833E+03  0.12699999809E+01 0. -1.
</event>
<event>
 5   0  0.2478236E-03  0.1297278E+04  0.7818609E-02  0.9031727E-01
       -2   -1    0    0    0  501  0.00000000000E+00  0.00000000000E+00  0.34480694850E+03  0.34480694851E+03  0.25500000920E-02 0.  1.
        2   -1    0    0  501    0  0.00000000000E+00  0.00000000000E+00 -0.12201971831E+04  0.12201971831E+04  0.25500000920E-02 0. -1.
    10030    2    1    2    0    0  0.00000000000E+00  0.00000000000E+00 -0.87539023464E+03  0.15650041317E+04  0.12972778689E+04 0.  0.
        3    1    3    3  502    0 -0.24548024700E+03  0.19156886264E+03  0.24874550942E+03  0.39853923202E+03  0.10100000352E+00 0.  1.
       -3    1    3    3    0  502  0.24548024700E+03 -0.19156886264E+03 -0.11241357441E+04  0.11664648996E+04  0.10100000352E+00 0. -1.
</event>
<event>
 5   0  0.2361043E-03  0.1326982E+04  0.7818609E-02  0.9008437E-01
        2   -1    0    0  501    0  0.00000000000E+00  0.00000000000E+00  0.89140420571E+03  0.89140420571E+03  0.25500000920E-02 0.  1.
       -2   -1    0    0    0  501  0.00000000000E+00  0.00000000000E+00 -0.49385071696E+03  0.49385071696E+03  0.25500000920E-02 0. -1.
    10030    2    1    2    0    0  0.00000000000E+00  0.00000000000E+00  0.39755348875E+03  0.13852549227E+04  0.13269824507E+04 0.  0.
        2    1    3    3  502    0 -0.33986508330E+03 -0.70466178945E+02  0.78906978000E+03  0.86203530957E+03  0.25500000920E-02 0.  1.
       -2    1    3    3    0  502  0.33986508330E+03  0.70466178945E+02 -0.39151629125E+03  0.52321961311E+03  0.25500000920E-02 0. -1.
</event>
<event>
 5   0  0.2401211E-03  0.1289924E+04  0.7818609E-02  0.9037594E-01
        2   -1    0    0  501    0  0.00000000000E+00  0.00000000000E+00  0.76906264594E+03  0.76906264594E+03  0.25500000920E-02 0.  1.
       -2   -1    0    0    0  501  0.00000000000E+00  0.00000000000E+00 -0.54088720954E+03  0.54088720955E+03  0.25500000920E-02 0. -1.
    10030    2    1    2    0    0  0.00000000000E+00  0.00000000000E+00  0.22817543640E+03  0.13099498555E+04  0.12899242591E+04 0.  0.
        4    1    3    3  502    0  0.36756894095E+03 -0.92476085185E+02 -0.41585248434E+03  0.56266655695E+03  0.12699999809E+01 0. -1.
       -4    1    3    3    0  502 -0.36756894095E+03  0.92476085185E+02  0.64402792074E+03  0.74728329854E+03  0.12699999809E+01 0.  1.
</event>
<event>
 5   0  0.2312105E-03  0.1382291E+04  0.7818609E-02  0.8966738E-01
       -2   -1    0    0    0  501  0.00000000000E+00  0.00000000000E+00  0.90924778923E+03  0.90924778923E+03  0.25500000920E-02 0. -1.
        2   -1    0    0  501    0  0.00000000000E+00  0.00000000000E+00 -0.52535977139E+03  0.52535977139E+03  0.25500000920E-02 0.  1.
    10030    2    1    2    0    0  0.00000000000E+00  0.00000000000E+00  0.38388801784E+03  0.14346075606E+04  0.13822911570E+04 0.  0.
        5    1    3    3  502    0 -0.21224693141E+03  0.10220729047E+02  0.87448714651E+03  0.89994615539E+03  0.46999998093E+01 0. -1.
       -5    1    3    3    0  502  0.21224693141E+03 -0.10220729047E+02 -0.49059912867E+03  0.53466140523E+03  0.46999998093E+01 0.  1.
</event>
<event>
 5   0  0.2334946E-03  0.1278582E+04  0.7818609E-02  0.9046725E-01
        2   -1    0    0  501    0  0.00000000000E+00  0.00000000000E+00  0.19346425982E+04  0.19346425982E+04  0.25500000920E-02 0. -1.
       -2   -1    0    0    0  501  0.00000000000E+00  0.00000000000E+00 -0.21124977801E+03  0.21124977803E+03  0.25500000920E-02 0.  1.
    10030    2    1    2    0    0  0.00000000000E+00  0.00000000000E+00  0.17233928202E+04  0.21458923762E+04  0.12785817446E+04 0.  0.
        1    1    3    3  502    0 -0.35537147368E+03 -0.42172941952E+03  0.14043688718E+04  0.15087731823E+04  0.50400001928E-02 0. -1.
       -1    1    3    3    0  502  0.35537147368E+03  0.42172941952E+03  0.31902394843E+03  0.63711919394E+03  0.50400001928E-02 0.  1.
</event>
<event>
 5   0  0.2334946E-03  0.1297633E+04  0.7818609E-02  0.9031445E-01
        2   -1    0    0  501    0  0.00000000000E+00  0.00000000000E+00  0.56340682712E+03  0.56340682712E+03  0.25500000920E-02 0.  1.
       -2   -1    0    0    0  501  0.00000000000E+00  0.00000000000E+00 -0.74717345594E+03  0.74717345594E+03  0.25500000920E-02 0. -1.
    10030    2    1    2    0    0  0.00000000000E+00  0.00000000000E+00 -0.18376662882E+03  0.13105802831E+04  0.12976326539E+04 0.  0.
        1    1    3    3  502    0  0.22327299024E+03  0.23440473343E+03 -0.65978034384E+03  0.73491938971E+03  0.50400001928E-02 0. -1.
       -1    1    3    3    0  502 -0.22327299024E+03 -0.23440473343E+03  0.47601371502E+03  0.57566089336E+03  0.50400001928E-02 0.  1.
</event>
<event>
 5   0  0.1324721E-03  0.1303812E+04  0.7818609E-02  0.9026548E-01
       -1   -1    0    0    0  501  0.00000000000E+00  0.00000000000E+00  0.22968110912E+03  0.22968110918E+03  0.50400001928E-02 0. -1.
        1   -1    0    0  501    0  0.00000000000E+00  0.00000000000E+00 -0.18503100054E+04  0.18503100054E+04  0.50400001928E-02 0.  1.
    10030    2    1    2    0    0  0.00000000000E+00  0.00000000000E+00 -0.16206288963E+04  0.20799911146E+04  0.13038117262E+04 0.  0.
        1    1    3    3  502    0 -0.11061238505E+03 -0.42833145674E+03 -0.15741996385E+04  0.16351781060E+04  0.50400001928E-02 0.  1.
       -1    1    3    3    0  502  0.11061238505E+03  0.42833145674E+03 -0.46429257755E+02  0.44481300853E+03  0.50400001928E-02 0. -1.
</event>
<event>
 5   0  0.1346593E-03  0.1311398E+04  0.7818609E-02  0.9020575E-01
       -1   -1    0    0    0  501  0.00000000000E+00  0.00000000000E+00  0.67841394492E+03  0.67841394494E+03  0.50400001928E-02 0.  1.
        1   -1    0    0  501    0  0.00000000000E+00  0.00000000000E+00 -0.63374448724E+03  0.63374448726E+03  0.50400001928E-02 0. -1.
    10030    2    1    2    0    0  0.00000000000E+00  0.00000000000E+00  0.44669457683E+02  0.13121584322E+04  0.13113978766E+04 0.  0.
        2    1    3    3  502    0 -0.51614948162E+03 -0.24709393916E+03  0.34263816752E+03  0.66698322018E+03  0.25500000920E-02 0.  1.
       -2    1    3    3    0  502  0.51614948162E+03  0.24709393916E+03 -0.29796870983E+03  0.64517521202E+03  0.25500000920E-02 0. -1.
</event>
<event>
 5   0  0.2334946E-03  0.1607931E+04  0.7818609E-02  0.8815690E-01
        2   -1    0    0  501    0  0.00000000000E+00  0.00000000000E+00  0.13361768770E+04  0.13361768770E+04  0.25500000920E-02 0.  1.
       -2   -1    0    0    0  501  0.00000000000E+00  0.00000000000E+00 -0.48373897739E+03  0.48373897739E+03  0.25500000920E-02 0. -1.
    10030    2    1    2    0    0  0.00000000000E+00  0.00000000000E+00  0.85243789966E+03  0.18199158544E+04  0.16079313867E+04 0.  0.
        1    1    3    3  502    0  0.77351476139E+03 -0.70852647814E+02  0.19147357063E+03  0.80000457003E+03  0.50400001928E-02 0. -1.
       -1    1    3    3    0  502 -0.77351476139E+03  0.70852647814E+02  0.66096432903E+03  0.10199112844E+04  0.50400001928E-02 0.  1.
</event>
<event>
 5   0  0.1387622E-03  0.1319012E+04  0.7818609E-02  0.9014623E-01
        1   -1    0    0  501    0  0.00000000000E+00  0.00000000000E+00  0.14483597414E+04  0.14483597414E+04  0.50400001928E-02 0.  1.
       -1   -1    0    0    0  501  0.00000000000E+00  0.00000000000E+00 -0.30030374511E+03  0.30030374515E+03  0.50400001928E-02 0. -1.
    10030    2    1    2    0    0  0.00000000000E+00  0.00000000000E+00  0.11480559963E+04  0.17486634866E+04  0.13190115309E+04 0.  0.
        3    1    3    3  502    0 -0.64939823036E+03 -0.57741936719E+02  0.70590827425E+03  0.96091555025E+03  0.10100000352E+00 0. -1.
       -3    1    3    3    0  502  0.64939823036E+03  0.57741936719E+02  0.44214772203E+03  0.78774793630E+03  0.10100000352E+00 0.  1.
</event>
<event>
 5   0  0.2312105E-03  0.1290467E+04  0.7818609E-02  0.9037159E-01
        2   -1    0    0  501    0  0.00000000000E+00  0.00000000000E+00  0.86415981546E+03  0.86415981546E+03  0.25500000920E-02 0.  1.
       -2   -1    0    0    0  501  0.00000000000E+00  0.00000000000E+00 -0.48177001211E+03  0.48177001212E+03  0.25500000920E-02 0. -1.
    10030    2    1    2    0    0  0.00000000000E+00  0.00000000000E+00  0.38238980335E+03  0.13459298276E+04  0.12904670236E+04 0.  0.
        5    1    3    3  502    0  0.31839946721E+02  0.56522279365E+03 -0.13164640734E+03  0.58124302596E+03  0.46999998093E+01 0. -1.
       -5    1    3    3    0  502 -0.31839946721E+02 -0.56522279365E+03  0.51403621069E+03  0.76468680162E+03  0.46999998093E+01 0.  1.
</event>
<event>
 5   0  0.1387622E-03  0.1298465E+04  0.7818609E-02  0.9030784E-01
       -1   -1    0    0    0  501  0.00000000000E+00  0.00000000000E+00  0.43294168458E+03  0.43294168461E+03  0.50400001928E-02 0.  1.
        1   -1    0    0  501    0  0.00000000000E+00  0.00000000000E+00 -0.97357825291E+03  0.97357825292E+03  0.50400001928E-02 0. -1.
    10030    2    1    2    0    0  0.00000000000E+00  0.00000000000E+00 -0.54063656833E+03  0.14065199375E+04  0.12984646455E+04 0.  0.
        3    1    3    3  502    0  0.32969870970E+03 -0.54937360723E+03 -0.38387546292E+03  0.74690895076E+03  0.10100000352E+00 0. -1.
       -3    1    3    3    0  502 -0.32969870970E+03  0.54937360723E+03 -0.15676110541E+03  0.65961098677E+03  0.10100000352E+00 0.  1.
</event>
<event>
 5   0  0.2361043E-03  0.1287086E+04  0.7818609E-02  0.9039869E-01
        2   -1    0    0  501    0  0.00000000000E+00  0.00000000000E+00  0.56944425759E+03  0.56944425760E+03  0.25500000920E-02 0.  1.
       -2   -1    0    0    0  501  0.00000000000E+00  0.00000000000E+00 -0.72728384659E+03  0.72728384659E+03  0.25500000920E-02 0. -1.
    10030    2    1    2    0    0  0.00000000000E+00  0.00000000000E+00 -0.15783958899E+03  0.12967281042E+04  0.12870860268E+04 0.  0.
        2    1    3    3  502    0 -0.52891493790E+03 -0.36373153809E+03 -0.12504449311E+03  0.65397841601E+03  0.25500000920E-02 0. -1.
       -2    1    3    3    0  502  0.52891493790E+03  0.36373153809E+03 -0.32795095883E+02  0.64274968818E+03  0.25500000920E-02 0.  1.
</event>
<event>
 5   0  0.1310461E-03  0.1309902E+04  0.7818609E-02  0.9021749E-01
       -1   -1    0    0    0  501  0.00000000000E+00  0.00000000000E+00  0.33092119570E+03  0.33092119574E+03  0.50400001928E-02 0. -1.
        1   -1    0    0  501    0  0.00000000000E+00  0.00000000000E+00 -0.12962633265E+04  0.12962633265E+04  0.50400001928E-02 0.  1.
    10030    2    1    2    0    0  0.00000000000E+00  0.00000000000E+00 -0.96534213078E+03  0.16271845222E+04  0.13099023017E+04 0.  0.
        4    1    3    3  502    0  0.12927040570E+03 -0.46284696148E+03  0.70110813432E+02  0.48564934532E+03  0.12699999809E+01 0. -1.
       -4    1    3    3    0  502 -0.12927040570E+03  0.46284696148E+03 -0.10354529442E+04  0.11415351769E+04  0.12699999809E+01 0.  1.
</event>
<event>
 5   0  0.1332630E-03  0.1507531E+04  0.7818609E-02  0.8879460E-01
        1   -1    0    0  501    0  0.00000000000E+00  0.00000000000E+00  0.95029857210E+03  0.95029857211E+03  0.50400001928E-02 0.  1.
       -1   -1    0    0    0  501  0.00000000000E+00  0.00000000000E+00 -0.59787804336E+03  0.59787804338E+03  0.50400001928E-02 0. -1.
    10030    2    1    2    0    0  0.00000000000E+00  0.00000000000E+00  0.35242052874E+03  0.15481766155E+04  0.15075312944E+04 0.  0.
        5    1    3    3  502    0 -0.96578790242E+02 -0.53500469040E+03 -0.35996109777E+03  0.65203647396E+03  0.46999998093E+01 0. -1.
       -5    1    3    3    0  502  0.96578790242E+02  0.53500469040E+03  0.71238162651E+03  0.89614014153E+03  0.46999998093E+01 0.  1.
</event>
<event>
 5   0  0.1324721E-03  0.1279282E+04  0.7818609E-02  0.9046158E-01
       -1   -1    0    0    0  501  0.00000000000E+00  0.00000000000E+00  0.27126293356E+04  0.27126293356E+04  0.50400001928E-02 0.  1.
        1   -1    0    0  501    0  0.00000000000E+00  0.00000000000E+00 -0.15082816999E+03  0.15082817007E+03  0.50400001928E-02 0. -1.
    10030    2    1    2    0    0  0.00000000000E+00  0.00000000000E+00  0.25618011656E+04  0.28634575057E+04  0.12792824843E+04 0.  0.
        1    1    3    3  502    0  0.60097686156E+03 -0.20983091520E+03  0.11404247204E+04  0.13060515855E+04  0.50400001928E-02 0. -1.
       -1    1    3    3    0  502 -0.60097686156E+03  0.20983091520E+03  0.14213764452E+04  0.15574059202E+04  0.50400001928E-02 0.  1.
</event>
<event>
 5   0  0.1346593E-03  0.1242676E+04  0.7818609E-02  0.9076301E-01
        1   -1    0    0  501    0  0.00000000000E+00  0.00000000000E+00  0.17503861608E+03  0.17503861615E+03  0.50400001928E-02 0. -1.
       -1   -1    0    0    0  501  0.00000000000E+00  0.00000000000E+00 -0.22055770018E+04  0.22055770018E+04  0.50400001928E-02 0.  1.
    10030    2    1    2    0    0  0.00000000000E+00  0.00000000000E+00 -0.20305383857E+04  0.23806156179E+04  0.12426763796E+04 0.  0.
        2    1    3    3  502    0 -0.34066171124E+03  0.47783927409E+03 -0.14063774925E+04  0.15239023672E+04  0.25500000920E-02 0.  1.
       -2    1    3    3    0  502  0.34066171124E+03 -0.47783927409E+03 -0.62416089320E+03  0.85671325073E+03  0.25500000920E-02 0. -1.
</event>
<event>
 5   0  0.2478236E-03  0.1198304E+04  0.7818609E-02  0.9114342E-01
        2   -1    0    0  501    0  0.00000000000E+00  0.00000000000E+00  0.20729656476E+04  0.20729656476E+04  0.25500000920E-02 0. -1.
       -2   -1    0    0    0  501  0.00000000000E+00  0.00000000000E+00 -0.17317375786E+03  0.17317375787E+03  0.25500000920E-02 0.  1.
    10030    2    1    2    0    0  0.00000000000E+00  0.00000000000E+00  0.18997918897E+04  0.22461394055E+04  0.11983042203E+04 0.  0.
        3    1    3    3  502    0 -0.38272493145E+02  0.17544934047E+03 -0.12154466471E+03  0.21684180990E+03  0.10100000352E+00 0.  1.
       -3    1    3    3    0  502  0.38272493145E+02 -0.17544934047E+03  0.20213365544E+04  0.20292975956E+04  0.10100000352E+00 0. -1.
</event>
<event>
 5   0  0.2334946E-03  0.1287791E+04  0.7818609E-02  0.9039303E-01
        2   -1    0    0  501    0  0.00000000000E+00  0.00000000000E+00  0.15682358633E+04  0.15682358633E+04  0.25500000920E-02 0.  1.
       -2   -1    0    0    0  501  0.00000000000E+00  0.00000000000E+00 -0.26437435661E+03  0.26437435662E+03  0.25500000920E-02 0. -1.
    10030    2    1    2    0    0  0.00000000000E+00  0.00000000000E+00  0.13038615067E+04  0.18326102199E+04  0.12877908951E+04 0.  0.
        1    1    3    3  502    0 -0.59146454400E+03  0.23034660295E+03  0.80593429238E+03  0.10258752107E+04  0.50400001928E-02 0.  1.
       -1    1    3    3    0  502  0.59146454400E+03 -0.23034660295E+03  0.49792721430E+03  0.80673500920E+03  0.50400001928E-02 0. -1.
</event>
<event>
 5   0  0.1346593E-03  0.1371176E+04  0.7818609E-02  0.8974951E-01
       -1   -1    0    0    0  501  0.00000000000E+00  0.00000000000E+00  0.44023887020E+03  0.44023887023E+03  0.50400001928E-02 0.  1.
        1   -1    0    0  501    0  0.00000000000E+00  0.00000000000E+00 -0.10676728660E+04  0.10676728660E+04  0.50400001928E-02 0. -1.
    10030    2    1    2    0    0  0.00000000000E+00  0.00000000000E+00 -0.62743399581E+03  0.15079117363E+04  0.13711762780E+04 0.  0.
        2    1    3    3  502    0 -0.38743877948E+03 -0.32760979112E+03  0.19334171252E+03  0.54297145495E+03  0.25500000920E-02 0.  1.
       -2    1    3    3    0  502  0.38743877948E+03  0.32760979112E+03 -0.82077570833E+03  0.96494028130E+03  0.25500000920E-02 0. -1.
</event>
<event>
 5   0  0.1310461E-03  0.1386889E+04  0.7818609E-02  0.8963364E-01
        1   -1    0    0  501    0  0.00000000000E+00  0.00000000000E+00  0.99802124248E+03  0.99802124249E+03  0.50400001928E-02 0. -1.
       -1   -1    0    0    0  501  0.00000000000E+00  0.00000000000E+00 -0.48181881620E+03  0.48181881623E+03  0.50400001928E-02 0.  1.
    10030    2    1    2    0    0  0.00000000000E+00  0.00000000000E+00  0.51620242628E+03  0.14798400587E+04  0.13868892005E+04 0.  0.
        4    1    3    3  502    0 -0.84811239386E+02  0.56675469682E+03 -0.15852915757E+03  0.59458972359E+03  0.12699999809E+01 0.  1.
       -4    1    3    3    0  502  0.84811239386E+02 -0.56675469682E+03  0.67473158385E+03  0.88525033513E+03  0.12699999809E+01 0. -1.
</event>
<event>
 5   0  0.1387622E-03  0.1292888E+04  0.7818609E-02  0.9035224E-01
        1   -1    0    0  501    0  0.00000000000E+00  0.00000000000E+00  0.42670145109E+03  0.42670145112E+03  0.50400001928E-02 0.  1.
       -1   -1    0    0    0  501  0.00000000000E+00  0.00000000000E+00 -0.97934958772E+03  0.97934958773E+03  0.50400001928E-02 0. -1.
    10030    2    1    2    0    0  0.00000000000E+00  0.00000000000E+00 -0.55264813663E+03  0.14060510388E+04  0.12928880698E+04 0.  0.
        3    1    3    3  502    0 -0.47059344848E+03 -0.43992944397E+03 -0.21782186706E+03  0.68003123855E+03  0.10100000352E+00 0.  1.
       -3    1    3    3    0  502  0.47059344848E+03  0.43992944397E+03 -0.33482626957E+03  0.72601980030E+03  0.10100000352E+00 0. -1.
</event>
<event>
 5   0  0.1310461E-03  0.1401341E+04  0.7818609E-02  0.8952849E-01
        1   -1    0    0  501    0  0.00000000000E+00  0.00000000000E+00  0.10818501694E+04  0.10818501694E+04  0.50400001928E-02 0. -1.
       -1   -1    0    0    0  501  0.00000000000E+00  0.00000000000E+00 -0.45379556393E+03  0.45379556396E+03  0.50400001928E-02 0.  1.
    10030    2    1    2    0    0  0.00000000000E+00  0.00000000000E+00  0.62805460545E+03  0.15356457333E+04  0.14013405121E+04 0.  0.
        4    1    3    3  502    0  0.25918074919E+03  0.61581549931E+03  0.54528290419E+03  0.86240271825E+03  0.12699999809E+01 0. -1.
       -4    1    3    3    0  502 -0.25918074919E+03 -0.61581549931E+03  0.82771701253E+02  0.67324301509E+03  0.12699999809E+01 0.  1.
</event>
<event>
 5   0  0.2361043E-03  0.1294991E+04  0.7818609E-02  0.9033547E-01
       -2   -1    0    0    0  501  0.00000000000E+00  0.00000000000E+00  0.23997023321E+03  0.23997023322E+03  0.25500000920E-02 0. -1.
        2   -1    0    0  501    0  0.00000000000E+00  0.00000000000E+00 -0.17470943520E+04  0.17470943520E+04  0.25500000920E-02 0.  1.
    10030    2    1    2    0    0  0.00000000000E+00  0.00000000000E+00 -0.15071241188E+04  0.19870645852E+04  0.12949913345E+04 0.  0.
        2    1    3    3  502    0  0.13193256963E+03  0.16971059313E+02 -0.17259026309E+04  0.17310211180E+04  0.25500000920E-02 0.  1.
       -2    1    3    3    0  502 -0.13193256963E+03 -0.16971059313E+02  0.21877851203E+03  0.25604346725E+03  0.25500000920E-02 0. -1.
</event>
<event>
 5   0  0.2334946E-03  0.1298573E+04  0.7818609E-02  0.9030698E-01
        2   -1    0    0  501    0  0.00000000000E+00  0.00000000000E+00  0.65594004825E+03  0.65594004825E+03  0.25500000920E-02 0. -1.
       -2   -1    0    0    0  501  0.00000000000E+00  0.00000000000E+00 -0.64270013276E+03  0.64270013277E+03  0.25500000920E-02 0.  1.
    10030    2    1    2    0    0  0.00000000000E+00  0.00000000000E+00  0.13239915488E+02  0.12986401810E+04  0.12985726874E+04 0.  0.
        1    1    3    3  502    0 -0.28963582886E+03 -0.33122612992E+03 -0.47087013860E+03  0.64445197645E+03  0.50400001928E-02 0.  1.
       -1    1    3    3    0  502  0.28963582886E+03  0.33122612992E+03  0.48411005409E+03  0.65418820457E+03  0.50400001928E-02 0. -1.
</event>
<event>
 5   0  0.9131250E-04  0.1277057E+04  0.7818609E-02  0.9047960E-01
       -3   -1    0    0    0  501  0.00000000000E+00  0.00000000000E+00  0.84885213452E+03  0.84885214052E+03  0.10100000352E+00 0.  1.
        3   -1    0    0  501    0  0.00000000000E+00  0.00000000000E+00 -0.48031728132E+03  0.48031729194E+03  0.10100000352E+00 0. -1.
    10030    2    1    2    0    0  0.00000000000E+00  0.00000000000E+00  0.36853485320E+03  0.13291694325E+04  0.12770565540E+04 0.  0.
        3    1    3    3  502    0 -0.19562029924E+02 -0.30552567062E+03  0.76748143206E+03  0.82629072800E+03  0.10100000352E+00 0.  1.
       -3    1    3    3    0  502  0.19562029924E+02  0.30552567062E+03 -0.39894657886E+03  0.50287870447E+03  0.10100000352E+00 0. -1.
</event>
<event>
 5   0  0.1324721E-03  0.1339715E+04  0.7818609E-02  0.8998650E-01
       -1   -1    0    0    0  501  0.00000000000E+00  0.00000000000E+00  0.32397361383E+03  0.32397361387E+03  0.50400001928E-02 0.  1.
        1   -1    0    0  501    0  0.00000000000E+00  0.00000000000E+00 -0.13850182608E+04  0.13850182608E+04  0.50400001928E-02 0. -1.
    10030    2    1    2    0    0  0.00000000000E+00  0.00000000000E+00 -0.10610446470E+04  0.17089918747E+04  0.13397154492E+04 0.  0.
        1    1    3    3  502    0  0.39830277151E+03 -0.26986050985E+03  0.64039347017E+02  0.48535639541E+03  0.50400001928E-02 0.  1.
       -1    1    3    3    0  502 -0.39830277151E+03  0.26986050985E+03 -0.11250839940E+04  0.12236354793E+04  0.50400001928E-02 0. -1.
</event>
<event>
 5   0  0.2361043E-03  0.1294297E+04  0.7818609E-02  0.9034100E-01
        2   -1    0    0  501    0  0.00000000000E+00  0.00000000000E+00  0.17245372410E+04  0.17245372410E+04  0.25500000920E-02 0.  1.
       -2   -1    0    0    0  501  0.00000000000E+00  0.00000000000E+00 -0.24284839057E+03  0.24284839058E+03  0.25500000920E-02 0. -1.
    10030    2    1    2    0    0  0.00000000000E+00  0.00000000000E+00  0.14816888504E+04  0.19673856316E+04  0.12942968647E+04 0.  0.
        2    1    3    3  502    0  0.16163061467E+02  0.64674306809E+03  0.76550720776E+03  0.10022669933E+04  0.25500000920E-02 0. -1.
       -2    1    3    3    0  502 -0.16163061467E+02 -0.64674306809E+03  0.71618164267E+03  0.96511863830E+03  0.25500000920E-02 0.  1.
</event>
<event>
 5   0  0.1324721E-03  0.1296374E+04  0.7818609E-02  0.9032446E-01
       -1   -1    0    0    0  501  0.00000000000E+00  0.00000000000E+00  0.94357599272E+03  0.94357599274E+03  0.50400001928E-02 0. -1.
        1   -1    0    0  501    0  0.00000000000E+00  0.00000000000E+00 -0.44527018617E+03  0.44527018620E+03  0.50400001928E-02 0.  1.
    10030    2    1    2    0    0  0.00000000000E+00  0.00000000000E+00  0.49830580656E+03  0.13888461789E+04  0.12963738010E+04 0.  0.
        1    1    3    3  502    0 -0.27213872595E+03 -0.16171705816E+03  0.85512740226E+03  0.91184141559E+03  0.50400001928E-02 0. -1.
       -1    1    3    3    0  502  0.27213872595E+03  0.16171705816E+03 -0.35682159571E+03  0.47700476334E+03  0.50400001928E-02 0.  1.
</event>
<event>
 5   0  0.2334946E-03  0.1262044E+04  0.7818609E-02  0.9060218E-01
       -2   -1    0    0    0  501  0.00000000000E+00  0.00000000000E+00  0.37305949616E+03  0.37305949617E+03  0.25500000920E-02 0. -1.
        2   -1    0    0  501    0  0.00000000000E+00  0.00000000000E+00 -0.10673599948E+04  0.10673599948E+04  0.25500000920E-02 0.  1.
    10030    2    1    2    0    0  0.00000000000E+00  0.00000000000E+00 -0.69430049861E+03  0.14404194909E+04  0.12620440276E+04 0.  0.
        1    1    3    3  502    0  0.82324801641E+02 -0.24184627818E+03  0.31139495542E+03  0.40278258840E+03  0.50400001928E-02 0. -1.
       -1    1    3    3    0  502 -0.82324801641E+02  0.24184627818E+03 -0.10056954540E+04  0.10376369025E+04  0.50400001928E-02 0.  1.
</event>
<event>
 5   0  0.1387622E-03  0.1302496E+04  0.7818609E-02  0.9027588E-01
       -1   -1    0    0    0  501  0.00000000000E+00  0.00000000000E+00  0.31720726567E+03  0.31720726571E+03  0.50400001928E-02 0. -1.
        1   -1    0    0  501    0  0.00000000000E+00  0.00000000000E+00 -0.13370572252E+04  0.13370572252E+04  0.50400001928E-02 0.  1.
    10030    2    1    2    0    0  0.00000000000E+00  0.00000000000E+00 -0.10198499595E+04  0.16542644909E+04  0.13024964745E+04 0.  0.
        3    1    3    3  502    0  0.19232936822E+03 -0.56719508384E+02 -0.12968743975E+04  0.13122846115E+04  0.10100000352E+00 0.  1.
       -3    1    3    3    0  502 -0.19232936822E+03  0.56719508384E+02  0.27702443795E+03  0.34197987943E+03  0.10100000352E+00 0. -1.
</event>
<event>
 5   0  0.2312105E-03  0.1276889E+04  0.7818609E-02  0.9048096E-01
       -2   -1    0    0    0  501  0.00000000000E+00  0.00000000000E+00  0.40575396987E+03  0.40575396988E+03  0.25500000920E-02 0.  1.
        2   -1    0    0  501    0  0.00000000000E+00  0.00000000000E+00 -0.10045783103E+04  0.10045783103E+04  0.25500000920E-02 0. -1.
    10030    2    1    2    0    0  0.00000000000E+00  0.00000000000E+00 -0.59882434047E+03  0.14103322802E+04  0.12768894040E+04 0.  0.
        5    1    3    3  502    0 -0.35958317213E+03 -0.50292097517E+03 -0.12352156703E+03  0.63048333243E+03  0.46999998093E+01 0.  1.
       -5    1    3    3    0  502  0.35958317213E+03  0.50292097517E+03 -0.47530277344E+03  0.77984894780E+03  0.46999998093E+01 0. -1.
</event>
<event>
 5   0  0.2334946E-03  0.1316168E+04  0.7818609E-02  0.9016842E-01
        2   -1    0    0  501    0  0.00000000000E+00  0.00000000000E+00  0.85232670628E+03  0.85232670629E+03  0.25500000920E-02 0. -1.
       -2   -1    0    0    0  501  0.00000000000E+00  0.00000000000E+00 -0.50810825354E+03  0.50810825355E+03  0.25500000920E-02 0.  1.
    10030    2    1    2    0    0  0.00000000000E+00  0.00000000000E+00  0.34421845274E+03  0.13604349598E+04  0.13161675185E+04 0.  0.
        1    1    3    3  502    0 -0.52702302374E+03  0.39256365108E+03  0.20813467814E+03  0.68933267148E+03  0.50400001928E-02 0.  1.
       -1    1    3    3    0  502  0.52702302374E+03 -0.39256365108E+03  0.13608377460E+03  0.67110228835E+03  0.50400001928E-02 0. -1.
</event>
<event>
 5   0  0.1346593E-03  0.1315787E+04  0.7818609E-02  0.9017139E-01
       -1   -1    0    0    0  501  0.00000000000E+00  0.00000000000E+00  0.64638905479E+03  0.64638905481E+03  0.50400001928E-02 0. -1.
        1   -1    0    0  501    0  0.00000000000E+00  0.00000000000E+00 -0.66960295728E+03  0.66960295730E+03  0.50400001928E-02 0.  1.
    10030    2    1    2    0    0  0.00000000000E+00  0.00000000000E+00 -0.23213902487E+02  0.13159920121E+04  0.13157872513E+04 0.  0.
        2    1    3    3  502    0 -0.18363797615E+03 -0.19188131861E+03  0.59038593948E+03  0.64737694140E+03  0.25500000920E-02 0. -1.
       -2    1    3    3    0  502  0.18363797615E+03  0.19188131861E+03 -0.61359984197E+03  0.66861507071E+03  0.25500000920E-02 0.  1.
</event>
<event>
 5   0  0.2361043E-03  0.1293370E+04  0.7818609E-02  0.9034840E-01
        2   -1    0    0  501    0  0.00000000000E+00  0.00000000000E+00  0.11566294645E+04  0.11566294645E+04  0.25500000920E-02 0.  1.
       -2   -1    0    0    0  501  0.00000000000E+00  0.00000000000E+00 -0.36156887101E+03  0.36156887102E+03  0.25500000920E-02 0. -1.
    10030    2    1    2    0    0  0.00000000000E+00  0.00000000000E+00  0.79506059350E+03  0.15181983355E+04  0.12933695677E+04 0.  0.
        2    1    3    3  502    0 -0.37673207622E+02 -0.62210761975E+02 -0.35675301474E+03  0.36409087191E+03  0.25500000920E-02 0. -1.
       -2    1    3    3    0  502  0.37673207622E+02  0.62210761975E+02  0.11518136082E+04  0.11541074636E+04  0.25500000920E-02 0.  1.
</event>
<event>
 5   0  0.2334946E-03  0.1235783E+04  0.7818609E-02  0.9082100E-01
       -2   -1    0    0    0  501  0.00000000000E+00  0.00000000000E+00  0.88221585598E+03  0.88221585598E+03  0.25500000920E-02 0.  1.
        2   -1    0    0  501    0  0.00000000000E+00  0.00000000000E+00 -0.43276260783E+03  0.43276260783E+03  0.25500000920E-02 0. -1.
    10030    2    1    2    0    0  0.00000000000E+00  0.00000000000E+00  0.44945324815E+03  0.13149784638E+04  0.12357832083E+04 0.  0.
        1    1    3    3  502    0  0.92906217461E+02 -0.55232278757E+03 -0.52952706134E+02  0.56257978636E+03  0.50400001928E-02 0. -1.
       -1    1    3    3    0  502 -0.92906217461E+02  0.55232278757E+03  0.50240595429E+03  0.75239867746E+03  0.50400001928E-02 0.  1.
</event>
<event>
 5   0  0.1346593E-03  0.1263813E+04  0.7818609E-02  0.9058765E-01
       -1   -1    0    0    0  501  0.00000000000E+00  0.00000000000E+00  0.91320008288E+03  0.91320008290E+03  0.50400001928E-02 0. -1.
        1   -1    0    0  501    0  0.00000000000E+00  0.00000000000E+00 -0.43725982891E+03  0.43725982894E+03  0.50400001928E-02 0.  1.
    10030    2    1    2    0    0  0.00000000000E+00  0.00000000000E+00  0.47594025397E+03  0.13504599118E+04  0.12638128216E+04 0.  0.
        2    1    3    3  502    0  0.61203721768E+03 -0.75065710919E+02  0.38557573752E+03  0.72725034627E+03  0.25500000920E-02 0.  1.
       -2    1    3    3    0  502 -0.61203721768E+03  0.75065710919E+02  0.90364516444E+02  0.62320956557E+03  0.25500000920E-02 0. -1.
</event>
<event>
 5   0  0.1310461E-03  0.1292514E+04  0.7818609E-02  0.9035523E-01
        1   -1    0    0  501    0  0.00000000000E+00  0.00000000000E+00  0.17956532055E+04  0.17956532055E+04  0.50400001928E-02 0.  1.
       -1   -1    0    0    0  501  0.00000000000E+00  0.00000000000E+00 -0.23258833076E+03  0.23258833082E+03  0.50400001928E-02 0. -1.
    10030    2    1    2    0    0  0.00000000000E+00  0.00000000000E+00  0.15630648747E+04  0.20282415363E+04  0.12925138015E+04 0.  0.
        4    1    3    3  502    0  0.25494365188E+03  0.11785592561E+02  0.17132213881E+04  0.17321271037E+04  0.12699999809E+01 0.  1.
       -4    1    3    3    0  502 -0.25494365188E+03 -0.11785592561E+02 -0.15015651333E+03  0.29611443265E+03  0.12699999809E+01 0. -1.
</event>
<event>
 5   0  0.2312105E-03  0.1296404E+04  0.7818609E-02  0.9032421E-01
       -2   -1    0    0    0  501  0.00000000000E+00  0.00000000000E+00  0.38843013936E+03  0.38843013937E+03  0.25500000920E-02 0. -1.
        2   -1    0    0  501    0  0.00000000000E+00  0.00000000000E+00 -0.10817032598E+04  0.10817032598E+04  0.25500000920E-02 0.  1.
    10030    2    1    2    0    0  0.00000000000E+00  0.00000000000E+00 -0.69327312048E+03  0.14701333992E+04  0.12964044862E+04 0.  0.
        5    1    3    3  502    0  0.34010385226E+03 -0.52470794054E+03 -0.15300650137E+03  0.64375626805E+03  0.46999998093E+01 0. -1.
       -5    1    3    3    0  502 -0.34010385226E+03  0.52470794054E+03 -0.54026661911E+03  0.82637713117E+03  0.46999998093E+01 0.  1.
</event>
<event>
 5   0  0.1387622E-03  0.1290166E+04  0.7818609E-02  0.9037400E-01
       -1   -1    0    0    0  501  0.00000000000E+00  0.00000000000E+00  0.45940649901E+03  0.45940649904E+03  0.50400001928E-02 0. -1.
        1   -1    0    0  501    0  0.00000000000E+00  0.00000000000E+00 -0.90580345889E+03  0.90580345890E+03  0.50400001928E-02 0.  1.
    10030    2    1    2    0    0  0.00000000000E+00  0.00000000000E+00 -0.44639695988E+03  0.13652099579E+04  0.12901658744E+04 0.  0.
        3    1    3    3  502    0  0.15025549949E+03  0.48870165864E+03 -0.63943050228E+03  0.81870471095E+03  0.10100000352E+00 0.  1.
       -3    1    3    3    0  502 -0.15025549949E+03 -0.48870165864E+03  0.19303354240E+03  0.54650524698E+03  0.10100000352E+00 0. -1.
</event>
<event>
 5   0  0.1324721E-03  0.1320099E+04  0.7818609E-02  0.9013776E-01
       -1   -1    0    0    0  501  0.00000000000E+00  0.00000000000E+00  0.84612737397E+03  0.84612737399E+03  0.50400001928E-02 0. -1.
        1   -1    0    0  501    0  0.00000000000E+00  0.00000000000E+00 -0.51489364300E+03  0.51489364302E+03  0.50400001928E-02 0.  1.
    10030    2    1    2    0    0  0.00000000000E+00  0.00000000000E+00  0.33123373097E+03  0.13610210170E+04  0.13200993994E+04 0.  0.
        1    1    3    3  502    0  0.66586184818E+02 -0.15579517276E+03 -0.49209235030E+03  0.52044282790E+03  0.50400001928E-02 0.  1.
       -1    1    3    3    0  502 -0.66586184818E+02  0.15579517276E+03  0.82332608128E+03  0.84057818911E+03  0.50400001928E-02 0. -1.
</event>
<event>
 5   0  0.2478236E-03  0.1636233E+04  0.7818609E-02  0.8798592E-01
        2   -1    0    0  501    0  0.00000000000E+00  0.00000000000E+00  0.18056217741E+04  0.18056217741E+04  0.25500000920E-02 0. -1.
       -2   -1    0    0    0  501  0.00000000000E+00  0.00000000000E+00 -0.37068392785E+03  0.37068392786E+03  0.25500000920E-02 0.  1.
    10030    2    1    2    0    0  0.00000000000E+00  0.00000000000E+00  0.14349378463E+04  0.21763057020E+04  0.16362334448E+04 0.  0.
        3    1    3    3  502    0  0.36255680975E+03  0.29667594278E+03 -0.17462161725E+03  0.49995677287E+03  0.10100000352E+00 0.  1.
       -3    1    3    3    0  502 -0.36255680975E+03 -0.29667594278E+03  0.16095594635E+04  0.16763489291E+04  0.10100000352E+00 0. -1.
</event>
<event>
 5   0  0.2312105E-03  0.1294991E+04  0.7818609E-02  0.9033547E-01
        2   -1    0    0  501    0  0.00000000000E+00  0.00000000000E+00  0.14343793486E+04  0.14343793486E+04  0.25500000920E-02 0. -1.
       -2   -1    0    0    0  501  0.00000000000E+00  0.00000000000E+00 -0.29228701372E+03  0.29228701373E+03  0.25500000920E-02 0.  1.
    10030    2    1    2    0    0  0.00000000000E+00  0.00000000000E+00  0.11420923349E+04  0.17266663623E+04  0.12949910523E+04 0.  0.
        5    1    3    3  502    0  0.19672019460E+03 -0.25081998292E+03  0.13224870291E+04  0.13603688951E+04  0.46999998093E+01 0. -1.
       -5    1    3    3    0  502 -0.19672019460E+03  0.25081998292E+03 -0.18039469418E+03  0.36629746721E+03  0.46999998093E+01 0.  1.
</event>
<event>
 5   0  0.1332630E-03  0.1230313E+04  0.7818609E-02  0.9086730E-01
       -1   -1    0    0    0  501  0.00000000000E+00  0.00000000000E+00  0.70765005200E+03  0.70765005202E+03  0.50400001928E-02 0.  1.
        1   -1    0    0  501    0  0.00000000000E+00  0.00000000000E+00 -0.53475232037E+03  0.53475232039E+03  0.50400001928E-02 0. -1.
    10030    2    1    2    0    0  0.00000000000E+00  0.00000000000E+00  0.17289773163E+03  0.12424023724E+04  0.12303129803E+04 0.  0.
        5    1    3    3  502    0 -0.87827438302E+02  0.23821858384E+03  0.65225234149E+03  0.69994068290E+03  0.46999998093E+01 0.  1.
       -5    1    3    3    0  502  0.87827438302E+02 -0.23821858384E+03 -0.47935460985E+03  0.54246168951E+03  0.46999998093E+01 0. -1.
</event>
<event>
 5   0  0.1346593E-03  0.1300380E+04  0.7818609E-02  0.9029264E-01
       -1   -1    0    0    0  501  0.00000000000E+00  0.00000000000E+00  0.77237349865E+03  0.77237349866E+03  0.50400001928E-02 0.  1.
        1   -1    0    0  501    0  0.00000000000E+00  0.00000000000E+00 -0.54733527707E+03  0.54733527709E+03  0.50400001928E-02 0. -1.
    10030    2    1    2    0    0  0.00000000000E+00  0.00000000000E+00  0.22503822158E+03  0.13197087758E+04  0.13003803488E+04 0.  0.
        2    1    3    3  502    0  0.17559777338E+03 -0.52350546627E+03 -0.23588332420E+03  0.60044441364E+03  0.25500000920E-02 0. -1.
       -2    1    3    3    0  502 -0.17559777338E+03  0.52350546627E+03  0.46092154578E+03  0.71926436211E+03  0.25500000920E-02 0.  1.
</event>
<event>
 5   0  0.2401211E-03  0.1310271E+04  0.7818609E-02  0.9021460E-01
        2   -1    0    0  501    0  0.00000000000E+00  0.00000000000E+00  0.39183052223E+03  0.39183052224E+03  0.25500000920E-02 0.  1.
       -2   -1    0    0    0  501  0.00000000000E+00  0.00000000000E+00 -0.10953773848E+04  0.10953773848E+04  0.25500000920E-02 0. -1.
    10030    2    1    2    0    0  0.00000000000E+00  0.00000000000E+00 -0.70354686255E+03  0.14872079070E+04  0.13102706480E+04 0.  0.
        4    1    3    3  502    0  0.28797117803E+03  0.42301785509E+03  0.11252424279E+03  0.52396070771E+03  0.12699999809E+01 0.  1.
       -4    1    3    3    0  502 -0.28797117803E+03 -0.42301785509E+03 -0.81607110534E+03  0.96324719931E+03  0.12699999809E+01 0. -1.
</event>
<event>
 5   0  0.2312105E-03  0.1307928E+04  0.7818609E-02  0.9023302E-01
       -2   -1    0    0    0  501  0.00000000000E+00  0.00000000000E+00  0.22054552626E+03  0.22054552628E+03  0.25500000920E-02 0.  1.
        2   -1    0    0  501    0  0.00000000000E+00  0.00000000000E+00 -0.19391405445E+04  0.19391405445E+04  0.25500000920E-02 0. -1.
    10030    2    1    2    0    0  0.00000000000E+00  0.00000000000E+00 -0.17185950183E+04  0.21596860708E+04  0.13079277838E+04 0.  0.
        5    1    3    3  502    0  0.30371884273E+03  0.50120429627E+03 -0.13384260871E+04  0.14611151093E+04  0.46999998093E+01 0. -1.
       -5    1    3    3    0  502 -0.30371884273E+03 -0.50120429627E+03 -0.38016893116E+03  0.69857096150E+03  0.46999998093E+01 0.  1.
</event>
<event>
 5   0  0.1324721E-03  0.1146362E+04  0.7818609E-02  0.9161146E-01
       -1   -1    0    0    0  501  0.00000000000E+00  0.00000000000E+00  0.98130808889E+03  0.98130808890E+03  0.50400001928E-02 0. -1.
        1   -1    0    0  501    0  0.00000000000E+00  0.00000000000E+00 -0.33479467997E+03  0.33479468000E+03  0.50400001928E-02 0.  1.
    10030    2    1    2    0    0  0.00000000000E+00  0.00000000000E+00  0.64651340893E+03  0.13161027689E+04  0.11463624690E+04 0.  0.
        1    1    3    3  502    0  0.22421739232E+03  0.52276507677E+03  0.40427459002E+03  0.69785006174E+03  0.50400001928E-02 0. -1.
       -1    1    3    3    0  502 -0.22421739232E+03 -0.52276507677E+03  0.24223881891E+03  0.61825270717E+03  0.50400001928E-02 0.  1.
</event>
<event>
 5   0  0.2361043E-03  0.1321694E+04  0.7818609E-02  0.9012537E-01
        2   -1    0    0  501    0  0.00000000000E+00  0.00000000000E+00  0.10549444524E+04  0.10549444524E+04  0.25500000920E-02 0.  1.
       -2   -1    0    0    0  501  0.00000000000E+00  0.00000000000E+00 -0.41397307587E+03  0.41397307588E+03  0.25500000920E-02 0. -1.
    10030    2    1    2    0    0  0.00000000000E+00  0.00000000000E+00  0.64097137652E+03  0.14689175283E+04  0.13216937616E+04 0.  0.
        2    1    3    3  502    0  0.12863297741E+03 -0.21997187877E+03 -0.35717490269E+03  0.43875731498E+03  0.25500000920E-02 0. -1.
       -2    1    3    3    0  502 -0.12863297741E+03  0.21997187877E+03  0.99814627921E+03  0.10301602133E+04  0.25500000920E-02 0.  1.
</event>
<event>
 5   0  0.1346593E-03  0.1309491E+04  0.7818609E-02  0.9022073E-01
        1   -1    0    0  501    0  0.00000000000E+00  0.00000000000E+00  0.61504849462E+03  0.61504849464E+03  0.50400001928E-02 0.  1.
       -1   -1    0    0    0  501  0.00000000000E+00  0.00000000000E+00 -0.69700438369E+03  0.69700438371E+03  0.50400001928E-02 0. -1.
    10030    2    1    2    0    0  0.00000000000E+00  0.00000000000E+00 -0.81955889075E+02  0.13120528783E+04  0.13094907361E+04 0.  0.
        2    1    3    3  502    0  0.17813012093E+03  0.52233431813E+03  0.31202946139E+03  0.63397623351E+03  0.25500000920E-02 0. -1.
       -2    1    3    3    0  502 -0.17813012093E+03 -0.52233431813E+03 -0.39398535046E+03  0.67807664483E+03  0.25500000920E-02 0.  1.
</event>
<event>
 5   0  0.2334946E-03  0.1355236E+04  0.7818609E-02  0.8986874E-01
       -2   -1    0    0    0  501  0.00000000000E+00  0.00000000000E+00  0.88355723454E+03  0.88355723454E+03  0.25500000920E-02 0. -1.
        2   -1    0    0  501    0  0.00000000000E+00  0.00000000000E+00 -0.51967917561E+03  0.51967917562E+03  0.25500000920E-02 0.  1.
    10030    2    1    2    0    0  0.00000000000E+00  0.00000000000E+00  0.36387805893E+03  0.14032364102E+04  0.13552362086E+04 0.  0.
        1    1    3    3  502    0  0.36464034357E+03  0.33603385530E+03 -0.29624599131E+03  0.57761840298E+03  0.50400001928E-02 0.  1.
       -1    1    3    3    0  502 -0.36464034357E+03 -0.33603385530E+03  0.66012405024E+03  0.82561800719E+03  0.50400001928E-02 0. -1.
</event>
<event>
 5   0  0.1324721E-03  0.1298978E+04  0.7818609E-02  0.9030376E-01
       -1   -1    0    0    0  501  0.00000000000E+00  0.00000000000E+00  0.61522335479E+03  0.61522335481E+03  0.50400001928E-02 0. -1.
        1   -1    0    0  501    0  0.00000000000E+00  0.00000000000E+00 -0.68566266744E+03  0.68566266746E+03  0.50400001928E-02 0.  1.
    10030    2    1    2    0    0  0.00000000000E+00  0.00000000000E+00 -0.70439312649E+02  0.13008860223E+04  0.12989775772E+04 0.  0.
        1    1    3    3  502    0  0.44253551139E+03  0.36863942871E+02  0.43943771195E+03  0.62474165207E+03  0.50400001928E-02 0. -1.
       -1    1    3    3    0  502 -0.44253551139E+03 -0.36863942871E+02 -0.50987702460E+03  0.67614437021E+03  0.50400001928E-02 0.  1.
</event>
<event>
 5   0  0.1387622E-03  0.1296269E+04  0.7818609E-02  0.9032529E-01
        1   -1    0    0  501    0  0.00000000000E+00  0.00000000000E+00  0.12058613459E+04  0.12058613459E+04  0.50400001928E-02 0. -1.
       -1   -1    0    0    0  501  0.00000000000E+00  0.00000000000E+00 -0.34836381604E+03  0.34836381608E+03  0.50400001928E-02 0.  1.
    10030    2    1    2    0    0  0.00000000000E+00  0.00000000000E+00  0.85749752989E+03  0.15542251620E+04  0.12962692006E+04 0.  0.
        3    1    3    3  502    0  0.45333133441E+03 -0.41897248595E+03  0.19187076626E+03  0.64642218703E+03  0.10100000352E+00 0.  1.
       -3    1    3    3    0  502 -0.45333133441E+03  0.41897248595E+03  0.66562676363E+03  0.90780297499E+03  0.10100000352E+00 0. -1.
</event>
<event>
 5   0  0.2401211E-03  0.1298086E+04  0.7818609E-02  0.9031084E-01
       -2   -1    0    0    0  501  0.00000000000E+00  0.00000000000E+00  0.33119296218E+03  0.33119296219E+03  0.25500000920E-02 0. -1.
        2   -1    0    0  501    0  0.00000000000E+00  0.00000000000E+00 -0.12719373559E+04  0.12719373559E+04  0.25500000920E-02 0.  1.
    10030    2    1    2    0    0  0.00000000000E+00  0.00000000000E+00 -0.94074439374E+03  0.16031303181E+04  0.12980858225E+04 0.  0.
        4    1    3    3  502    0 -0.63955974231E+03 -0.68321664339E+02 -0.36305843911E+03  0.73859160361E+03  0.12699999809E+01 0. -1.
       -4    1    3    3    0  502  0.63955974231E+03  0.68321664339E+02 -0.57768595462E+03  0.86453871450E+03  0.12699999809E+01 0.  1.
</event>
<event>
 5   0  0.2334946E-03  0.1290816E+04  0.7818609E-02  0.9036880E-01
       -2   -1    0    0    0  501  0.00000000000E+00  0.00000000000E+00  0.44093969215E+03  0.44093969216E+03  0.25500000920E-02 0.  1.
        2   -1    0    0  501    0  0.00000000000E+00  0.00000000000E+00 -0.94469010376E+03  0.94469010376E+03  0.25500000920E-02 0. -1.
    10030    2    1    2    0    0  0.00000000000E+00  0.00000000000E+00 -0.50375041161E+03  0.13856297959E+04  0.12908158095E+04 0.  0.
        1    1    3    3  502    0 -0.99748327154E+02  0.46201864111E+03 -0.72363346505E+03  0.86432421306E+03  0.50400001928E-02 0. -1.
       -1    1    3    3    0  502  0.99748327154E+02 -0.46201864111E+03  0.21988305344E+03  0.52130558286E+03  0.50400001928E-02 0.  1.
</event>
<event>
 5   0  0.9131250E-04  0.1288148E+04  0.7818609E-02  0.9039017E-01
       -4   -1    0    0    0  501  0.00000000000E+00  0.00000000000E+00  0.66376501458E+03  0.66376622954E+03  0.12699999809E+01 0. -1.
        4   -1    0    0  501    0  0.00000000000E+00  0.00000000000E+00 -0.62496446365E+03  0.62496575405E+03  0.12699999809E+01 0.  1.
    10030    2    1    2    0    0  0.00000000000E+00  0.00000000000E+00  0.38800550925E+02  0.12887319836E+04  0.12881477566E+04 0.  0.
        2    1    3    3  502    0 -0.21940458446E+03 -0.57506586952E+03 -0.17040143633E+03  0.63865152899E+03  0.25500000920E-02 0.  1.
       -2    1    3    3    0  502  0.21940458446E+03  0.57506586952E+03  0.20920198726E+03  0.65008045460E+03  0.25500000920E-02 0. -1.
</event>
<event>
 5   0  0.1310461E-03  0.1272892E+04  0.7818609E-02  0.9051343E-01
        1   -1    0    0  501    0  0.00000000000E+00  0.00000000000E+00  0.29642719082E+03  0.29642719087E+03  0.50400001928E-02 0.  1.
       -1   -1    0    0    0  501  0.00000000000E+00  0.00000000000E+00 -0.13664858019E+04  0.13664858019E+04  0.50400001928E-02 0. -1.
    10030    2    1    2    0    0  0.00000000000E+00  0.00000000000E+00 -0.10700586111E+04  0.16629129928E+04  0.12728920577E+04 0.  0.
        4    1    3    3  502    0 -0.32801289576E+03 -0.24614014047E+03 -0.11708670105E+04  0.12406081564E+04  0.12699999809E+01 0. -1.
       -4    1    3    3    0  502  0.32801289576E+03  0.24614014047E+03  0.10080839942E+03  0.42230483638E+03  0.12699999809E+01 0.  1.
</event>
<event>
 5   0  0.1332630E-03  0.1329525E+04  0.7818609E-02  0.9006474E-01
       -1   -1    0    0    0  501  0.00000000000E+00  0.00000000000E+00  0.10958349294E+04  0.10958349294E+04  0.50400001928E-02 0.  1.
        1   -1    0    0  501    0  0.00000000000E+00  0.00000000000E+00 -0.40326244360E+03  0.40326244364E+03  0.50400001928E-02 0. -1.
    10030    2    1    2    0    0  0.00000000000E+00  0.00000000000E+00  0.69257248576E+03  0.14990973730E+04  0.13295248346E+04 0.  0.
        5    1    3    3  502    0 -0.13883429660E+01  0.17459467083E+03  0.10694996340E+04  0.10836682074E+04  0.46999998093E+01 0.  1.
       -5    1    3    3    0  502  0.13883429660E+01 -0.17459467083E+03 -0.37692714824E+03  0.41542916563E+03  0.46999998093E+01 0. -1.
</event>
<event>
 5   0  0.2361043E-03  0.1293296E+04  0.7818609E-02  0.9034898E-01
       -2   -1    0    0    0  501  0.00000000000E+00  0.00000000000E+00  0.10196335787E+04  0.10196335787E+04  0.25500000920E-02 0. -1.
        2   -1    0    0  501    0  0.00000000000E+00  0.00000000000E+00 -0.41010183807E+03  0.41010183807E+03  0.25500000920E-02 0.  1.
    10030    2    1    2    0    0  0.00000000000E+00  0.00000000000E+00  0.60953174063E+03  0.14297354168E+04  0.12932959519E+04 0.  0.
        2    1    3    3  502    0 -0.11613109021E+03 -0.56579053107E+03  0.62621338162E+03  0.85190877122E+03  0.25500000920E-02 0. -1.
       -2    1    3    3    0  502  0.11613109021E+03  0.56579053107E+03 -0.16681640980E+02  0.57782664556E+03  0.25500000920E-02 0.  1.
</event>
<event>
 5   0  0.1310461E-03  0.1285721E+04  0.7818609E-02  0.9040966E-01
        1   -1    0    0  501    0  0.00000000000E+00  0.00000000000E+00  0.61720284050E+03  0.61720284052E+03  0.50400001928E-02 0.  1.
       -1   -1    0    0    0  501  0.00000000000E+00  0.00000000000E+00 -0.66958429684E+03  0.66958429686E+03  0.50400001928E-02 0. -1.
    10030    2    1    2    0    0  0.00000000000E+00  0.00000000000E+00 -0.52381456332E+02  0.12867871374E+04  0.12857205450E+04 0.  0.
        4    1    3    3  502    0  0.20066153897E+03 -0.61005703637E+03 -0.55077732300E+02  0.64456947673E+03  0.12699999809E+01 0. -1.
       -4    1    3    3    0  502 -0.20066153897E+03  0.61005703637E+03  0.26962759676E+01  0.64221766065E+03  0.12699999809E+01 0.  1.
</event>
<event>
 5   0  0.2312105E-03  0.1286982E+04  0.7818609E-02  0.9039953E-01
        2   -1    0    0  501    0  0.00000000000E+00  0.00000000000E+00  0.13946874567E+04  0.13946874567E+04  0.25500000920E-02 0.  1.
       -2   -1    0    0    0  501  0.00000000000E+00  0.00000000000E+00 -0.29689842681E+03  0.29689842683E+03  0.25500000920E-02 0. -1.
    10030    2    1    2    0    0  0.00000000000E+00  0.00000000000E+00  0.10977890299E+04  0.16915858835E+04  0.12869817587E+04 0.  0.
        5    1    3    3  502    0 -0.55207828930E+03 -0.81891473995E+02  0.96982891215E+03  0.11189668717E+04  0.46999998093E+01 0.  1.
       -5    1    3    3    0  502  0.55207828930E+03  0.81891473995E+02  0.12796011773E+03  0.57261901187E+03  0.46999998093E+01 0. -1.
</event>
<event>
 5   0  0.1332630E-03  0.1222026E+04  0.7818609E-02  0.9093793E-01
        1   -1    0    0  501    0  0.00000000000E+00  0.00000000000E+00  0.37617860291E+03  0.37617860295E+03  0.50400001928E-02 0. -1.
       -1   -1    0    0    0  501  0.00000000000E+00  0.00000000000E+00 -0.99244544275E+03  0.99244544276E+03  0.50400001928E-02 0.  1.
    10030    2    1    2    0    0  0.00000000000E+00  0.00000000000E+00 -0.61626683984E+03  0.13686240457E+04  0.12220257610E+04 0.  0.
        5    1    3    3  502    0  0.42001318340E+02 -0.60603665330E+03 -0.38131866864E+03  0.71726602662E+03  0.46999998093E+01 0. -1.
       -5    1    3    3    0  502 -0.42001318340E+02  0.60603665330E+03 -0.23494817120E+03  0.65135801909E+03  0.46999998093E+01 0.  1.
</event>
<event>
 5   0  0.1324721E-03  0.1299029E+04  0.7818609E-02  0.9030336E-01
        1   -1    0    0  501    0  0.00000000000E+00  0.00000000000E+00  0.13581630381E+04  0.13581630381E+04  0.50400001928E-02 0. -1.
       -1   -1    0    0    0  501  0.00000000000E+00  0.00000000000E+00 -0.31061729978E+03  0.31061729982E+03  0.50400001928E-02 0.  1.
    10030    2    1    2    0    0  0.00000000000E+00  0.00000000000E+00  0.10475457383E+04  0.16687803379E+04  0.12990287689E+04 0.  0.
        1    1    3    3  502    0  0.22172547224E+03  0.38119181940E+03  0.11363703447E+04  0.12189368107E+04  0.50400001928E-02 0. -1.
       -1    1    3    3    0  502 -0.22172547224E+03 -0.38119181940E+03 -0.88824606384E+02  0.44984352718E+03  0.50400001928E-02 0.  1.
</event>
<event>
 5   0  0.2361043E-03  0.1307566E+04  0.7818609E-02  0.9023587E-01
       -2   -1    0    0    0  501  0.00000000000E+00  0.00000000000E+00  0.16357243752E+03  0.16357243754E+03  0.25500000920E-02 0. -1.
        2   -1    0    0  501    0  0.00000000000E+00  0.00000000000E+00 -0.26131065258E+04  0.26131065258E+04  0.25500000920E-02 0.  1.
    10030    2    1    2    0    0  0.00000000000E+00  0.00000000000E+00 -0.24495340883E+04  0.27766789634E+04  0.13075659891E+04 0.  0.
        2    1    3    3  502    0 -0.33009609447E+03  0.42979523224E+03 -0.44816137419E+03  0.70323252951E+03  0.25500000920E-02 0. -1.
       -2    1    3    3    0  502  0.33009609447E+03 -0.42979523224E+03 -0.20013727141E+04  0.20734464339E+04  0.25500000920E-02 0.  1.
</event>
<event>
 5   0  0.1332630E-03  0.1304212E+04  0.7818609E-02  0.9026231E-01
       -1   -1    0    0    0  501  0.00000000000E+00  0.00000000000E+00  0.29629215803E+03  0.29629215808E+03  0.50400001928E-02 0. -1.
        1   -1    0    0  501    0  0.00000000000E+00  0.00000000000E+00 -0.14352131196E+04  0.14352131196E+04  0.50400001928E-02 0.  1.
    10030    2    1    2    0    0  0.00000000000E+00  0.00000000000E+00 -0.11389209616E+04  0.17315052777E+04  0.13042122412E+04 0.  0.
        5    1    3    3  502    0  0.39070699813E+02 -0.25314762895E+03 -0.13656041835E+04  0.13894269026E+04  0.46999998093E+01 0.  1.
       -5    1    3    3    0  502 -0.39070699813E+02  0.25314762895E+03  0.22668322192E+03  0.34207837512E+03  0.46999998093E+01 0. -1.
</event>
<event>
 5   0  0.2334946E-03  0.1299157E+04  0.7818609E-02  0.9030234E-01
       -2   -1    0    0    0  501  0.00000000000E+00  0.00000000000E+00  0.16886081466E+03  0.16886081468E+03  0.25500000920E-02 0.  1.
        2   -1    0    0  501    0  0.00000000000E+00  0.00000000000E+00 -0.24988164022E+04  0.24988164022E+04  0.25500000920E-02 0. -1.
    10030    2    1    2    0    0  0.00000000000E+00  0.00000000000E+00 -0.23299555876E+04  0.26676772169E+04  0.12991569165E+04 0.  0.
        1    1    3    3  502    0  0.25782556787E+03 -0.48516748420E+03 -0.45339360472E+03  0.71233929556E+03  0.50400001928E-02 0.  1.
       -1    1    3    3    0  502 -0.25782556787E+03  0.48516748420E+03 -0.18765619829E+04  0.19553379214E+04  0.50400001928E-02 0. -1.
</event>
<event>
 5   0  0.1324721E-03  0.1250005E+04  0.7818609E-02  0.9070179E-01
       -1   -1    0    0    0  501  0.00000000000E+00  0.00000000000E+00  0.16908677435E+03  0.16908677442E+03  0.50400001928E-02 0.  1.
        1   -1    0    0  501    0  0.00000000000E+00  0.00000000000E+00 -0.23102235457E+04  0.23102235457E+04  0.50400001928E-02 0. -1.
    10030    2    1    2    0    0  0.00000000000E+00  0.00000000000E+00 -0.21411367713E+04  0.24793103201E+04  0.12500051959E+04 0.  0.
        1    1    3    3  502    0 -0.60768024188E+03 -0.12917006760E+03 -0.12060834275E+04  0.13566861895E+04  0.50400001928E-02 0. -1.
       -1    1    3    3    0  502  0.60768024188E+03  0.12917006760E+03 -0.93505334387E+03  0.11226241306E+04  0.50400001928E-02 0.  1.
</event>
<event>
 5   0  0.1346593E-03  0.1295778E+04  0.7818609E-02  0.9032920E-01
       -1   -1    0    0    0  501  0.00000000000E+00  0.00000000000E+00  0.92073438616E+03  0.92073438618E+03  0.50400001928E-02 0. -1.
        1   -1    0    0  501    0  0.00000000000E+00  0.00000000000E+00 -0.45589743173E+03  0.45589743176E+03  0.50400001928E-02 0.  1.
    10030    2    1    2    0    0  0.00000000000E+00  0.00000000000E+00  0.46483695443E+03  0.13766318179E+04  0.12957784409E+04 0.  0.
        2    1    3    3  502    0 -0.28352826279E+03 -0.26350738888E+03  0.78439102040E+03  0.87469634313E+03  0.25500000920E-02 0. -1.
       -2    1    3    3    0  502  0.28352826279E+03  0.26350738888E+03 -0.31955406596E+03  0.50193547481E+03  0.25500000920E-02 0.  1.
</event>
<event>
 5   0  0.2401211E-03  0.1288084E+04  0.7818609E-02  0.9039069E-01
        2   -1    0    0  501    0  0.00000000000E+00  0.00000000000E+00  0.16422614435E+04  0.16422614435E+04  0.25500000920E-02 0. -1.
       -2   -1    0    0    0  501  0.00000000000E+00  0.00000000000E+00 -0.25257233333E+03  0.25257233334E+03  0.25500000920E-02 0.  1.
    10030    2    1    2    0    0  0.00000000000E+00  0.00000000000E+00  0.13896891102E+04  0.18948337769E+04  0.12880835450E+04 0.  0.
        4    1    3    3  502    0  0.47225665143E+03 -0.59703543226E+02  0.13330107853E+04  0.14154540701E+04  0.12699999809E+01 0. -1.
       -4    1    3    3    0  502 -0.47225665143E+03  0.59703543226E+02  0.56678324939E+02  0.47937970682E+03  0.12699999809E+01 0.  1.
</event>
<event>
 5   0  0.2361043E-03  0.1143987E+04  0.7818609E-02  0.9163349E-01
        2   -1    0    0  501    0  0.00000000000E+00  0.00000000000E+00  0.40467128307E+03  0.40467128308E+03  0.25500000920E-02 0.  1.
       -2   -1    0    0    0  501  0.00000000000E+00  0.00000000000E+00 -0.80849918745E+03  0.80849918746E+03  0.25500000920E-02 0. -1.
    10030    2    1    2    0    0  0.00000000000E+00  0.00000000000E+00 -0.40382790438E+03  0.12131704705E+04  0.11439867194E+04 0.  0.
        2    1    3    3  502    0 -0.19706719485E+03  0.50245473752E+03 -0.10379578345E+01  0.53971966789E+03  0.25500000920E-02 0.  1.
       -2    1    3    3    0  502  0.19706719485E+03 -0.50245473752E+03 -0.40278994654E+03  0.67345080265E+03  0.25500000920E-02 0. -1.
</event>
<event>
 5   0  0.2401211E-03  0.1274707E+04  0.7818609E-02  0.9049867E-01
        2   -1    0    0  501    0  0.00000000000E+00  0.00000000000E+00  0.48037636938E+03  0.48037636939E+03  0.25500000920E-02 0.  1.
       -2   -1    0    0    0  501  0.00000000000E+00  0.00000000000E+00 -0.84562687090E+03  0.84562687090E+03  0.25500000920E-02 0. -1.
    10030    2    1    2    0    0  0.00000000000E+00  0.00000000000E+00 -0.36525050152E+03  0.13260032403E+04  0.12747065013E+04 0.  0.
        4    1    3    3  502    0  0.50630648615E+03  0.28764217072E+02  0.21897271990E+03  0.55238057810E+03  0.12699999809E+01 0.  1.
       -4    1    3    3    0  502 -0.50630648615E+03 -0.28764217072E+02 -0.58422322142E+03  0.77362266219E+03  0.12699999809E+01 0. -1.
</event>
<event>
 5   0  0.1346593E-03  0.1325566E+04  0.7818609E-02  0.9009533E-01
        1   -1    0    0  501    0  0.00000000000E+00  0.00000000000E+00  0.75267712632E+03  0.75267712633E+03  0.50400001928E-02 0.  1.
       -1   -1    0    0    0  501  0.00000000000E+00  0.00000000000E+00 -0.58362502298E+03  0.58362502300E+03  0.50400001928E-02 0. -1.
    10030    2    1    2    0    0  0.00000000000E+00  0.00000000000E+00  0.16905210334E+03  0.13363021493E+04  0.13255658492E+04 0.  0.
        2    1    3    3  502    0 -0.12038709144E+03  0.55221510239E+03  0.43351870186E+03  0.71230122558E+03  0.25500000920E-02 0.  1.
       -2    1    3    3    0  502  0.12038709144E+03 -0.55221510239E+03 -0.26446659853E+03  0.62400092375E+03  0.25500000920E-02 0. -1.
</event>
<event>
 5   0  0.2334946E-03  0.1307264E+04  0.7818609E-02  0.9023825E-01
       -2   -1    0    0    0  501  0.00000000000E+00  0.00000000000E+00  0.43228947250E+03  0.43228947250E+03  0.25500000920E-02 0. -1.
        2   -1    0    0  501    0  0.00000000000E+00  0.00000000000E+00 -0.98830649154E+03  0.98830649154E+03  0.25500000920E-02 0.  1.
    10030    2    1    2    0    0  0.00000000000E+00  0.00000000000E+00 -0.55601701905E+03  0.14205959640E+04  0.13072635418E+04 0.  0.
        1    1    3    3  502    0  0.50752485180E+02 -0.30971433107E+03  0.34505292261E+03  0.46643359768E+03  0.50400001928E-02 0. -1.
       -1    1    3    3    0  502 -0.50752485180E+02  0.30971433107E+03 -0.90106994165E+03  0.95416236637E+03  0.50400001928E-02 0.  1.
</event>
<event>
 5   0  0.1310461E-03  0.1292853E+04  0.7818609E-02  0.9035252E-01
       -1   -1    0    0    0  501  0.00000000000E+00  0.00000000000E+00  0.65442595406E+03  0.65442595408E+03  0.50400001928E-02 0. -1.
        1   -1    0    0  501    0  0.00000000000E+00  0.00000000000E+00 -0.63852476397E+03  0.63852476399E+03  0.50400001928E-02 0.  1.
    10030    2    1    2    0    0  0.00000000000E+00  0.00000000000E+00  0.15901190089E+02  0.12929507181E+04  0.12928529350E+04 0.  0.
        4    1    3    3  502    0 -0.29888335965E+03  0.10046260533E+03 -0.55639835622E+03  0.63953478518E+03  0.12699999809E+01 0.  1.
       -4    1    3    3    0  502  0.29888335965E+03 -0.10046260533E+03  0.57229954631E+03  0.65341593289E+03  0.12699999809E+01 0. -1.
</event>
<event>
 5   0  0.1346593E-03  0.1300008E+04  0.7818609E-02  0.9029559E-01
        1   -1    0    0  501    0  0.00000000000E+00  0.00000000000E+00  0.20121927338E+04  0.20121927338E+04  0.50400001928E-02 0.  1.
       -1   -1    0    0    0  501  0.00000000000E+00  0.00000000000E+00 -0.20997246322E+03  0.20997246328E+03  0.50400001928E-02 0. -1.
    10030    2    1    2    0    0  0.00000000000E+00  0.00000000000E+00  0.18022202706E+04  0.22221651971E+04  0.13000077921E+04 0.  0.
        2    1    3    3  502    0  0.18183016005E+03 -0.54588513765E+03  0.38418501069E+03  0.69184601832E+03  0.25500000920E-02 0.  1.
       -2    1    3    3    0  502 -0.18183016005E+03  0.54588513765E+03  0.14180352599E+04  0.15303191788E+04  0.25500000920E-02 0. -1.
</event>
<event>
 5   0  0.1324721E-03  0.1328550E+04  0.7818609E-02  0.9007227E-01
        1   -1    0    0  501    0  0.00000000000E+00  0.00000000000E+00  0.95321864492E+03  0.95321864493E+03  0.50400001928E-02 0. -1.
       -1   -1    0    0    0  501  0.00000000000E+00  0.00000000000E+00 -0.46291683392E+03  0.46291683395E+03  0.50400001928E-02 0.  1.
    10030    2    1    2    0    0  0.00000000000E+00  0.00000000000E+00  0.49030181100E+03  0.14161354789E+04  0.13285495206E+04 0.  0.
        1    1    3    3  502    0  0.73325851591E+02 -0.49343152577E+03  0.71271422315E+03  0.86994994974E+03  0.50400001928E-02 0. -1.
       -1    1    3    3    0  502 -0.73325851591E+02  0.49343152577E+03 -0.22241241215E+03  0.54618552914E+03  0.50400001928E-02 0.  1.
</event>
<event>
 5   0  0.2334946E-03  0.1314708E+04  0.7818609E-02  0.9017982E-01
        2   -1    0    0  501    0  0.00000000000E+00  0.00000000000E+00  0.55784208350E+03  0.55784208351E+03  0.25500000920E-02 0. -1.
       -2   -1    0    0    0  501  0.00000000000E+00  0.00000000000E+00 -0.77461767258E+03  0.77461767258E+03  0.25500000920E-02 0.  1.
    10030    2    1    2    0    0  0.00000000000E+00  0.00000000000E+00 -0.21677558907E+03  0.13324597561E+04  0.13147080838E+04 0.  0.
        1    1    3    3  502    0 -0.65161734635E+03 -0.25195791432E+01 -0.20599403347E+02  0.65194773547E+03  0.50400001928E-02 0. -1.
       -1    1    3    3    0  502  0.65161734635E+03  0.25195791432E+01 -0.19617618573E+03  0.68051202062E+03  0.50400001928E-02 0.  1.
</event>
<event>
 5   0  0.1324721E-03  0.1128824E+04  0.7818609E-02  0.9177545E-01
       -1   -1    0    0    0  501  0.00000000000E+00  0.00000000000E+00  0.31026806009E+03  0.31026806013E+03  0.50400001928E-02 0. -1.
        1   -1    0    0  501    0  0.00000000000E+00  0.00000000000E+00 -0.10267273685E+04  0.10267273685E+04  0.50400001928E-02 0.  1.
    10030    2    1    2    0    0  0.00000000000E+00  0.00000000000E+00 -0.71645930838E+03  0.13369954286E+04  0.11288236512E+04 0.  0.
        1    1    3    3  502    0 -0.26057667342E+03  0.42246017170E+03 -0.67645594342E+03  0.83902648517E+03  0.50400001928E-02 0.  1.
       -1    1    3    3    0  502  0.26057667342E+03 -0.42246017170E+03 -0.40003364966E+02  0.49796894345E+03  0.50400001928E-02 0. -1.
</event>
<event>
 5   0  0.1332630E-03  0.1303483E+04  0.7818609E-02  0.9026808E-01
       -1   -1    0    0    0  501  0.00000000000E+00  0.00000000000E+00  0.43735600548E+03  0.43735600550E+03  0.50400001928E-02 0. -1.
        1   -1    0    0  501    0  0.00000000000E+00  0.00000000000E+00 -0.97121504779E+03  0.97121504780E+03  0.50400001928E-02 0.  1.
    10030    2    1    2    0    0  0.00000000000E+00  0.00000000000E+00 -0.53385904231E+03  0.14085710533E+04  0.13034826179E+04 0.  0.
        5    1    3    3  502    0 -0.60870510925E+03  0.15180370627E+03 -0.76119926889E+02  0.63196725274E+03  0.46999998093E+01 0. -1.
       -5    1    3    3    0  502  0.60870510925E+03 -0.15180370627E+03 -0.45773911542E+03  0.77660380057E+03  0.46999998093E+01 0.  1.
</event>
<event>
 5   0  0.1387622E-03  0.1275802E+04  0.7818609E-02  0.9048978E-01
        1   -1    0    0  501    0  0.00000000000E+00  0.00000000000E+00  0.30462066639E+03  0.30462066643E+03  0.50400001928E-02 0. -1.
       -1   -1    0    0    0  501  0.00000000000E+00  0.00000000000E+00 -0.13358174099E+04  0.13358174099E+04  0.50400001928E-02 0.  1.
    10030    2    1    2    0    0  0.00000000000E+00  0.00000000000E+00 -0.10311967435E+04  0.16404380763E+04  0.12758018492E+04 0.  0.
        3    1    3    3  502    0  0.44036652626E+03 -0.39693605360E+03 -0.81834212203E+03  0.10105269650E+04  0.10100000352E+00 0. -1.
       -3    1    3    3    0  502 -0.44036652626E+03  0.39693605360E+03 -0.21285462148E+03  0.62991111133E+03  0.10100000352E+00 0.  1.
</event>
<event>
 5   0  0.2361043E-03  0.1268812E+04  0.7818609E-02  0.9054670E-01
        2   -1    0    0  501    0  0.00000000000E+00  0.00000000000E+00  0.85941334375E+03  0.85941334376E+03  0.25500000920E-02 0. -1.
       -2   -1    0    0    0  501  0.00000000000E+00  0.00000000000E+00 -0.46830883949E+03  0.46830883949E+03  0.25500000920E-02 0.  1.
    10030    2    1    2    0    0  0.00000000000E+00  0.00000000000E+00  0.39110450427E+03  0.13277221832E+04  0.12688118311E+04 0.  0.
        2    1    3    3  502    0  0.27101895846E+03  0.57341851048E+03  0.18035913144E+03  0.65938568403E+03  0.25500000920E-02 0.  1.
       -2    1    3    3    0  502 -0.27101895846E+03 -0.57341851048E+03  0.21074537283E+03  0.66833649921E+03  0.25500000920E-02 0. -1.
</event>
<event>
 5   0  0.2361043E-03  0.1284581E+04  0.7818609E-02  0.9041883E-01
       -2   -1    0    0    0  501  0.00000000000E+00  0.00000000000E+00  0.19476332013E+03  0.19476332014E+03  0.25500000920E-02 0.  1.
        2   -1    0    0  501    0  0.00000000000E+00  0.00000000000E+00 -0.21181460093E+04  0.21181460093E+04  0.25500000920E-02 0. -1.
    10030    2    1    2    0    0  0.00000000000E+00  0.00000000000E+00 -0.19233826892E+04  0.23129093294E+04  0.12845810980E+04 0.  0.
        2    1    3    3  502    0 -0.28490397282E+03  0.43337234141E+03 -0.27949925382E+03  0.58915336961E+03  0.25500000920E-02 0.  1.
       -2    1    3    3    0  502  0.28490397282E+03 -0.43337234141E+03 -0.16438834353E+04  0.17237559598E+04  0.25500000920E-02 0. -1.
</event>
<event>
 5   0  0.2401211E-03  0.1277012E+04  0.7818609E-02  0.9047996E-01
       -2   -1    0    0    0  501  0.00000000000E+00  0.00000000000E+00  0.25301847153E+03  0.25301847154E+03  0.25500000920E-02 0. -1.
        2   -1    0    0  501    0  0.00000000000E+00  0.00000000000E+00 -0.16113047656E+04  0.16113047656E+04  0.25500000920E-02 0.  1.
    10030    2    1    2    0    0  0.00000000000E+00  0.00000000000E+00 -0.13582862940E+04  0.18643232371E+04  0.12770119325E+04 0.  0.
        4    1    3    3  502    0 -0.32121916602E+03 -0.26050061665E+03  0.31048858282E+02  0.41473843371E+03  0.12699999809E+01 0. -1.
       -4    1    3    3    0  502  0.32121916602E+03  0.26050061665E+03 -0.13893351523E+04  0.14495848034E+04  0.12699999809E+01 0.  1.
</event>
<event>
 5   0  0.1332630E-03  0.1283977E+04  0.7818609E-02  0.9042369E-01
       -1   -1    0    0    0  501  0.00000000000E+00  0.00000000000E+00  0.52555505743E+03  0.52555505745E+03  0.50400001928E-02 0.  1.
        1   -1    0    0  501    0  0.00000000000E+00  0.00000000000E+00 -0.78421741074E+03  0.78421741076E+03  0.50400001928E-02 0. -1.
    10030    2    1    2    0    0  0.00000000000E+00  0.00000000000E+00 -0.25866235332E+03  0.13097724682E+04  0.12839772994E+04 0.  0.
        5    1    3    3  502    0 -0.48666367975E+03  0.41822555344E+03 -0.10962506376E+03  0.65099454325E+03  0.46999998093E+01 0.  1.
       -5    1    3    3    0  502  0.48666367975E+03 -0.41822555344E+03 -0.14903728956E+03  0.65877792496E+03  0.46999998093E+01 0. -1.
</event>
<event>
 5   0  0.1387622E-03  0.1305914E+04  0.7818609E-02  0.9024889E-01
       -1   -1    0    0    0  501  0.00000000000E+00  0.00000000000E+00  0.58323503123E+03  0.58323503126E+03  0.50400001928E-02 0.  1.
        1   -1    0    0  501    0  0.00000000000E+00  0.00000000000E+00 -0.73101333808E+03  0.73101333810E+03  0.50400001928E-02 0. -1.
    10030    2    1    2    0    0  0.00000000000E+00  0.00000000000E+00 -0.14777830685E+03  0.13142483694E+04  0.13059136068E+04 0.  0.
        3    1    3    3  502    0  0.33756816603E+03  0.49343060929E+03  0.19032510545E+03  0.62741508499E+03  0.10100000352E+00 0.  1.
       -3    1    3    3    0  502 -0.33756816603E+03 -0.49343060929E+03 -0.33810341230E+03  0.68683328437E+03  0.10100000352E+00 0. -1.
</event>
<event>
 5   0  0.1310461E-03  0.1003460E+04  0.7818609E-02  0.9304758E-01
        1   -1    0    0  501    0  0.00000000000E+00  0.00000000000E+00  0.88877480109E+03  0.88877480110E+03  0.50400001928E-02 0.  1.
       -1   -1    0    0    0  501  0.00000000000E+00  0.00000000000E+00 -0.28323601599E+03  0.28323601604E+03  0.50400001928E-02 0. -1.
    10030    2    1    2    0    0  0.00000000000E+00  0.00000000000E+00  0.60553878509E+03  0.11720108171E+04  0.10034600815E+04 0.  0.
        4    1    3    3  502    0  0.42087583960E+03 -0.11754671874E+03  0.14828257400E+02  0.43723585576E+03  0.12699999809E+01 0. -1.
       -4    1    3    3    0  502 -0.42087583960E+03  0.11754671874E+03  0.59071052769E+03  0.73477496138E+03  0.12699999809E+01 0.  1.
</event>
<event>
 5   0  0.2312105E-03  0.1292871E+04  0.7818609E-02  0.9035237E-01
       -2   -1    0    0    0  501  0.00000000000E+00  0.00000000000E+00  0.24053768928E+03  0.24053768929E+03  0.25500000920E-02 0.  1.
        2   -1    0    0  501    0  0.00000000000E+00  0.00000000000E+00 -0.17372708739E+04  0.17372708739E+04  0.25500000920E-02 0. -1.
    10030    2    1    2    0    0  0.00000000000E+00  0.00000000000E+00 -0.14967331846E+04  0.19778085632E+04  0.12928714115E+04 0.  0.
        5    1    3    3  502    0 -0.12290500563E+03 -0.25656535537E+03  0.13959857967E+03  0.31692471571E+03  0.46999998093E+01 0.  1.
       -5    1    3    3    0  502  0.12290500563E+03  0.25656535537E+03 -0.16363317643E+04  0.16608838475E+04  0.46999998093E+01 0. -1.
</event>
<event>
 5   0  0.1387622E-03  0.1295537E+04  0.7818609E-02  0.9033112E-01
       -1   -1    0    0    0  501  0.00000000000E+00  0.00000000000E+00  0.88205587618E+03  0.88205587619E+03  0.50400001928E-02 0. -1.
        1   -1    0    0  501    0  0.00000000000E+00  0.00000000000E+00 -0.47571166882E+03  0.47571166885E+03  0.50400001928E-02 0.  1.
    10030    2    1    2    0    0  0.00000000000E+00  0.00000000000E+00  0.40634420736E+03  0.13577675450E+04  0.12955373756E+04 0.  0.
        3    1    3    3  502    0 -0.50350619426E+02  0.66080592590E+02  0.87644943348E+03  0.88037801497E+03  0.10100000352E+00 0. -1.
       -3    1    3    3    0  502  0.50350619426E+02 -0.66080592590E+02 -0.47010522612E+03  0.47738953007E+03  0.10100000352E+00 0.  1.
</event>
<event>
 5   0  0.1346593E-03  0.1293679E+04  0.7818609E-02  0.9034593E-01
       -1   -1    0    0    0  501  0.00000000000E+00  0.00000000000E+00  0.97126842702E+03  0.97126842703E+03  0.50400001928E-02 0.  1.
        1   -1    0    0  501    0  0.00000000000E+00  0.00000000000E+00 -0.43077832611E+03  0.43077832614E+03  0.50400001928E-02 0. -1.
    10030    2    1    2    0    0  0.00000000000E+00  0.00000000000E+00  0.54049010090E+03  0.14020467532E+04  0.12936790749E+04 0.  0.
        2    1    3    3  502    0 -0.38671043338E+03 -0.51625308630E+03  0.32266150640E+03  0.72122996064E+03  0.25500000920E-02 0. -1.
       -2    1    3    3    0  502  0.38671043338E+03  0.51625308630E+03  0.21782859450E+03  0.68081679253E+03  0.25500000920E-02 0.  1.
</event>
<event>
 5   0  0.2478236E-03  0.1202235E+04  0.7818609E-02  0.9110903E-01
       -2   -1    0    0    0  501  0.00000000000E+00  0.00000000000E+00  0.18485794942E+03  0.18485794943E+03  0.25500000920E-02 0. -1.
        2   -1    0    0  501    0  0.00000000000E+00  0.00000000000E+00 -0.19547021266E+04  0.19547021266E+04  0.25500000920E-02 0.  1.
    10030    2    1    2    0    0  0.00000000000E+00  0.00000000000E+00 -0.17698441772E+04  0.21395600760E+04  0.12022349635E+04 0.  0.
        3    1    3    3  502    0  0.19769297160E+03 -0.61930050106E+01 -0.18951335451E+04  0.19054269937E+04  0.10100000352E+00 0.  1.
       -3    1    3    3    0  502 -0.19769297160E+03  0.61930050106E+01  0.12528936792E+03  0.23413308234E+03  0.10100000352E+00 0. -1.
</event>
<event>
 5   0  0.1387622E-03  0.1330169E+04  0.7818609E-02  0.9005977E-01
       -1   -1    0    0    0  501  0.00000000000E+00  0.00000000000E+00  0.68431600088E+03  0.68431600090E+03  0.50400001928E-02 0.  1.
        1   -1    0    0  501    0  0.00000000000E+00  0.00000000000E+00 -0.64639359811E+03  0.64639359813E+03  0.50400001928E-02 0. -1.
    10030    2    1    2    0    0  0.00000000000E+00  0.00000000000E+00  0.37922402766E+02  0.13307095990E+04  0.13301691352E+04 0.  0.
        3    1    3    3  502    0 -0.54033259704E+03 -0.53385039360E+01  0.40686822558E+03  0.67640932743E+03  0.10100000352E+00 0. -1.
       -3    1    3    3    0  502  0.54033259704E+03  0.53385039360E+01 -0.36894582282E+03  0.65430027160E+03  0.10100000352E+00 0.  1.
</event>
<event>
 5   0  0.1387622E-03  0.1274783E+04  0.7818609E-02  0.9049805E-01
        1   -1    0    0  501    0  0.00000000000E+00  0.00000000000E+00  0.14275712256E+04  0.14275712256E+04  0.50400001928E-02 0. -1.
       -1   -1    0    0    0  501  0.00000000000E+00  0.00000000000E+00 -0.28458673063E+03  0.28458673067E+03  0.50400001928E-02 0.  1.
    10030    2    1    2    0    0  0.00000000000E+00  0.00000000000E+00  0.11429844950E+04  0.17121579563E+04  0.12747828488E+04 0.  0.
        3    1    3    3  502    0  0.22391809474E+02  0.12230746538E+03 -0.26813970025E+03  0.29556626714E+03  0.10100000352E+00 0.  1.
       -3    1    3    3    0  502 -0.22391809474E+02 -0.12230746538E+03  0.14111241952E+04  0.14165916891E+04  0.10100000352E+00 0. -1.
</event>
<event>
 5   0  0.1387622E-03  0.1317629E+04  0.7818609E-02  0.9015701E-01
       -1   -1    0    0    0  501  0.00000000000E+00  0.00000000000E+00  0.55855576048E+03  0.55855576050E+03  0.50400001928E-02 0. -1.
        1   -1    0    0  501    0  0.00000000000E+00  0.00000000000E+00 -0.77706875055E+03  0.77706875056E+03  0.50400001928E-02 0.  1.
    10030    2    1    2    0    0  0.00000000000E+00  0.00000000000E+00 -0.21851299007E+03  0.13356245111E+04  0.13176285166E+04 0.  0.
        3    1    3    3  502    0 -0.20081361631E+02  0.65291549089E+03 -0.19606679271E+03  0.68201473352E+03  0.10100000352E+00 0. -1.
       -3    1    3    3    0  502  0.20081361631E+02 -0.65291549089E+03 -0.22446197362E+02  0.65360977755E+03  0.10100000352E+00 0.  1.
</event>
<event>
 5   0  0.9131250E-04  0.1291639E+04  0.7818609E-02  0.9036222E-01
        4   -1    0    0  501    0  0.00000000000E+00  0.00000000000E+00  0.30420954276E+03  0.30421219372E+03  0.12699999809E+01 0.  1.
       -4   -1    0    0    0  501  0.00000000000E+00  0.00000000000E+00 -0.13710295943E+04  0.13710301826E+04  0.12699999809E+01 0. -1.
    10030    2    1    2    0    0  0.00000000000E+00  0.00000000000E+00 -0.10668200516E+04  0.16752423763E+04  0.12916392673E+04 0.  0.
        2    1    3    3  502    0  0.60812443062E+03  0.64576197824E+02 -0.26415556503E+03  0.66615581585E+03  0.25500000920E-02 0.  1.
       -2    1    3    3    0  502 -0.60812443062E+03 -0.64576197824E+02 -0.80266448656E+03  0.10090865604E+04  0.25500000920E-02 0. -1.
</event>
<event>
 5   0  0.1310461E-03  0.1284293E+04  0.7818609E-02  0.9042114E-01
        1   -1    0    0  501    0  0.00000000000E+00  0.00000000000E+00  0.15451186090E+04  0.15451186090E+04  0.50400001928E-02 0.  1.
       -1   -1    0    0    0  501  0.00000000000E+00  0.00000000000E+00 -0.26687425998E+03  0.26687426003E+03  0.50400001928E-02 0. -1.
    10030    2    1    2    0    0  0.00000000000E+00  0.00000000000E+00  0.12782443490E+04  0.18119928690E+04  0.12842934017E+04 0.  0.
        4    1    3    3  502    0  0.99009768074E+02  0.63439179210E+03  0.62537833481E+03  0.89630104017E+03  0.12699999809E+01 0. -1.
       -4    1    3    3    0  502 -0.99009768074E+02 -0.63439179210E+03  0.65286601418E+03  0.91569182885E+03  0.12699999809E+01 0.  1.
</event>
<event>
 5   0  0.1310461E-03  0.1291507E+04  0.7818609E-02  0.9036328E-01
        1   -1    0    0  501    0  0.00000000000E+00  0.00000000000E+00  0.79078012798E+03  0.79078012799E+03  0.50400001928E-02 0. -1.
       -1   -1    0    0    0  501  0.00000000000E+00  0.00000000000E+00 -0.52732397353E+03  0.52732397356E+03  0.50400001928E-02 0.  1.
    10030    2    1    2    0    0  0.00000000000E+00  0.00000000000E+00  0.26345615445E+03  0.13181041016E+04  0.12915065920E+04 0.  0.
        4    1    3    3  502    0  0.63943491095E+03 -0.71151163761E+02  0.75306543143E+02  0.64777479249E+03  0.12699999809E+01 0. -1.
       -4    1    3    3    0  502 -0.63943491095E+03  0.71151163761E+02  0.18814961130E+03  0.67032930906E+03  0.12699999809E+01 0.  1.
</event>
<event>
 5   0  0.2478236E-03  0.1297372E+04  0.7818609E-02  0.9031652E-01
        2   -1    0    0  501    0  0.00000000000E+00  0.00000000000E+00  0.18708876474E+04  0.18708876474E+04  0.25500000920E-02 0. -1.
       -2   -1    0    0    0  501  0.00000000000E+00  0.00000000000E+00 -0.22491661918E+03  0.22491661920E+03  0.25500000920E-02 0.  1.
    10030    2    1    2    0    0  0.00000000000E+00  0.00000000000E+00  0.16459710282E+04  0.20958042666E+04  0.12973723051E+04 0.  0.
        3    1    3    3  502    0 -0.60838499160E+03  0.22331925292E+03  0.77758301635E+03  0.10122446069E+04  0.10100000352E+00 0.  1.
       -3    1    3    3    0  502  0.60838499160E+03 -0.22331925292E+03  0.86838801188E+03  0.10835596597E+04  0.10100000352E+00 0. -1.
</event>
<event>
 5   0  0.2401211E-03  0.1287380E+04  0.7818609E-02  0.9039633E-01
        2   -1    0    0  501    0  0.00000000000E+00  0.00000000000E+00  0.70215607942E+03  0.70215607942E+03  0.25500000920E-02 0.  1.
       -2   -1    0    0    0  501  0.00000000000E+00  0.00000000000E+00 -0.59009255167E+03  0.59009255168E+03  0.25500000920E-02 0. -1.
    10030    2    1    2    0    0  0.00000000000E+00  0.00000000000E+00  0.11206352775E+03  0.12922486311E+04  0.12873803985E+04 0.  0.
        4    1    3    3  502    0 -0.40269943087E+03  0.42658535522E+03 -0.20991078789E+03  0.62306183376E+03  0.12699999809E+01 0. -1.
       -4    1    3    3    0  502  0.40269943087E+03 -0.42658535522E+03  0.32197431563E+03  0.66918679734E+03  0.12699999809E+01 0.  1.
</event>
<event>
 5   0  0.2401211E-03  0.1224660E+04  0.7818609E-02  0.9091542E-01
       -2   -1    0    0    0  501  0.00000000000E+00  0.00000000000E+00  0.23119483238E+03  0.23119483240E+03  0.25500000920E-02 0.  1.
        2   -1    0    0  501    0  0.00000000000E+00  0.00000000000E+00 -0.16217831265E+04  0.16217831265E+04  0.25500000920E-02 0. -1.
    10030    2    1    2    0    0  0.00000000000E+00  0.00000000000E+00 -0.13905882941E+04  0.18529779589E+04  0.12246597538E+04 0.  0.
        4    1    3    3  502    0  0.15305740658E+02  0.54478309112E+03 -0.27292838355E+03  0.60951980896E+03  0.12699999809E+01 0.  1.
       -4    1    3    3    0  502 -0.15305740658E+02 -0.54478309112E+03 -0.11176599106E+04  0.12434581500E+04  0.12699999809E+01 0. -1.
</event>
<event>
 5   0  0.1332630E-03  0.1298011E+04  0.7818609E-02  0.9031144E-01
        1   -1    0    0  501    0  0.00000000000E+00  0.00000000000E+00  0.18654521354E+04  0.18654521354E+04  0.50400001928E-02 0.  1.
       -1   -1    0    0    0  501  0.00000000000E+00  0.00000000000E+00 -0.22579399324E+03  0.22579399330E+03  0.50400001928E-02 0. -1.
    10030    2    1    2    0    0  0.00000000000E+00  0.00000000000E+00  0.16396581421E+04  0.20912461287E+04  0.12980106115E+04 0.  0.
        5    1    3    3  502    0  0.30633687407E+03  0.21753337994E+03  0.16723863398E+04  0.17140773644E+04  0.46999998093E+01 0.  1.
       -5    1    3    3    0  502 -0.30633687407E+03 -0.21753337994E+03 -0.32728197648E+02  0.37716876424E+03  0.46999998093E+01 0. -1.
</event>
<event>
 5   0  0.1387622E-03  0.1305804E+04  0.7818609E-02  0.9024975E-01
       -1   -1    0    0    0  501  0.00000000000E+00  0.00000000000E+00  0.67232616880E+03  0.67232616881E+03  0.50400001928E-02 0.  1.
        1   -1    0    0  501    0  0.00000000000E+00  0.00000000000E+00 -0.63403860017E+03  0.63403860019E+03  0.50400001928E-02 0. -1.
    10030    2    1    2    0    0  0.00000000000E+00  0.00000000000E+00  0.38287568623E+02  0.13063647690E+04  0.13058035732E+04 0.  0.
        3    1    3    3  502    0  0.64695502553E+03 -0.22432257782E+02 -0.65902876422E+02  0.65068979596E+03  0.10100000352E+00 0.  1.
       -3    1    3    3    0  502 -0.64695502553E+03  0.22432257782E+02  0.10419044504E+03  0.65567497305E+03  0.10100000352E+00 0. -1.
</event>
<event>
 5   0  0.2401211E-03  0.1314498E+04  0.7818609E-02  0.9018147E-01
       -2   -1    0    0    0  501  0.00000000000E+00  0.00000000000E+00  0.66883105529E+03  0.66883105529E+03  0.25500000920E-02 0.  1.
        2   -1    0    0  501    0  0.00000000000E+00  0.00000000000E+00 -0.64586721736E+03  0.64586721737E+03  0.25500000920E-02 0. -1.
    10030    2    1    2    0    0  0.00000000000E+00  0.00000000000E+00  0.22963837926E+02  0.13146982727E+04  0.13144977027E+04 0.  0.
        4    1    3    3  502    0 -0.13962238188E+03  0.20917858712E+02  0.65348520889E+03  0.66856300935E+03  0.12699999809E+01 0.  1.
       -4    1    3    3    0  502  0.13962238188E+03 -0.20917858712E+02 -0.63052137097E+03  0.64613526330E+03  0.12699999809E+01 0. -1.
</event>
<event>
 5   0  0.2312105E-03  0.1306376E+04  0.7818609E-02  0.9024524E-01
       -2   -1    0    0    0  501  0.00000000000E+00  0.00000000000E+00  0.25911376884E+03  0.25911376886E+03  0.25500000920E-02 0.  1.
        2   -1    0    0  501    0  0.00000000000E+00  0.00000000000E+00 -0.16465924700E+04  0.16465924700E+04  0.25500000920E-02 0. -1.
    10030    2    1    2    0    0  0.00000000000E+00  0.00000000000E+00 -0.13874787011E+04  0.19057062388E+04  0.13063763327E+04 0.  0.
        5    1    3    3  502    0 -0.58041154294E+03  0.12467938345E+03 -0.10911316093E+04  0.12421806578E+04  0.46999998093E+01 0.  1.
       -5    1    3    3    0  502  0.58041154294E+03 -0.12467938345E+03 -0.29634709185E+03  0.66352558103E+03  0.46999998093E+01 0. -1.
</event>
<event>
 5   0  0.1332630E-03  0.1307775E+04  0.7818609E-02  0.9023422E-01
        1   -1    0    0  501    0  0.00000000000E+00  0.00000000000E+00  0.13086231440E+04  0.13086231441E+04  0.50400001928E-02 0.  1.
       -1   -1    0    0    0  501  0.00000000000E+00  0.00000000000E+00 -0.32673176915E+03  0.32673176919E+03  0.50400001928E-02 0. -1.
    10030    2    1    2    0    0  0.00000000000E+00  0.00000000000E+00  0.98189137489E+03  0.16353549132E+04  0.13077748354E+04 0.  0.
        5    1    3    3  502    0  0.46724373265E+03  0.61600461586E+02  0.10577284374E+04  0.11579822364E+04  0.46999998093E+01 0.  1.
       -5    1    3    3    0  502 -0.46724373265E+03 -0.61600461586E+02 -0.75837062475E+02  0.47737267686E+03  0.46999998093E+01 0. -1.
</event>
<event>
 5   0  0.1387622E-03  0.1364949E+04  0.7818609E-02  0.8979588E-01
       -1   -1    0    0    0  501  0.00000000000E+00  0.00000000000E+00  0.25107147327E+03  0.25107147332E+03  0.50400001928E-02 0. -1.
        1   -1    0    0  501    0  0.00000000000E+00  0.00000000000E+00 -0.18551346443E+04  0.18551346443E+04  0.50400001928E-02 0.  1.
    10030    2    1    2    0    0  0.00000000000E+00  0.00000000000E+00 -0.16040631710E+04  0.21062061176E+04  0.13649489197E+04 0.  0.
        3    1    3    3  502    0  0.35656321948E+03 -0.30087452168E+03 -0.15706403887E+04  0.16384669811E+04  0.10100000352E+00 0.  1.
       -3    1    3    3    0  502 -0.35656321948E+03  0.30087452168E+03 -0.33422782353E+02  0.46773913656E+03  0.10100000352E+00 0. -1.
</event>
<event>
 5   0  0.2361043E-03  0.1287392E+04  0.7818609E-02  0.9039624E-01
       -2   -1    0    0    0  501  0.00000000000E+00  0.00000000000E+00  0.70363072346E+03  0.70363072346E+03  0.25500000920E-02 0.  1.
        2   -1    0    0  501    0  0.00000000000E+00  0.00000000000E+00 -0.58886613467E+03  0.58886613467E+03  0.25500000920E-02 0. -1.
    10030    2    1    2    0    0  0.00000000000E+00  0.00000000000E+00  0.11476458879E+03  0.12924968581E+04  0.12873916333E+04 0.  0.
        2    1    3    3  502    0  0.36086277627E+03  0.49543092888E+03 -0.14004583042E+03  0.62871820652E+03  0.25500000920E-02 0. -1.
       -2    1    3    3    0  502 -0.36086277627E+03 -0.49543092888E+03  0.25481041921E+03  0.66377865161E+03  0.25500000920E-02 0.  1.
</event>
<event>
 5   0  0.2312105E-03  0.1299653E+04  0.7818609E-02  0.9029841E-01
        2   -1    0    0  501    0  0.00000000000E+00  0.00000000000E+00  0.12670507557E+04  0.12670507557E+04  0.25500000920E-02 0.  1.
       -2   -1    0    0    0  501  0.00000000000E+00  0.00000000000E+00 -0.33327333731E+03  0.33327333732E+03  0.25500000920E-02 0. -1.
    10030    2    1    2    0    0  0.00000000000E+00  0.00000000000E+00  0.93377741839E+03  0.16003240930E+04  0.12996526211E+04 0.  0.
        5    1    3    3  502    0 -0.16302277558E+03 -0.14694821780E+03  0.12200084429E+04  0.12396019098E+04  0.46999998093E+01 0.  1.
       -5    1    3    3    0  502  0.16302277558E+03  0.14694821780E+03 -0.28623102451E+03  0.36072218321E+03  0.46999998093E+01 0. -1.
</event>
<event>
 5   0  0.2334946E-03  0.1296357E+04  0.7818609E-02  0.9032459E-01
        2   -1    0    0  501    0  0.00000000000E+00  0.00000000000E+00  0.12123258662E+04  0.12123258662E+04  0.25500000920E-02 0.  1.
       -2   -1    0    0    0  501  0.00000000000E+00  0.00000000000E+00 -0.34655291556E+03  0.34655291557E+03  0.25500000920E-02 0. -1.
    10030    2    1    2    0    0  0.00000000000E+00  0.00000000000E+00  0.86577295064E+03  0.15588787818E+04  0.12963565305E+04 0.  0.
        1    1    3    3  502    0 -0.44264849730E+03  0.37021260977E+03  0.78786056257E+03  0.97658554908E+03  0.50400001928E-02 0.  1.
       -1    1    3    3    0  502  0.44264849730E+03 -0.37021260977E+03  0.77912388075E+02  0.58229323269E+03  0.50400001928E-02 0. -1.
</event>
<event>
 5   0  0.2401211E-03  0.1303835E+04  0.7818609E-02  0.9026529E-01
       -2   -1    0    0    0  501  0.00000000000E+00  0.00000000000E+00  0.43147798020E+03  0.43147798021E+03  0.25500000920E-02 0. -1.
        2   -1    0    0  501    0  0.00000000000E+00  0.00000000000E+00 -0.98497880143E+03  0.98497880143E+03  0.25500000920E-02 0.  1.
    10030    2    1    2    0    0  0.00000000000E+00  0.00000000000E+00 -0.55350082122E+03  0.14164567816E+04  0.13038353635E+04 0.  0.
        4    1    3    3  502    0 -0.53420607947E+03  0.21310917302E+03 -0.61018745785E+03  0.83852370365E+03  0.12699999809E+01 0.  1.
       -4    1    3    3    0  502  0.53420607947E+03 -0.21310917302E+03  0.56686636631E+02  0.57793307799E+03  0.12699999809E+01 0. -1.
</event>
<event>
 5   0  0.2312105E-03  0.1284374E+04  0.7818609E-02  0.9042049E-01
       -2   -1    0    0    0  501  0.00000000000E+00  0.00000000000E+00  0.42847539905E+03  0.42847539905E+03  0.25500000920E-02 0.  1.
        2   -1    0    0  501    0  0.00000000000E+00  0.00000000000E+00 -0.96249230193E+03  0.96249230193E+03  0.25500000920E-02 0. -1.
    10030    2    1    2    0    0  0.00000000000E+00  0.00000000000E+00 -0.53401690288E+03  0.13909677010E+04  0.12843742027E+04 0.  0.
        5    1    3    3  502    0 -0.26961765031E+03  0.35733921147E+03  0.23163546812E+03  0.50404570180E+03  0.46999998093E+01 0.  1.
       -5    1    3    3    0  502  0.26961765031E+03 -0.35733921147E+03 -0.76565237101E+03  0.88692199918E+03  0.46999998093E+01 0. -1.
</event>
<event>
 5   0  0.2478236E-03  0.1292539E+04  0.7818609E-02  0.9035502E-01
       -2   -1    0    0    0  501  0.00000000000E+00  0.00000000000E+00  0.46542444477E+03  0.46542444477E+03  0.25500000920E-02 0.  1.
        2   -1    0    0  501    0  0.00000000000E+00  0.00000000000E+00 -0.89738415592E+03  0.89738415592E+03  0.25500000920E-02 0. -1.
    10030    2    1    2    0    0  0.00000000000E+00  0.00000000000E+00 -0.43195971115E+03  0.13628086007E+04  0.12925393959E+04 0.  0.
        3    1    3    3  502    0  0.28008717315E+03 -0.52576425065E+03  0.48217312530E+02  0.59766361045E+03  0.10100000352E+00 0.  1.
       -3    1    3    3    0  502 -0.28008717315E+03  0.52576425065E+03 -0.48017702368E+03  0.76514499025E+03  0.10100000352E+00 0. -1.
</event>
<event>
 5   0  0.1346593E-03  0.1243218E+04  0.7818609E-02  0.9075847E-01
       -1   -1    0    0    0  501  0.00000000000E+00  0.00000000000E+00  0.29385903377E+03  0.29385903381E+03  0.50400001928E-02 0. -1.
        1   -1    0    0  501    0  0.00000000000E+00  0.00000000000E+00 -0.13149079103E+04  0.13149079103E+04  0.50400001928E-02 0.  1.
    10030    2    1    2    0    0  0.00000000000E+00  0.00000000000E+00 -0.10210488765E+04  0.16087669441E+04  0.12432177091E+04 0.  0.
        2    1    3    3  502    0  0.29941542533E+03 -0.27626152068E+02 -0.12145373534E+04  0.12512049329E+04  0.25500000920E-02 0.  1.
       -2    1    3    3    0  502 -0.29941542533E+03  0.27626152068E+02  0.19348847687E+03  0.35756201125E+03  0.25500000920E-02 0. -1.
</event>
<event>
 5   0  0.2312105E-03  0.1281902E+04  0.7818609E-02  0.9044041E-01
       -2   -1    0    0    0  501  0.00000000000E+00  0.00000000000E+00  0.37994576815E+03  0.37994576816E+03  0.25500000920E-02 0.  1.
        2   -1    0    0  501    0  0.00000000000E+00  0.00000000000E+00 -0.10812547683E+04  0.10812547683E+04  0.25500000920E-02 0. -1.
    10030    2    1    2    0    0  0.00000000000E+00  0.00000000000E+00 -0.70130900016E+03  0.14612005365E+04  0.12819019830E+04 0.  0.
        5    1    3    3  502    0  0.29997822421E+03  0.35183792216E+03  0.15529748815E+03  0.48776660227E+03  0.46999998093E+01 0.  1.
       -5    1    3    3    0  502 -0.29997822421E+03 -0.35183792216E+03 -0.85660648831E+03  0.97343393421E+03  0.46999998093E+01 0. -1.
</event>
<event>
 5   0  0.1332630E-03  0.1287116E+04  0.7818609E-02  0.9039845E-01
        1   -1    0    0  501    0  0.00000000000E+00  0.00000000000E+00  0.49272640079E+03  0.49272640081E+03  0.50400001928E-02 0.  1.
       -1   -1    0    0    0  501  0.00000000000E+00  0.00000000000E+00 -0.84056109042E+03  0.84056109043E+03  0.50400001928E-02 0. -1.
    10030    2    1    2    0    0  0.00000000000E+00  0.00000000000E+00 -0.34783468963E+03  0.13332874912E+04  0.12871155982E+04 0.  0.
        5    1    3    3  502    0 -0.88753655843E+02  0.28181076922E+03  0.41829917194E+03  0.51214334743E+03  0.46999998093E+01 0.  1.
       -5    1    3    3    0  502  0.88753655843E+02 -0.28181076922E+03 -0.76613386157E+03  0.82114414381E+03  0.46999998093E+01 0. -1.
</event>
<event>
 5   0  0.1332630E-03  0.1265871E+04  0.7818609E-02  0.9057077E-01
        1   -1    0    0  501    0  0.00000000000E+00  0.00000000000E+00  0.53315162239E+03  0.53315162242E+03  0.50400001928E-02 0.  1.
       -1   -1    0    0    0  501  0.00000000000E+00  0.00000000000E+00 -0.75139454660E+03  0.75139454662E+03  0.50400001928E-02 0. -1.
    10030    2    1    2    0    0  0.00000000000E+00  0.00000000000E+00 -0.21824292421E+03  0.12845461690E+04  0.12658708016E+04 0.  0.
        5    1    3    3  502    0 -0.20272326241E+02  0.23582918293E+02 -0.75060108058E+03  0.75125973765E+03  0.46999998093E+01 0. -1.
       -5    1    3    3    0  502  0.20272326241E+02 -0.23582918293E+02  0.53235815637E+03  0.53328643138E+03  0.46999998093E+01 0.  1.
</event>
<event>
 5   0  0.1332630E-03  0.1299157E+04  0.7818609E-02  0.9030234E-01
       -1   -1    0    0    0  501  0.00000000000E+00  0.00000000000E+00  0.38659722479E+03  0.38659722482E+03  0.50400001928E-02 0.  1.
        1   -1    0    0  501    0  0.00000000000E+00  0.00000000000E+00 -0.10914514405E+04  0.10914514406E+04  0.50400001928E-02 0. -1.
    10030    2    1    2    0    0  0.00000000000E+00  0.00000000000E+00 -0.70485421576E+03  0.14780486654E+04  0.12991568003E+04 0.  0.
        5    1    3    3  502    0 -0.63194280383E+02 -0.50614936997E+02  0.38081456685E+03  0.38935486801E+03  0.46999998093E+01 0.  1.
       -5    1    3    3    0  502  0.63194280383E+02  0.50614936997E+02 -0.10856687826E+04  0.10886937974E+04  0.46999998093E+01 0. -1.
</event>
<event>
 5   0  0.1310461E-03  0.1179104E+04  0.7818609E-02  0.9131346E-01
       -1   -1    0    0    0  501  0.00000000000E+00  0.00000000000E+00  0.73668924672E+03  0.73668924673E+03  0.50400001928E-02 0. -1.
        1   -1    0    0  501    0  0.00000000000E+00  0.00000000000E+00 -0.47180216723E+03  0.47180216725E+03  0.50400001928E-02 0.  1.
    10030    2    1    2    0    0  0.00000000000E+00  0.00000000000E+00  0.26488707949E+03  0.12084914140E+04  0.11791040382E+04 0.  0.
        4    1    3    3  502    0 -0.36413531163E+02  0.14616090830E+03  0.71663285352E+03  0.73229312165E+03  0.12699999809E+01 0. -1.
       -4    1    3    3    0  502  0.36413531163E+02 -0.14616090830E+03 -0.45174577404E+03  0.47619829234E+03  0.12699999809E+01 0.  1.
</event>
<event>
 5   0  0.2478236E-03  0.1320120E+04  0.7818609E-02  0.9013760E-01
        2   -1    0    0  501    0  0.00000000000E+00  0.00000000000E+00  0.66393050764E+03  0.66393050764E+03  0.25500000920E-02 0.  1.
       -2   -1    0    0    0  501  0.00000000000E+00  0.00000000000E+00 -0.65621229100E+03  0.65621229101E+03  0.25500000920E-02 0. -1.
    10030    2    1    2    0    0  0.00000000000E+00  0.00000000000E+00  0.77182166398E+01  0.13201427986E+04  0.13201202362E+04 0.  0.
        3    1    3    3  502    0 -0.38914464908E+03  0.37977485676E+03 -0.37033554118E+03  0.65788366981E+03  0.10100000352E+00 0. -1.
       -3    1    3    3    0  502  0.38914464908E+03 -0.37977485676E+03  0.37805375782E+03  0.66225912884E+03  0.10100000352E+00 0.  1.
</event>
<event>
 5   0  0.2312105E-03  0.1295046E+04  0.7818609E-02  0.9033503E-01
       -2   -1    0    0    0  501  0.00000000000E+00  0.00000000000E+00  0.28860413666E+03  0.28860413667E+03  0.25500000920E-02 0. -1.
        2   -1    0    0  501    0  0.00000000000E+00  0.00000000000E+00 -0.14528069119E+04  0.14528069119E+04  0.25500000920E-02 0.  1.
    10030    2    1    2    0    0  0.00000000000E+00  0.00000000000E+00 -0.11642027753E+04  0.17414110486E+04  0.12950460757E+04 0.  0.
        5    1    3    3  502    0  0.16279841097E+03  0.55014931168E+03 -0.17848405236E+03  0.60087122972E+03  0.46999998093E+01 0. -1.
       -5    1    3    3    0  502 -0.16279841097E+03 -0.55014931168E+03 -0.98571872290E+03  0.11405398189E+04  0.46999998093E+01 0.  1.
</event>
<event>
 5   0  0.1310461E-03  0.1272838E+04  0.7818609E-02  0.9051386E-01
        1   -1    0    0  501    0  0.00000000000E+00  0.00000000000E+00  0.55258021233E+03  0.55258021235E+03  0.50400001928E-02 0.  1.
       -1   -1    0    0    0  501  0.00000000000E+00  0.00000000000E+00 -0.73297839598E+03  0.73297839600E+03  0.50400001928E-02 0. -1.
    10030    2    1    2    0    0  0.00000000000E+00  0.00000000000E+00 -0.18039818365E+03  0.12855586083E+04  0.12728383365E+04 0.  0.
        4    1    3    3  502    0  0.40506243764E+03  0.39428142278E+03  0.20511711407E+03  0.60133855865E+03  0.12699999809E+01 0.  1.
       -4    1    3    3    0  502 -0.40506243764E+03 -0.39428142278E+03 -0.38551529772E+03  0.68422004970E+03  0.12699999809E+01 0. -1.
</event>
<event>
 5   0  0.2361043E-03  0.1411122E+04  0.7818609E-02  0.8945807E-01
        2   -1    0    0  501    0  0.00000000000E+00  0.00000000000E+00  0.10444679623E+04  0.10444679623E+04  0.25500000920E-02 0.  1.
       -2   -1    0    0    0  501  0.00000000000E+00  0.00000000000E+00 -0.47662218695E+03  0.47662218696E+03  0.25500000920E-02 0. -1.
    10030    2    1    2    0    0  0.00000000000E+00  0.00000000000E+00  0.56784577535E+03  0.15210901493E+04  0.14111223964E+04 0.  0.
        2    1    3    3  502    0 -0.15181945428E+03  0.54185987413E+03  0.74271488371E+03  0.93181901053E+03  0.25500000920E-02 0.  1.
       -2    1    3    3    0  502  0.15181945428E+03 -0.54185987413E+03 -0.17486910836E+03  0.58927113874E+03  0.25500000920E-02 0. -1.
</event>
<event>
 5   0  0.2361043E-03  0.1297560E+04  0.7818609E-02  0.9031502E-01
       -2   -1    0    0    0  501  0.00000000000E+00  0.00000000000E+00  0.89326242641E+03  0.89326242642E+03  0.25500000920E-02 0. -1.
        2   -1    0    0  501    0  0.00000000000E+00  0.00000000000E+00 -0.47121136074E+03  0.47121136074E+03  0.25500000920E-02 0.  1.
    10030    2    1    2    0    0  0.00000000000E+00  0.00000000000E+00  0.42205106568E+03  0.13644737872E+04  0.12975598691E+04 0.  0.
        2    1    3    3  502    0 -0.24115004128E+03 -0.37198063961E+03 -0.28710358187E+03  0.52815850403E+03  0.25500000920E-02 0.  1.
       -2    1    3    3    0  502  0.24115004128E+03  0.37198063961E+03  0.70915464754E+03  0.83631528313E+03  0.25500000920E-02 0. -1.
</event>
<event>
 5   0  0.1310461E-03  0.1285476E+04  0.7818609E-02  0.9041163E-01
       -1   -1    0    0    0  501  0.00000000000E+00  0.00000000000E+00  0.18631823439E+03  0.18631823446E+03  0.50400001928E-02 0.  1.
        1   -1    0    0  501    0  0.00000000000E+00  0.00000000000E+00 -0.22172399119E+04  0.22172399119E+04  0.50400001928E-02 0. -1.
    10030    2    1    2    0    0  0.00000000000E+00  0.00000000000E+00 -0.20309216775E+04  0.24035581464E+04  0.12854761386E+04 0.  0.
        4    1    3    3  502    0  0.18618893776E+03 -0.52745521049E+03 -0.42348913774E+03  0.70158390967E+03  0.12699999809E+01 0.  1.
       -4    1    3    3    0  502 -0.18618893776E+03  0.52745521049E+03 -0.16074325398E+04  0.17019742367E+04  0.12699999809E+01 0. -1.
</event>
<event>
 5   0  0.2312105E-03  0.1294063E+04  0.7818609E-02  0.9034286E-01
       -2   -1    0    0    0  501  0.00000000000E+00  0.00000000000E+00  0.26234192453E+03  0.26234192454E+03  0.25500000920E-02 0. -1.
        2   -1    0    0  501    0  0.00000000000E+00  0.00000000000E+00 -0.15958176474E+04  0.15958176474E+04  0.25500000920E-02 0.  1.
    10030    2    1    2    0    0  0.00000000000E+00  0.00000000000E+00 -0.13334757228E+04  0.18581595719E+04  0.12940631713E+04 0.  0.
        5    1    3    3  502    0 -0.19933830432E+03 -0.11150913062E+03  0.20250168620E+03  0.30528522515E+03  0.46999998093E+01 0. -1.
       -5    1    3    3    0  502  0.19933830432E+03  0.11150913062E+03 -0.15359774090E+04  0.15528743468E+04  0.46999998093E+01 0.  1.
</event>
<event>
 5   0  0.1387622E-03  0.1283232E+04  0.7818609E-02  0.9042969E-01
       -1   -1    0    0    0  501  0.00000000000E+00  0.00000000000E+00  0.31260950906E+03  0.31260950910E+03  0.50400001928E-02 0. -1.
        1   -1    0    0  501    0  0.00000000000E+00  0.00000000000E+00 -0.13168851975E+04  0.13168851975E+04  0.50400001928E-02 0.  1.
    10030    2    1    2    0    0  0.00000000000E+00  0.00000000000E+00 -0.10042756884E+04  0.16294947066E+04  0.12832316005E+04 0.  0.
        3    1    3    3  502    0 -0.27655052811E+03  0.65210770944E+02  0.22836405423E+03  0.36453091873E+03  0.10100000352E+00 0. -1.
       -3    1    3    3    0  502  0.27655052811E+03 -0.65210770944E+02 -0.12326397427E+04  0.12649637879E+04  0.10100000352E+00 0.  1.
</event>
<event>
 5   0  0.2401211E-03  0.1306053E+04  0.7818609E-02  0.9024779E-01
        2   -1    0    0  501    0  0.00000000000E+00  0.00000000000E+00  0.15897175589E+04  0.15897175589E+04  0.25500000920E-02 0.  1.
       -2   -1    0    0    0  501  0.00000000000E+00  0.00000000000E+00 -0.26825109889E+03  0.26825109890E+03  0.25500000920E-02 0. -1.
    10030    2    1    2    0    0  0.00000000000E+00  0.00000000000E+00  0.13214664600E+04  0.18579686578E+04  0.13060528046E+04 0.  0.
        4    1    3    3  502    0 -0.36588248421E+03 -0.20328861994E+03  0.13737945716E+04  0.14361439319E+04  0.12699999809E+01 0.  1.
       -4    1    3    3    0  502  0.36588248421E+03  0.20328861994E+03 -0.52328111574E+02  0.42182472593E+03  0.12699999809E+01 0. -1.
</event>
<event>
 5   0  0.9131250E-04  0.1290508E+04  0.7818609E-02  0.9037127E-01
       -3   -1    0    0    0  501  0.00000000000E+00  0.00000000000E+00  0.88612311176E+03  0.88612311752E+03  0.10100000352E+00 0.  1.
        3   -1    0    0  501    0  0.00000000000E+00  0.00000000000E+00 -0.46985865666E+03  0.46985866752E+03  0.10100000352E+00 0. -1.
    10030    2    1    2    0    0  0.00000000000E+00  0.00000000000E+00  0.41626445510E+03  0.13559817850E+04  0.12905078476E+04 0.  0.
        4    1    3    3  502    0 -0.13616980751E+03 -0.53054116575E+03  0.56651585175E+03  0.78800886303E+03  0.12699999809E+01 0.  1.
       -4    1    3    3    0  502  0.13616980751E+03  0.53054116575E+03 -0.15025139665E+03  0.56797292200E+03  0.12699999809E+01 0. -1.
</event>
<event>
 5   0  0.2312105E-03  0.1116527E+04  0.7818609E-02  0.9189232E-01
       -2   -1    0    0    0  501  0.00000000000E+00  0.00000000000E+00  0.10823593780E+04  0.10823593780E+04  0.25500000920E-02 0.  1.
        2   -1    0    0  501    0  0.00000000000E+00  0.00000000000E+00 -0.28794334236E+03  0.28794334237E+03  0.25500000920E-02 0. -1.
    10030    2    1    2    0    0  0.00000000000E+00  0.00000000000E+00  0.79441603569E+03  0.13703027204E+04  0.11165270744E+04 0.  0.
        5    1    3    3  502    0  0.49712848750E+03  0.21651519498E+03  0.56012136761E+03  0.77959835762E+03  0.46999998093E+01 0.  1.
       -5    1    3    3    0  502 -0.49712848750E+03 -0.21651519498E+03  0.23429466808E+03  0.59070436280E+03  0.46999998093E+01 0. -1.
</event>
<event>
 5   0  0.1324721E-03  0.1269379E+04  0.7818609E-02  0.9054207E-01
        1   -1    0    0  501    0  0.00000000000E+00  0.00000000000E+00  0.14428775635E+04  0.14428775635E+04  0.50400001928E-02 0.  1.
       -1   -1    0    0    0  501  0.00000000000E+00  0.00000000000E+00 -0.27918574235E+03  0.27918574240E+03  0.50400001928E-02 0. -1.
    10030    2    1    2    0    0  0.00000000000E+00  0.00000000000E+00  0.11636918212E+04  0.17220633059E+04  0.12693791297E+04 0.  0.
        1    1    3    3  502    0 -0.22183853549E+03 -0.54641982106E+03  0.90012807780E+03  0.10761122215E+04  0.50400001928E-02 0.  1.
       -1    1    3    3    0  502  0.22183853549E+03  0.54641982106E+03  0.26356374335E+03  0.64595108446E+03  0.50400001928E-02 0. -1.
</event>
<event>
 5   0  0.1324721E-03  0.1305860E+04  0.7818609E-02  0.9024931E-01
        1   -1    0    0  501    0  0.00000000000E+00  0.00000000000E+00  0.98575282514E+03  0.98575282515E+03  0.50400001928E-02 0. -1.
       -1   -1    0    0    0  501  0.00000000000E+00  0.00000000000E+00 -0.43247895883E+03  0.43247895886E+03  0.50400001928E-02 0.  1.
    10030    2    1    2    0    0  0.00000000000E+00  0.00000000000E+00  0.55327386630E+03  0.14182317840E+04  0.13058596487E+04 0.  0.
        1    1    3    3  502    0  0.67294985443E+02 -0.53740662169E+03 -0.11941173011E+03  0.55461126333E+03  0.50400001928E-02 0.  1.
       -1    1    3    3    0  502 -0.67294985443E+02  0.53740662169E+03  0.67268559641E+03  0.86362052068E+03  0.50400001928E-02 0. -1.
</event>
<event>
 5   0  0.1387622E-03  0.1280346E+04  0.7818609E-02  0.9045298E-01
       -1   -1    0    0    0  501  0.00000000000E+00  0.00000000000E+00  0.36073414817E+03  0.36073414821E+03  0.50400001928E-02 0. -1.
        1   -1    0    0  501    0  0.00000000000E+00  0.00000000000E+00 -0.11360759639E+04  0.11360759640E+04  0.50400001928E-02 0.  1.
    10030    2    1    2    0    0  0.00000000000E+00  0.00000000000E+00 -0.77534181577E+03  0.14968101122E+04  0.12803458832E+04 0.  0.
        3    1    3    3  502    0 -0.16050955086E+03  0.32214604746E+03 -0.10065922352E+04  0.10690038961E+04  0.10100000352E+00 0.  1.
       -3    1    3    3    0  502  0.16050955086E+03 -0.32214604746E+03  0.23125041939E+03  0.42780621604E+03  0.10100000352E+00 0. -1.
</event>
<event>
 5   0  0.2401211E-03  0.1286731E+04  0.7818609E-02  0.9040155E-01
       -2   -1    0    0    0  501  0.00000000000E+00  0.00000000000E+00  0.78122861716E+03  0.78122861717E+03  0.25500000920E-02 0. -1.
        2   -1    0    0  501    0  0.00000000000E+00  0.00000000000E+00 -0.52983076539E+03  0.52983076540E+03  0.25500000920E-02 0.  1.
    10030    2    1    2    0    0  0.00000000000E+00  0.00000000000E+00  0.25139785177E+03  0.13110593826E+04  0.12867306730E+04 0.  0.
        4    1    3    3  502    0 -0.19973126805E+02  0.57692640820E+03 -0.16370366286E+03  0.60003625591E+03  0.12699999809E+01 0.  1.
       -4    1    3    3    0  502  0.19973126805E+02 -0.57692640820E+03  0.41510151464E+03  0.71102312665E+03  0.12699999809E+01 0. -1.
</event>
<event>
 5   0  0.2334946E-03  0.1289179E+04  0.7818609E-02  0.9038191E-01
       -2   -1    0    0    0  501  0.00000000000E+00  0.00000000000E+00  0.43158911094E+03  0.43158911095E+03  0.25500000920E-02 0. -1.
        2   -1    0    0  501    0  0.00000000000E+00  0.00000000000E+00 -0.96271036027E+03  0.96271036027E+03  0.25500000920E-02 0.  1.
    10030    2    1    2    0    0  0.00000000000E+00  0.00000000000E+00 -0.53112124932E+03  0.13942994712E+04  0.12891785113E+04 0.  0.
        1    1    3    3  502    0 -0.11195930284E+03  0.89520507445E+02  0.41413134750E+03  0.43823918099E+03  0.50400001928E-02 0. -1.
       -1    1    3    3    0  502  0.11195930284E+03 -0.89520507445E+02 -0.94525259682E+03  0.95606029024E+03  0.50400001928E-02 0.  1.
</event>
<event>
 5   0  0.2312105E-03  0.1316407E+04  0.7818609E-02  0.9016655E-01
        2   -1    0    0  501    0  0.00000000000E+00  0.00000000000E+00  0.13403104824E+04  0.13403104824E+04  0.25500000920E-02 0.  1.
       -2   -1    0    0    0  501  0.00000000000E+00  0.00000000000E+00 -0.32323224504E+03  0.32323224505E+03  0.25500000920E-02 0. -1.
    10030    2    1    2    0    0  0.00000000000E+00  0.00000000000E+00  0.10170782373E+04  0.16635427274E+04  0.13164065729E+04 0.  0.
        5    1    3    3  502    0  0.13581436287E+03 -0.34070332839E+03 -0.18209933123E+03  0.40951990863E+03  0.46999998093E+01 0. -1.
       -5    1    3    3    0  502 -0.13581436287E+03  0.34070332839E+03  0.11991775685E+04  0.12540228188E+04  0.46999998093E+01 0.  1.
</event>
<event>
 5   0  0.1346593E-03  0.1276818E+04  0.7818609E-02  0.9048153E-01
        1   -1    0    0  501    0  0.00000000000E+00  0.00000000000E+00  0.59821285877E+03  0.59821285879E+03  0.50400001928E-02 0.  1.
       -1   -1    0    0    0  501  0.00000000000E+00  0.00000000000E+00 -0.68130633149E+03  0.68130633151E+03  0.50400001928E-02 0. -1.
    10030    2    1    2    0    0  0.00000000000E+00  0.00000000000E+00 -0.83093472720E+02  0.12795191903E+04  0.12768182459E+04 0.  0.
        2    1    3    3  502    0  0.70771809267E+02  0.15465350637E+03 -0.65818558867E+03  0.67980484343E+03  0.25500000920E-02 0. -1.
       -2    1    3    3    0  502 -0.70771809267E+02 -0.15465350637E+03  0.57509211594E+03  0.59971434687E+03  0.25500000920E-02 0.  1.
</event>
<event>
 5   0  0.1332630E-03  0.1301333E+04  0.7818609E-02  0.9028509E-01
        1   -1    0    0  501    0  0.00000000000E+00  0.00000000000E+00  0.14160752994E+04  0.14160752994E+04  0.50400001928E-02 0. -1.
       -1   -1    0    0    0  501  0.00000000000E+00  0.00000000000E+00 -0.29897185380E+03  0.29897185385E+03  0.50400001928E-02 0.  1.
    10030    2    1    2    0    0  0.00000000000E+00  0.00000000000E+00  0.11171034456E+04  0.17150471532E+04  0.13013326361E+04 0.  0.
        5    1    3    3  502    0  0.27873663498E+03  0.52979006749E+03  0.89448575534E+03  0.10763356743E+04  0.46999998093E+01 0. -1.
       -5    1    3    3    0  502 -0.27873663498E+03 -0.52979006749E+03  0.22261769021E+03  0.63871147890E+03  0.46999998093E+01 0.  1.
</event>
<event>
 5   0  0.2401211E-03  0.1321057E+04  0.7818609E-02  0.9013032E-01
        2   -1    0    0  501    0  0.00000000000E+00  0.00000000000E+00  0.15685933591E+04  0.15685933591E+04  0.25500000920E-02 0. -1.
       -2   -1    0    0    0  501  0.00000000000E+00  0.00000000000E+00 -0.27814581053E+03  0.27814581054E+03  0.25500000920E-02 0.  1.
    10030    2    1    2    0    0  0.00000000000E+00  0.00000000000E+00  0.12904475485E+04  0.18467391696E+04  0.13210566547E+04 0.  0.
        4    1    3    3  502    0 -0.51502367308E+03  0.24828105418E+03  0.11076038541E+04  0.12464673185E+04  0.12699999809E+01 0. -1.
       -4    1    3    3    0  502  0.51502367308E+03 -0.24828105418E+03  0.18284369448E+03  0.60027185108E+03  0.12699999809E+01 0.  1.
</event>
<event>
 5   0  0.1387622E-03  0.1303861E+04  0.7818609E-02  0.9026509E-01
       -1   -1    0    0    0  501  0.00000000000E+00  0.00000000000E+00  0.30822821837E+03  0.30822821842E+03  0.50400001928E-02 0. -1.
        1   -1    0    0  501    0  0.00000000000E+00  0.00000000000E+00 -0.13788928238E+04  0.13788928238E+04  0.50400001928E-02 0.  1.
    10030    2    1    2    0    0  0.00000000000E+00  0.00000000000E+00 -0.10706646054E+04  0.16871210422E+04  0.13038614627E+04 0.  0.
        3    1    3    3  502    0 -0.19181588703E+03 -0.18415842826E+03  0.23486864826E+03  0.35478296655E+03  0.10100000352E+00 0. -1.
       -3    1    3    3    0  502  0.19181588703E+03  0.18415842826E+03 -0.13055332537E+04  0.13323380757E+04  0.10100000352E+00 0.  1.
</event>
<event>
 5   0  0.2401211E-03  0.1292874E+04  0.7818609E-02  0.9035235E-01
       -2   -1    0    0    0  501  0.00000000000E+00  0.00000000000E+00  0.78646817413E+03  0.78646817413E+03  0.25500000920E-02 0. -1.
        2   -1    0    0  501    0  0.00000000000E+00  0.00000000000E+00 -0.53133840761E+03  0.53133840761E+03  0.25500000920E-02 0.  1.
    10030    2    1    2    0    0  0.00000000000E+00  0.00000000000E+00  0.25512976652E+03  0.13178065817E+04  0.12928739262E+04 0.  0.
        4    1    3    3  502    0  0.25050385189E+03  0.58898028235E+03  0.22002912610E+03  0.67680453755E+03  0.12699999809E+01 0.  1.
       -4    1    3    3    0  502 -0.25050385189E+03 -0.58898028235E+03  0.35100640414E+02  0.64100204420E+03  0.12699999809E+01 0. -1.
</event>
<event>
 5   0  0.1324721E-03  0.1294608E+04  0.7818609E-02  0.9033852E-01
       -1   -1    0    0    0  501  0.00000000000E+00  0.00000000000E+00  0.79704913206E+03  0.79704913208E+03  0.50400001928E-02 0. -1.
        1   -1    0    0  501    0  0.00000000000E+00  0.00000000000E+00 -0.52569243729E+03  0.52569243732E+03  0.50400001928E-02 0.  1.
    10030    2    1    2    0    0  0.00000000000E+00  0.00000000000E+00  0.27135669477E+03  0.13227415694E+04  0.12946083592E+04 0.  0.
        1    1    3    3  502    0  0.26007527905E+03 -0.52780141029E+03  0.41133604997E+03  0.71792118335E+03  0.50400001928E-02 0.  1.
       -1    1    3    3    0  502 -0.26007527905E+03  0.52780141029E+03 -0.13997935520E+03  0.60482038605E+03  0.50400001928E-02 0. -1.
</event>
<event>
 5   0  0.1324721E-03  0.1291845E+04  0.7818609E-02  0.9036057E-01
       -1   -1    0    0    0  501  0.00000000000E+00  0.00000000000E+00  0.17110333929E+04  0.17110333929E+04  0.50400001928E-02 0.  1.
        1   -1    0    0  501    0  0.00000000000E+00  0.00000000000E+00 -0.24383864256E+03  0.24383864261E+03  0.50400001928E-02 0. -1.
    10030    2    1    2    0    0  0.00000000000E+00  0.00000000000E+00  0.14671947503E+04  0.19548720355E+04  0.12918452848E+04 0.  0.
        1    1    3    3  502    0  0.22236769389E+03  0.38757477493E+03  0.14394139092E+04  0.15071741769E+04  0.50400001928E-02 0.  1.
       -1    1    3    3    0  502 -0.22236769389E+03 -0.38757477493E+03  0.27780841120E+02  0.44769785861E+03  0.50400001928E-02 0. -1.
</event>
<event>
 5   0  0.2401211E-03  0.1293570E+04  0.7818609E-02  0.9034679E-01
       -2   -1    0    0    0  501  0.00000000000E+00  0.00000000000E+00  0.27646056088E+03  0.27646056089E+03  0.25500000920E-02 0.  1.
        2   -1    0    0  501    0  0.00000000000E+00  0.00000000000E+00 -0.15131675273E+04  0.15131675273E+04  0.25500000920E-02 0. -1.
    10030    2    1    2    0    0  0.00000000000E+00  0.00000000000E+00 -0.12367069664E+04  0.17896280882E+04  0.12935704748E+04 0.  0.
        4    1    3    3  502    0 -0.52407352654E+03  0.45730028296E+02 -0.11389265248E+04  0.12545515289E+04  0.12699999809E+01 0. -1.
       -4    1    3    3    0  502  0.52407352654E+03 -0.45730028296E+02 -0.97780441621E+02  0.53507655936E+03  0.12699999809E+01 0.  1.
</event>
<event>
 5   0  0.2334946E-03  0.1290111E+04  0.7818609E-02  0.9037444E-01
       -2   -1    0    0    0  501  0.00000000000E+00  0.00000000000E+00  0.25735950045E+03  0.25735950047E+03  0.25500000920E-02 0.  1.
        2   -1    0    0  501    0  0.00000000000E+00  0.00000000000E+00 -0.16167909969E+04  0.16167909969E+04  0.25500000920E-02 0. -1.
    10030    2    1    2    0    0  0.00000000000E+00  0.00000000000E+00 -0.13594314965E+04  0.18741504974E+04  0.12901108841E+04 0.  0.
        1    1    3    3  502    0 -0.44813697668E+03 -0.30406947160E+03 -0.11888085940E+04  0.13063502083E+04  0.50400001928E-02 0.  1.
       -1    1    3    3    0  502  0.44813697668E+03  0.30406947160E+03 -0.17062290242E+03  0.56780028909E+03  0.50400001928E-02 0. -1.
</event>
<event>
 5   0  0.2361043E-03  0.1292163E+04  0.7818609E-02  0.9035803E-01
        2   -1    0    0  501    0  0.00000000000E+00  0.00000000000E+00  0.15797330129E+04  0.15797330129E+04  0.25500000920E-02 0.  1.
       -2   -1    0    0    0  501  0.00000000000E+00  0.00000000000E+00 -0.26423547273E+03  0.26423547274E+03  0.25500000920E-02 0. -1.
    10030    2    1    2    0    0  0.00000000000E+00  0.00000000000E+00  0.13154975402E+04  0.18439684857E+04  0.12921633016E+04 0.  0.
        2    1    3    3  502    0  0.50824067455E+03 -0.29921447980E+02  0.12253763906E+04  0.13269329957E+04  0.25500000920E-02 0.  1.
       -2    1    3    3    0  502 -0.50824067455E+03  0.29921447980E+02  0.90121149579E+02  0.51703549000E+03  0.25500000920E-02 0. -1.
</event>
<event>
 5   0  0.2401211E-03  0.1296796E+04  0.7818609E-02  0.9032110E-01
       -2   -1    0    0    0  501  0.00000000000E+00  0.00000000000E+00  0.13753498878E+04  0.13753498878E+04  0.25500000920E-02 0.  1.
        2   -1    0    0  501    0  0.00000000000E+00  0.00000000000E+00 -0.30568195749E+03  0.30568195750E+03  0.25500000920E-02 0. -1.
    10030    2    1    2    0    0  0.00000000000E+00  0.00000000000E+00  0.10696679303E+04  0.16810318453E+04  0.12967955058E+04 0.  0.
        4    1    3    3  502    0  0.95900075530E+02 -0.31072704343E+03  0.12619974362E+04  0.13032218775E+04  0.12699999809E+01 0.  1.
       -4    1    3    3    0  502 -0.95900075530E+02  0.31072704343E+03 -0.19232950595E+03  0.37780996779E+03  0.12699999809E+01 0. -1.
</event>
<event>
 5   0  0.1324721E-03  0.1364809E+04  0.7818609E-02  0.8979693E-01
       -1   -1    0    0    0  501  0.00000000000E+00  0.00000000000E+00  0.36892317492E+03  0.36892317495E+03  0.50400001928E-02 0.  1.
        1   -1    0    0  501    0  0.00000000000E+00  0.00000000000E+00 -0.12622568573E+04  0.12622568573E+04  0.50400001928E-02 0. -1.
    10030    2    1    2    0    0  0.00000000000E+00  0.00000000000E+00 -0.89333368240E+03  0.16311800323E+04  0.13648088619E+04 0.  0.
        1    1    3    3  502    0  0.52746067445E+03  0.58908157820E+02 -0.95932538902E+03  0.10963531074E+04  0.50400001928E-02 0. -1.
       -1    1    3    3    0  502 -0.52746067445E+03 -0.58908157820E+02  0.65991706627E+02  0.53482692483E+03  0.50400001928E-02 0.  1.
</event>
<event>
 5   0  0.1387622E-03  0.1298311E+04  0.7818609E-02  0.9030906E-01
        1   -1    0    0  501    0  0.00000000000E+00  0.00000000000E+00  0.98608788065E+03  0.98608788066E+03  0.50400001928E-02 0.  1.
       -1   -1    0    0    0  501  0.00000000000E+00  0.00000000000E+00 -0.42734808421E+03  0.42734808424E+03  0.50400001928E-02 0. -1.
    10030    2    1    2    0    0  0.00000000000E+00  0.00000000000E+00  0.55873979644E+03  0.14134359649E+04  0.12983108514E+04 0.  0.
        3    1    3    3  502    0  0.12512077230E+03 -0.32593106055E+03 -0.31644014760E+03  0.47119066322E+03  0.10100000352E+00 0. -1.
       -3    1    3    3    0  502 -0.12512077230E+03  0.32593106055E+03  0.87517994403E+03  0.94224530168E+03  0.10100000352E+00 0.  1.
</event>
<event>
 5   0  0.2361043E-03  0.1301157E+04  0.7818609E-02  0.9028648E-01
       -2   -1    0    0    0  501  0.00000000000E+00  0.00000000000E+00  0.83525734308E+03  0.83525734309E+03  0.25500000920E-02 0.  1.
        2   -1    0    0  501    0  0.00000000000E+00  0.00000000000E+00 -0.50673323408E+03  0.50673323409E+03  0.25500000920E-02 0. -1.
    10030    2    1    2    0    0  0.00000000000E+00  0.00000000000E+00  0.32852410900E+03  0.13419905772E+04  0.13011574152E+04 0.  0.
        2    1    3    3  502    0 -0.64509096087E+03 -0.84096574726E+02  0.15789807678E+03  0.66943736401E+03  0.25500000920E-02 0. -1.
       -2    1    3    3    0  502  0.64509096087E+03  0.84096574726E+02  0.17062603222E+03  0.67255321317E+03  0.25500000920E-02 0.  1.
</event>
<event>
 5   0  0.1346593E-03  0.1053888E+04  0.7818609E-02  0.9251339E-01
        1   -1    0    0  501    0  0.00000000000E+00  0.00000000000E+00  0.12779512008E+04  0.12779512008E+04  0.50400001928E-02 0. -1.
       -1   -1    0    0    0  501  0.00000000000E+00  0.00000000000E+00 -0.21727730126E+03  0.21727730132E+03  0.50400001928E-02 0.  1.
    10030    2    1    2    0    0  0.00000000000E+00  0.00000000000E+00  0.10606738995E+04  0.14952285021E+04  0.10538876375E+04 0.  0.
        2    1    3    3  502    0 -0.35354113067E+03  0.25061828498E+03  0.95565914605E+03  0.10493260977E+04  0.25500000920E-02 0. -1.
       -2    1    3    3    0  502  0.35354113067E+03 -0.25061828498E+03  0.10501475350E+03  0.44590240445E+03  0.25500000920E-02 0.  1.
</event>
<event>
 5   0  0.1346593E-03  0.1308282E+04  0.7818609E-02  0.9023023E-01
        1   -1    0    0  501    0  0.00000000000E+00  0.00000000000E+00  0.20458510429E+04  0.20458510429E+04  0.50400001928E-02 0. -1.
       -1   -1    0    0    0  501  0.00000000000E+00  0.00000000000E+00 -0.20915524570E+03  0.20915524576E+03  0.50400001928E-02 0.  1.
    10030    2    1    2    0    0  0.00000000000E+00  0.00000000000E+00  0.18366957972E+04  0.22550062886E+04  0.13082820455E+04 0.  0.
        2    1    3    3  502    0 -0.28799619163E+03  0.17807549485E+03 -0.46347891902E+02  0.34176134268E+03  0.25500000920E-02 0.  1.
       -2    1    3    3    0  502  0.28799619163E+03 -0.17807549485E+03  0.18830436891E+04  0.19132449459E+04  0.25500000920E-02 0. -1.
</event>
<event>
 5   0  0.1310461E-03  0.1294493E+04  0.7818609E-02  0.9033944E-01
       -1   -1    0    0    0  501  0.00000000000E+00  0.00000000000E+00  0.42716725615E+03  0.42716725618E+03  0.50400001928E-02 0.  1.
        1   -1    0    0  501    0  0.00000000000E+00  0.00000000000E+00 -0.98071124314E+03  0.98071124315E+03  0.50400001928E-02 0. -1.
    10030    2    1    2    0    0  0.00000000000E+00  0.00000000000E+00 -0.55354398698E+03  0.14078784993E+04  0.12944925351E+04 0.  0.
        4    1    3    3  502    0 -0.60218183091E+02 -0.64352334029E+03 -0.31409394259E+03  0.71861334300E+03  0.12699999809E+01 0. -1.
       -4    1    3    3    0  502  0.60218183091E+02  0.64352334029E+03 -0.23945004439E+03  0.68926515633E+03  0.12699999809E+01 0.  1.
</event>
<event>
 5   0  0.2361043E-03  0.1306171E+04  0.7818609E-02  0.9024686E-01
        2   -1    0    0  501    0  0.00000000000E+00  0.00000000000E+00  0.85968899551E+03  0.85968899551E+03  0.25500000920E-02 0.  1.
       -2   -1    0    0    0  501  0.00000000000E+00  0.00000000000E+00 -0.49613359339E+03  0.49613359340E+03  0.25500000920E-02 0. -1.
    10030    2    1    2    0    0  0.00000000000E+00  0.00000000000E+00  0.36355540212E+03  0.13558225889E+04  0.13061708779E+04 0.  0.
        2    1    3    3  502    0  0.38482093143E+03 -0.21758016970E+03  0.68077203765E+03  0.81171352505E+03  0.25500000920E-02 0.  1.
       -2    1    3    3    0  502 -0.38482093143E+03  0.21758016970E+03 -0.31721663553E+03  0.54410906386E+03  0.25500000920E-02 0. -1.
</event>
<event>
 5   0  0.1324721E-03  0.1287540E+04  0.7818609E-02  0.9039505E-01
       -1   -1    0    0    0  501  0.00000000000E+00  0.00000000000E+00  0.33716036430E+03  0.33716036434E+03  0.50400001928E-02 0. -1.
        1   -1    0    0  501    0  0.00000000000E+00  0.00000000000E+00 -0.12292073438E+04  0.12292073438E+04  0.50400001928E-02 0.  1.
    10030    2    1    2    0    0  0.00000000000E+00  0.00000000000E+00 -0.89204697953E+03  0.15663677082E+04  0.12875402842E+04 0.  0.
        1    1    3    3  502    0 -0.25856392873E+03 -0.23796252943E+03  0.21019496312E+03  0.40946720650E+03  0.50400001928E-02 0. -1.
       -1    1    3    3    0  502  0.25856392873E+03  0.23796252943E+03 -0.11022419426E+04  0.11569005017E+04  0.50400001928E-02 0.  1.
</event>
<event>
 5   0  0.2361043E-03  0.1229515E+04  0.7818609E-02  0.9087407E-01
       -2   -1    0    0    0  501  0.00000000000E+00  0.00000000000E+00  0.38795021506E+03  0.38795021507E+03  0.25500000920E-02 0.  1.
        2   -1    0    0  501    0  0.00000000000E+00  0.00000000000E+00 -0.97416313022E+03  0.97416313023E+03  0.25500000920E-02 0. -1.
    10030    2    1    2    0    0  0.00000000000E+00  0.00000000000E+00 -0.58621291516E+03  0.13621133453E+04  0.12295150196E+04 0.  0.
        2    1    3    3  502    0  0.26634128746E+03  0.38005094103E+03 -0.73976271889E+03  0.87328419169E+03  0.25500000920E-02 0.  1.
       -2    1    3    3    0  502 -0.26634128746E+03 -0.38005094103E+03  0.15354980373E+03  0.48882915361E+03  0.25500000920E-02 0. -1.
</event>
<event>
 5   0  0.2361043E-03  0.1302186E+04  0.7818609E-02  0.9027833E-01
       -2   -1    0    0    0  501  0.00000000000E+00  0.00000000000E+00  0.62675585256E+03  0.62675585257E+03  0.25500000920E-02 0. -1.
        2   -1    0    0  501    0  0.00000000000E+00  0.00000000000E+00 -0.67637525520E+03  0.67637525521E+03  0.25500000920E-02 0.  1.
    10030    2    1    2    0    0  0.00000000000E+00  0.00000000000E+00 -0.49619402644E+02  0.13031311078E+04  0.13021860846E+04 0.  0.
        2    1    3    3  502    0  0.42084922349E+03 -0.48522550785E+03 -0.13149047712E+03  0.65562764429E+03  0.25500000920E-02 0. -1.
       -2    1    3    3    0  502 -0.42084922349E+03  0.48522550785E+03  0.81871074481E+02  0.64750346348E+03  0.25500000920E-02 0.  1.
</event>
<event>
 5   0  0.2361043E-03  0.1316639E+04  0.7818609E-02  0.9016473E-01
        2   -1    0    0  501    0  0.00000000000E+00  0.00000000000E+00  0.16217810899E+04  0.16217810899E+04  0.25500000920E-02 0.  1.
       -2   -1    0    0    0  501  0.00000000000E+00  0.00000000000E+00 -0.26722771114E+03  0.26722771115E+03  0.25500000920E-02 0. -1.
    10030    2    1    2    0    0  0.00000000000E+00  0.00000000000E+00  0.13545533788E+04  0.18890088011E+04  0.13166394322E+04 0.  0.
        2    1    3    3  502    0 -0.28673869207E+03 -0.50874507233E+03  0.11132621315E+04  0.12571369057E+04  0.25500000920E-02 0.  1.
       -2    1    3    3    0  502  0.28673869207E+03  0.50874507233E+03  0.24129124724E+03  0.63187189537E+03  0.25500000920E-02 0. -1.
</event>
<event>
 5   0  0.2334946E-03  0.1324263E+04  0.7818609E-02  0.9010543E-01
        2   -1    0    0  501    0  0.00000000000E+00  0.00000000000E+00  0.72181948195E+03  0.72181948195E+03  0.25500000920E-02 0.  1.
       -2   -1    0    0    0  501  0.00000000000E+00  0.00000000000E+00 -0.60737872005E+03  0.60737872005E+03  0.25500000920E-02 0. -1.
    10030    2    1    2    0    0  0.00000000000E+00  0.00000000000E+00  0.11444076190E+03  0.13291982020E+04  0.13242625013E+04 0.  0.
        1    1    3    3  502    0  0.43132383144E+02 -0.49161719265E+03 -0.38586566628E+03  0.62645046015E+03  0.50400001928E-02 0. -1.
       -1    1    3    3    0  502 -0.43132383144E+02  0.49161719265E+03  0.50030642818E+03  0.70274774186E+03  0.50400001928E-02 0.  1.
</event>
<event>
 5   0  0.1346593E-03  0.1314641E+04  0.7818609E-02  0.9018035E-01
       -1   -1    0    0    0  501  0.00000000000E+00  0.00000000000E+00  0.46399278099E+03  0.46399278102E+03  0.50400001928E-02 0.  1.
        1   -1    0    0  501    0  0.00000000000E+00  0.00000000000E+00 -0.93120030521E+03  0.93120030522E+03  0.50400001928E-02 0. -1.
    10030    2    1    2    0    0  0.00000000000E+00  0.00000000000E+00 -0.46720752421E+03  0.13951930862E+04  0.13146409689E+04 0.  0.
        2    1    3    3  502    0 -0.59318353591E+03  0.28140863900E+03 -0.19983109218E+03  0.68628710814E+03  0.25500000920E-02 0. -1.
       -2    1    3    3    0  502  0.59318353591E+03 -0.28140863900E+03 -0.26737643203E+03  0.70890597811E+03  0.25500000920E-02 0.  1.
</event>
<event>
 5   0  0.2401211E-03  0.1315531E+04  0.7818609E-02  0.9017339E-01
       -2   -1    0    0    0  501  0.00000000000E+00  0.00000000000E+00  0.34923571553E+03  0.34923571554E+03  0.25500000920E-02 0.  1.
        2   -1    0    0  501    0  0.00000000000E+00  0.00000000000E+00 -0.12388636728E+04  0.12388636728E+04  0.25500000920E-02 0. -1.
    10030    2    1    2    0    0  0.00000000000E+00  0.00000000000E+00 -0.88962795726E+03  0.15880993883E+04  0.13155309821E+04 0.  0.
        4    1    3    3  502    0 -0.31633866327E+03  0.57117862941E+03 -0.54092540968E+03  0.84788978548E+03  0.12699999809E+01 0.  1.
       -4    1    3    3    0  502  0.31633866327E+03 -0.57117862941E+03 -0.34870254758E+03  0.74020960286E+03  0.12699999809E+01 0. -1.
</event>
<event>
 5   0  0.2312105E-03  0.1271149E+04  0.7818609E-02  0.9052762E-01
        2   -1    0    0  501    0  0.00000000000E+00  0.00000000000E+00  0.30440095223E+03  0.30440095224E+03  0.25500000920E-02 0. -1.
       -2   -1    0    0    0  501  0.00000000000E+00  0.00000000000E+00 -0.13270489268E+04  0.13270489268E+04  0.25500000920E-02 0.  1.
    10030    2    1    2    0    0  0.00000000000E+00  0.00000000000E+00 -0.10226479746E+04  0.16314498790E+04  0.12711490188E+04 0.  0.
        5    1    3    3  502    0  0.16392869572E+03  0.38113028026E+03 -0.11292463989E+04  0.12030596108E+04  0.46999998093E+01 0.  1.
       -5    1    3    3    0  502 -0.16392869572E+03 -0.38113028026E+03  0.10659842433E+03  0.42839026819E+03  0.46999998093E+01 0. -1.
</event>
<event>
 5   0  0.1387622E-03  0.1295063E+04  0.7818609E-02  0.9033490E-01
        1   -1    0    0  501    0  0.00000000000E+00  0.00000000000E+00  0.75652990157E+03  0.75652990159E+03  0.50400001928E-02 0.  1.
       -1   -1    0    0    0  501  0.00000000000E+00  0.00000000000E+00 -0.55423686020E+03  0.55423686022E+03  0.50400001928E-02 0. -1.
    10030    2    1    2    0    0  0.00000000000E+00  0.00000000000E+00  0.20229304137E+03  0.13107667618E+04  0.12950625581E+04 0.  0.
        3    1    3    3  502    0  0.30586896621E+02  0.55392761295E+03  0.43915029116E+03  0.70754812350E+03  0.10100000352E+00 0.  1.
       -3    1    3    3    0  502 -0.30586896621E+02 -0.55392761295E+03 -0.23685724979E+03  0.60321863832E+03  0.10100000352E+00 0. -1.
</event>
<event>
 5   0  0.2312105E-03  0.1283304E+04  0.7818609E-02  0.9042911E-01
        2   -1    0    0  501    0  0.00000000000E+00  0.00000000000E+00  0.20875729274E+04  0.20875729274E+04  0.25500000920E-02 0.  1.
       -2   -1    0    0    0  501  0.00000000000E+00  0.00000000000E+00 -0.19722283928E+03  0.19722283930E+03  0.25500000920E-02 0. -1.
    10030    2    1    2    0    0  0.00000000000E+00  0.00000000000E+00  0.18903500881E+04  0.22847957667E+04  0.12833036429E+04 0.  0.
        5    1    3    3  502    0  0.37000435400E+03 -0.21794289964E+03  0.96364735514E+02  0.44012564312E+03  0.46999998093E+01 0. -1.
       -5    1    3    3    0  502 -0.37000435400E+03  0.21794289964E+03  0.17939853526E+04  0.18446701236E+04  0.46999998093E+01 0.  1.
</event>
<event>
 5   0  0.1332630E-03  0.1299866E+04  0.7818609E-02  0.9029672E-01
       -1   -1    0    0    0  501  0.00000000000E+00  0.00000000000E+00  0.34352910721E+03  0.34352910725E+03  0.50400001928E-02 0. -1.
        1   -1    0    0  501    0  0.00000000000E+00  0.00000000000E+00 -0.12296270509E+04  0.12296270510E+04  0.50400001928E-02 0.  1.
    10030    2    1    2    0    0  0.00000000000E+00  0.00000000000E+00 -0.88609794373E+03  0.15731561582E+04  0.12998656593E+04 0.  0.
        5    1    3    3  502    0 -0.60230386131E+03  0.15311878756E+02 -0.14812089053E+03  0.62045651192E+03  0.46999998093E+01 0.  1.
       -5    1    3    3    0  502  0.60230386131E+03 -0.15311878756E+02 -0.73797705321E+03  0.95269964629E+03  0.46999998093E+01 0. -1.
</event>
<event>
 5   0  0.2312105E-03  0.1298175E+04  0.7818609E-02  0.9031014E-01
       -2   -1    0    0    0  501  0.00000000000E+00  0.00000000000E+00  0.30671960630E+03  0.30671960631E+03  0.25500000920E-02 0. -1.
        2   -1    0    0  501    0  0.00000000000E+00  0.00000000000E+00 -0.13736143384E+04  0.13736143384E+04  0.25500000920E-02 0.  1.
    10030    2    1    2    0    0  0.00000000000E+00  0.00000000000E+00 -0.10668947321E+04  0.16803339447E+04  0.12981747942E+04 0.  0.
        5    1    3    3  502    0 -0.92636072323E+02 -0.53806998443E+03 -0.79136638207E+02  0.55171138065E+03  0.46999998093E+01 0. -1.
       -5    1    3    3    0  502  0.92636072323E+02  0.53806998443E+03 -0.98775809392E+03  0.11286225641E+04  0.46999998093E+01 0.  1.
</event>
<event>
 5   0  0.2361043E-03  0.1285453E+04  0.7818609E-02  0.9041181E-01
        2   -1    0    0  501    0  0.00000000000E+00  0.00000000000E+00  0.11510021303E+04  0.11510021303E+04  0.25500000920E-02 0. -1.
       -2   -1    0    0    0  501  0.00000000000E+00  0.00000000000E+00 -0.35890218107E+03  0.35890218108E+03  0.25500000920E-02 0.  1.
    10030    2    1    2    0    0  0.00000000000E+00  0.00000000000E+00  0.79209994925E+03  0.15099043114E+04  0.12854527218E+04 0.  0.
        2    1    3    3  502    0 -0.20805794293E+02 -0.64155372791E+03  0.35757174717E+03  0.73476637189E+03  0.25500000920E-02 0.  1.
       -2    1    3    3    0  502  0.20805794293E+02  0.64155372791E+03  0.43452820207E+03  0.77513793951E+03  0.25500000920E-02 0. -1.
</event>
<event>
 5   0  0.1324721E-03  0.1310447E+04  0.7818609E-02  0.9021321E-01
       -1   -1    0    0    0  501  0.00000000000E+00  0.00000000000E+00  0.74340288912E+03  0.74340288914E+03  0.50400001928E-02 0. -1.
        1   -1    0    0  501    0  0.00000000000E+00  0.00000000000E+00 -0.57750364692E+03  0.57750364694E+03  0.50400001928E-02 0.  1.
    10030    2    1    2    0    0  0.00000000000E+00  0.00000000000E+00  0.16589924220E+03  0.13209065361E+04  0.13104470682E+04 0.  0.
        1    1    3    3  502    0 -0.41963229226E+03 -0.19517514752E+03 -0.38457706554E+03  0.60173425886E+03  0.50400001928E-02 0.  1.
       -1    1    3    3    0  502  0.41963229226E+03  0.19517514752E+03  0.55047630774E+03  0.71917227722E+03  0.50400001928E-02 0. -1.
</event>
<event>
 5   0  0.1324721E-03  0.1160831E+04  0.7818609E-02  0.9147849E-01
        1   -1    0    0  501    0  0.00000000000E+00  0.00000000000E+00  0.71643853539E+03  0.71643853540E+03  0.50400001928E-02 0.  1.
       -1   -1    0    0    0  501  0.00000000000E+00  0.00000000000E+00 -0.47021785416E+03  0.47021785419E+03  0.50400001928E-02 0. -1.
    10030    2    1    2    0    0  0.00000000000E+00  0.00000000000E+00  0.24622068122E+03  0.11866563896E+04  0.11608310657E+04 0.  0.
        1    1    3    3  502    0  0.55911032179E+03  0.11736103443E+03  0.18340086498E+02  0.57158929585E+03  0.50400001928E-02 0.  1.
       -1    1    3    3    0  502 -0.55911032179E+03 -0.11736103443E+03  0.22788059472E+03  0.61506709374E+03  0.50400001928E-02 0. -1.
</event>
<event>
 5   0  0.2401211E-03  0.1236516E+04  0.7818609E-02  0.9081482E-01
        2   -1    0    0  501    0  0.00000000000E+00  0.00000000000E+00  0.11535303003E+04  0.11535303003E+04  0.25500000920E-02 0.  1.
       -2   -1    0    0    0  501  0.00000000000E+00  0.00000000000E+00 -0.33136771565E+03  0.33136771566E+03  0.25500000920E-02 0. -1.
    10030    2    1    2    0    0  0.00000000000E+00  0.00000000000E+00  0.82216258463E+03  0.14848980159E+04  0.12365155891E+04 0.  0.
        4    1    3    3  502    0 -0.56935502958E+03 -0.16308095187E+03  0.62414924120E+03  0.86042107991E+03  0.12699999809E+01 0. -1.
       -4    1    3    3    0  502  0.56935502958E+03  0.16308095187E+03  0.19801334343E+03  0.62447693604E+03  0.12699999809E+01 0.  1.
</event>
<event>
 5   0  0.2401211E-03  0.1386542E+04  0.7818609E-02  0.8963618E-01
        2   -1    0    0  501    0  0.00000000000E+00  0.00000000000E+00  0.91357491396E+03  0.91357491396E+03  0.25500000920E-02 0. -1.
       -2   -1    0    0    0  501  0.00000000000E+00  0.00000000000E+00 -0.52609222641E+03  0.52609222641E+03  0.25500000920E-02 0.  1.
    10030    2    1    2    0    0  0.00000000000E+00  0.00000000000E+00  0.38748268755E+03  0.14396671404E+04  0.13865419727E+04 0.  0.
        4    1    3    3  502    0  0.42687860393E+03  0.29378156587E+03  0.67191898611E+03  0.84853384596E+03  0.12699999809E+01 0. -1.
       -4    1    3    3    0  502 -0.42687860393E+03 -0.29378156587E+03 -0.28443629856E+03  0.59113329442E+03  0.12699999809E+01 0.  1.
</event>
<event>
 5   0  0.2334946E-03  0.1188523E+04  0.7818609E-02  0.9122962E-01
       -2   -1    0    0    0  501  0.00000000000E+00  0.00000000000E+00  0.28796768324E+03  0.28796768326E+03  0.25500000920E-02 0.  1.
        2   -1    0    0  501    0  0.00000000000E+00  0.00000000000E+00 -0.12263407004E+04  0.12263407004E+04  0.25500000920E-02 0. -1.
    10030    2    1    2    0    0  0.00000000000E+00  0.00000000000E+00 -0.93837301711E+03  0.15143083836E+04  0.11885225961E+04 0.  0.
        1    1    3    3  502    0 -0.24603682268E+03  0.44407510461E+03 -0.75633633845E+02  0.51328088144E+03  0.50400001928E-02 0.  1.
       -1    1    3    3    0  502  0.24603682268E+03 -0.44407510461E+03 -0.86273938327E+03  0.10010275022E+04  0.50400001928E-02 0. -1.
</event>
<event>
 5   0  0.2312105E-03  0.1292756E+04  0.7818609E-02  0.9035330E-01
        2   -1    0    0  501    0  0.00000000000E+00  0.00000000000E+00  0.89904626438E+03  0.89904626438E+03  0.25500000920E-02 0. -1.
       -2   -1    0    0    0  501  0.00000000000E+00  0.00000000000E+00 -0.46471935580E+03  0.46471935580E+03  0.25500000920E-02 0.  1.
    10030    2    1    2    0    0  0.00000000000E+00  0.00000000000E+00  0.43432690858E+03  0.13637656202E+04  0.12927555079E+04 0.  0.
        5    1    3    3  502    0  0.21569422814E+03  0.41077352737E+03  0.69190884074E+03  0.83307792237E+03  0.46999998093E+01 0. -1.
       -5    1    3    3    0  502 -0.21569422814E+03 -0.41077352737E+03 -0.25758193217E+03  0.53068769782E+03  0.46999998093E+01 0.  1.
</event>
<event>
 5   0  0.1387622E-03  0.1292468E+04  0.7818609E-02  0.9035559E-01
        1   -1    0    0  501    0  0.00000000000E+00  0.00000000000E+00  0.11291250843E+04  0.11291250843E+04  0.50400001928E-02 0. -1.
       -1   -1    0    0    0  501  0.00000000000E+00  0.00000000000E+00 -0.36986031147E+03  0.36986031151E+03  0.50400001928E-02 0.  1.
    10030    2    1    2    0    0  0.00000000000E+00  0.00000000000E+00  0.75926477280E+03  0.14989853958E+04  0.12924682671E+04 0.  0.
        3    1    3    3  502    0  0.44319626931E+03 -0.43744874065E+03  0.57995722141E+03  0.85096105827E+03  0.10100000352E+00 0. -1.
       -3    1    3    3    0  502 -0.44319626931E+03  0.43744874065E+03  0.17930755139E+03  0.64802433752E+03  0.10100000352E+00 0.  1.
</event>
<event>
 5   0  0.1324721E-03  0.1290665E+04  0.7818609E-02  0.9037001E-01
        1   -1    0    0  501    0  0.00000000000E+00  0.00000000000E+00  0.10047985448E+04  0.10047985448E+04  0.50400001928E-02 0.  1.
       -1   -1    0    0    0  501  0.00000000000E+00  0.00000000000E+00 -0.41446511768E+03  0.41446511771E+03  0.50400001928E-02 0. -1.
    10030    2    1    2    0    0  0.00000000000E+00  0.00000000000E+00  0.59033342714E+03  0.14192636626E+04  0.12906648630E+04 0.  0.
        1    1    3    3  502    0  0.48906183510E+03 -0.27794731705E+03 -0.52600113679E+02  0.56498049665E+03  0.50400001928E-02 0. -1.
       -1    1    3    3    0  502 -0.48906183510E+03  0.27794731705E+03  0.64293354082E+03  0.85428316590E+03  0.50400001928E-02 0.  1.
</event>
<event>
 5   0  0.2361043E-03  0.1282821E+04  0.7818609E-02  0.9043300E-01
       -2   -1    0    0    0  501  0.00000000000E+00  0.00000000000E+00  0.34672461576E+03  0.34672461577E+03  0.25500000920E-02 0.  1.
        2   -1    0    0  501    0  0.00000000000E+00  0.00000000000E+00 -0.11865545934E+04  0.11865545934E+04  0.25500000920E-02 0. -1.
    10030    2    1    2    0    0  0.00000000000E+00  0.00000000000E+00 -0.83982997769E+03  0.15332792092E+04  0.12828213991E+04 0.  0.
        2    1    3    3  502    0 -0.28473774814E+03 -0.50349943356E+03 -0.88636381728E+02  0.58518687013E+03  0.25500000920E-02 0.  1.
       -2    1    3    3    0  502  0.28473774814E+03  0.50349943356E+03 -0.75119359596E+03  0.94809233908E+03  0.25500000920E-02 0. -1.
</event>
<event>
 5   0  0.1332630E-03  0.1324528E+04  0.7818609E-02  0.9010337E-01
        1   -1    0    0  501    0  0.00000000000E+00  0.00000000000E+00  0.12788858294E+04  0.12788858294E+04  0.50400001928E-02 0. -1.
       -1   -1    0    0    0  501  0.00000000000E+00  0.00000000000E+00 -0.34294985160E+03  0.34294985164E+03  0.50400001928E-02 0.  1.
    10030    2    1    2    0    0  0.00000000000E+00  0.00000000000E+00  0.93593597780E+03  0.16218356810E+04  0.13245281506E+04 0.  0.
        5    1    3    3  502    0 -0.28265524191E+03  0.49006187293E+03  0.46430731967E+02  0.56765528972E+03  0.46999998093E+01 0.  1.
       -5    1    3    3    0  502  0.28265524191E+03 -0.49006187293E+03  0.88950524583E+03  0.10541803913E+04  0.46999998093E+01 0. -1.
</event>
<event>
 5   0  0.1324721E-03  0.1318879E+04  0.7818609E-02  0.9014727E-01
       -1   -1    0    0    0  501  0.00000000000E+00  0.00000000000E+00  0.39698668324E+03  0.39698668327E+03  0.50400001928E-02 0.  1.
        1   -1    0    0  501    0  0.00000000000E+00  0.00000000000E+00 -0.10954030037E+04  0.10954030037E+04  0.50400001928E-02 0. -1.
    10030    2    1    2    0    0  0.00000000000E+00  0.00000000000E+00 -0.69841632048E+03  0.14923896870E+04  0.13188789259E+04 0.  0.
        1    1    3    3  502    0 -0.55543550042E+03 -0.23723436241E+03 -0.49672497799E+02  0.60601657972E+03  0.50400001928E-02 0.  1.
       -1    1    3    3    0  502  0.55543550042E+03  0.23723436241E+03 -0.64874382268E+03  0.88637310729E+03  0.50400001928E-02 0. -1.
</event>
<event>
 5   0  0.1346593E-03  0.1313661E+04  0.7818609E-02  0.9018802E-01
        1   -1    0    0  501    0  0.00000000000E+00  0.00000000000E+00  0.83967558028E+03  0.83967558029E+03  0.50400001928E-02 0. -1.
       -1   -1    0    0    0  501  0.00000000000E+00  0.00000000000E+00 -0.51380109850E+03  0.51380109852E+03  0.50400001928E-02 0.  1.
    10030    2    1    2    0    0  0.00000000000E+00  0.00000000000E+00  0.32587448178E+03  0.13534766788E+04  0.13136608932E+04 0.  0.
        2    1    3    3  502    0 -0.51095503030E+03 -0.37731225497E+03  0.33529982685E+03  0.71823781203E+03  0.25500000920E-02 0. -1.
       -2    1    3    3    0  502  0.51095503030E+03  0.37731225497E+03 -0.94253450718E+01  0.63523886679E+03  0.25500000920E-02 0.  1.
</event>
<event>
 5   0  0.2361043E-03  0.1318995E+04  0.7818609E-02  0.9014636E-01
        2   -1    0    0  501    0  0.00000000000E+00  0.00000000000E+00  0.10071878914E+04  0.10071878915E+04  0.25500000920E-02 0. -1.
       -2   -1    0    0    0  501  0.00000000000E+00  0.00000000000E+00 -0.43183311694E+03  0.43183311695E+03  0.25500000920E-02 0.  1.
    10030    2    1    2    0    0  0.00000000000E+00  0.00000000000E+00  0.57535477451E+03  0.14390210084E+04  0.13189952032E+04 0.  0.
        2    1    3    3  502    0  0.83415933778E+01 -0.95735474528E+02  0.99950835420E+03  0.10041174301E+04  0.25500000920E-02 0. -1.
       -2    1    3    3    0  502 -0.83415933778E+01  0.95735474528E+02 -0.42415357969E+03  0.43490357832E+03  0.25500000920E-02 0.  1.
</event>
<event>
 5   0  0.2478236E-03  0.1539800E+04  0.7818609E-02  0.8858410E-01
        2   -1    0    0  501    0  0.00000000000E+00  0.00000000000E+00  0.12667830899E+04  0.12667830900E+04  0.25500000920E-02 0. -1.
       -2   -1    0    0    0  501  0.00000000000E+00  0.00000000000E+00 -0.46791422304E+03  0.46791422305E+03  0.25500000920E-02 0.  1.
    10030    2    1    2    0    0  0.00000000000E+00  0.00000000000E+00  0.79886886691E+03  0.17346973130E+04  0.15397997601E+04 0.  0.
        3    1    3    3  502    0 -0.16858193276E+03  0.46005651220E+03 -0.26959642668E+03  0.55924422746E+03  0.10100000352E+00 0.  1.
       -3    1    3    3    0  502  0.16858193276E+03 -0.46005651220E+03  0.10684652936E+04  0.11754530855E+04  0.10100000352E+00 0. -1.
</event>
<event>
 5   0  0.1332630E-03  0.1278729E+04  0.7818609E-02  0.9046605E-01
       -1   -1    0    0    0  501  0.00000000000E+00  0.00000000000E+00  0.36726641761E+03  0.36726641764E+03  0.50400001928E-02 0. -1.
        1   -1    0    0  501    0  0.00000000000E+00  0.00000000000E+00 -0.11130534011E+04  0.11130534011E+04  0.50400001928E-02 0.  1.
    10030    2    1    2    0    0  0.00000000000E+00  0.00000000000E+00 -0.74578698352E+03  0.14803198188E+04  0.12787292681E+04 0.  0.
        5    1    3    3  502    0  0.15954018472E+03  0.27495929247E+03 -0.10150594847E+04  0.10636839430E+04  0.46999998093E+01 0.  1.
       -5    1    3    3    0  502 -0.15954018472E+03 -0.27495929247E+03  0.26927250123E+03  0.41663587576E+03  0.46999998093E+01 0. -1.
</event>
<event>
 5   0  0.1324721E-03  0.1279602E+04  0.7818609E-02  0.9045899E-01
       -1   -1    0    0    0  501  0.00000000000E+00  0.00000000000E+00  0.30173434667E+03  0.30173434671E+03  0.50400001928E-02 0. -1.
        1   -1    0    0  501    0  0.00000000000E+00  0.00000000000E+00 -0.13566412483E+04  0.13566412483E+04  0.50400001928E-02 0.  1.
    10030    2    1    2    0    0  0.00000000000E+00  0.00000000000E+00 -0.10549069016E+04  0.16583755950E+04  0.12796019080E+04 0.  0.
        1    1    3    3  502    0  0.62707336981E+03 -0.11696898620E+03 -0.59150443808E+03  0.86993117839E+03  0.50400001928E-02 0.  1.
       -1    1    3    3    0  502 -0.62707336981E+03  0.11696898620E+03 -0.46340246356E+03  0.78844441663E+03  0.50400001928E-02 0. -1.
</event>
<event>
 5   0  0.1387622E-03  0.1299164E+04  0.7818609E-02  0.9030228E-01
       -1   -1    0    0    0  501  0.00000000000E+00  0.00000000000E+00  0.26397290483E+03  0.26397290488E+03  0.50400001928E-02 0. -1.
        1   -1    0    0  501    0  0.00000000000E+00  0.00000000000E+00 -0.15984860554E+04  0.15984860554E+04  0.50400001928E-02 0.  1.
    10030    2    1    2    0    0  0.00000000000E+00  0.00000000000E+00 -0.13345131506E+04  0.18624589603E+04  0.12991643582E+04 0.  0.
        3    1    3    3  502    0  0.26616692800E+03  0.16463587638E+02  0.18188060034E+03  0.32279474324E+03  0.10100000352E+00 0. -1.
       -3    1    3    3    0  502 -0.26616692800E+03 -0.16463587638E+02 -0.15163937509E+04  0.15396642170E+04  0.10100000352E+00 0.  1.
</event>
<event>
 5   0  0.2312105E-03  0.1290102E+04  0.7818609E-02  0.9037451E-01
       -2   -1    0    0    0  501  0.00000000000E+00  0.00000000000E+00  0.19864058104E+03  0.19864058106E+03  0.25500000920E-02 0.  1.
        2   -1    0    0  501    0  0.00000000000E+00  0.00000000000E+00 -0.20946918247E+04  0.20946918247E+04  0.25500000920E-02 0. -1.
    10030    2    1    2    0    0  0.00000000000E+00  0.00000000000E+00 -0.18960512436E+04  0.22933324057E+04  0.12901020133E+04 0.  0.
        5    1    3    3  502    0 -0.10353196944E+03  0.18651437108E+03 -0.20301409069E+04  0.20413232648E+04  0.46999998093E+01 0. -1.
       -5    1    3    3    0  502  0.10353196944E+03 -0.18651437108E+03  0.13408966331E+03  0.25200914095E+03  0.46999998093E+01 0.  1.
</event>
<event>
 5   0  0.1332630E-03  0.1306256E+04  0.7818609E-02  0.9024619E-01
        1   -1    0    0  501    0  0.00000000000E+00  0.00000000000E+00  0.93045831730E+03  0.93045831732E+03  0.50400001928E-02 0. -1.
       -1   -1    0    0    0  501  0.00000000000E+00  0.00000000000E+00 -0.45845800457E+03  0.45845800460E+03  0.50400001928E-02 0.  1.
    10030    2    1    2    0    0  0.00000000000E+00  0.00000000000E+00  0.47200031273E+03  0.13889163219E+04  0.13062558149E+04 0.  0.
        5    1    3    3  502    0  0.26862117957E+03 -0.32117530195E+03 -0.29696017164E+03  0.51334038048E+03  0.46999998093E+01 0.  1.
       -5    1    3    3    0  502 -0.26862117957E+03  0.32117530195E+03  0.76896048437E+03  0.87557594144E+03  0.46999998093E+01 0. -1.
</event>
<event>
 5   0  0.2361043E-03  0.1162763E+04  0.7818609E-02  0.9146089E-01
       -2   -1    0    0    0  501  0.00000000000E+00  0.00000000000E+00  0.34058965562E+03  0.34058965563E+03  0.25500000920E-02 0. -1.
        2   -1    0    0  501    0  0.00000000000E+00  0.00000000000E+00 -0.99240947388E+03  0.99240947388E+03  0.25500000920E-02 0.  1.
    10030    2    1    2    0    0  0.00000000000E+00  0.00000000000E+00 -0.65181981826E+03  0.13329991295E+04  0.11627629181E+04 0.  0.
        2    1    3    3  502    0 -0.30715651964E+03  0.47039077390E+03 -0.49745691014E+03  0.75038389187E+03  0.25500000920E-02 0. -1.
       -2    1    3    3    0  502  0.30715651964E+03 -0.47039077390E+03 -0.15436290812E+03  0.58261523764E+03  0.25500000920E-02 0.  1.
</event>
<event>
 5   0  0.2361043E-03  0.1312556E+04  0.7818609E-02  0.9019667E-01
       -2   -1    0    0    0  501  0.00000000000E+00  0.00000000000E+00  0.41968746398E+03  0.41968746399E+03  0.25500000920E-02 0.  1.
        2   -1    0    0  501    0  0.00000000000E+00  0.00000000000E+00 -0.10262423341E+04  0.10262423341E+04  0.25500000920E-02 0. -1.
    10030    2    1    2    0    0  0.00000000000E+00  0.00000000000E+00 -0.60655487011E+03  0.14459297981E+04  0.13125563495E+04 0.  0.
        2    1    3    3  502    0  0.78762292161E+02 -0.14551781297E+03  0.39633136876E+03  0.42948514110E+03  0.25500000920E-02 0.  1.
       -2    1    3    3    0  502 -0.78762292161E+02  0.14551781297E+03 -0.10028862389E+04  0.10164446570E+04  0.25500000920E-02 0. -1.
</event>
<event>
 5   0  0.2312105E-03  0.1291789E+04  0.7818609E-02  0.9036102E-01
       -2   -1    0    0    0  501  0.00000000000E+00  0.00000000000E+00  0.44263394672E+03  0.44263394673E+03  0.25500000920E-02 0. -1.
        2   -1    0    0  501    0  0.00000000000E+00  0.00000000000E+00 -0.94249386153E+03  0.94249386153E+03  0.25500000920E-02 0.  1.
    10030    2    1    2    0    0  0.00000000000E+00  0.00000000000E+00 -0.49985991481E+03  0.13851278083E+04  0.12917891123E+04 0.  0.
        5    1    3    3  502    0 -0.15615653581E+03 -0.34413965883E+03 -0.81155099172E+03  0.89523967217E+03  0.46999998093E+01 0.  1.
       -5    1    3    3    0  502  0.15615653581E+03  0.34413965883E+03  0.31169107692E+03  0.48988813609E+03  0.46999998093E+01 0. -1.
</event>
<event>
 5   0  0.2334946E-03  0.1284842E+04  0.7818609E-02  0.9041673E-01
       -2   -1    0    0    0  501  0.00000000000E+00  0.00000000000E+00  0.26437328922E+03  0.26437328923E+03  0.25500000920E-02 0.  1.
        2   -1    0    0  501    0  0.00000000000E+00  0.00000000000E+00 -0.15610673200E+04  0.15610673200E+04  0.25500000920E-02 0. -1.
    10030    2    1    2    0    0  0.00000000000E+00  0.00000000000E+00 -0.12966940308E+04  0.18254406092E+04  0.12848416277E+04 0.  0.
        1    1    3    3  502    0 -0.11787271088E+02 -0.93614414365E+02 -0.15511693405E+04  0.15540363321E+04  0.50400001928E-02 0. -1.
       -1    1    3    3    0  502  0.11787271088E+02  0.93614414365E+02  0.25447530978E+03  0.27140427714E+03  0.50400001928E-02 0.  1.
</event>
<event>
 5   0  0.2361043E-03  0.1304841E+04  0.7818609E-02  0.9025735E-01
        2   -1    0    0  501    0  0.00000000000E+00  0.00000000000E+00  0.56852635680E+03  0.56852635680E+03  0.25500000920E-02 0.  1.
       -2   -1    0    0    0  501  0.00000000000E+00  0.00000000000E+00 -0.74869432423E+03  0.74869432424E+03  0.25500000920E-02 0. -1.
    10030    2    1    2    0    0  0.00000000000E+00  0.00000000000E+00 -0.18016796744E+03  0.13172206810E+04  0.13048409198E+04 0.  0.
        2    1    3    3  502    0  0.21694175031E+03  0.35286876788E+03  0.41875419452E+03  0.58901202518E+03  0.25500000920E-02 0.  1.
       -2    1    3    3    0  502 -0.21694175031E+03 -0.35286876788E+03 -0.59892216196E+03  0.72820865586E+03  0.25500000920E-02 0. -1.
</event>
<event>
 5   0  0.2334946E-03  0.1242174E+04  0.7818609E-02  0.9076722E-01
        2   -1    0    0  501    0  0.00000000000E+00  0.00000000000E+00  0.77427765919E+03  0.77427765920E+03  0.25500000920E-02 0.  1.
       -2   -1    0    0    0  501  0.00000000000E+00  0.00000000000E+00 -0.49820472845E+03  0.49820472846E+03  0.25500000920E-02 0. -1.
    10030    2    1    2    0    0  0.00000000000E+00  0.00000000000E+00  0.27607293074E+03  0.12724823877E+04  0.12421735643E+04 0.  0.
        1    1    3    3  502    0  0.19236073558E+03  0.24465367321E+03  0.68863657320E+03  0.75569729547E+03  0.50400001928E-02 0.  1.
       -1    1    3    3    0  502 -0.19236073558E+03 -0.24465367321E+03 -0.41256364245E+03  0.51678509219E+03  0.50400001928E-02 0. -1.
</event>
<event>
 5   0  0.1310461E-03  0.1303310E+04  0.7818609E-02  0.9026944E-01
        1   -1    0    0  501    0  0.00000000000E+00  0.00000000000E+00  0.15002523218E+04  0.15002523218E+04  0.50400001928E-02 0. -1.
       -1   -1    0    0    0  501  0.00000000000E+00  0.00000000000E+00 -0.28305538599E+03  0.28305538604E+03  0.50400001928E-02 0.  1.
    10030    2    1    2    0    0  0.00000000000E+00  0.00000000000E+00  0.12171969358E+04  0.17833077079E+04  0.13033104006E+04 0.  0.
        4    1    3    3  502    0  0.35060873184E+03 -0.32667305275E+03  0.12128365804E+04  0.13040766656E+04  0.12699999809E+01 0. -1.
       -4    1    3    3    0  502 -0.35060873184E+03  0.32667305275E+03  0.43603554466E+01  0.47923104223E+03  0.12699999809E+01 0.  1.
</event>
<event>
 5   0  0.1310461E-03  0.1297095E+04  0.7818609E-02  0.9031872E-01
       -1   -1    0    0    0  501  0.00000000000E+00  0.00000000000E+00  0.27554250084E+03  0.27554250089E+03  0.50400001928E-02 0. -1.
        1   -1    0    0  501    0  0.00000000000E+00  0.00000000000E+00 -0.15264940294E+04  0.15264940294E+04  0.50400001928E-02 0.  1.
    10030    2    1    2    0    0  0.00000000000E+00  0.00000000000E+00 -0.12509515286E+04  0.18020365303E+04  0.12970951892E+04 0.  0.
        4    1    3    3  502    0 -0.39312543833E+03 -0.47105225793E+03 -0.33347922205E+03  0.69831786774E+03  0.12699999809E+01 0. -1.
       -4    1    3    3    0  502  0.39312543833E+03  0.47105225793E+03 -0.91747230652E+03  0.11037186626E+04  0.12699999809E+01 0.  1.
</event>
<event>
 5   0  0.1310461E-03  0.1293947E+04  0.7818609E-02  0.9034379E-01
       -1   -1    0    0    0  501  0.00000000000E+00  0.00000000000E+00  0.64142110893E+03  0.64142110895E+03  0.50400001928E-02 0. -1.
        1   -1    0    0  501    0  0.00000000000E+00  0.00000000000E+00 -0.65257384300E+03  0.65257384302E+03  0.50400001928E-02 0.  1.
    10030    2    1    2    0    0  0.00000000000E+00  0.00000000000E+00 -0.11152734067E+02  0.12939949520E+04  0.12939468893E+04 0.  0.
        4    1    3    3  502    0 -0.18551081282E+03 -0.61437613072E+03  0.76284681611E+02  0.64629192879E+03  0.12699999809E+01 0.  1.
       -4    1    3    3    0  502  0.18551081282E+03  0.61437613072E+03 -0.87437415678E+02  0.64770302318E+03  0.12699999809E+01 0. -1.
</event>
<event>
 5   0  0.2401211E-03  0.1253267E+04  0.7818609E-02  0.9067469E-01
        2   -1    0    0  501    0  0.00000000000E+00  0.00000000000E+00  0.86415155123E+03  0.86415155124E+03  0.25500000920E-02 0.  1.
       -2   -1    0    0    0  501  0.00000000000E+00  0.00000000000E+00 -0.45439857515E+03  0.45439857516E+03  0.25500000920E-02 0. -1.
    10030    2    1    2    0    0  0.00000000000E+00  0.00000000000E+00  0.40975297608E+03  0.13185501264E+04  0.12532665057E+04 0.  0.
        4    1    3    3  502    0  0.29154433895E+03 -0.23434362808E+02  0.78792878218E+03  0.84046454394E+03  0.12699999809E+01 0.  1.
       -4    1    3    3    0  502 -0.29154433895E+03  0.23434362808E+02 -0.37817580610E+03  0.47808558245E+03  0.12699999809E+01 0. -1.
</event>
<event>
 5   0  0.1332630E-03  0.1294415E+04  0.7818609E-02  0.9034006E-01
       -1   -1    0    0    0  501  0.00000000000E+00  0.00000000000E+00  0.31216507816E+03  0.31216507820E+03  0.50400001928E-02 0. -1.
        1   -1    0    0  501    0  0.00000000000E+00  0.00000000000E+00 -0.13418462592E+04  0.13418462592E+04  0.50400001928E-02 0.  1.
    10030    2    1    2    0    0  0.00000000000E+00  0.00000000000E+00 -0.10296811810E+04  0.16540113374E+04  0.12944149913E+04 0.  0.
        5    1    3    3  502    0 -0.47448180712E+02 -0.11747481844E+03  0.29614235600E+03  0.32213979548E+03  0.46999998093E+01 0. -1.
       -5    1    3    3    0  502  0.47448180712E+02  0.11747481844E+03 -0.13258235370E+04  0.13318715419E+04  0.46999998093E+01 0.  1.
</event>
<event>
 5   0  0.1346593E-03  0.1299245E+04  0.7818609E-02  0.9030164E-01
        1   -1    0    0  501    0  0.00000000000E+00  0.00000000000E+00  0.67349689661E+03  0.67349689663E+03  0.50400001928E-02 0.  1.
       -1   -1    0    0    0  501  0.00000000000E+00  0.00000000000E+00 -0.62659416969E+03  0.62659416971E+03  0.50400001928E-02 0. -1.
    10030    2    1    2    0    0  0.00000000000E+00  0.00000000000E+00  0.46902726925E+02  0.13000910663E+04  0.12992447479E+04 0.  0.
        2    1    3    3  502    0  0.23781439266E+01  0.52992763715E+03 -0.35253302455E+03  0.63648133483E+03  0.25500000920E-02 0. -1.
       -2    1    3    3    0  502 -0.23781439266E+01 -0.52992763715E+03  0.39943575148E+03  0.66360973150E+03  0.25500000920E-02 0.  1.
</event>
<event>
 5   0  0.1310461E-03  0.1282925E+04  0.7818609E-02  0.9043216E-01
        1   -1    0    0  501    0  0.00000000000E+00  0.00000000000E+00  0.35073291759E+03  0.35073291763E+03  0.50400001928E-02 0.  1.
       -1   -1    0    0    0  501  0.00000000000E+00  0.00000000000E+00 -0.11731836046E+04  0.11731836046E+04  0.50400001928E-02 0. -1.
    10030    2    1    2    0    0  0.00000000000E+00  0.00000000000E+00 -0.82245068697E+03  0.15239165222E+04  0.12829249527E+04 0.  0.
        4    1    3    3  502    0  0.51822537683E+03 -0.36211863196E+03 -0.54017662294E+03  0.83155266922E+03  0.12699999809E+01 0.  1.
       -4    1    3    3    0  502 -0.51822537683E+03  0.36211863196E+03 -0.28227406403E+03  0.69236385299E+03  0.12699999809E+01 0. -1.
</event>
<event>
 5   0  0.1310461E-03  0.1296196E+04  0.7818609E-02  0.9032588E-01
        1   -1    0    0  501    0  0.00000000000E+00  0.00000000000E+00  0.67751185152E+03  0.67751185154E+03  0.50400001928E-02 0.  1.
       -1   -1    0    0    0  501  0.00000000000E+00  0.00000000000E+00 -0.61996075041E+03  0.61996075043E+03  0.50400001928E-02 0. -1.
    10030    2    1    2    0    0  0.00000000000E+00  0.00000000000E+00  0.57551101113E+02  0.12974726020E+04  0.12961955962E+04 0.  0.
        4    1    3    3  502    0  0.29904402844E+03  0.36509323073E+03  0.47340765885E+03  0.66845854204E+03  0.12699999809E+01 0.  1.
       -4    1    3    3    0  502 -0.29904402844E+03 -0.36509323073E+03 -0.41585655773E+03  0.62901405993E+03  0.12699999809E+01 0. -1.
</event>
<event>
 5   0  0.2478236E-03  0.1276020E+04  0.7818609E-02  0.9048801E-01
       -2   -1    0    0    0  501  0.00000000000E+00  0.00000000000E+00  0.65783811434E+03  0.65783811435E+03  0.25500000920E-02 0. -1.
        2   -1    0    0  501    0  0.00000000000E+00  0.00000000000E+00 -0.61877942978E+03  0.61877942979E+03  0.25500000920E-02 0.  1.
    10030    2    1    2    0    0  0.00000000000E+00  0.00000000000E+00  0.39058684557E+02  0.12766175441E+04  0.12760198953E+04 0.  0.
        3    1    3    3  502    0  0.31776801569E+03 -0.27822607749E+03 -0.45888959106E+03  0.62367133089E+03  0.10100000352E+00 0.  1.
       -3    1    3    3    0  502 -0.31776801569E+03  0.27822607749E+03  0.49794827562E+03  0.65294621324E+03  0.10100000352E+00 0. -1.
</event>
<event>
 5   0  0.1346593E-03  0.1299887E+04  0.7818609E-02  0.9029655E-01
        1   -1    0    0  501    0  0.00000000000E+00  0.00000000000E+00  0.64766642506E+03  0.64766642508E+03  0.50400001928E-02 0. -1.
       -1   -1    0    0    0  501  0.00000000000E+00  0.00000000000E+00 -0.65222879473E+03  0.65222879475E+03  0.50400001928E-02 0.  1.
    10030    2    1    2    0    0  0.00000000000E+00  0.00000000000E+00 -0.45623696626E+01  0.12998952198E+04  0.12998872133E+04 0.  0.
        2    1    3    3  502    0 -0.10695615803E+01 -0.46902914451E+02  0.64597095837E+03  0.64767237583E+03  0.25500000920E-02 0. -1.
       -2    1    3    3    0  502  0.10695615803E+01  0.46902914451E+02 -0.65053332804E+03  0.65222284400E+03  0.25500000920E-02 0.  1.
</event>
<event>
 5   0  0.2478236E-03  0.1301992E+04  0.7818609E-02  0.9027987E-01
       -2   -1    0    0    0  501  0.00000000000E+00  0.00000000000E+00  0.49313697501E+03  0.49313697502E+03  0.25500000920E-02 0. -1.
        2   -1    0    0  501    0  0.00000000000E+00  0.00000000000E+00 -0.85938713837E+03  0.85938713837E+03  0.25500000920E-02 0.  1.
    10030    2    1    2    0    0  0.00000000000E+00  0.00000000000E+00 -0.36625016335E+03  0.13525241134E+04  0.13019916648E+04 0.  0.
        3    1    3    3  502    0 -0.53198369940E+02  0.52517174321E+03  0.21266098179E+03  0.56908710213E+03  0.10100000352E+00 0. -1.
       -3    1    3    3    0  502  0.53198369940E+02 -0.52517174321E+03 -0.57891114514E+03  0.78343701126E+03  0.10100000352E+00 0.  1.
</event>
<event>
 5   0  0.1332630E-03  0.1312080E+04  0.7818609E-02  0.9020040E-01
        1   -1    0    0  501    0  0.00000000000E+00  0.00000000000E+00  0.65494504391E+03  0.65494504393E+03  0.50400001928E-02 0.  1.
       -1   -1    0    0    0  501  0.00000000000E+00  0.00000000000E+00 -0.65713694774E+03  0.65713694776E+03  0.50400001928E-02 0. -1.
    10030    2    1    2    0    0  0.00000000000E+00  0.00000000000E+00 -0.21919038366E+01  0.13120819917E+04  0.13120801608E+04 0.  0.
        5    1    3    3  502    0 -0.41227416274E+03  0.43134406075E+03  0.27155587839E+03  0.65558551624E+03  0.46999998093E+01 0.  1.
       -5    1    3    3    0  502  0.41227416274E+03 -0.43134406075E+03 -0.27374778222E+03  0.65649647545E+03  0.46999998093E+01 0. -1.
</event>
<event>
 5   0  0.2478236E-03  0.1289146E+04  0.7818609E-02  0.9038217E-01
        2   -1    0    0  501    0  0.00000000000E+00  0.00000000000E+00  0.94102484065E+03  0.94102484065E+03  0.25500000920E-02 0. -1.
       -2   -1    0    0    0  501  0.00000000000E+00  0.00000000000E+00 -0.44151296534E+03  0.44151296535E+03  0.25500000920E-02 0.  1.
    10030    2    1    2    0    0  0.00000000000E+00  0.00000000000E+00  0.49951187531E+03  0.13825378060E+04  0.12891464895E+04 0.  0.
        3    1    3    3  502    0  0.54759326565E+03 -0.33202241717E+03  0.17111287553E+03  0.66285510971E+03  0.10100000352E+00 0.  1.
       -3    1    3    3    0  502 -0.54759326565E+03  0.33202241717E+03  0.32839899977E+03  0.71968269630E+03  0.10100000352E+00 0. -1.
</event>
<event>
 5   0  0.1324721E-03  0.1299044E+04  0.7818609E-02  0.9030324E-01
        1   -1    0    0  501    0  0.00000000000E+00  0.00000000000E+00  0.17079647112E+04  0.17079647112E+04  0.50400001928E-02 0. -1.
       -1   -1    0    0    0  501  0.00000000000E+00  0.00000000000E+00 -0.24700678931E+03  0.24700678936E+03  0.50400001928E-02 0.  1.
    10030    2    1    2    0    0  0.00000000000E+00  0.00000000000E+00  0.14609579219E+04  0.19549715006E+04  0.12990440788E+04 0.  0.
        1    1    3    3  502    0  0.26160394755E+03  0.59296214841E+03  0.66595717169E+03  0.92926836240E+03  0.50400001928E-02 0. -1.
       -1    1    3    3    0  502 -0.26160394755E+03 -0.59296214841E+03  0.79500075024E+03  0.10257031382E+04  0.50400001928E-02 0.  1.
</event>
<event>
 5   0  0.1332630E-03  0.1383061E+04  0.7818609E-02  0.8966172E-01
        1   -1    0    0  501    0  0.00000000000E+00  0.00000000000E+00  0.64892599972E+03  0.64892599974E+03  0.50400001928E-02 0.  1.
       -1   -1    0    0    0  501  0.00000000000E+00  0.00000000000E+00 -0.73693251483E+03  0.73693251485E+03  0.50400001928E-02 0. -1.
    10030    2    1    2    0    0  0.00000000000E+00  0.00000000000E+00 -0.88006515112E+02  0.13858585146E+04  0.13830613420E+04 0.  0.
        5    1    3    3  502    0  0.68675648560E+03 -0.16081218903E+02  0.35526670479E+02  0.68787884866E+03  0.46999998093E+01 0.  1.
       -5    1    3    3    0  502 -0.68675648560E+03  0.16081218903E+02 -0.12353318559E+03  0.69797966593E+03  0.46999998093E+01 0. -1.
</event>
<event>
 5   0  0.2312105E-03  0.1247363E+04  0.7818609E-02  0.9072380E-01
        2   -1    0    0  501    0  0.00000000000E+00  0.00000000000E+00  0.90290280679E+03  0.90290280679E+03  0.25500000920E-02 0.  1.
       -2   -1    0    0    0  501  0.00000000000E+00  0.00000000000E+00 -0.43080927164E+03  0.43080927165E+03  0.25500000920E-02 0. -1.
    10030    2    1    2    0    0  0.00000000000E+00  0.00000000000E+00  0.47209353514E+03  0.13337120784E+04  0.12473634604E+04 0.  0.
        5    1    3    3  502    0  0.32583055383E+03 -0.39973040139E+03  0.61104890651E+03  0.79959539753E+03  0.46999998093E+01 0.  1.
       -5    1    3    3    0  502 -0.32583055383E+03  0.39973040139E+03 -0.13895537136E+03  0.53411668092E+03  0.46999998093E+01 0. -1.
</event>
<event>
 5   0  0.1324721E-03  0.1267321E+04  0.7818609E-02  0.9055889E-01
        1   -1    0    0  501    0  0.00000000000E+00  0.00000000000E+00  0.56887001533E+03  0.56887001536E+03  0.50400001928E-02 0. -1.
       -1   -1    0    0    0  501  0.00000000000E+00  0.00000000000E+00 -0.70583047929E+03  0.70583047931E+03  0.50400001928E-02 0.  1.
    10030    2    1    2    0    0  0.00000000000E+00  0.00000000000E+00 -0.13696046396E+03  0.12747004947E+04  0.12673212625E+04 0.  0.
        1    1    3    3  502    0  0.87835954549E+02 -0.43288661666E+02  0.56121356743E+03  0.56969266402E+03  0.50400001928E-02 0. -1.
       -1    1    3    3    0  502 -0.87835954549E+02  0.43288661666E+02 -0.69817403139E+03  0.70500783065E+03  0.50400001928E-02 0.  1.
</event>
<event>
 5   0  0.1346593E-03  0.1295860E+04  0.7818609E-02  0.9032855E-01
        1   -1    0    0  501    0  0.00000000000E+00  0.00000000000E+00  0.63256816637E+03  0.63256816639E+03  0.50400001928E-02 0. -1.
       -1   -1    0    0    0  501  0.00000000000E+00  0.00000000000E+00 -0.66366462871E+03  0.66366462873E+03  0.50400001928E-02 0.  1.
    10030    2    1    2    0    0  0.00000000000E+00  0.00000000000E+00 -0.31096462340E+02  0.12962327951E+04  0.12958597413E+04 0.  0.
        2    1    3    3  502    0 -0.45567752841E+02 -0.64620607356E+03 -0.27977897193E+02  0.64841458369E+03  0.25500000920E-02 0.  1.
       -2    1    3    3    0  502  0.45567752841E+02  0.64620607356E+03 -0.31185651473E+01  0.64781821143E+03  0.25500000920E-02 0. -1.
</event>
<event>
 5   0  0.2361043E-03  0.1304987E+04  0.7818609E-02  0.9025620E-01
        2   -1    0    0  501    0  0.00000000000E+00  0.00000000000E+00  0.51970334551E+03  0.51970334552E+03  0.25500000920E-02 0.  1.
       -2   -1    0    0    0  501  0.00000000000E+00  0.00000000000E+00 -0.81921327889E+03  0.81921327890E+03  0.25500000920E-02 0. -1.
    10030    2    1    2    0    0  0.00000000000E+00  0.00000000000E+00 -0.29950993338E+03  0.13389166244E+04  0.13049871750E+04 0.  0.
        2    1    3    3  502    0 -0.20532996661E+02  0.54375328504E+03  0.21968852990E+03  0.58681537908E+03  0.25500000920E-02 0.  1.
       -2    1    3    3    0  502  0.20532996661E+02 -0.54375328504E+03 -0.51919846328E+03  0.75210124533E+03  0.25500000920E-02 0. -1.
</event>
<event>
 5   0  0.2361043E-03  0.1373759E+04  0.7818609E-02  0.8973036E-01
       -2   -1    0    0    0  501  0.00000000000E+00  0.00000000000E+00  0.45293191878E+03  0.45293191878E+03  0.25500000920E-02 0.  1.
        2   -1    0    0  501    0  0.00000000000E+00  0.00000000000E+00 -0.10416645870E+04  0.10416645870E+04  0.25500000920E-02 0. -1.
    10030    2    1    2    0    0  0.00000000000E+00  0.00000000000E+00 -0.58873266826E+03  0.14945965058E+04  0.13737585525E+04 0.  0.
        2    1    3    3  502    0  0.21485003941E+03 -0.63489925959E+03 -0.13100706330E+03  0.68294982239E+03  0.25500000920E-02 0.  1.
       -2    1    3    3    0  502 -0.21485003941E+03  0.63489925959E+03 -0.45772560496E+03  0.81164668342E+03  0.25500000920E-02 0. -1.
</event>
<event>
 5   0  0.2401211E-03  0.1320660E+04  0.7818609E-02  0.9013340E-01
       -2   -1    0    0    0  501  0.00000000000E+00  0.00000000000E+00  0.33407281064E+03  0.33407281065E+03  0.25500000920E-02 0.  1.
        2   -1    0    0  501    0  0.00000000000E+00  0.00000000000E+00 -0.13052125634E+04  0.13052125634E+04  0.25500000920E-02 0. -1.
    10030    2    1    2    0    0  0.00000000000E+00  0.00000000000E+00 -0.97113975278E+03  0.16392853741E+04  0.13206604856E+04 0.  0.
        4    1    3    3  502    0 -0.60966008933E+03  0.93596597584E+02 -0.77822526034E+03  0.99301657405E+03  0.12699999809E+01 0.  1.
       -4    1    3    3    0  502  0.60966008933E+03 -0.93596597584E+02 -0.19291449244E+03  0.64626880003E+03  0.12699999809E+01 0. -1.
</event>
<event>
 5   0  0.2334946E-03  0.1294744E+04  0.7818609E-02  0.9033744E-01
       -2   -1    0    0    0  501  0.00000000000E+00  0.00000000000E+00  0.94056655096E+03  0.94056655096E+03  0.25500000920E-02 0.  1.
        2   -1    0    0  501    0  0.00000000000E+00  0.00000000000E+00 -0.44557240697E+03  0.44557240697E+03  0.25500000920E-02 0. -1.
    10030    2    1    2    0    0  0.00000000000E+00  0.00000000000E+00  0.49499414400E+03  0.13861389579E+04  0.12947439933E+04 0.  0.
        1    1    3    3  502    0 -0.26063449775E+03  0.26708671111E+03 -0.31882828070E+03  0.49083309309E+03  0.50400001928E-02 0. -1.
       -1    1    3    3    0  502  0.26063449775E+03 -0.26708671111E+03  0.81382242469E+03  0.89530586485E+03  0.50400001928E-02 0.  1.
</event>
<event>
 5   0  0.9131250E-04  0.1001313E+04  0.7818609E-02  0.9307106E-01
       -4   -1    0    0    0  501  0.00000000000E+00  0.00000000000E+00  0.69474920566E+03  0.69475036644E+03  0.12699999809E+01 0.  1.
        4   -1    0    0  501    0  0.00000000000E+00  0.00000000000E+00 -0.36078488255E+03  0.36078711781E+03  0.12699999809E+01 0. -1.
    10030    2    1    2    0    0  0.00000000000E+00  0.00000000000E+00  0.33396432311E+03  0.10555374843E+04  0.10013127441E+04 0.  0.
        2    1    3    3  502    0 -0.61270103998E+02  0.28271474153E+03 -0.26377235606E+03  0.39148117011E+03  0.25500000920E-02 0. -1.
       -2    1    3    3    0  502  0.61270103998E+02 -0.28271474153E+03  0.59773667917E+03  0.66405631414E+03  0.25500000920E-02 0.  1.
</event>
<event>
 5   0  0.2361043E-03  0.1339670E+04  0.7818609E-02  0.8998685E-01
        2   -1    0    0  501    0  0.00000000000E+00  0.00000000000E+00  0.13239339342E+04  0.13239339342E+04  0.25500000920E-02 0.  1.
       -2   -1    0    0    0  501  0.00000000000E+00  0.00000000000E+00 -0.33889808044E+03  0.33889808045E+03  0.25500000920E-02 0. -1.
    10030    2    1    2    0    0  0.00000000000E+00  0.00000000000E+00  0.98503585376E+03  0.16628320147E+04  0.13396696144E+04 0.  0.
        2    1    3    3  502    0 -0.59302226240E+02  0.49969003400E+03 -0.56255040173E+02  0.50633142671E+03  0.25500000920E-02 0. -1.
       -2    1    3    3    0  502  0.59302226240E+02 -0.49969003400E+03  0.10412908939E+04  0.11565005879E+04  0.25500000920E-02 0.  1.
</event>
<event>
 5   0  0.2334946E-03  0.1304402E+04  0.7818609E-02  0.9026082E-01
       -2   -1    0    0    0  501  0.00000000000E+00  0.00000000000E+00  0.12023657428E+04  0.12023657428E+04  0.25500000920E-02 0.  1.
        2   -1    0    0  501    0  0.00000000000E+00  0.00000000000E+00 -0.35377414294E+03  0.35377414295E+03  0.25500000920E-02 0. -1.
    10030    2    1    2    0    0  0.00000000000E+00  0.00000000000E+00  0.84859159990E+03  0.15561398858E+04  0.13044016409E+04 0.  0.
        1    1    3    3  502    0 -0.74140581226E+01  0.24716703088E+03  0.11442731526E+04  0.11706867887E+04  0.50400001928E-02 0.  1.
       -1    1    3    3    0  502  0.74140581226E+01 -0.24716703088E+03 -0.29568155272E+03  0.38545309709E+03  0.50400001928E-02 0. -1.
</event>
<event>
 5   0  0.9131250E-04  0.1211515E+04  0.7818609E-02  0.9102837E-01
       -3   -1    0    0    0  501  0.00000000000E+00  0.00000000000E+00  0.44127902473E+03  0.44127903628E+03  0.10100000352E+00 0.  1.
        3   -1    0    0  501    0  0.00000000000E+00  0.00000000000E+00 -0.83154261587E+03  0.83154262200E+03  0.10100000352E+00 0. -1.
    10030    2    1    2    0    0  0.00000000000E+00  0.00000000000E+00 -0.39026359114E+03  0.12728216583E+04  0.12115152922E+04 0.  0.
        2    1    3    3  502    0 -0.56484375119E+03 -0.20089496200E+03 -0.28632920409E+03  0.66437313472E+03  0.25500000920E-02 0.  1.
       -2    1    3    3    0  502  0.56484375119E+03  0.20089496200E+03 -0.10393438706E+03  0.60844852357E+03  0.25500000920E-02 0. -1.
</event>
<event>
 5   0  0.9131250E-04  0.1271353E+04  0.7818609E-02  0.9052596E-01
       -3   -1    0    0    0  501  0.00000000000E+00  0.00000000000E+00  0.47234100999E+03  0.47234102079E+03  0.10100000352E+00 0.  1.
        3   -1    0    0  501    0  0.00000000000E+00  0.00000000000E+00 -0.85549335218E+03  0.85549335814E+03  0.10100000352E+00 0. -1.
    10030    2    1    2    0    0  0.00000000000E+00  0.00000000000E+00 -0.38315234219E+03  0.13278343789E+04  0.12713529882E+04 0.  0.
        2    1    3    3  502    0  0.16818854492E+03  0.43941926362E+03  0.25485700213E+03  0.53509697012E+03  0.25500000920E-02 0. -1.
       -2    1    3    3    0  502 -0.16818854492E+03 -0.43941926362E+03 -0.63800934432E+03  0.79273740881E+03  0.25500000920E-02 0.  1.
</event>
<event>
 5   0  0.1387622E-03  0.1306774E+04  0.7818609E-02  0.9024211E-01
        1   -1    0    0  501    0  0.00000000000E+00  0.00000000000E+00  0.79614417887E+03  0.79614417888E+03  0.50400001928E-02 0.  1.
       -1   -1    0    0    0  501  0.00000000000E+00  0.00000000000E+00 -0.53622757541E+03  0.53622757543E+03  0.50400001928E-02 0. -1.
    10030    2    1    2    0    0  0.00000000000E+00  0.00000000000E+00  0.25991660346E+03  0.13323717543E+04  0.13067738331E+04 0.  0.
        3    1    3    3  502    0 -0.13668188512E+03  0.42259425732E+03 -0.35864343428E+03  0.57087035935E+03  0.10100000352E+00 0. -1.
       -3    1    3    3    0  502  0.13668188512E+03 -0.42259425732E+03  0.61856003774E+03  0.76150139496E+03  0.10100000352E+00 0.  1.
</event>
<event>
 5   0  0.2312105E-03  0.1321867E+04  0.7818609E-02  0.9012402E-01
        2   -1    0    0  501    0  0.00000000000E+00  0.00000000000E+00  0.11658020993E+04  0.11658020993E+04  0.25500000920E-02 0. -1.
       -2   -1    0    0    0  501  0.00000000000E+00  0.00000000000E+00 -0.37470626064E+03  0.37470626065E+03  0.25500000920E-02 0.  1.
    10030    2    1    2    0    0  0.00000000000E+00  0.00000000000E+00  0.79109583870E+03  0.15405083600E+04  0.13218673841E+04 0.  0.
        5    1    3    3  502    0  0.46671208691E+03 -0.46525660478E+03  0.33695960414E+03  0.74016737646E+03  0.46999998093E+01 0.  1.
       -5    1    3    3    0  502 -0.46671208691E+03  0.46525660478E+03  0.45413623456E+03  0.80034098352E+03  0.46999998093E+01 0. -1.
</event>
<event>
 5   0  0.1310461E-03  0.1296167E+04  0.7818609E-02  0.9032610E-01
        1   -1    0    0  501    0  0.00000000000E+00  0.00000000000E+00  0.98346686419E+03  0.98346686420E+03  0.50400001928E-02 0.  1.
       -1   -1    0    0    0  501  0.00000000000E+00  0.00000000000E+00 -0.42707324771E+03  0.42707324774E+03  0.50400001928E-02 0. -1.
    10030    2    1    2    0    0  0.00000000000E+00  0.00000000000E+00  0.55639361647E+03  0.14105401119E+04  0.12961672542E+04 0.  0.
        4    1    3    3  502    0  0.40652431816E+03 -0.49874816941E+03  0.19390906130E+03  0.67202239152E+03  0.12699999809E+01 0. -1.
       -4    1    3    3    0  502 -0.40652431816E+03  0.49874816941E+03  0.36248455517E+03  0.73851772043E+03  0.12699999809E+01 0.  1.
</event>
<event>
 5   0  0.2334946E-03  0.1303533E+04  0.7818609E-02  0.9026768E-01
       -2   -1    0    0    0  501  0.00000000000E+00  0.00000000000E+00  0.38102604599E+03  0.38102604600E+03  0.25500000920E-02 0. -1.
        2   -1    0    0  501    0  0.00000000000E+00  0.00000000000E+00 -0.11148839142E+04  0.11148839142E+04  0.25500000920E-02 0.  1.
    10030    2    1    2    0    0  0.00000000000E+00  0.00000000000E+00 -0.73385786819E+03  0.14959099602E+04  0.13035333668E+04 0.  0.
        1    1    3    3  502    0  0.65111275259E+03 -0.81663843591E+01 -0.33476997632E+03  0.73217855984E+03  0.50400001928E-02 0. -1.
       -1    1    3    3    0  502 -0.65111275259E+03  0.81663843591E+01 -0.39908789187E+03  0.76373140035E+03  0.50400001928E-02 0.  1.
</event>
<event>
 5   0  0.9131250E-04  0.1217367E+04  0.7818609E-02  0.9097790E-01
        3   -1    0    0  501    0  0.00000000000E+00  0.00000000000E+00  0.17542443577E+04  0.17542443606E+04  0.10100000352E+00 0.  1.
       -3   -1    0    0    0  501  0.00000000000E+00  0.00000000000E+00 -0.21119941546E+03  0.21119943961E+03  0.10100000352E+00 0. -1.
    10030    2    1    2    0    0  0.00000000000E+00  0.00000000000E+00  0.15430449422E+04  0.19654438002E+04  0.12173666818E+04 0.  0.
        1    1    3    3  502    0  0.49620179147E+03 -0.29621193924E+03  0.46291268407E+03  0.74043627943E+03  0.50400001928E-02 0. -1.
       -1    1    3    3    0  502 -0.49620179147E+03  0.29621193924E+03  0.10801322582E+04  0.12250075208E+04  0.50400001928E-02 0.  1.
</event>
<event>
 5   0  0.2361043E-03  0.1304862E+04  0.7818609E-02  0.9025718E-01
        2   -1    0    0  501    0  0.00000000000E+00  0.00000000000E+00  0.54389911236E+03  0.54389911237E+03  0.25500000920E-02 0. -1.
       -2   -1    0    0    0  501  0.00000000000E+00  0.00000000000E+00 -0.78261978180E+03  0.78261978181E+03  0.25500000920E-02 0.  1.
    10030    2    1    2    0    0  0.00000000000E+00  0.00000000000E+00 -0.23872066944E+03  0.13265188942E+04  0.13048619922E+04 0.  0.
        2    1    3    3  502    0 -0.62381529661E+03  0.17998115011E+03 -0.54048691699E+02  0.65150594760E+03  0.25500000920E-02 0.  1.
       -2    1    3    3    0  502  0.62381529661E+03 -0.17998115011E+03 -0.18467197774E+03  0.67501294658E+03  0.25500000920E-02 0. -1.
</event>
<event>
 5   0  0.1332630E-03  0.1298875E+04  0.7818609E-02  0.9030458E-01
        1   -1    0    0  501    0  0.00000000000E+00  0.00000000000E+00  0.12076841499E+04  0.12076841499E+04  0.50400001928E-02 0.  1.
       -1   -1    0    0    0  501  0.00000000000E+00  0.00000000000E+00 -0.34923799733E+03  0.34923799737E+03  0.50400001928E-02 0. -1.
    10030    2    1    2    0    0  0.00000000000E+00  0.00000000000E+00  0.85844615257E+03  0.15569221473E+04  0.12988751964E+04 0.  0.
        5    1    3    3  502    0 -0.45016087799E+03  0.46806440348E+03  0.42413725688E+03  0.77565688583E+03  0.46999998093E+01 0. -1.
       -5    1    3    3    0  502  0.45016087799E+03 -0.46806440348E+03  0.43430889569E+03  0.78126526145E+03  0.46999998093E+01 0.  1.
</event>
<event>
 5   0  0.2401211E-03  0.1286639E+04  0.7818609E-02  0.9040228E-01
        2   -1    0    0  501    0  0.00000000000E+00  0.00000000000E+00  0.77838310005E+03  0.77838310005E+03  0.25500000920E-02 0. -1.
       -2   -1    0    0    0  501  0.00000000000E+00  0.00000000000E+00 -0.53169219253E+03  0.53169219254E+03  0.25500000920E-02 0.  1.
    10030    2    1    2    0    0  0.00000000000E+00  0.00000000000E+00  0.24669090752E+03  0.13100752926E+04  0.12866393700E+04 0.  0.
        4    1    3    3  502    0  0.37739123944E+03 -0.49266033298E+03 -0.49211930878E+02  0.62254459948E+03  0.12699999809E+01 0.  1.
       -4    1    3    3    0  502 -0.37739123944E+03  0.49266033298E+03  0.29590283840E+03  0.68753069311E+03  0.12699999809E+01 0. -1.
</event>
<event>
 5   0  0.2312105E-03  0.1402983E+04  0.7818609E-02  0.8951662E-01
        2   -1    0    0  501    0  0.00000000000E+00  0.00000000000E+00  0.37294091362E+03  0.37294091363E+03  0.25500000920E-02 0.  1.
       -2   -1    0    0    0  501  0.00000000000E+00  0.00000000000E+00 -0.13194868048E+04  0.13194868048E+04  0.25500000920E-02 0. -1.
    10030    2    1    2    0    0  0.00000000000E+00  0.00000000000E+00 -0.94654589120E+03  0.16924277184E+04  0.14029834133E+04 0.  0.
        5    1    3    3  502    0  0.22501976597E+03  0.66155789086E+03 -0.39914852598E+03  0.80475733847E+03  0.46999998093E+01 0. -1.
       -5    1    3    3    0  502 -0.22501976597E+03 -0.66155789086E+03 -0.54739736522E+03  0.88767037997E+03  0.46999998093E+01 0.  1.
</event>
<event>
 5   0  0.1310461E-03  0.1296647E+04  0.7818609E-02  0.9032229E-01
       -1   -1    0    0    0  501  0.00000000000E+00  0.00000000000E+00  0.68488669546E+03  0.68488669547E+03  0.50400001928E-02 0.  1.
        1   -1    0    0  501    0  0.00000000000E+00  0.00000000000E+00 -0.61371189756E+03  0.61371189758E+03  0.50400001928E-02 0. -1.
    10030    2    1    2    0    0  0.00000000000E+00  0.00000000000E+00  0.71174797895E+02  0.12985985931E+04  0.12966466188E+04 0.  0.
        4    1    3    3  502    0  0.25921423204E+03  0.59153988409E+03  0.92329976842E+02  0.65240929644E+03  0.12699999809E+01 0. -1.
       -4    1    3    3    0  502 -0.25921423204E+03 -0.59153988409E+03 -0.21155178947E+02  0.64618929661E+03  0.12699999809E+01 0.  1.
</event>
<event>
 5   0  0.2334946E-03  0.1299252E+04  0.7818609E-02  0.9030159E-01
       -2   -1    0    0    0  501  0.00000000000E+00  0.00000000000E+00  0.30784943177E+03  0.30784943178E+03  0.25500000920E-02 0.  1.
        2   -1    0    0  501    0  0.00000000000E+00  0.00000000000E+00 -0.13708452740E+04  0.13708452740E+04  0.25500000920E-02 0. -1.
    10030    2    1    2    0    0  0.00000000000E+00  0.00000000000E+00 -0.10629958422E+04  0.16786947057E+04  0.12992519981E+04 0.  0.
        1    1    3    3  502    0 -0.34869426605E+03 -0.34360505338E+03 -0.10832516540E+04  0.11887330523E+04  0.50400001928E-02 0. -1.
       -1    1    3    3    0  502  0.34869426605E+03  0.34360505338E+03  0.20255811761E+02  0.48996165342E+03  0.50400001928E-02 0.  1.
</event>
<event>
 5   0  0.1332630E-03  0.1281844E+04  0.7818609E-02  0.9044088E-01
        1   -1    0    0  501    0  0.00000000000E+00  0.00000000000E+00  0.16988668837E+04  0.16988668837E+04  0.50400001928E-02 0.  1.
       -1   -1    0    0    0  501  0.00000000000E+00  0.00000000000E+00 -0.24179695646E+03  0.24179695651E+03  0.50400001928E-02 0. -1.
    10030    2    1    2    0    0  0.00000000000E+00  0.00000000000E+00  0.14570699273E+04  0.19406638403E+04  0.12818437377E+04 0.  0.
        5    1    3    3  502    0 -0.27072851468E+02 -0.61202255507E+03  0.44346654786E+03  0.75629968681E+03  0.46999998093E+01 0. -1.
       -5    1    3    3    0  502  0.27072851468E+02  0.61202255507E+03  0.10136033794E+04  0.11843641535E+04  0.46999998093E+01 0.  1.
</event>
<event>
 5   0  0.1387622E-03  0.1297958E+04  0.7818609E-02  0.9031186E-01
        1   -1    0    0  501    0  0.00000000000E+00  0.00000000000E+00  0.46196158670E+03  0.46196158673E+03  0.50400001928E-02 0.  1.
       -1   -1    0    0    0  501  0.00000000000E+00  0.00000000000E+00 -0.91170793578E+03  0.91170793580E+03  0.50400001928E-02 0. -1.
    10030    2    1    2    0    0  0.00000000000E+00  0.00000000000E+00 -0.44974634908E+03  0.13736695225E+04  0.12979584657E+04 0.  0.
        3    1    3    3  502    0 -0.55761943459E+03  0.14465022111E+03 -0.54115463436E+03  0.79038691082E+03  0.10100000352E+00 0. -1.
       -3    1    3    3    0  502  0.55761943459E+03 -0.14465022111E+03  0.91408285285E+02  0.58328261171E+03  0.10100000352E+00 0.  1.
</event>
<event>
 5   0  0.1387622E-03  0.1062963E+04  0.7818609E-02  0.9242062E-01
       -1   -1    0    0    0  501  0.00000000000E+00  0.00000000000E+00  0.32218532811E+03  0.32218532815E+03  0.50400001928E-02 0.  1.
        1   -1    0    0  501    0  0.00000000000E+00  0.00000000000E+00 -0.87673988856E+03  0.87673988857E+03  0.50400001928E-02 0. -1.
    10030    2    1    2    0    0  0.00000000000E+00  0.00000000000E+00 -0.55455456045E+03  0.11989252167E+04  0.10629632707E+04 0.  0.
        3    1    3    3  502    0 -0.12226481115E+03  0.69050760183E+01 -0.86061026444E+03  0.86927924258E+03  0.10100000352E+00 0. -1.
       -3    1    3    3    0  502  0.12226481115E+03 -0.69050760183E+01  0.30605570400E+03  0.32964597414E+03  0.10100000352E+00 0.  1.
</event>
<event>
 5   0  0.1310461E-03  0.1229748E+04  0.7818609E-02  0.9087210E-01
        1   -1    0    0  501    0  0.00000000000E+00  0.00000000000E+00  0.92760636037E+03  0.92760636038E+03  0.50400001928E-02 0.  1.
       -1   -1    0    0    0  501  0.00000000000E+00  0.00000000000E+00 -0.40757578301E+03  0.40757578305E+03  0.50400001928E-02 0. -1.
    10030    2    1    2    0    0  0.00000000000E+00  0.00000000000E+00  0.52003057735E+03  0.13351821434E+04  0.12297477606E+04 0.  0.
        4    1    3    3  502    0  0.28408445739E+03  0.31985827574E+03  0.73953117170E+03  0.85435429553E+03  0.12699999809E+01 0.  1.
       -4    1    3    3    0  502 -0.28408445739E+03 -0.31985827574E+03 -0.21950059434E+03  0.48082784789E+03  0.12699999809E+01 0. -1.
</event>
<event>
 5   0  0.2478236E-03  0.1164198E+04  0.7818609E-02  0.9144784E-01
       -2   -1    0    0    0  501  0.00000000000E+00  0.00000000000E+00  0.68561450207E+03  0.68561450208E+03  0.25500000920E-02 0.  1.
        2   -1    0    0  501    0  0.00000000000E+00  0.00000000000E+00 -0.49421260329E+03  0.49421260330E+03  0.25500000920E-02 0. -1.
    10030    2    1    2    0    0  0.00000000000E+00  0.00000000000E+00  0.19140189878E+03  0.11798271054E+04  0.11641981411E+04 0.  0.
        3    1    3    3  502    0 -0.36788325668E+03 -0.38109843654E+03  0.34032329249E+03  0.62959833425E+03  0.10100000352E+00 0.  1.
       -3    1    3    3    0  502  0.36788325668E+03  0.38109843654E+03 -0.14892139371E+03  0.55022877113E+03  0.10100000352E+00 0. -1.
</event>
<event>
 5   0  0.1332630E-03  0.1280263E+04  0.7818609E-02  0.9045365E-01
       -1   -1    0    0    0  501  0.00000000000E+00  0.00000000000E+00  0.33852234001E+03  0.33852234005E+03  0.50400001928E-02 0.  1.
        1   -1    0    0  501    0  0.00000000000E+00  0.00000000000E+00 -0.12104608329E+04  0.12104608330E+04  0.50400001928E-02 0. -1.
    10030    2    1    2    0    0  0.00000000000E+00  0.00000000000E+00 -0.87193849294E+03  0.15489831730E+04  0.12802625257E+04 0.  0.
        5    1    3    3  502    0 -0.36219854861E+03  0.12368605812E+03  0.18481406610E+03  0.42504630173E+03  0.46999998093E+01 0.  1.
       -5    1    3    3    0  502  0.36219854861E+03 -0.12368605812E+03 -0.10567525590E+04  0.11239368713E+04  0.46999998093E+01 0. -1.
</event>
<event>
 5   0  0.2478236E-03  0.1240403E+04  0.7818609E-02  0.9078209E-01
       -2   -1    0    0    0  501  0.00000000000E+00  0.00000000000E+00  0.18550183101E+03  0.18550183103E+03  0.25500000920E-02 0.  1.
        2   -1    0    0  501    0  0.00000000000E+00  0.00000000000E+00 -0.20735626764E+04  0.20735626764E+04  0.25500000920E-02 0. -1.
    10030    2    1    2    0    0  0.00000000000E+00  0.00000000000E+00 -0.18880608454E+04  0.22590645074E+04  0.12404026334E+04 0.  0.
        3    1    3    3  502    0  0.41737388017E+03  0.34303872042E+03 -0.38930625288E+03  0.66590981993E+03  0.10100000352E+00 0.  1.
       -3    1    3    3    0  502 -0.41737388017E+03 -0.34303872042E+03 -0.14987545925E+04  0.15931546875E+04  0.10100000352E+00 0. -1.
</event>
<event>
 5   0  0.2312105E-03  0.1321043E+04  0.7818609E-02  0.9013043E-01
       -2   -1    0    0    0  501  0.00000000000E+00  0.00000000000E+00  0.30109668648E+03  0.30109668650E+03  0.25500000920E-02 0.  1.
        2   -1    0    0  501    0  0.00000000000E+00  0.00000000000E+00 -0.14489974910E+04  0.14489974910E+04  0.25500000920E-02 0. -1.
    10030    2    1    2    0    0  0.00000000000E+00  0.00000000000E+00 -0.11479008045E+04  0.17500941775E+04  0.13210425327E+04 0.  0.
        5    1    3    3  502    0  0.78002809607E+02  0.61243306260E+03 -0.26295769442E+03  0.67106447791E+03  0.46999998093E+01 0.  1.
       -5    1    3    3    0  502 -0.78002809607E+02 -0.61243306260E+03 -0.88494311009E+03  0.10790296996E+04  0.46999998093E+01 0. -1.
</event>
<event>
 5   0  0.1346593E-03  0.1303384E+04  0.7818609E-02  0.9026886E-01
       -1   -1    0    0    0  501  0.00000000000E+00  0.00000000000E+00  0.13211339521E+04  0.13211339521E+04  0.50400001928E-02 0.  1.
        1   -1    0    0  501    0  0.00000000000E+00  0.00000000000E+00 -0.32146794876E+03  0.32146794880E+03  0.50400001928E-02 0. -1.
    10030    2    1    2    0    0  0.00000000000E+00  0.00000000000E+00  0.99966600332E+03  0.16426019009E+04  0.13033836299E+04 0.  0.
        2    1    3    3  502    0 -0.14384831008E+03 -0.27741766650E+03 -0.22088718545E+03  0.38268008402E+03  0.25500000920E-02 0. -1.
       -2    1    3    3    0  502  0.14384831008E+03  0.27741766650E+03  0.12205531888E+04  0.12599218169E+04  0.25500000920E-02 0.  1.
</event>
<event>
 5   0  0.1310461E-03  0.1298012E+04  0.7818609E-02  0.9031143E-01
        1   -1    0    0  501    0  0.00000000000E+00  0.00000000000E+00  0.11214569226E+04  0.11214569227E+04  0.50400001928E-02 0.  1.
       -1   -1    0    0    0  501  0.00000000000E+00  0.00000000000E+00 -0.37559071908E+03  0.37559071912E+03  0.50400001928E-02 0. -1.
    10030    2    1    2    0    0  0.00000000000E+00  0.00000000000E+00  0.74586620356E+03  0.14970476418E+04  0.12980120370E+04 0.  0.
        4    1    3    3  502    0 -0.87355413993E+02  0.30250142759E+03  0.10274659442E+04  0.10746282899E+04  0.12699999809E+01 0.  1.
       -4    1    3    3    0  502  0.87355413993E+02 -0.30250142759E+03 -0.28159974062E+03  0.42241935190E+03  0.12699999809E+01 0. -1.
</event>
<event>
 5   0  0.2361043E-03  0.1259033E+04  0.7818609E-02  0.9062698E-01
       -2   -1    0    0    0  501  0.00000000000E+00  0.00000000000E+00  0.36838886810E+03  0.36838886811E+03  0.25500000920E-02 0.  1.
        2   -1    0    0  501    0  0.00000000000E+00  0.00000000000E+00 -0.10757413562E+04  0.10757413562E+04  0.25500000920E-02 0. -1.
    10030    2    1    2    0    0  0.00000000000E+00  0.00000000000E+00 -0.70735248809E+03  0.14441302243E+04  0.12590331856E+04 0.  0.
        2    1    3    3  502    0  0.17651417771E+03  0.12666887838E+03 -0.10313757797E+04  0.10540105591E+04  0.25500000920E-02 0. -1.
       -2    1    3    3    0  502 -0.17651417771E+03 -0.12666887838E+03  0.32402329161E+03  0.39011966523E+03  0.25500000920E-02 0.  1.
</event>
<event>
 5   0  0.2478236E-03  0.1311886E+04  0.7818609E-02  0.9020192E-01
        2   -1    0    0  501    0  0.00000000000E+00  0.00000000000E+00  0.85864454571E+03  0.85864454571E+03  0.25500000920E-02 0.  1.
       -2   -1    0    0    0  501  0.00000000000E+00  0.00000000000E+00 -0.50109332045E+03  0.50109332045E+03  0.25500000920E-02 0. -1.
    10030    2    1    2    0    0  0.00000000000E+00  0.00000000000E+00  0.35755122526E+03  0.13597378662E+04  0.13118857366E+04 0.  0.
        3    1    3    3  502    0 -0.54933181215E+03  0.32588936564E+03  0.33352571686E+03  0.72056140091E+03  0.10100000352E+00 0. -1.
       -3    1    3    3    0  502  0.54933181215E+03 -0.32588936564E+03  0.24025508408E+02  0.63917646525E+03  0.10100000352E+00 0.  1.
</event>
<event>
 5   0  0.1324721E-03  0.1310233E+04  0.7818609E-02  0.9021489E-01
       -1   -1    0    0    0  501  0.00000000000E+00  0.00000000000E+00  0.10864455611E+04  0.10864455611E+04  0.50400001928E-02 0. -1.
        1   -1    0    0  501    0  0.00000000000E+00  0.00000000000E+00 -0.39502921167E+03  0.39502921170E+03  0.50400001928E-02 0.  1.
    10030    2    1    2    0    0  0.00000000000E+00  0.00000000000E+00  0.69141634946E+03  0.14814747728E+04  0.13102331603E+04 0.  0.
        1    1    3    3  502    0 -0.18935125297E+01  0.65322302974E+03  0.40194617376E+03  0.76698411887E+03  0.50400001928E-02 0. -1.
       -1    1    3    3    0  502  0.18935125297E+01 -0.65322302974E+03  0.28947017570E+03  0.71449065397E+03  0.50400001928E-02 0.  1.
</event>
<event>
 5   0  0.2312105E-03  0.1230645E+04  0.7818609E-02  0.9086448E-01
        2   -1    0    0  501    0  0.00000000000E+00  0.00000000000E+00  0.84198908480E+03  0.84198908481E+03  0.25500000920E-02 0.  1.
       -2   -1    0    0    0  501  0.00000000000E+00  0.00000000000E+00 -0.44967508279E+03  0.44967508279E+03  0.25500000920E-02 0. -1.
    10030    2    1    2    0    0  0.00000000000E+00  0.00000000000E+00  0.39231400201E+03  0.12916641676E+04  0.12306445651E+04 0.  0.
        5    1    3    3  502    0  0.55635368285E+03  0.26033727339E+03  0.23392020672E+03  0.65730181001E+03  0.46999998093E+01 0. -1.
       -5    1    3    3    0  502 -0.55635368285E+03 -0.26033727339E+03  0.15839379529E+03  0.63436235759E+03  0.46999998093E+01 0.  1.
</event>
<event>
 5   0  0.1310461E-03  0.1302341E+04  0.7818609E-02  0.9027711E-01
        1   -1    0    0  501    0  0.00000000000E+00  0.00000000000E+00  0.58133532796E+03  0.58133532799E+03  0.50400001928E-02 0. -1.
       -1   -1    0    0    0  501  0.00000000000E+00  0.00000000000E+00 -0.72939525738E+03  0.72939525740E+03  0.50400001928E-02 0.  1.
    10030    2    1    2    0    0  0.00000000000E+00  0.00000000000E+00 -0.14805992941E+03  0.13107305854E+04  0.13023413242E+04 0.  0.
        4    1    3    3  502    0 -0.39139257780E+03 -0.19958786876E+02  0.44935368791E+03  0.59624395416E+03  0.12699999809E+01 0. -1.
       -4    1    3    3    0  502  0.39139257780E+03  0.19958786876E+02 -0.59741361732E+03  0.71448663122E+03  0.12699999809E+01 0.  1.
</event>
<event>
 5   0  0.1332630E-03  0.1299776E+04  0.7818609E-02  0.9029743E-01
       -1   -1    0    0    0  501  0.00000000000E+00  0.00000000000E+00  0.29664541897E+03  0.29664541901E+03  0.50400001928E-02 0. -1.
        1   -1    0    0  501    0  0.00000000000E+00  0.00000000000E+00 -0.14237688888E+04  0.14237688888E+04  0.50400001928E-02 0.  1.
    10030    2    1    2    0    0  0.00000000000E+00  0.00000000000E+00 -0.11271234699E+04  0.17204143079E+04  0.12997761632E+04 0.  0.
        5    1    3    3  502    0 -0.57014898124E+02  0.58449962637E+01 -0.14203946448E+04  0.14215582645E+04  0.46999998093E+01 0.  1.
       -5    1    3    3    0  502  0.57014898124E+02 -0.58449962637E+01  0.29327117491E+03  0.29885604331E+03  0.46999998093E+01 0. -1.
</event>
<event>
 5   0  0.2361043E-03  0.1301848E+04  0.7818609E-02  0.9028101E-01
        2   -1    0    0  501    0  0.00000000000E+00  0.00000000000E+00  0.15802317050E+04  0.15802317050E+04  0.25500000920E-02 0. -1.
       -2   -1    0    0    0  501  0.00000000000E+00  0.00000000000E+00 -0.26812672703E+03  0.26812672704E+03  0.25500000920E-02 0.  1.
    10030    2    1    2    0    0  0.00000000000E+00  0.00000000000E+00  0.13121049780E+04  0.18483584320E+04  0.13018484628E+04 0.  0.
        2    1    3    3  502    0  0.13205165329E+02  0.31566803320E+03 -0.15196162032E+03  0.35058952870E+03  0.25500000920E-02 0.  1.
       -2    1    3    3    0  502 -0.13205165329E+02 -0.31566803320E+03  0.14640665983E+04  0.14977689033E+04  0.25500000920E-02 0. -1.
</event>
<event>
 5   0  0.1324721E-03  0.1292304E+04  0.7818609E-02  0.9035690E-01
        1   -1    0    0  501    0  0.00000000000E+00  0.00000000000E+00  0.18662569983E+04  0.18662569983E+04  0.50400001928E-02 0. -1.
       -1   -1    0    0    0  501  0.00000000000E+00  0.00000000000E+00 -0.22371648885E+03  0.22371648891E+03  0.50400001928E-02 0.  1.
    10030    2    1    2    0    0  0.00000000000E+00  0.00000000000E+00  0.16425405094E+04  0.20899734872E+04  0.12923040865E+04 0.  0.
        1    1    3    3  502    0  0.40983817111E+03 -0.65821563539E+02  0.16221134723E+04  0.16743810564E+04  0.50400001928E-02 0. -1.
       -1    1    3    3    0  502 -0.40983817111E+03  0.65821563539E+02  0.20427037117E+02  0.41559243087E+03  0.50400001928E-02 0.  1.
</event>
<event>
 5   0  0.1346593E-03  0.1291254E+04  0.7818609E-02  0.9036530E-01
        1   -1    0    0  501    0  0.00000000000E+00  0.00000000000E+00  0.15184328525E+04  0.15184328525E+04  0.50400001928E-02 0. -1.
       -1   -1    0    0    0  501  0.00000000000E+00  0.00000000000E+00 -0.27451617653E+03  0.27451617658E+03  0.50400001928E-02 0.  1.
    10030    2    1    2    0    0  0.00000000000E+00  0.00000000000E+00  0.12439166760E+04  0.17929490291E+04  0.12912542446E+04 0.  0.
        2    1    3    3  502    0  0.60072592974E+03  0.23636803041E+03  0.63534112731E+03  0.90575925970E+03  0.25500000920E-02 0. -1.
       -2    1    3    3    0  502 -0.60072592974E+03 -0.23636803041E+03  0.60857554866E+03  0.88718976938E+03  0.25500000920E-02 0.  1.
</event>
<event>
 5   0  0.2312105E-03  0.1300317E+04  0.7818609E-02  0.9029314E-01
        2   -1    0    0  501    0  0.00000000000E+00  0.00000000000E+00  0.13656259941E+04  0.13656259941E+04  0.25500000920E-02 0.  1.
       -2   -1    0    0    0  501  0.00000000000E+00  0.00000000000E+00 -0.30953271002E+03  0.30953271003E+03  0.25500000920E-02 0. -1.
    10030    2    1    2    0    0  0.00000000000E+00  0.00000000000E+00  0.10560932841E+04  0.16751587042E+04  0.13003167535E+04 0.  0.
        5    1    3    3  502    0 -0.15803676037E+03 -0.44484674242E+03  0.11039184584E+04  0.12006341219E+04  0.46999998093E+01 0.  1.
       -5    1    3    3    0  502  0.15803676037E+03  0.44484674242E+03 -0.47825174295E+02  0.47452458226E+03  0.46999998093E+01 0. -1.
</event>
<event>
 5   0  0.2401211E-03  0.1301965E+04  0.7818609E-02  0.9028009E-01
        2   -1    0    0  501    0  0.00000000000E+00  0.00000000000E+00  0.49737608879E+03  0.49737608879E+03  0.25500000920E-02 0.  1.
       -2   -1    0    0    0  501  0.00000000000E+00  0.00000000000E+00 -0.85202714593E+03  0.85202714594E+03  0.25500000920E-02 0. -1.
    10030    2    1    2    0    0  0.00000000000E+00  0.00000000000E+00 -0.35465105715E+03  0.13494032347E+04  0.13019645608E+04 0.  0.
        4    1    3    3  502    0  0.15728697101E+03 -0.51972114491E+03 -0.54947261064E+03  0.77250956140E+03  0.12699999809E+01 0. -1.
       -4    1    3    3    0  502 -0.15728697101E+03  0.51972114491E+03  0.19482155349E+03  0.57689367333E+03  0.12699999809E+01 0.  1.
</event>
<event>
 5   0  0.1346593E-03  0.1597388E+04  0.7818609E-02  0.8822154E-01
        1   -1    0    0  501    0  0.00000000000E+00  0.00000000000E+00  0.11947466080E+04  0.11947466080E+04  0.50400001928E-02 0.  1.
       -1   -1    0    0    0  501  0.00000000000E+00  0.00000000000E+00 -0.53393087973E+03  0.53393087976E+03  0.50400001928E-02 0. -1.
    10030    2    1    2    0    0  0.00000000000E+00  0.00000000000E+00  0.66081572828E+03  0.17286774878E+04  0.15973880023E+04 0.  0.
        2    1    3    3  502    0 -0.78358702017E+03  0.14772250319E+03  0.37978172914E+03  0.88321272518E+03  0.25500000920E-02 0. -1.
       -2    1    3    3    0  502  0.78358702017E+03 -0.14772250319E+03  0.28103399914E+03  0.84546476260E+03  0.25500000920E-02 0.  1.
</event>
<event>
 5   0  0.1387622E-03  0.1290083E+04  0.7818609E-02  0.9037467E-01
        1   -1    0    0  501    0  0.00000000000E+00  0.00000000000E+00  0.27818398324E+03  0.27818398328E+03  0.50400001928E-02 0.  1.
       -1   -1    0    0    0  501  0.00000000000E+00  0.00000000000E+00 -0.14956950434E+04  0.14956950434E+04  0.50400001928E-02 0. -1.
    10030    2    1    2    0    0  0.00000000000E+00  0.00000000000E+00 -0.12175110601E+04  0.17738790267E+04  0.12900827957E+04 0.  0.
        3    1    3    3  502    0 -0.55851987974E+03 -0.25971803583E+03 -0.87209983055E+03  0.10676872383E+04  0.10100000352E+00 0.  1.
       -3    1    3    3    0  502  0.55851987974E+03  0.25971803583E+03 -0.34541122957E+03  0.70619178834E+03  0.10100000352E+00 0. -1.
</event>
<event>
 5   0  0.1346593E-03  0.1272322E+04  0.7818609E-02  0.9051806E-01
        1   -1    0    0  501    0  0.00000000000E+00  0.00000000000E+00  0.16080458118E+04  0.16080458118E+04  0.50400001928E-02 0.  1.
       -1   -1    0    0    0  501  0.00000000000E+00  0.00000000000E+00 -0.25167260280E+03  0.25167260285E+03  0.50400001928E-02 0. -1.
    10030    2    1    2    0    0  0.00000000000E+00  0.00000000000E+00  0.13563732090E+04  0.18597184147E+04  0.12723224040E+04 0.  0.
        2    1    3    3  502    0  0.12603820336E+03 -0.51856123432E+03  0.17203902843E+03  0.56070385210E+03  0.25500000920E-02 0. -1.
       -2    1    3    3    0  502 -0.12603820336E+03  0.51856123432E+03  0.11843341806E+04  0.12990145626E+04  0.25500000920E-02 0.  1.
</event>
<event>
 5   0  0.2478236E-03  0.1299503E+04  0.7818609E-02  0.9029959E-01
       -2   -1    0    0    0  501  0.00000000000E+00  0.00000000000E+00  0.28096867904E+03  0.28096867905E+03  0.25500000920E-02 0. -1.
        2   -1    0    0  501    0  0.00000000000E+00  0.00000000000E+00 -0.15025768036E+04  0.15025768036E+04  0.25500000920E-02 0.  1.
    10030    2    1    2    0    0  0.00000000000E+00  0.00000000000E+00 -0.12216081245E+04  0.17835454826E+04  0.12995030122E+04 0.  0.
        3    1    3    3  502    0 -0.26181786124E+03 -0.34154701639E+03  0.57320281805E+02  0.43415271712E+03  0.10100000352E+00 0. -1.
       -3    1    3    3    0  502  0.26181786124E+03  0.34154701639E+03 -0.12789284063E+04  0.13493927655E+04  0.10100000352E+00 0.  1.
</event>
<event>
 5   0  0.1332630E-03  0.1300291E+04  0.7818609E-02  0.9029334E-01
        1   -1    0    0  501    0  0.00000000000E+00  0.00000000000E+00  0.25408602738E+04  0.25408602738E+04  0.50400001928E-02 0.  1.
       -1   -1    0    0    0  501  0.00000000000E+00  0.00000000000E+00 -0.16635681000E+03  0.16635681008E+03  0.50400001928E-02 0. -1.
    10030    2    1    2    0    0  0.00000000000E+00  0.00000000000E+00  0.23745034638E+04  0.27072170839E+04  0.13002913672E+04 0.  0.
        5    1    3    3  502    0 -0.28690874883E+03  0.39840933406E+03  0.29996279591E+03  0.57536631510E+03  0.46999998093E+01 0. -1.
       -5    1    3    3    0  502  0.28690874883E+03 -0.39840933406E+03  0.20745406679E+04  0.21318507688E+04  0.46999998093E+01 0.  1.
</event>
<event>
 5   0  0.1310461E-03  0.1281868E+04  0.7818609E-02  0.9044069E-01
        1   -1    0    0  501    0  0.00000000000E+00  0.00000000000E+00  0.56170866083E+03  0.56170866085E+03  0.50400001928E-02 0. -1.
       -1   -1    0    0    0  501  0.00000000000E+00  0.00000000000E+00 -0.73133312714E+03  0.73133312715E+03  0.50400001928E-02 0.  1.
    10030    2    1    2    0    0  0.00000000000E+00  0.00000000000E+00 -0.16962446630E+03  0.12930417880E+04  0.12818676242E+04 0.  0.
        4    1    3    3  502    0 -0.12237717683E+03 -0.60001622934E+03 -0.27566750487E+03  0.67155776745E+03  0.12699999809E+01 0.  1.
       -4    1    3    3    0  502  0.12237717683E+03  0.60001622934E+03  0.10604303857E+03  0.62148402056E+03  0.12699999809E+01 0. -1.
</event>
<event>
 5   0  0.1324721E-03  0.1270497E+04  0.7818609E-02  0.9053294E-01
       -1   -1    0    0    0  501  0.00000000000E+00  0.00000000000E+00  0.69281776441E+03  0.69281776443E+03  0.50400001928E-02 0.  1.
        1   -1    0    0  501    0  0.00000000000E+00  0.00000000000E+00 -0.58246255769E+03  0.58246255772E+03  0.50400001928E-02 0. -1.
    10030    2    1    2    0    0  0.00000000000E+00  0.00000000000E+00  0.11035520671E+03  0.12752803221E+04  0.12704966070E+04 0.  0.
        1    1    3    3  502    0  0.68658678450E+02  0.57787432643E+03 -0.20051207171E+03  0.61551429082E+03  0.50400001928E-02 0. -1.
       -1    1    3    3    0  502 -0.68658678450E+02 -0.57787432643E+03  0.31086727842E+03  0.65976603133E+03  0.50400001928E-02 0.  1.
</event>
<event>
 5   0  0.2334946E-03  0.1294111E+04  0.7818609E-02  0.9034248E-01
        2   -1    0    0  501    0  0.00000000000E+00  0.00000000000E+00  0.21861570855E+03  0.21861570856E+03  0.25500000920E-02 0. -1.
       -2   -1    0    0    0  501  0.00000000000E+00  0.00000000000E+00 -0.19151458787E+04  0.19151458787E+04  0.25500000920E-02 0.  1.
    10030    2    1    2    0    0  0.00000000000E+00  0.00000000000E+00 -0.16965301701E+04  0.21337615873E+04  0.12941112367E+04 0.  0.
        1    1    3    3  502    0 -0.63683730982E+03 -0.11347211632E+03 -0.87398319092E+03  0.10873289743E+04  0.50400001928E-02 0.  1.
       -1    1    3    3    0  502  0.63683730982E+03  0.11347211632E+03 -0.82254697923E+03  0.10464326129E+04  0.50400001928E-02 0. -1.
</event>
<event>
 5   0  0.1324721E-03  0.1385650E+04  0.7818609E-02  0.8964272E-01
       -1   -1    0    0    0  501  0.00000000000E+00  0.00000000000E+00  0.62047426802E+03  0.62047426804E+03  0.50400001928E-02 0. -1.
        1   -1    0    0  501    0  0.00000000000E+00  0.00000000000E+00 -0.77361241393E+03  0.77361241394E+03  0.50400001928E-02 0.  1.
    10030    2    1    2    0    0  0.00000000000E+00  0.00000000000E+00 -0.15313814590E+03  0.13940866820E+04  0.13856501669E+04 0.  0.
        1    1    3    3  502    0 -0.35756111815E+03 -0.12007223045E+03  0.50812269722E+03  0.63281590466E+03  0.50400001928E-02 0. -1.
       -1    1    3    3    0  502  0.35756111815E+03  0.12007223045E+03 -0.66126084312E+03  0.76127077732E+03  0.50400001928E-02 0.  1.
</event>
<event>
 5   0  0.2478236E-03  0.1355907E+04  0.7818609E-02  0.8986369E-01
       -2   -1    0    0    0  501  0.00000000000E+00  0.00000000000E+00  0.72676118370E+03  0.72676118371E+03  0.25500000920E-02 0.  1.
        2   -1    0    0  501    0  0.00000000000E+00  0.00000000000E+00 -0.63242334766E+03  0.63242334767E+03  0.25500000920E-02 0. -1.
    10030    2    1    2    0    0  0.00000000000E+00  0.00000000000E+00  0.94337836042E+02  0.13591845314E+04  0.13559066941E+04 0.  0.
        3    1    3    3  502    0 -0.58823237881E+03  0.32607043273E+03 -0.38368908213E+02  0.67365528418E+03  0.10100000352E+00 0. -1.
       -3    1    3    3    0  502  0.58823237881E+03 -0.32607043273E+03  0.13270674426E+03  0.68552924719E+03  0.10100000352E+00 0.  1.
</event>
<event>
 5   0  0.2478236E-03  0.1365195E+04  0.7818609E-02  0.8979405E-01
        2   -1    0    0  501    0  0.00000000000E+00  0.00000000000E+00  0.80346836830E+03  0.80346836830E+03  0.25500000920E-02 0.  1.
       -2   -1    0    0    0  501  0.00000000000E+00  0.00000000000E+00 -0.57990975551E+03  0.57990975552E+03  0.25500000920E-02 0. -1.
    10030    2    1    2    0    0  0.00000000000E+00  0.00000000000E+00  0.22355861279E+03  0.13833781238E+04  0.13651947041E+04 0.  0.
        3    1    3    3  502    0 -0.10712840141E+03  0.62138808398E+03 -0.15312082516E+03  0.64888029913E+03  0.10100000352E+00 0.  1.
       -3    1    3    3    0  502  0.10712840141E+03 -0.62138808398E+03  0.37667943795E+03  0.73449782469E+03  0.10100000352E+00 0. -1.
</event>
<event>
 5   0  0.2401211E-03  0.1241937E+04  0.7818609E-02  0.9076921E-01
        2   -1    0    0  501    0  0.00000000000E+00  0.00000000000E+00  0.15327221037E+04  0.15327221037E+04  0.25500000920E-02 0.  1.
       -2   -1    0    0    0  501  0.00000000000E+00  0.00000000000E+00 -0.25157985995E+03  0.25157985996E+03  0.25500000920E-02 0. -1.
    10030    2    1    2    0    0  0.00000000000E+00  0.00000000000E+00  0.12811422438E+04  0.17843019637E+04  0.12419372161E+04 0.  0.
        4    1    3    3  502    0 -0.30459792542E+03 -0.80048551038E+02 -0.12832004627E+03  0.34008133420E+03  0.12699999809E+01 0. -1.
       -4    1    3    3    0  502  0.30459792542E+03  0.80048551038E+02  0.14094622900E+04  0.14442206295E+04  0.12699999809E+01 0.  1.
</event>
<event>
 5   0  0.1387622E-03  0.1313084E+04  0.7818609E-02  0.9019254E-01
       -1   -1    0    0    0  501  0.00000000000E+00  0.00000000000E+00  0.37863597156E+03  0.37863597159E+03  0.50400001928E-02 0. -1.
        1   -1    0    0  501    0  0.00000000000E+00  0.00000000000E+00 -0.11384208770E+04  0.11384208770E+04  0.50400001928E-02 0.  1.
    10030    2    1    2    0    0  0.00000000000E+00  0.00000000000E+00 -0.75978490546E+03  0.15170568486E+04  0.13130835386E+04 0.  0.
        3    1    3    3  502    0  0.59713696887E+03 -0.27275808791E+03 -0.39006669096E+03  0.76362397010E+03  0.10100000352E+00 0.  1.
       -3    1    3    3    0  502 -0.59713696887E+03  0.27275808791E+03 -0.36971821450E+03  0.75343287853E+03  0.10100000352E+00 0. -1.
</event>
<event>
 5   0  0.2401211E-03  0.1285852E+04  0.7818609E-02  0.9040861E-01
        2   -1    0    0  501    0  0.00000000000E+00  0.00000000000E+00  0.15912423645E+04  0.15912423645E+04  0.25500000920E-02 0. -1.
       -2   -1    0    0    0  501  0.00000000000E+00  0.00000000000E+00 -0.25976792875E+03  0.25976792876E+03  0.25500000920E-02 0.  1.
    10030    2    1    2    0    0  0.00000000000E+00  0.00000000000E+00  0.13314744357E+04  0.18510102933E+04  0.12858518316E+04 0.  0.
        4    1    3    3  502    0  0.32939529793E+03  0.19000253001E+03 -0.80526038572E+02  0.38870075829E+03  0.12699999809E+01 0.  1.
       -4    1    3    3    0  502 -0.32939529793E+03 -0.19000253001E+03  0.14120004743E+04  0.14623095350E+04  0.12699999809E+01 0. -1.
</event>
<event>
 5   0  0.1332630E-03  0.1314615E+04  0.7818609E-02  0.9018055E-01
        1   -1    0    0  501    0  0.00000000000E+00  0.00000000000E+00  0.42462279226E+03  0.42462279229E+03  0.50400001928E-02 0. -1.
       -1   -1    0    0    0  501  0.00000000000E+00  0.00000000000E+00 -0.10174983615E+04  0.10174983616E+04  0.50400001928E-02 0.  1.
    10030    2    1    2    0    0  0.00000000000E+00  0.00000000000E+00 -0.59287556929E+03  0.14421211538E+04  0.13146147655E+04 0.  0.
        5    1    3    3  502    0  0.93034471625E+02 -0.41144872441E+03  0.25652146967E+03  0.49373152637E+03  0.46999998093E+01 0. -1.
       -5    1    3    3    0  502 -0.93034471625E+02  0.41144872441E+03 -0.84939703896E+03  0.94838962748E+03  0.46999998093E+01 0.  1.
</event>
<event>
 5   0  0.2334946E-03  0.1289034E+04  0.7818609E-02  0.9038307E-01
       -2   -1    0    0    0  501  0.00000000000E+00  0.00000000000E+00  0.49027081271E+03  0.49027081272E+03  0.25500000920E-02 0.  1.
        2   -1    0    0  501    0  0.00000000000E+00  0.00000000000E+00 -0.84729128835E+03  0.84729128835E+03  0.25500000920E-02 0. -1.
    10030    2    1    2    0    0  0.00000000000E+00  0.00000000000E+00 -0.35702047564E+03  0.13375621011E+04  0.12890340392E+04 0.  0.
        1    1    3    3  502    0  0.34886721801E+03  0.42132494894E+03  0.17517232424E+03  0.57437652425E+03  0.50400001928E-02 0.  1.
       -1    1    3    3    0  502 -0.34886721801E+03 -0.42132494894E+03 -0.53219279988E+03  0.76318557682E+03  0.50400001928E-02 0. -1.
</event>
<event>
 5   0  0.1346593E-03  0.1303626E+04  0.7818609E-02  0.9026695E-01
       -1   -1    0    0    0  501  0.00000000000E+00  0.00000000000E+00  0.97684137351E+03  0.97684137352E+03  0.50400001928E-02 0.  1.
        1   -1    0    0  501    0  0.00000000000E+00  0.00000000000E+00 -0.43493230713E+03  0.43493230716E+03  0.50400001928E-02 0. -1.
    10030    2    1    2    0    0  0.00000000000E+00  0.00000000000E+00  0.54190906638E+03  0.14117736807E+04  0.13036255172E+04 0.  0.
        2    1    3    3  502    0 -0.61266634893E+03 -0.22232840437E+03  0.26190046060E+03  0.70241143625E+03  0.25500000920E-02 0.  1.
       -2    1    3    3    0  502  0.61266634893E+03  0.22232840437E+03  0.28000860578E+03  0.70936224443E+03  0.25500000920E-02 0. -1.
</event>
<event>
 5   0  0.2312105E-03  0.1192018E+04  0.7818609E-02  0.9119872E-01
        2   -1    0    0  501    0  0.00000000000E+00  0.00000000000E+00  0.39499657257E+03  0.39499657258E+03  0.25500000920E-02 0.  1.
       -2   -1    0    0    0  501  0.00000000000E+00  0.00000000000E+00 -0.89931660261E+03  0.89931660261E+03  0.25500000920E-02 0. -1.
    10030    2    1    2    0    0  0.00000000000E+00  0.00000000000E+00 -0.50432003004E+03  0.12943131752E+04  0.11920184154E+04 0.  0.
        5    1    3    3  502    0 -0.20892299495E+03 -0.61423925907E+02 -0.85455152279E+03  0.88187420395E+03  0.46999998093E+01 0. -1.
       -5    1    3    3    0  502  0.20892299495E+03  0.61423925907E+02  0.35023149274E+03  0.41243897124E+03  0.46999998093E+01 0.  1.
</event>
<event>
 5   0  0.1387622E-03  0.1335580E+04  0.7818609E-02  0.9001816E-01
       -1   -1    0    0    0  501  0.00000000000E+00  0.00000000000E+00  0.65680250124E+03  0.65680250126E+03  0.50400001928E-02 0.  1.
        1   -1    0    0  501    0  0.00000000000E+00  0.00000000000E+00 -0.67896148509E+03  0.67896148511E+03  0.50400001928E-02 0. -1.
    10030    2    1    2    0    0  0.00000000000E+00  0.00000000000E+00 -0.22158983846E+02  0.13357639864E+04  0.13355801761E+04 0.  0.
        3    1    3    3  502    0  0.66498414809E+03 -0.16616268585E+02  0.47780743382E+02  0.66690556096E+03  0.10100000352E+00 0. -1.
       -3    1    3    3    0  502 -0.66498414809E+03  0.16616268585E+02 -0.69939727228E+02  0.66885842541E+03  0.10100000352E+00 0.  1.
</event>
<event>
 5   0  0.1324721E-03  0.1297209E+04  0.7818609E-02  0.9031782E-01
        1   -1    0    0  501    0  0.00000000000E+00  0.00000000000E+00  0.13375347832E+04  0.13375347832E+04  0.50400001928E-02 0.  1.
       -1   -1    0    0    0  501  0.00000000000E+00  0.00000000000E+00 -0.31452454020E+03  0.31452454024E+03  0.50400001928E-02 0. -1.
    10030    2    1    2    0    0  0.00000000000E+00  0.00000000000E+00  0.10230102430E+04  0.16520593235E+04  0.12972085611E+04 0.  0.
        1    1    3    3  502    0 -0.54406263642E+03  0.35102209949E+03  0.46272890651E+03  0.79582580231E+03  0.50400001928E-02 0. -1.
       -1    1    3    3    0  502  0.54406263642E+03 -0.35102209949E+03  0.56028133650E+03  0.85623352114E+03  0.50400001928E-02 0.  1.
</event>
<event>
 5   0  0.9131250E-04  0.1245969E+04  0.7818609E-02  0.9073545E-01
        3   -1    0    0  501    0  0.00000000000E+00  0.00000000000E+00  0.63427465333E+03  0.63427466137E+03  0.10100000352E+00 0. -1.
       -3   -1    0    0    0  501  0.00000000000E+00  0.00000000000E+00 -0.61189510518E+03  0.61189511351E+03  0.10100000352E+00 0.  1.
    10030    2    1    2    0    0  0.00000000000E+00  0.00000000000E+00  0.22379548149E+02  0.12461697749E+04  0.12459688052E+04 0.  0.
        2    1    3    3  502    0  0.11029167194E+03 -0.43953514900E+03  0.43875629001E+03  0.63076341217E+03  0.25500000920E-02 0. -1.
       -2    1    3    3    0  502 -0.11029167194E+03  0.43953514900E+03 -0.41637674186E+03  0.61540636271E+03  0.25500000920E-02 0.  1.
</event>
<event>
 5   0  0.1324721E-03  0.1305384E+04  0.7818609E-02  0.9025307E-01
        1   -1    0    0  501    0  0.00000000000E+00  0.00000000000E+00  0.25267544161E+04  0.25267544161E+04  0.50400001928E-02 0.  1.
       -1   -1    0    0    0  501  0.00000000000E+00  0.00000000000E+00 -0.16859841117E+03  0.16859841124E+03  0.50400001928E-02 0. -1.
    10030    2    1    2    0    0  0.00000000000E+00  0.00000000000E+00  0.23581560049E+04  0.26953528274E+04  0.13053838977E+04 0.  0.
        1    1    3    3  502    0 -0.87987648765E+02  0.56733353965E+03  0.18201554542E+04  0.19085531298E+04  0.50400001928E-02 0.  1.
       -1    1    3    3    0  502  0.87987648765E+02 -0.56733353965E+03  0.53800055073E+03  0.78679969761E+03  0.50400001928E-02 0. -1.
</event>
<event>
 5   0  0.1346593E-03  0.1204662E+04  0.7818609E-02  0.9108785E-01
        1   -1    0    0  501    0  0.00000000000E+00  0.00000000000E+00  0.22609913284E+04  0.22609913284E+04  0.50400001928E-02 0.  1.
       -1   -1    0    0    0  501  0.00000000000E+00  0.00000000000E+00 -0.16046187065E+03  0.16046187072E+03  0.50400001928E-02 0. -1.
    10030    2    1    2    0    0  0.00000000000E+00  0.00000000000E+00  0.21005294578E+04  0.24214531992E+04  0.12046624393E+04 0.  0.
        2    1    3    3  502    0  0.24269743034E+03 -0.23046087988E+03  0.20568826055E+04  0.20839338552E+04  0.25500000920E-02 0.  1.
       -2    1    3    3    0  502 -0.24269743034E+03  0.23046087988E+03  0.43646852273E+02  0.33751934399E+03  0.25500000920E-02 0. -1.
</event>
<event>
 5   0  0.1332630E-03  0.1234552E+04  0.7818609E-02  0.9083139E-01
       -1   -1    0    0    0  501  0.00000000000E+00  0.00000000000E+00  0.62144462088E+03  0.62144462090E+03  0.50400001928E-02 0.  1.
        1   -1    0    0  501    0  0.00000000000E+00  0.00000000000E+00 -0.61313573645E+03  0.61313573647E+03  0.50400001928E-02 0. -1.
    10030    2    1    2    0    0  0.00000000000E+00  0.00000000000E+00  0.83088844313E+01  0.12345803574E+04  0.12345523971E+04 0.  0.
        5    1    3    3  502    0  0.58745958147E+03  0.18919616888E+03 -0.60372134195E+01  0.61722158754E+03  0.46999998093E+01 0. -1.
       -5    1    3    3    0  502 -0.58745958147E+03 -0.18919616888E+03  0.14346097851E+02  0.61735876984E+03  0.46999998093E+01 0.  1.
</event>
<event>
 5   0  0.2312105E-03  0.1290921E+04  0.7818609E-02  0.9036796E-01
        2   -1    0    0  501    0  0.00000000000E+00  0.00000000000E+00  0.88602856541E+03  0.88602856542E+03  0.25500000920E-02 0.  1.
       -2   -1    0    0    0  501  0.00000000000E+00  0.00000000000E+00 -0.47020964417E+03  0.47020964417E+03  0.25500000920E-02 0. -1.
    10030    2    1    2    0    0  0.00000000000E+00  0.00000000000E+00  0.41581892125E+03  0.13562382096E+04  0.12909208751E+04 0.  0.
        5    1    3    3  502    0 -0.42132246410E+02  0.11898745405E+02  0.88444886380E+03  0.88554423323E+03  0.46999998093E+01 0.  1.
       -5    1    3    3    0  502  0.42132246410E+02 -0.11898745405E+02 -0.46862994255E+03  0.47069397636E+03  0.46999998093E+01 0. -1.
</event>
<event>
 5   0  0.1332630E-03  0.1178523E+04  0.7818609E-02  0.9131866E-01
       -1   -1    0    0    0  501  0.00000000000E+00  0.00000000000E+00  0.31295387956E+03  0.31295387960E+03  0.50400001928E-02 0.  1.
        1   -1    0    0  501    0  0.00000000000E+00  0.00000000000E+00 -0.11095211803E+04  0.11095211803E+04  0.50400001928E-02 0. -1.
    10030    2    1    2    0    0  0.00000000000E+00  0.00000000000E+00 -0.79656730076E+03  0.14224750599E+04  0.11785227327E+04 0.  0.
        5    1    3    3  502    0 -0.50119013521E+03 -0.46828567842E+00 -0.24279467851E+02  0.50180011307E+03  0.46999998093E+01 0.  1.
       -5    1    3    3    0  502  0.50119013521E+03  0.46828567842E+00 -0.77228783291E+03  0.92067494687E+03  0.46999998093E+01 0. -1.
</event>
<event>
 5   0  0.2334946E-03  0.1285279E+04  0.7818609E-02  0.9041321E-01
        2   -1    0    0  501    0  0.00000000000E+00  0.00000000000E+00  0.30248765432E+03  0.30248765433E+03  0.25500000920E-02 0. -1.
       -2   -1    0    0    0  501  0.00000000000E+00  0.00000000000E+00 -0.13652975351E+04  0.13652975351E+04  0.25500000920E-02 0.  1.
    10030    2    1    2    0    0  0.00000000000E+00  0.00000000000E+00 -0.10628098808E+04  0.16677851894E+04  0.12852791896E+04 0.  0.
        1    1    3    3  502    0  0.21618536904E+03 -0.59271920270E+03 -0.37283415576E+03  0.73284205308E+03  0.50400001928E-02 0.  1.
       -1    1    3    3    0  502 -0.21618536904E+03  0.59271920270E+03 -0.68997572499E+03  0.93494313632E+03  0.50400001928E-02 0. -1.
</event>
<event>
 5   0  0.1324721E-03  0.1303398E+04  0.7818609E-02  0.9026875E-01
        1   -1    0    0  501    0  0.00000000000E+00  0.00000000000E+00  0.63035188837E+03  0.63035188839E+03  0.50400001928E-02 0.  1.
       -1   -1    0    0    0  501  0.00000000000E+00  0.00000000000E+00 -0.67376928222E+03  0.67376928224E+03  0.50400001928E-02 0. -1.
    10030    2    1    2    0    0  0.00000000000E+00  0.00000000000E+00 -0.43417393859E+02  0.13041211706E+04  0.13033982345E+04 0.  0.
        1    1    3    3  502    0  0.11280320083E+02  0.19864304640E+02  0.62995117727E+03  0.63036522904E+03  0.50400001928E-02 0.  1.
       -1    1    3    3    0  502 -0.11280320083E+02 -0.19864304640E+02 -0.67336857113E+03  0.67375594159E+03  0.50400001928E-02 0. -1.
</event>
<event>
 5   0  0.2401211E-03  0.1299290E+04  0.7818609E-02  0.9030128E-01
       -2   -1    0    0    0  501  0.00000000000E+00  0.00000000000E+00  0.13205706575E+04  0.13205706575E+04  0.25500000920E-02 0. -1.
        2   -1    0    0  501    0  0.00000000000E+00  0.00000000000E+00 -0.31958823447E+03  0.31958823448E+03  0.25500000920E-02 0.  1.
    10030    2    1    2    0    0  0.00000000000E+00  0.00000000000E+00  0.10009824231E+04  0.16401588920E+04  0.12992903370E+04 0.  0.
        4    1    3    3  502    0 -0.36328342171E+03 -0.13822466312E+03  0.11575880308E+04  0.12211030112E+04  0.12699999809E+01 0. -1.
       -4    1    3    3    0  502  0.36328342171E+03  0.13822466312E+03 -0.15660560774E+03  0.41905588083E+03  0.12699999809E+01 0.  1.
</event>
<event>
 5   0  0.2478236E-03  0.1307452E+04  0.7818609E-02  0.9023676E-01
       -2   -1    0    0    0  501  0.00000000000E+00  0.00000000000E+00  0.26880025598E+03  0.26880025599E+03  0.25500000920E-02 0. -1.
        2   -1    0    0  501    0  0.00000000000E+00  0.00000000000E+00 -0.15898711653E+04  0.15898711653E+04  0.25500000920E-02 0.  1.
    10030    2    1    2    0    0  0.00000000000E+00  0.00000000000E+00 -0.13210709093E+04  0.18586714213E+04  0.13074521425E+04 0.  0.
        3    1    3    3  502    0 -0.15985810482E+03  0.57944446513E+03 -0.10258813536E+04  0.11890092782E+04  0.10100000352E+00 0.  1.
       -3    1    3    3    0  502  0.15985810482E+03 -0.57944446513E+03 -0.29518955571E+03  0.66966214306E+03  0.10100000352E+00 0. -1.
</event>
<event>
 5   0  0.1387622E-03  0.1307121E+04  0.7818609E-02  0.9023937E-01
        1   -1    0    0  501    0  0.00000000000E+00  0.00000000000E+00  0.44676392942E+03  0.44676392945E+03  0.50400001928E-02 0. -1.
       -1   -1    0    0    0  501  0.00000000000E+00  0.00000000000E+00 -0.95607840344E+03  0.95607840345E+03  0.50400001928E-02 0.  1.
    10030    2    1    2    0    0  0.00000000000E+00  0.00000000000E+00 -0.50931447401E+03  0.14028423329E+04  0.13071210264E+04 0.  0.
        3    1    3    3  502    0 -0.47734334336E+03 -0.55828939398E+02  0.22068556158E+03  0.52884370585E+03  0.10100000352E+00 0. -1.
       -3    1    3    3    0  502  0.47734334336E+03  0.55828939398E+02 -0.73000003559E+03  0.87399862705E+03  0.10100000352E+00 0.  1.
</event>
<event>
 5   0  0.1332630E-03  0.1307884E+04  0.7818609E-02  0.9023336E-01
        1   -1    0    0  501    0  0.00000000000E+00  0.00000000000E+00  0.74583111150E+03  0.74583111152E+03  0.50400001928E-02 0.  1.
       -1   -1    0    0    0  501  0.00000000000E+00  0.00000000000E+00 -0.57337426968E+03  0.57337426970E+03  0.50400001928E-02 0. -1.
    10030    2    1    2    0    0  0.00000000000E+00  0.00000000000E+00  0.17245684182E+03  0.13192053812E+04  0.13078843510E+04 0.  0.
        5    1    3    3  502    0 -0.60562406224E+03  0.24583366982E+03  0.65965204711E+02  0.65695372456E+03  0.46999998093E+01 0.  1.
       -5    1    3    3    0  502  0.60562406224E+03 -0.24583366982E+03  0.10649163711E+03  0.66225165666E+03  0.46999998093E+01 0. -1.
</event>
<event>
 5   0  0.9131250E-04  0.1306722E+04  0.7818609E-02  0.9024251E-01
        3   -1    0    0  501    0  0.00000000000E+00  0.00000000000E+00  0.11068641191E+04  0.11068641237E+04  0.10100000352E+00 0. -1.
       -3   -1    0    0    0  501  0.00000000000E+00  0.00000000000E+00 -0.38566683467E+03  0.38566684790E+03  0.10100000352E+00 0.  1.
    10030    2    1    2    0    0  0.00000000000E+00  0.00000000000E+00  0.72119728438E+03  0.14925309716E+04  0.13067223034E+04 0.  0.
        4    1    3    3  502    0  0.32318455874E+03 -0.48197064777E+03  0.70351429005E+03  0.91196377863E+03  0.12699999809E+01 0. -1.
       -4    1    3    3    0  502 -0.32318455874E+03  0.48197064777E+03  0.17682994328E+02  0.58056719293E+03  0.12699999809E+01 0.  1.
</event>
<event>
 5   0  0.1346593E-03  0.1293927E+04  0.7818609E-02  0.9034395E-01
       -1   -1    0    0    0  501  0.00000000000E+00  0.00000000000E+00  0.58229181864E+03  0.58229181866E+03  0.50400001928E-02 0. -1.
        1   -1    0    0  501    0  0.00000000000E+00  0.00000000000E+00 -0.71881753712E+03  0.71881753714E+03  0.50400001928E-02 0.  1.
    10030    2    1    2    0    0  0.00000000000E+00  0.00000000000E+00 -0.13652571848E+03  0.13011093558E+04  0.12939266919E+04 0.  0.
        2    1    3    3  502    0  0.27158601634E+02 -0.46747736604E+03  0.38063307913E+03  0.60345191883E+03  0.25500000920E-02 0. -1.
       -2    1    3    3    0  502 -0.27158601634E+02  0.46747736604E+03 -0.51715879761E+03  0.69765743697E+03  0.25500000920E-02 0.  1.
</event>
<event>
 5   0  0.2478236E-03  0.1303741E+04  0.7818609E-02  0.9026604E-01
       -2   -1    0    0    0  501  0.00000000000E+00  0.00000000000E+00  0.47183936369E+03  0.47183936369E+03  0.25500000920E-02 0.  1.
        2   -1    0    0  501    0  0.00000000000E+00  0.00000000000E+00 -0.90059229587E+03  0.90059229588E+03  0.25500000920E-02 0. -1.
    10030    2    1    2    0    0  0.00000000000E+00  0.00000000000E+00 -0.42875293219E+03  0.13724316596E+04  0.13037406120E+04 0.  0.
        3    1    3    3  502    0 -0.19784743269E+03  0.75650012924E+02  0.43460215311E+03  0.48347241158E+03  0.10100000352E+00 0.  1.
       -3    1    3    3    0  502  0.19784743269E+03 -0.75650012924E+02 -0.86335508529E+03  0.88895924799E+03  0.10100000352E+00 0. -1.
</event>
<event>
 5   0  0.2361043E-03  0.1306121E+04  0.7818609E-02  0.9024725E-01
       -2   -1    0    0    0  501  0.00000000000E+00  0.00000000000E+00  0.53260736808E+03  0.53260736808E+03  0.25500000920E-02 0. -1.
        2   -1    0    0  501    0  0.00000000000E+00  0.00000000000E+00 -0.80075521804E+03  0.80075521805E+03  0.25500000920E-02 0.  1.
    10030    2    1    2    0    0  0.00000000000E+00  0.00000000000E+00 -0.26814784997E+03  0.13333625861E+04  0.13061211723E+04 0.  0.
        2    1    3    3  502    0 -0.56818139400E+03  0.15083096100E+03 -0.42444989446E+03  0.72507778079E+03  0.25500000920E-02 0.  1.
       -2    1    3    3    0  502  0.56818139400E+03 -0.15083096100E+03  0.15630204450E+03  0.60828480534E+03  0.25500000920E-02 0. -1.
</event>
<event>
 5   0  0.2478236E-03  0.1308997E+04  0.7818609E-02  0.9022461E-01
        2   -1    0    0  501    0  0.00000000000E+00  0.00000000000E+00  0.30085546406E+03  0.30085546407E+03  0.25500000920E-02 0. -1.
       -2   -1    0    0    0  501  0.00000000000E+00  0.00000000000E+00 -0.14238346968E+04  0.14238346968E+04  0.25500000920E-02 0.  1.
    10030    2    1    2    0    0  0.00000000000E+00  0.00000000000E+00 -0.11229792327E+04  0.17246901608E+04  0.13089972474E+04 0.  0.
        3    1    3    3  502    0  0.23965498571E+03 -0.95030496776E+02 -0.13541159967E+04  0.13784394982E+04  0.10100000352E+00 0.  1.
       -3    1    3    3    0  502 -0.23965498571E+03  0.95030496776E+02  0.23113676400E+03  0.34625066262E+03  0.10100000352E+00 0. -1.
</event>
<event>
 5   0  0.2361043E-03  0.1298588E+04  0.7818609E-02  0.9030686E-01
        2   -1    0    0  501    0  0.00000000000E+00  0.00000000000E+00  0.11346362018E+04  0.11346362018E+04  0.25500000920E-02 0.  1.
       -2   -1    0    0    0  501  0.00000000000E+00  0.00000000000E+00 -0.37155765340E+03  0.37155765341E+03  0.25500000920E-02 0. -1.
    10030    2    1    2    0    0  0.00000000000E+00  0.00000000000E+00  0.76307854836E+03  0.15061938552E+04  0.12985881019E+04 0.  0.
        2    1    3    3  502    0  0.14322216646E+03 -0.14844344635E+03 -0.33254414377E+03  0.39132295267E+03  0.25500000920E-02 0. -1.
       -2    1    3    3    0  502 -0.14322216646E+03  0.14844344635E+03  0.10956226921E+04  0.11148709025E+04  0.25500000920E-02 0.  1.
</event>
<event>
 5   0  0.2478236E-03  0.1294835E+04  0.7818609E-02  0.9033671E-01
       -2   -1    0    0    0  501  0.00000000000E+00  0.00000000000E+00  0.57217223295E+03  0.57217223296E+03  0.25500000920E-02 0. -1.
        2   -1    0    0  501    0  0.00000000000E+00  0.00000000000E+00 -0.73255807152E+03  0.73255807152E+03  0.25500000920E-02 0.  1.
    10030    2    1    2    0    0  0.00000000000E+00  0.00000000000E+00 -0.16038583857E+03  0.13047303045E+04  0.12948349510E+04 0.  0.
        3    1    3    3  502    0 -0.69999346934E+02 -0.25137075245E+03 -0.67722597817E+03  0.72575629482E+03  0.10100000352E+00 0.  1.
       -3    1    3    3    0  502  0.69999346934E+02  0.25137075245E+03  0.51684013961E+03  0.57897400967E+03  0.10100000352E+00 0. -1.
</event>
<event>
 5   0  0.2312105E-03  0.1294483E+04  0.7818609E-02  0.9033951E-01
       -2   -1    0    0    0  501  0.00000000000E+00  0.00000000000E+00  0.45171674325E+03  0.45171674325E+03  0.25500000920E-02 0. -1.
        2   -1    0    0  501    0  0.00000000000E+00  0.00000000000E+00 -0.92739934952E+03  0.92739934953E+03  0.25500000920E-02 0.  1.
    10030    2    1    2    0    0  0.00000000000E+00  0.00000000000E+00 -0.47568260628E+03  0.13791160928E+04  0.12944833933E+04 0.  0.
        5    1    3    3  502    0 -0.11517175108E+03 -0.17143888212E+03 -0.89133150062E+03  0.91495888243E+03  0.46999998093E+01 0.  1.
       -5    1    3    3    0  502  0.11517175108E+03  0.17143888212E+03  0.41564889434E+03  0.46415721035E+03  0.46999998093E+01 0. -1.
</event>
<event>
 5   0  0.2401211E-03  0.1273792E+04  0.7818609E-02  0.9050610E-01
       -2   -1    0    0    0  501  0.00000000000E+00  0.00000000000E+00  0.18325878284E+03  0.18325878286E+03  0.25500000920E-02 0.  1.
        2   -1    0    0  501    0  0.00000000000E+00  0.00000000000E+00 -0.22134630235E+04  0.22134630235E+04  0.25500000920E-02 0. -1.
    10030    2    1    2    0    0  0.00000000000E+00  0.00000000000E+00 -0.20302042407E+04  0.23967218064E+04  0.12737920389E+04 0.  0.
        4    1    3    3  502    0  0.32859620177E+03  0.26598805600E+03 -0.19113863186E+04  0.19575812579E+04  0.12699999809E+01 0. -1.
       -4    1    3    3    0  502 -0.32859620177E+03 -0.26598805600E+03 -0.11881792208E+03  0.43914054841E+03  0.12699999809E+01 0.  1.
</event>
<event>
 5   0  0.2401211E-03  0.1326016E+04  0.7818609E-02  0.9009185E-01
       -2   -1    0    0    0  501  0.00000000000E+00  0.00000000000E+00  0.90166041649E+03  0.90166041649E+03  0.25500000920E-02 0.  1.
        2   -1    0    0  501    0  0.00000000000E+00  0.00000000000E+00 -0.48752219664E+03  0.48752219665E+03  0.25500000920E-02 0. -1.
    10030    2    1    2    0    0  0.00000000000E+00  0.00000000000E+00  0.41413821985E+03  0.13891826131E+04  0.13260157871E+04 0.  0.
        4    1    3    3  502    0 -0.50815534300E+03 -0.18183647314E+03 -0.19636142975E+03  0.57432201731E+03  0.12699999809E+01 0. -1.
       -4    1    3    3    0  502  0.50815534300E+03  0.18183647314E+03  0.61049964959E+03  0.81486059583E+03  0.12699999809E+01 0.  1.
</event>
<event>
 5   0  0.1324721E-03  0.1304144E+04  0.7818609E-02  0.9026285E-01
       -1   -1    0    0    0  501  0.00000000000E+00  0.00000000000E+00  0.41511421421E+03  0.41511421425E+03  0.50400001928E-02 0.  1.
        1   -1    0    0  501    0  0.00000000000E+00  0.00000000000E+00 -0.10242911274E+04  0.10242911274E+04  0.50400001928E-02 0. -1.
    10030    2    1    2    0    0  0.00000000000E+00  0.00000000000E+00 -0.60917691321E+03  0.14394053417E+04  0.13041438671E+04 0.  0.
        1    1    3    3  502    0  0.20981737973E+03 -0.34640134226E+03  0.25947511208E+03  0.48098290673E+03  0.50400001928E-02 0.  1.
       -1    1    3    3    0  502 -0.20981737973E+03  0.34640134226E+03 -0.86865202529E+03  0.95842243495E+03  0.50400001928E-02 0. -1.
</event>
<event>
 5   0  0.2361043E-03  0.1285012E+04  0.7818609E-02  0.9041536E-01
       -2   -1    0    0    0  501  0.00000000000E+00  0.00000000000E+00  0.26216833069E+04  0.26216833069E+04  0.25500000920E-02 0. -1.
        2   -1    0    0  501    0  0.00000000000E+00  0.00000000000E+00 -0.15746132321E+03  0.15746132323E+03  0.25500000920E-02 0.  1.
    10030    2    1    2    0    0  0.00000000000E+00  0.00000000000E+00  0.24642219837E+04  0.27791446301E+04  0.12850116304E+04 0.  0.
        2    1    3    3  502    0 -0.26471471777E+03  0.45253586476E+03  0.42883141689E+03  0.67731748450E+03  0.25500000920E-02 0.  1.
       -2    1    3    3    0  502  0.26471471777E+03 -0.45253586476E+03  0.20353905668E+04  0.21018271456E+04  0.25500000920E-02 0. -1.
</event>
<event>
 5   0  0.1332630E-03  0.1301299E+04  0.7818609E-02  0.9028536E-01
       -1   -1    0    0    0  501  0.00000000000E+00  0.00000000000E+00  0.49333579494E+03  0.49333579496E+03  0.50400001928E-02 0.  1.
        1   -1    0    0  501    0  0.00000000000E+00  0.00000000000E+00 -0.85812713828E+03  0.85812713829E+03  0.50400001928E-02 0. -1.
    10030    2    1    2    0    0  0.00000000000E+00  0.00000000000E+00 -0.36479134334E+03  0.13514629333E+04  0.13012990954E+04 0.  0.
        5    1    3    3  502    0  0.50066505215E+03 -0.41452156687E+03 -0.15249122751E+03  0.66765956018E+03  0.46999998093E+01 0. -1.
       -5    1    3    3    0  502 -0.50066505215E+03  0.41452156687E+03 -0.21230011584E+03  0.68380337307E+03  0.46999998093E+01 0.  1.
</event>
<event>
 5   0  0.1310461E-03  0.1291637E+04  0.7818609E-02  0.9036224E-01
       -1   -1    0    0    0  501  0.00000000000E+00  0.00000000000E+00  0.20695825001E+03  0.20695825007E+03  0.50400001928E-02 0. -1.
        1   -1    0    0  501    0  0.00000000000E+00  0.00000000000E+00 -0.20152926754E+04  0.20152926754E+04  0.50400001928E-02 0.  1.
    10030    2    1    2    0    0  0.00000000000E+00  0.00000000000E+00 -0.18083344254E+04  0.22222509255E+04  0.12916368614E+04 0.  0.
        4    1    3    3  502    0  0.41064169865E+03  0.49634262909E+03 -0.98295790387E+03  0.11752405983E+04  0.12699999809E+01 0.  1.
       -4    1    3    3    0  502 -0.41064169865E+03 -0.49634262909E+03 -0.82537652156E+03  0.10470103273E+04  0.12699999809E+01 0. -1.
</event>
<event>
 5   0  0.1332630E-03  0.1306317E+04  0.7818609E-02  0.9024570E-01
       -1   -1    0    0    0  501  0.00000000000E+00  0.00000000000E+00  0.44810871119E+03  0.44810871121E+03  0.50400001928E-02 0. -1.
        1   -1    0    0  501    0  0.00000000000E+00  0.00000000000E+00 -0.95203724525E+03  0.95203724527E+03  0.50400001928E-02 0.  1.
    10030    2    1    2    0    0  0.00000000000E+00  0.00000000000E+00 -0.50392853407E+03  0.14001459565E+04  0.13063172402E+04 0.  0.
        5    1    3    3  502    0  0.19271127102E+03  0.17315867208E+03 -0.89458910616E+03  0.93136100335E+03  0.46999998093E+01 0.  1.
       -5    1    3    3    0  502 -0.19271127102E+03 -0.17315867208E+03  0.39066057209E+03  0.46878495313E+03  0.46999998093E+01 0. -1.
</event>
<event>
 5   0  0.2334946E-03  0.1360045E+04  0.7818609E-02  0.8983258E-01
       -2   -1    0    0    0  501  0.00000000000E+00  0.00000000000E+00  0.67493345427E+03  0.67493345427E+03  0.25500000920E-02 0.  1.
        2   -1    0    0  501    0  0.00000000000E+00  0.00000000000E+00 -0.68515038637E+03  0.68515038637E+03  0.25500000920E-02 0. -1.
    10030    2    1    2    0    0  0.00000000000E+00  0.00000000000E+00 -0.10216932099E+02  0.13600838406E+04  0.13600454654E+04 0.  0.
        1    1    3    3  502    0 -0.30898629346E+03 -0.47096200154E+03  0.37589202208E+03  0.67717984962E+03  0.50400001928E-02 0.  1.
       -1    1    3    3    0  502  0.30898629346E+03  0.47096200154E+03 -0.38610895418E+03  0.68290399103E+03  0.50400001928E-02 0. -1.
</event>
<event>
 5   0  0.2478236E-03  0.1304086E+04  0.7818609E-02  0.9026331E-01
       -2   -1    0    0    0  501  0.00000000000E+00  0.00000000000E+00  0.25340216501E+03  0.25340216503E+03  0.25500000920E-02 0.  1.
        2   -1    0    0  501    0  0.00000000000E+00  0.00000000000E+00 -0.16778087942E+04  0.16778087942E+04  0.25500000920E-02 0. -1.
    10030    2    1    2    0    0  0.00000000000E+00  0.00000000000E+00 -0.14244066292E+04  0.19312109592E+04  0.13040864710E+04 0.  0.
        3    1    3    3  502    0 -0.42645658679E+03 -0.62461180412E+02  0.12365658245E+02  0.43118388094E+03  0.10100000352E+00 0.  1.
       -3    1    3    3    0  502  0.42645658679E+03  0.62461180412E+02 -0.14367722874E+04  0.15000270783E+04  0.10100000352E+00 0. -1.
</event>
<event>
 5   0  0.2312105E-03  0.1313740E+04  0.7818609E-02  0.9018740E-01
        2   -1    0    0  501    0  0.00000000000E+00  0.00000000000E+00  0.85168223999E+03  0.85168224000E+03  0.25500000920E-02 0. -1.
       -2   -1    0    0    0  501  0.00000000000E+00  0.00000000000E+00 -0.50661881845E+03  0.50661881846E+03  0.25500000920E-02 0.  1.
    10030    2    1    2    0    0  0.00000000000E+00  0.00000000000E+00  0.34506342154E+03  0.13583010585E+04  0.13137400810E+04 0.  0.
        5    1    3    3  502    0  0.22297840484E+03 -0.24586563580E+03  0.75857957129E+03  0.82803039550E+03  0.46999998093E+01 0. -1.
       -5    1    3    3    0  502 -0.22297840484E+03  0.24586563580E+03 -0.41351614975E+03  0.53027066296E+03  0.46999998093E+01 0.  1.
</event>
<event>
 5   0  0.1332630E-03  0.1238168E+04  0.7818609E-02  0.9080089E-01
       -1   -1    0    0    0  501  0.00000000000E+00  0.00000000000E+00  0.55017735848E+03  0.55017735850E+03  0.50400001928E-02 0.  1.
        1   -1    0    0  501    0  0.00000000000E+00  0.00000000000E+00 -0.69662056025E+03  0.69662056026E+03  0.50400001928E-02 0. -1.
    10030    2    1    2    0    0  0.00000000000E+00  0.00000000000E+00 -0.14644320177E+03  0.12467979188E+04  0.12381677749E+04 0.  0.
        5    1    3    3  502    0 -0.11910431640E+03 -0.60734353693E+03 -0.87129446982E+02  0.62503251161E+03  0.46999998093E+01 0.  1.
       -5    1    3    3    0  502  0.11910431640E+03  0.60734353693E+03 -0.59313754787E+02  0.62176540716E+03  0.46999998093E+01 0. -1.
</event>
<event>
 5   0  0.2478236E-03  0.1318969E+04  0.7818609E-02  0.9014656E-01
       -2   -1    0    0    0  501  0.00000000000E+00  0.00000000000E+00  0.28799606723E+03  0.28799606724E+03  0.25500000920E-02 0. -1.
        2   -1    0    0  501    0  0.00000000000E+00  0.00000000000E+00 -0.15101594710E+04  0.15101594710E+04  0.25500000920E-02 0.  1.
    10030    2    1    2    0    0  0.00000000000E+00  0.00000000000E+00 -0.12221634038E+04  0.17981555383E+04  0.13189692772E+04 0.  0.
        3    1    3    3  502    0  0.23829043701E+03  0.43568408674E+03 -0.12026942337E+04  0.13011826873E+04  0.10100000352E+00 0.  1.
       -3    1    3    3    0  502 -0.23829043701E+03 -0.43568408674E+03 -0.19469170107E+02  0.49697285096E+03  0.10100000352E+00 0. -1.
</event>
<event>
 5   0  0.2401211E-03  0.1295062E+04  0.7818609E-02  0.9033490E-01
        2   -1    0    0  501    0  0.00000000000E+00  0.00000000000E+00  0.49002057837E+03  0.49002057838E+03  0.25500000920E-02 0.  1.
       -2   -1    0    0    0  501  0.00000000000E+00  0.00000000000E+00 -0.85567144356E+03  0.85567144357E+03  0.25500000920E-02 0. -1.
    10030    2    1    2    0    0  0.00000000000E+00  0.00000000000E+00 -0.36565086519E+03  0.13456920219E+04  0.12950623393E+04 0.  0.
        4    1    3    3  502    0  0.18477866283E+03 -0.15559629359E+03 -0.80709691802E+03  0.84247279410E+03  0.12699999809E+01 0. -1.
       -4    1    3    3    0  502 -0.18477866283E+03  0.15559629359E+03  0.44144605283E+03  0.50321922785E+03  0.12699999809E+01 0.  1.
</event>
<event>
 5   0  0.2312105E-03  0.1308392E+04  0.7818609E-02  0.9022936E-01
        2   -1    0    0  501    0  0.00000000000E+00  0.00000000000E+00  0.14284879000E+04  0.14284879000E+04  0.25500000920E-02 0. -1.
       -2   -1    0    0    0  501  0.00000000000E+00  0.00000000000E+00 -0.29959841199E+03  0.29959841200E+03  0.25500000920E-02 0.  1.
    10030    2    1    2    0    0  0.00000000000E+00  0.00000000000E+00  0.11288894880E+04  0.17280863120E+04  0.13083924585E+04 0.  0.
        5    1    3    3  502    0 -0.12551050024E+03 -0.52835594404E+02 -0.28064838141E+03  0.31197770705E+03  0.46999998093E+01 0.  1.
       -5    1    3    3    0  502  0.12551050024E+03  0.52835594404E+02  0.14095378694E+04  0.14161086049E+04  0.46999998093E+01 0. -1.
</event>
<event>
 5   0  0.1332630E-03  0.1199845E+04  0.7818609E-02  0.9112992E-01
       -1   -1    0    0    0  501  0.00000000000E+00  0.00000000000E+00  0.54929241847E+03  0.54929241850E+03  0.50400001928E-02 0.  1.
        1   -1    0    0  501    0  0.00000000000E+00  0.00000000000E+00 -0.65521952219E+03  0.65521952221E+03  0.50400001928E-02 0. -1.
    10030    2    1    2    0    0  0.00000000000E+00  0.00000000000E+00 -0.10592710372E+03  0.12045119407E+04  0.11998451833E+04 0.  0.
        5    1    3    3  502    0 -0.47991753212E+03 -0.22727245931E+03 -0.33317537158E+03  0.62689833834E+03  0.46999998093E+01 0. -1.
       -5    1    3    3    0  502  0.47991753212E+03  0.22727245931E+03  0.22724826786E+03  0.57761360236E+03  0.46999998093E+01 0.  1.
</event>
<event>
 5   0  0.2478236E-03  0.1291912E+04  0.7818609E-02  0.9036004E-01
       -2   -1    0    0    0  501  0.00000000000E+00  0.00000000000E+00  0.76764839818E+03  0.76764839819E+03  0.25500000920E-02 0.  1.
        2   -1    0    0  501    0  0.00000000000E+00  0.00000000000E+00 -0.54355517597E+03  0.54355517597E+03  0.25500000920E-02 0. -1.
    10030    2    1    2    0    0  0.00000000000E+00  0.00000000000E+00  0.22409322221E+03  0.13112035742E+04  0.12919121644E+04 0.  0.
        3    1    3    3  502    0 -0.28394343736E+03  0.53583116719E+03 -0.11380797945E+03  0.61700176802E+03  0.10100000352E+00 0. -1.
       -3    1    3    3    0  502  0.28394343736E+03 -0.53583116719E+03  0.33790120166E+03  0.69420180614E+03  0.10100000352E+00 0.  1.
</event>
<event>
 5   0  0.2334946E-03  0.1304970E+04  0.7818609E-02  0.9025633E-01
       -2   -1    0    0    0  501  0.00000000000E+00  0.00000000000E+00  0.26088121093E+03  0.26088121094E+03  0.25500000920E-02 0. -1.
        2   -1    0    0  501    0  0.00000000000E+00  0.00000000000E+00 -0.16319171436E+04  0.16319171436E+04  0.25500000920E-02 0.  1.
    10030    2    1    2    0    0  0.00000000000E+00  0.00000000000E+00 -0.13710359326E+04  0.18927983545E+04  0.13049697630E+04 0.  0.
        1    1    3    3  502    0  0.88266131782E+01  0.58047856708E+03 -0.25352800593E+03  0.63349011496E+03  0.50400001928E-02 0. -1.
       -1    1    3    3    0  502 -0.88266131782E+01 -0.58047856708E+03 -0.11175079267E+04  0.12593082396E+04  0.50400001928E-02 0.  1.
</event>
<event>
 5   0  0.2401211E-03  0.1010219E+04  0.7818609E-02  0.9297407E-01
        2   -1    0    0  501    0  0.00000000000E+00  0.00000000000E+00  0.80363569210E+03  0.80363569210E+03  0.25500000920E-02 0. -1.
       -2   -1    0    0    0  501  0.00000000000E+00  0.00000000000E+00 -0.31747697590E+03  0.31747697591E+03  0.25500000920E-02 0.  1.
    10030    2    1    2    0    0  0.00000000000E+00  0.00000000000E+00  0.48615871620E+03  0.11211126680E+04  0.10102194400E+04 0.  0.
        4    1    3    3  502    0 -0.13815894209E+03 -0.46437902472E+03  0.84578337259E+02  0.49182403349E+03  0.12699999809E+01 0.  1.
       -4    1    3    3    0  502  0.13815894209E+03  0.46437902472E+03  0.40158037894E+03  0.62928863452E+03  0.12699999809E+01 0. -1.
</event>
<event>
 5   0  0.2334946E-03  0.1313806E+04  0.7818609E-02  0.9018688E-01
       -2   -1    0    0    0  501  0.00000000000E+00  0.00000000000E+00  0.94508129889E+03  0.94508129889E+03  0.25500000920E-02 0. -1.
        2   -1    0    0  501    0  0.00000000000E+00  0.00000000000E+00 -0.45659701742E+03  0.45659701742E+03  0.25500000920E-02 0.  1.
    10030    2    1    2    0    0  0.00000000000E+00  0.00000000000E+00  0.48848428147E+03  0.14016783163E+04  0.13138056208E+04 0.  0.
        1    1    3    3  502    0  0.41612904805E+03 -0.26984903931E+02 -0.29727876910E+03  0.51211935743E+03  0.50400001928E-02 0.  1.
       -1    1    3    3    0  502 -0.41612904805E+03  0.26984903931E+02  0.78576305057E+03  0.88955895888E+03  0.50400001928E-02 0. -1.
</event>
<event>
 5   0  0.2478236E-03  0.1299202E+04  0.7818609E-02  0.9030198E-01
       -2   -1    0    0    0  501  0.00000000000E+00  0.00000000000E+00  0.81329778334E+03  0.81329778334E+03  0.25500000920E-02 0. -1.
        2   -1    0    0  501    0  0.00000000000E+00  0.00000000000E+00 -0.51885271540E+03  0.51885271541E+03  0.25500000920E-02 0.  1.
    10030    2    1    2    0    0  0.00000000000E+00  0.00000000000E+00  0.29444506794E+03  0.13321504988E+04  0.12992024682E+04 0.  0.
        3    1    3    3  502    0  0.60674121176E+03 -0.22668492809E+03  0.96358069425E+02  0.65483268277E+03  0.10100000352E+00 0.  1.
       -3    1    3    3    0  502 -0.60674121176E+03  0.22668492809E+03  0.19808699851E+03  0.67731781599E+03  0.10100000352E+00 0. -1.
</event>
<event>
 5   0  0.2361043E-03  0.1253913E+04  0.7818609E-02  0.9066933E-01
        2   -1    0    0  501    0  0.00000000000E+00  0.00000000000E+00  0.45978865147E+03  0.45978865148E+03  0.25500000920E-02 0. -1.
       -2   -1    0    0    0  501  0.00000000000E+00  0.00000000000E+00 -0.85490201636E+03  0.85490201636E+03  0.25500000920E-02 0.  1.
    10030    2    1    2    0    0  0.00000000000E+00  0.00000000000E+00 -0.39511336489E+03  0.13146906678E+04  0.12539126688E+04 0.  0.
        2    1    3    3  502    0  0.44803559489E+03  0.98429063294E+02 -0.64564767298E+03  0.79201331581E+03  0.25500000920E-02 0.  1.
       -2    1    3    3    0  502 -0.44803559489E+03 -0.98429063294E+02  0.25053430809E+03  0.52267735203E+03  0.25500000920E-02 0. -1.
</event>
<event>
 5   0  0.2334946E-03  0.1319173E+04  0.7818609E-02  0.9014497E-01
        2   -1    0    0  501    0  0.00000000000E+00  0.00000000000E+00  0.78486361718E+03  0.78486361718E+03  0.25500000920E-02 0.  1.
       -2   -1    0    0    0  501  0.00000000000E+00  0.00000000000E+00 -0.55430596309E+03  0.55430596310E+03  0.25500000920E-02 0. -1.
    10030    2    1    2    0    0  0.00000000000E+00  0.00000000000E+00  0.23055765408E+03  0.13391695803E+04  0.13191733521E+04 0.  0.
        1    1    3    3  502    0 -0.14346223676E+03 -0.13225080347E+03  0.75489524513E+03  0.77970412307E+03  0.50400001928E-02 0.  1.
       -1    1    3    3    0  502  0.14346223676E+03  0.13225080347E+03 -0.52433759105E+03  0.55946545721E+03  0.50400001928E-02 0. -1.
</event>
<event>
 5   0  0.2361043E-03  0.1302896E+04  0.7818609E-02  0.9027271E-01
        2   -1    0    0  501    0  0.00000000000E+00  0.00000000000E+00  0.19063968575E+04  0.19063968575E+04  0.25500000920E-02 0.  1.
       -2   -1    0    0    0  501  0.00000000000E+00  0.00000000000E+00 -0.22261091525E+03  0.22261091526E+03  0.25500000920E-02 0. -1.
    10030    2    1    2    0    0  0.00000000000E+00  0.00000000000E+00  0.16837859423E+04  0.21290077728E+04  0.13028963877E+04 0.  0.
        2    1    3    3  502    0 -0.39158888748E+03  0.52051858017E+03  0.85850099380E+03  0.10776388103E+04  0.25500000920E-02 0.  1.
       -2    1    3    3    0  502  0.39158888748E+03 -0.52051858017E+03  0.82528494848E+03  0.10513689625E+04  0.25500000920E-02 0. -1.
</event>
<event>
 5   0  0.1324721E-03  0.1322246E+04  0.7818609E-02  0.9012107E-01
        1   -1    0    0  501    0  0.00000000000E+00  0.00000000000E+00  0.15375299353E+04  0.15375299353E+04  0.50400001928E-02 0.  1.
       -1   -1    0    0    0  501  0.00000000000E+00  0.00000000000E+00 -0.28427665755E+03  0.28427665760E+03  0.50400001928E-02 0. -1.
    10030    2    1    2    0    0  0.00000000000E+00  0.00000000000E+00  0.12532532777E+04  0.18218065929E+04  0.13222463779E+04 0.  0.
        1    1    3    3  502    0  0.18216830894E+02  0.52629640351E+02  0.15342921033E+04  0.15353025729E+04  0.50400001928E-02 0.  1.
       -1    1    3    3    0  502 -0.18216830894E+02 -0.52629640351E+02 -0.28103882558E+03  0.28650402001E+03  0.50400001928E-02 0. -1.
</event>
<event>
 5   0  0.1346593E-03  0.1318734E+04  0.7818609E-02  0.9014839E-01
        1   -1    0    0  501    0  0.00000000000E+00  0.00000000000E+00  0.94912442278E+03  0.94912442279E+03  0.50400001928E-02 0.  1.
       -1   -1    0    0    0  501  0.00000000000E+00  0.00000000000E+00 -0.45806939271E+03  0.45806939274E+03  0.50400001928E-02 0. -1.
    10030    2    1    2    0    0  0.00000000000E+00  0.00000000000E+00  0.49105503006E+03  0.14071938155E+04  0.13187340111E+04 0.  0.
        2    1    3    3  502    0 -0.44457112708E+03 -0.31775081756E+03  0.63927224144E+03  0.84099825670E+03  0.25500000920E-02 0.  1.
       -2    1    3    3    0  502  0.44457112708E+03  0.31775081756E+03 -0.14821721138E+03  0.56619555883E+03  0.25500000920E-02 0. -1.
</event>
<event>
 5   0  0.1310461E-03  0.1298486E+04  0.7818609E-02  0.9030767E-01
       -1   -1    0    0    0  501  0.00000000000E+00  0.00000000000E+00  0.51272830123E+03  0.51272830126E+03  0.50400001928E-02 0. -1.
        1   -1    0    0  501    0  0.00000000000E+00  0.00000000000E+00 -0.82210444236E+03  0.82210444238E+03  0.50400001928E-02 0.  1.
    10030    2    1    2    0    0  0.00000000000E+00  0.00000000000E+00 -0.30937614113E+03  0.13348327436E+04  0.12984856013E+04 0.  0.
        4    1    3    3  502    0  0.20637844812E+03  0.61426092141E+03 -0.19588551809E+03  0.67696476460E+03  0.12699999809E+01 0.  1.
       -4    1    3    3    0  502 -0.20637844812E+03 -0.61426092141E+03 -0.11349062304E+03  0.65786797903E+03  0.12699999809E+01 0. -1.
</event>
<event>
 5   0  0.1332630E-03  0.1275001E+04  0.7818609E-02  0.9049628E-01
        1   -1    0    0  501    0  0.00000000000E+00  0.00000000000E+00  0.23172405153E+04  0.23172405153E+04  0.50400001928E-02 0.  1.
       -1   -1    0    0    0  501  0.00000000000E+00  0.00000000000E+00 -0.17538389890E+03  0.17538389898E+03  0.50400001928E-02 0. -1.
    10030    2    1    2    0    0  0.00000000000E+00  0.00000000000E+00  0.21418566164E+04  0.24926244143E+04  0.12750006688E+04 0.  0.
        5    1    3    3  502    0 -0.50141379040E+03 -0.17171263737E+03  0.17634603312E+04  0.18413895429E+04  0.46999998093E+01 0.  1.
       -5    1    3    3    0  502  0.50141379040E+03  0.17171263737E+03  0.37839628520E+03  0.65123487137E+03  0.46999998093E+01 0. -1.
</event>
<event>
 5   0  0.2478236E-03  0.1325010E+04  0.7818609E-02  0.9009964E-01
        2   -1    0    0  501    0  0.00000000000E+00  0.00000000000E+00  0.13637099453E+04  0.13637099453E+04  0.25500000920E-02 0. -1.
       -2   -1    0    0    0  501  0.00000000000E+00  0.00000000000E+00 -0.32185185880E+03  0.32185185881E+03  0.25500000920E-02 0.  1.
    10030    2    1    2    0    0  0.00000000000E+00  0.00000000000E+00  0.10418580865E+04  0.16855618041E+04  0.13250095558E+04 0.  0.
        3    1    3    3  502    0  0.78347731761E+02  0.14819158922E+03 -0.29442832704E+03  0.33880254449E+03  0.10100000352E+00 0.  1.
       -3    1    3    3    0  502 -0.78347731761E+02 -0.14819158922E+03  0.13362864135E+04  0.13467592596E+04  0.10100000352E+00 0. -1.
</event>
<event>
 5   0  0.9131250E-04  0.1219769E+04  0.7818609E-02  0.9095727E-01
       -3   -1    0    0    0  501  0.00000000000E+00  0.00000000000E+00  0.95272595392E+03  0.95272595928E+03  0.10100000352E+00 0. -1.
        3   -1    0    0  501    0  0.00000000000E+00  0.00000000000E+00 -0.39041559566E+03  0.39041560873E+03  0.10100000352E+00 0.  1.
    10030    2    1    2    0    0  0.00000000000E+00  0.00000000000E+00  0.56231035826E+03  0.13431415680E+04  0.12197689669E+04 0.  0.
        4    1    3    3  502    0  0.14138049749E+03 -0.48959921493E+03  0.65009870135E+03  0.82603012701E+03  0.12699999809E+01 0. -1.
       -4    1    3    3    0  502 -0.14138049749E+03  0.48959921493E+03 -0.87788343087E+02  0.51711144100E+03  0.12699999809E+01 0.  1.
</event>
<event>
 5   0  0.2478236E-03  0.1352061E+04  0.7818609E-02  0.8989269E-01
        2   -1    0    0  501    0  0.00000000000E+00  0.00000000000E+00  0.10543046063E+04  0.10543046063E+04  0.25500000920E-02 0.  1.
       -2   -1    0    0    0  501  0.00000000000E+00  0.00000000000E+00 -0.43347752382E+03  0.43347752383E+03  0.25500000920E-02 0. -1.
    10030    2    1    2    0    0  0.00000000000E+00  0.00000000000E+00  0.62082708252E+03  0.14877821302E+04  0.13520611674E+04 0.  0.
        3    1    3    3  502    0 -0.61226990516E+03 -0.72159718445E+02  0.51974289700E+01  0.61652938713E+03  0.10100000352E+00 0.  1.
       -3    1    3    3    0  502  0.61226990516E+03  0.72159718445E+02  0.61562965355E+03  0.87125274304E+03  0.10100000352E+00 0. -1.
</event>
<event>
 5   0  0.1387622E-03  0.1161463E+04  0.7818609E-02  0.9147273E-01
        1   -1    0    0  501    0  0.00000000000E+00  0.00000000000E+00  0.83203714614E+03  0.83203714616E+03  0.50400001928E-02 0. -1.
       -1   -1    0    0    0  501  0.00000000000E+00  0.00000000000E+00 -0.40532916196E+03  0.40532916199E+03  0.50400001928E-02 0.  1.
    10030    2    1    2    0    0  0.00000000000E+00  0.00000000000E+00  0.42670798418E+03  0.12373663081E+04  0.11614627315E+04 0.  0.
        3    1    3    3  502    0 -0.13954256790E+03 -0.13548684478E+03 -0.36959892523E+03  0.41765079803E+03  0.10100000352E+00 0.  1.
       -3    1    3    3    0  502  0.13954256790E+03  0.13548684478E+03  0.79630690941E+03  0.81971551012E+03  0.10100000352E+00 0. -1.
</event>
<event>
 5   0  0.1310461E-03  0.1300714E+04  0.7818609E-02  0.9028999E-01
        1   -1    0    0  501    0  0.00000000000E+00  0.00000000000E+00  0.67894163389E+03  0.67894163391E+03  0.50400001928E-02 0.  1.
       -1   -1    0    0    0  501  0.00000000000E+00  0.00000000000E+00 -0.62297577096E+03  0.62297577098E+03  0.50400001928E-02 0. -1.
    10030    2    1    2    0    0  0.00000000000E+00  0.00000000000E+00  0.55965862924E+02  0.13019174049E+04  0.13007139391E+04 0.  0.
        4    1    3    3  502    0 -0.48729352177E+02 -0.63533942104E+03 -0.10225988641E+03  0.64535992048E+03  0.12699999809E+01 0. -1.
       -4    1    3    3    0  502  0.48729352177E+02  0.63533942104E+03  0.15822574933E+03  0.65655748441E+03  0.12699999809E+01 0.  1.
</event>
<event>
 5   0  0.1332630E-03  0.1334297E+04  0.7818609E-02  0.9002801E-01
        1   -1    0    0  501    0  0.00000000000E+00  0.00000000000E+00  0.67008002228E+03  0.67008002230E+03  0.50400001928E-02 0.  1.
       -1   -1    0    0    0  501  0.00000000000E+00  0.00000000000E+00 -0.66423020504E+03  0.66423020506E+03  0.50400001928E-02 0. -1.
    10030    2    1    2    0    0  0.00000000000E+00  0.00000000000E+00  0.58498172411E+01  0.13343102274E+04  0.13342974041E+04 0.  0.
        5    1    3    3  502    0  0.12960258295E+03 -0.65120499854E+03 -0.61887140655E+02  0.66687096788E+03  0.46999998093E+01 0. -1.
       -5    1    3    3    0  502 -0.12960258295E+03  0.65120499854E+03  0.67736957896E+02  0.66743925948E+03  0.46999998093E+01 0.  1.
</event>
<event>
 5   0  0.2401211E-03  0.1106345E+04  0.7818609E-02  0.9199029E-01
        2   -1    0    0  501    0  0.00000000000E+00  0.00000000000E+00  0.11107862357E+04  0.11107862357E+04  0.25500000920E-02 0. -1.
       -2   -1    0    0    0  501  0.00000000000E+00  0.00000000000E+00 -0.27548048193E+03  0.27548048194E+03  0.25500000920E-02 0.  1.
    10030    2    1    2    0    0  0.00000000000E+00  0.00000000000E+00  0.83530575374E+03  0.13862667176E+04  0.11063452039E+04 0.  0.
        4    1    3    3  502    0  0.70628585693E+02 -0.29125696485E+02 -0.26883632928E+03  0.27948396762E+03  0.12699999809E+01 0.  1.
       -4    1    3    3    0  502 -0.70628585693E+02  0.29125696485E+02  0.11041420830E+04  0.11067827500E+04  0.12699999809E+01 0. -1.
</event>
<event>
 5   0  0.2401211E-03  0.1289104E+04  0.7818609E-02  0.9038251E-01
       -2   -1    0    0    0  501  0.00000000000E+00  0.00000000000E+00  0.40986577525E+03  0.40986577526E+03  0.25500000920E-02 0.  1.
        2   -1    0    0  501    0  0.00000000000E+00  0.00000000000E+00 -0.10136177970E+04  0.10136177970E+04  0.25500000920E-02 0. -1.
    10030    2    1    2    0    0  0.00000000000E+00  0.00000000000E+00 -0.60375202174E+03  0.14234835723E+04  0.12891039433E+04 0.  0.
        4    1    3    3  502    0  0.20004510216E+03 -0.40397214819E+02 -0.97699705589E+03  0.99808558650E+03  0.12699999809E+01 0. -1.
       -4    1    3    3    0  502 -0.20004510216E+03  0.40397214819E+02  0.37324503415E+03  0.42539798576E+03  0.12699999809E+01 0.  1.
</event>
<event>
 5   0  0.2478236E-03  0.1304169E+04  0.7818609E-02  0.9026266E-01
       -2   -1    0    0    0  501  0.00000000000E+00  0.00000000000E+00  0.78167592045E+03  0.78167592045E+03  0.25500000920E-02 0. -1.
        2   -1    0    0  501    0  0.00000000000E+00  0.00000000000E+00 -0.54397747244E+03  0.54397747244E+03  0.25500000920E-02 0.  1.
    10030    2    1    2    0    0  0.00000000000E+00  0.00000000000E+00  0.23769844801E+03  0.13256533929E+04  0.13041688410E+04 0.  0.
        3    1    3    3  502    0  0.41807707787E+03 -0.35733794621E+03 -0.23725800416E+03  0.59897430795E+03  0.10100000352E+00 0. -1.
       -3    1    3    3    0  502 -0.41807707787E+03  0.35733794621E+03  0.47495645217E+03  0.72667908495E+03  0.10100000352E+00 0.  1.
</event>
<event>
 5   0  0.1324721E-03  0.1312714E+04  0.7818609E-02  0.9019543E-01
        1   -1    0    0  501    0  0.00000000000E+00  0.00000000000E+00  0.10575097382E+04  0.10575097382E+04  0.50400001928E-02 0.  1.
       -1   -1    0    0    0  501  0.00000000000E+00  0.00000000000E+00 -0.40737618417E+03  0.40737618420E+03  0.50400001928E-02 0. -1.
    10030    2    1    2    0    0  0.00000000000E+00  0.00000000000E+00  0.65013355401E+03  0.14648859224E+04  0.13127136503E+04 0.  0.
        1    1    3    3  502    0 -0.31199088744E+03  0.56315951511E+03  0.18251969438E+03  0.66917889399E+03  0.50400001928E-02 0. -1.
       -1    1    3    3    0  502  0.31199088744E+03 -0.56315951511E+03  0.46761385963E+03  0.79570702840E+03  0.50400001928E-02 0.  1.
</event>
<event>
 5   0  0.2401211E-03  0.1305993E+04  0.7818609E-02  0.9024826E-01
        2   -1    0    0  501    0  0.00000000000E+00  0.00000000000E+00  0.16507069934E+04  0.16507069934E+04  0.25500000920E-02 0.  1.
       -2   -1    0    0    0  501  0.00000000000E+00  0.00000000000E+00 -0.25831611677E+03  0.25831611679E+03  0.25500000920E-02 0. -1.
    10030    2    1    2    0    0  0.00000000000E+00  0.00000000000E+00  0.13923908766E+04  0.19090231102E+04  0.13059926806E+04 0.  0.
        4    1    3    3  502    0 -0.98305623011E+02  0.28416282137E+03  0.15434885689E+04  0.15725047153E+04  0.12699999809E+01 0.  1.
       -4    1    3    3    0  502  0.98305623011E+02 -0.28416282137E+03 -0.15109769226E+03  0.33651839485E+03  0.12699999809E+01 0. -1.
</event>
<event>
 5   0  0.1310461E-03  0.1287391E+04  0.7818609E-02  0.9039624E-01
        1   -1    0    0  501    0  0.00000000000E+00  0.00000000000E+00  0.41696513040E+03  0.41696513043E+03  0.50400001928E-02 0. -1.
       -1   -1    0    0    0  501  0.00000000000E+00  0.00000000000E+00 -0.99371408034E+03  0.99371408035E+03  0.50400001928E-02 0.  1.
    10030    2    1    2    0    0  0.00000000000E+00  0.00000000000E+00 -0.57674894993E+03  0.14106792108E+04  0.12873913486E+04 0.  0.
        4    1    3    3  502    0 -0.62943128204E+03 -0.74282296003E+02 -0.41157338004E+03  0.75570884497E+03  0.12699999809E+01 0.  1.
       -4    1    3    3    0  502  0.62943128204E+03  0.74282296003E+02 -0.16517556989E+03  0.65497036581E+03  0.12699999809E+01 0. -1.
</event>
<event>
 5   0  0.2334946E-03  0.1302424E+04  0.7818609E-02  0.9027645E-01
       -2   -1    0    0    0  501  0.00000000000E+00  0.00000000000E+00  0.36087591299E+03  0.36087591300E+03  0.25500000920E-02 0. -1.
        2   -1    0    0  501    0  0.00000000000E+00  0.00000000000E+00 -0.11751327034E+04  0.11751327034E+04  0.25500000920E-02 0.  1.
    10030    2    1    2    0    0  0.00000000000E+00  0.00000000000E+00 -0.81425679042E+03  0.15360086164E+04  0.13024240281E+04 0.  0.
        1    1    3    3  502    0 -0.16167766406E+03  0.62966938592E+03 -0.45209666929E+03  0.79184253550E+03  0.50400001928E-02 0.  1.
       -1    1    3    3    0  502  0.16167766406E+03 -0.62966938592E+03 -0.36216012113E+03  0.74416608092E+03  0.50400001928E-02 0. -1.
</event>
<event>
 5   0  0.2312105E-03  0.1315373E+04  0.7818609E-02  0.9017462E-01
       -2   -1    0    0    0  501  0.00000000000E+00  0.00000000000E+00  0.20025362643E+03  0.20025362644E+03  0.25500000920E-02 0. -1.
        2   -1    0    0  501    0  0.00000000000E+00  0.00000000000E+00 -0.21600194039E+04  0.21600194039E+04  0.25500000920E-02 0.  1.
    10030    2    1    2    0    0  0.00000000000E+00  0.00000000000E+00 -0.19597657775E+04  0.23602730304E+04  0.13153732836E+04 0.  0.
        5    1    3    3  502    0 -0.59787874901E+03 -0.18974194468E+03 -0.62521057424E+03  0.88564742207E+03  0.46999998093E+01 0. -1.
       -5    1    3    3    0  502  0.59787874901E+03  0.18974194468E+03 -0.13345552033E+04  0.14746256083E+04  0.46999998093E+01 0.  1.
</event>
<event>
 5   0  0.1310461E-03  0.1297377E+04  0.7818609E-02  0.9031648E-01
       -1   -1    0    0    0  501  0.00000000000E+00  0.00000000000E+00  0.51580775794E+03  0.51580775797E+03  0.50400001928E-02 0.  1.
        1   -1    0    0  501    0  0.00000000000E+00  0.00000000000E+00 -0.81580123182E+03  0.81580123183E+03  0.50400001928E-02 0. -1.
    10030    2    1    2    0    0  0.00000000000E+00  0.00000000000E+00 -0.29999347387E+03  0.13316089898E+04  0.12973767446E+04 0.  0.
        4    1    3    3  502    0  0.64348339426E+03 -0.79582489113E+02 -0.12970801723E+03  0.66123372108E+03  0.12699999809E+01 0. -1.
       -4    1    3    3    0  502 -0.64348339426E+03  0.79582489113E+02 -0.17028545665E+03  0.67037526872E+03  0.12699999809E+01 0.  1.
</event>
<event>
 5   0  0.1324721E-03  0.1310865E+04  0.7818609E-02  0.9020994E-01
        1   -1    0    0  501    0  0.00000000000E+00  0.00000000000E+00  0.34471601215E+03  0.34471601219E+03  0.50400001928E-02 0.  1.
       -1   -1    0    0    0  501  0.00000000000E+00  0.00000000000E+00 -0.12462186385E+04  0.12462186385E+04  0.50400001928E-02 0. -1.
    10030    2    1    2    0    0  0.00000000000E+00  0.00000000000E+00 -0.90150262638E+03  0.15909346507E+04  0.13108646298E+04 0.  0.
        1    1    3    3  502    0  0.51189212490E+03 -0.17833757060E+03 -0.35837370329E+01  0.54207995704E+03  0.50400001928E-02 0.  1.
       -1    1    3    3    0  502 -0.51189212490E+03  0.17833757060E+03 -0.89791888935E+03  0.10488546937E+04  0.50400001928E-02 0. -1.
</event>
<event>
 5   0  0.1310461E-03  0.1276200E+04  0.7818609E-02  0.9048655E-01
        1   -1    0    0  501    0  0.00000000000E+00  0.00000000000E+00  0.91363402907E+03  0.91363402908E+03  0.50400001928E-02 0.  1.
       -1   -1    0    0    0  501  0.00000000000E+00  0.00000000000E+00 -0.44566143467E+03  0.44566143469E+03  0.50400001928E-02 0. -1.
    10030    2    1    2    0    0  0.00000000000E+00  0.00000000000E+00  0.46797259440E+03  0.13592954638E+04  0.12761997527E+04 0.  0.
        4    1    3    3  502    0 -0.60833396193E+03 -0.14866867443E+02  0.43852827991E+03  0.75006659583E+03  0.12699999809E+01 0.  1.
       -4    1    3    3    0  502  0.60833396193E+03  0.14866867443E+02  0.29444314492E+02  0.60922886795E+03  0.12699999809E+01 0. -1.
</event>
<event>
 5   0  0.2401211E-03  0.1305850E+04  0.7818609E-02  0.9024939E-01
       -2   -1    0    0    0  501  0.00000000000E+00  0.00000000000E+00  0.37673836187E+03  0.37673836188E+03  0.25500000920E-02 0. -1.
        2   -1    0    0  501    0  0.00000000000E+00  0.00000000000E+00 -0.11315831200E+04  0.11315831200E+04  0.25500000920E-02 0.  1.
    10030    2    1    2    0    0  0.00000000000E+00  0.00000000000E+00 -0.75484475811E+03  0.15083214819E+04  0.13058495640E+04 0.  0.
        4    1    3    3  502    0  0.51392498911E+03  0.30075601911E+03 -0.68678624795E+03  0.90898297054E+03  0.12699999809E+01 0.  1.
       -4    1    3    3    0  502 -0.51392498911E+03 -0.30075601911E+03 -0.68058510158E+02  0.59933851133E+03  0.12699999809E+01 0. -1.
</event>
<event>
 5   0  0.1324721E-03  0.1297744E+04  0.7818609E-02  0.9031356E-01
        1   -1    0    0  501    0  0.00000000000E+00  0.00000000000E+00  0.93490486381E+03  0.93490486382E+03  0.50400001928E-02 0. -1.
       -1   -1    0    0    0  501  0.00000000000E+00  0.00000000000E+00 -0.45035060867E+03  0.45035060870E+03  0.50400001928E-02 0.  1.
    10030    2    1    2    0    0  0.00000000000E+00  0.00000000000E+00  0.48455425514E+03  0.13852554725E+04  0.12977441574E+04 0.  0.
        1    1    3    3  502    0  0.66562694228E+02  0.61032250770E+03  0.18088616854E+02  0.61420790759E+03  0.50400001928E-02 0.  1.
       -1    1    3    3    0  502 -0.66562694228E+02 -0.61032250770E+03  0.46646563828E+03  0.77104756493E+03  0.50400001928E-02 0. -1.
</event>
<event>
 5   0  0.2334946E-03  0.1287496E+04  0.7818609E-02  0.9039540E-01
        2   -1    0    0  501    0  0.00000000000E+00  0.00000000000E+00  0.72385568508E+03  0.72385568508E+03  0.25500000920E-02 0. -1.
       -2   -1    0    0    0  501  0.00000000000E+00  0.00000000000E+00 -0.57250565237E+03  0.57250565238E+03  0.25500000920E-02 0.  1.
    10030    2    1    2    0    0  0.00000000000E+00  0.00000000000E+00  0.15135003270E+03  0.12963613375E+04  0.12874959747E+04 0.  0.
        1    1    3    3  502    0 -0.19439038993E+03  0.31507668338E+02  0.69278272234E+03  0.72022792036E+03  0.50400001928E-02 0. -1.
       -1    1    3    3    0  502  0.19439038993E+03 -0.31507668338E+02 -0.54143268964E+03  0.57613341710E+03  0.50400001928E-02 0.  1.
</event>
<event>
 5   0  0.9131250E-04  0.1309899E+04  0.7818609E-02  0.9021752E-01
       -3   -1    0    0    0  501  0.00000000000E+00  0.00000000000E+00  0.17472500551E+04  0.17472500580E+04  0.10100000352E+00 0. -1.
        3   -1    0    0  501    0  0.00000000000E+00  0.00000000000E+00 -0.24550505356E+03  0.24550507433E+03  0.10100000352E+00 0.  1.
    10030    2    1    2    0    0  0.00000000000E+00  0.00000000000E+00  0.15017450015E+04  0.19927551323E+04  0.13098988388E+04 0.  0.
        2    1    3    3  502    0 -0.64382967378E+03  0.11378888653E+03  0.69206699501E+03  0.95206159734E+03  0.25500000920E-02 0.  1.
       -2    1    3    3    0  502  0.64382967378E+03 -0.11378888653E+03  0.80967800652E+03  0.10406935350E+04  0.25500000920E-02 0. -1.
</event>
<event>
 5   0  0.1332630E-03  0.1302847E+04  0.7818609E-02  0.9027310E-01
        1   -1    0    0  501    0  0.00000000000E+00  0.00000000000E+00  0.69296547283E+03  0.69296547285E+03  0.50400001928E-02 0.  1.
       -1   -1    0    0    0  501  0.00000000000E+00  0.00000000000E+00 -0.61237206070E+03  0.61237206072E+03  0.50400001928E-02 0. -1.
    10030    2    1    2    0    0  0.00000000000E+00  0.00000000000E+00  0.80593412128E+02  0.13053375336E+04  0.13028471815E+04 0.  0.
        5    1    3    3  502    0 -0.23021819031E+03 -0.20142453363E+03  0.61651196435E+03  0.68824512354E+03  0.46999998093E+01 0.  1.
       -5    1    3    3    0  502  0.23021819031E+03  0.20142453363E+03 -0.53591855222E+03  0.61709241002E+03  0.46999998093E+01 0. -1.
</event>
<event>
 5   0  0.2478236E-03  0.1450096E+04  0.7818609E-02  0.8918334E-01
        2   -1    0    0  501    0  0.00000000000E+00  0.00000000000E+00  0.15826304183E+04  0.15826304184E+04  0.25500000920E-02 0.  1.
       -2   -1    0    0    0  501  0.00000000000E+00  0.00000000000E+00 -0.33216509846E+03  0.33216509847E+03  0.25500000920E-02 0. -1.
    10030    2    1    2    0    0  0.00000000000E+00  0.00000000000E+00  0.12504653199E+04  0.19147955168E+04  0.14500959813E+04 0.  0.
        3    1    3    3  502    0  0.12435537077E+03  0.79711524623E+02 -0.31208685471E+03  0.34527728057E+03  0.10100000352E+00 0. -1.
       -3    1    3    3    0  502 -0.12435537077E+03 -0.79711524623E+02  0.15625521746E+04  0.15695182363E+04  0.10100000352E+00 0.  1.
</event>
<event>
 5   0  0.1324721E-03  0.1292433E+04  0.7818609E-02  0.9035587E-01
       -1   -1    0    0    0  501  0.00000000000E+00  0.00000000000E+00  0.47625930599E+03  0.47625930602E+03  0.50400001928E-02 0. -1.
        1   -1    0    0  501    0  0.00000000000E+00  0.00000000000E+00 -0.87682470231E+03  0.87682470233E+03  0.50400001928E-02 0.  1.
    10030    2    1    2    0    0  0.00000000000E+00  0.00000000000E+00 -0.40056539632E+03  0.13530840083E+04  0.12924332466E+04 0.  0.
        1    1    3    3  502    0  0.19189847529E+03  0.58123037132E+03  0.16666753493E+02  0.61231654401E+03  0.50400001928E-02 0. -1.
       -1    1    3    3    0  502 -0.19189847529E+03 -0.58123037132E+03 -0.41723214982E+03  0.74076746434E+03  0.50400001928E-02 0.  1.
</event>
<event>
 5   0  0.1332630E-03  0.1295663E+04  0.7818609E-02  0.9033011E-01
        1   -1    0    0  501    0  0.00000000000E+00  0.00000000000E+00  0.12169421237E+04  0.12169421237E+04  0.50400001928E-02 0.  1.
       -1   -1    0    0    0  501  0.00000000000E+00  0.00000000000E+00 -0.34486909769E+03  0.34486909773E+03  0.50400001928E-02 0. -1.
    10030    2    1    2    0    0  0.00000000000E+00  0.00000000000E+00  0.87207302598E+03  0.15618112214E+04  0.12956631231E+04 0.  0.
        5    1    3    3  502    0 -0.53776537272E+02  0.58775360196E+03  0.11412665111E+03  0.60115987480E+03  0.46999998093E+01 0. -1.
       -5    1    3    3    0  502  0.53776537272E+02 -0.58775360196E+03  0.75794637487E+03  0.96065134662E+03  0.46999998093E+01 0.  1.
</event>
<event>
 5   0  0.9131250E-04  0.1205743E+04  0.7818609E-02  0.9107844E-01
       -3   -1    0    0    0  501  0.00000000000E+00  0.00000000000E+00  0.66402154552E+03  0.66402155320E+03  0.10100000352E+00 0.  1.
        3   -1    0    0  501    0  0.00000000000E+00  0.00000000000E+00 -0.54735317715E+03  0.54735318646E+03  0.10100000352E+00 0. -1.
    10030    2    1    2    0    0  0.00000000000E+00  0.00000000000E+00  0.11666836838E+03  0.12113747397E+04  0.12057434436E+04 0.  0.
        1    1    3    3  502    0 -0.19233883856E+03 -0.55478418993E+03  0.19562740822E+03  0.61891017853E+03  0.50400001928E-02 0.  1.
       -1    1    3    3    0  502  0.19233883856E+03  0.55478418993E+03 -0.78959039845E+02  0.59246456114E+03  0.50400001928E-02 0. -1.
</event>
<event>
 5   0  0.2312105E-03  0.1310001E+04  0.7818609E-02  0.9021671E-01
        2   -1    0    0  501    0  0.00000000000E+00  0.00000000000E+00  0.22364905552E+04  0.22364905552E+04  0.25500000920E-02 0.  1.
       -2   -1    0    0    0  501  0.00000000000E+00  0.00000000000E+00 -0.19182996917E+03  0.19182996919E+03  0.25500000920E-02 0. -1.
    10030    2    1    2    0    0  0.00000000000E+00  0.00000000000E+00  0.20446605860E+04  0.24283205244E+04  0.13100013958E+04 0.  0.
        5    1    3    3  502    0 -0.62819903256E+03 -0.10920199302E+03  0.74462037411E+03  0.98032682883E+03  0.46999998093E+01 0.  1.
       -5    1    3    3    0  502  0.62819903256E+03  0.10920199302E+03  0.13000402119E+04  0.14479936955E+04  0.46999998093E+01 0. -1.
</event>
<event>
 5   0  0.1324721E-03  0.1287181E+04  0.7818609E-02  0.9039793E-01
        1   -1    0    0  501    0  0.00000000000E+00  0.00000000000E+00  0.83682926402E+03  0.83682926403E+03  0.50400001928E-02 0.  1.
       -1   -1    0    0    0  501  0.00000000000E+00  0.00000000000E+00 -0.49497427644E+03  0.49497427646E+03  0.50400001928E-02 0. -1.
    10030    2    1    2    0    0  0.00000000000E+00  0.00000000000E+00  0.34185498758E+03  0.13318035405E+04  0.12871813539E+04 0.  0.
        1    1    3    3  502    0 -0.22128046140E+02  0.35089146094E+03 -0.38682833050E+03  0.52273379945E+03  0.50400001928E-02 0. -1.
       -1    1    3    3    0  502  0.22128046140E+02 -0.35089146094E+03  0.72868331809E+03  0.80906974104E+03  0.50400001928E-02 0.  1.
</event>
<event>
 5   0  0.1332630E-03  0.1278019E+04  0.7818609E-02  0.9047180E-01
        1   -1    0    0  501    0  0.00000000000E+00  0.00000000000E+00  0.37200509654E+03  0.37200509658E+03  0.50400001928E-02 0.  1.
       -1   -1    0    0    0  501  0.00000000000E+00  0.00000000000E+00 -0.10976543625E+04  0.10976543625E+04  0.50400001928E-02 0. -1.
    10030    2    1    2    0    0  0.00000000000E+00  0.00000000000E+00 -0.72564926599E+03  0.14696594591E+04  0.12780188060E+04 0.  0.
        5    1    3    3  502    0 -0.21269129666E+03 -0.30477052658E+03 -0.96056517283E+03  0.10299661173E+04  0.46999998093E+01 0. -1.
       -5    1    3    3    0  502  0.21269129666E+03  0.30477052658E+03  0.23491590684E+03  0.43969334181E+03  0.46999998093E+01 0.  1.
</event>
<event>
 5   0  0.1387622E-03  0.1287002E+04  0.7818609E-02  0.9039937E-01
       -1   -1    0    0    0  501  0.00000000000E+00  0.00000000000E+00  0.71651950751E+03  0.71651950753E+03  0.50400001928E-02 0.  1.
        1   -1    0    0  501    0  0.00000000000E+00  0.00000000000E+00 -0.57792324428E+03  0.57792324430E+03  0.50400001928E-02 0. -1.
    10030    2    1    2    0    0  0.00000000000E+00  0.00000000000E+00  0.13859626323E+03  0.12944427518E+04  0.12870015981E+04 0.  0.
        3    1    3    3  502    0  0.55293449370E+03 -0.23476803793E+03 -0.16277537679E+03  0.62237321556E+03  0.10100000352E+00 0. -1.
       -3    1    3    3    0  502 -0.55293449370E+03  0.23476803793E+03  0.30137164002E+03  0.67206953626E+03  0.10100000352E+00 0.  1.
</event>
<event>
 5   0  0.2401211E-03  0.1303859E+04  0.7818609E-02  0.9026510E-01
       -2   -1    0    0    0  501  0.00000000000E+00  0.00000000000E+00  0.81586688842E+03  0.81586688842E+03  0.25500000920E-02 0. -1.
        2   -1    0    0  501    0  0.00000000000E+00  0.00000000000E+00 -0.52093319678E+03  0.52093319679E+03  0.25500000920E-02 0.  1.
    10030    2    1    2    0    0  0.00000000000E+00  0.00000000000E+00  0.29493369164E+03  0.13368000852E+04  0.13038591125E+04 0.  0.
        4    1    3    3  502    0 -0.34783585254E+03 -0.47234273567E+03 -0.14417188525E+03  0.60405677354E+03  0.12699999809E+01 0.  1.
       -4    1    3    3    0  502  0.34783585254E+03  0.47234273567E+03  0.43910557688E+03  0.73274331168E+03  0.12699999809E+01 0. -1.
</event>
<event>
 5   0  0.1346593E-03  0.1283518E+04  0.7818609E-02  0.9042739E-01
       -1   -1    0    0    0  501  0.00000000000E+00  0.00000000000E+00  0.84458862155E+03  0.84458862156E+03  0.50400001928E-02 0. -1.
        1   -1    0    0  501    0  0.00000000000E+00  0.00000000000E+00 -0.48763902414E+03  0.48763902417E+03  0.50400001928E-02 0.  1.
    10030    2    1    2    0    0  0.00000000000E+00  0.00000000000E+00  0.35694959741E+03  0.13322276457E+04  0.12835176216E+04 0.  0.
        2    1    3    3  502    0 -0.20349883980E+03  0.32106922721E+03 -0.35821396570E+03  0.52231644785E+03  0.25500000920E-02 0.  1.
       -2    1    3    3    0  502  0.20349883980E+03 -0.32106922721E+03  0.71516356310E+03  0.80991119789E+03  0.25500000920E-02 0. -1.
</event>
<event>
 5   0  0.1332630E-03  0.1291942E+04  0.7818609E-02  0.9035980E-01
        1   -1    0    0  501    0  0.00000000000E+00  0.00000000000E+00  0.12795466611E+04  0.12795466611E+04  0.50400001928E-02 0.  1.
       -1   -1    0    0    0  501  0.00000000000E+00  0.00000000000E+00 -0.32611445170E+03  0.32611445174E+03  0.50400001928E-02 0. -1.
    10030    2    1    2    0    0  0.00000000000E+00  0.00000000000E+00  0.95343220942E+03  0.16056611129E+04  0.12919421935E+04 0.  0.
        5    1    3    3  502    0  0.64131504109E+03 -0.74087873267E+02  0.44941424065E+03  0.78661886870E+03  0.46999998093E+01 0. -1.
       -5    1    3    3    0  502 -0.64131504109E+03  0.74087873267E+02  0.50401796877E+03  0.81904224417E+03  0.46999998093E+01 0.  1.
</event>
<event>
 5   0  0.2334946E-03  0.1318187E+04  0.7818609E-02  0.9015265E-01
        2   -1    0    0  501    0  0.00000000000E+00  0.00000000000E+00  0.62868609214E+03  0.62868609214E+03  0.25500000920E-02 0.  1.
       -2   -1    0    0    0  501  0.00000000000E+00  0.00000000000E+00 -0.69097202737E+03  0.69097202738E+03  0.25500000920E-02 0. -1.
    10030    2    1    2    0    0  0.00000000000E+00  0.00000000000E+00 -0.62285935233E+02  0.13196581195E+04  0.13181873974E+04 0.  0.
        1    1    3    3  502    0 -0.82306768869E+02  0.59037514160E+03  0.25039542747E+03  0.64654085884E+03  0.50400001928E-02 0.  1.
       -1    1    3    3    0  502  0.82306768869E+02 -0.59037514160E+03 -0.31268136271E+03  0.67311726068E+03  0.50400001928E-02 0. -1.
</event>
<event>
 5   0  0.2401211E-03  0.1288538E+04  0.7818609E-02  0.9038704E-01
        2   -1    0    0  501    0  0.00000000000E+00  0.00000000000E+00  0.42366684180E+03  0.42366684181E+03  0.25500000920E-02 0. -1.
       -2   -1    0    0    0  501  0.00000000000E+00  0.00000000000E+00 -0.97973782185E+03  0.97973782185E+03  0.25500000920E-02 0.  1.
    10030    2    1    2    0    0  0.00000000000E+00  0.00000000000E+00 -0.55607098005E+03  0.14034046637E+04  0.12885378206E+04 0.  0.
        4    1    3    3  502    0  0.88435248184E+02  0.45027638170E+03 -0.77057865487E+03  0.89686269255E+03  0.12699999809E+01 0.  1.
       -4    1    3    3    0  502 -0.88435248184E+02 -0.45027638170E+03  0.21450767482E+03  0.50654197111E+03  0.12699999809E+01 0. -1.
</event>
<event>
 5   0  0.2401211E-03  0.1212586E+04  0.7818609E-02  0.9101911E-01
       -2   -1    0    0    0  501  0.00000000000E+00  0.00000000000E+00  0.33676553324E+03  0.33676553325E+03  0.25500000920E-02 0.  1.
        2   -1    0    0  501    0  0.00000000000E+00  0.00000000000E+00 -0.10915337279E+04  0.10915337279E+04  0.25500000920E-02 0. -1.
    10030    2    1    2    0    0  0.00000000000E+00  0.00000000000E+00 -0.75476819467E+03  0.14282992612E+04  0.12125855647E+04 0.  0.
        4    1    3    3  502    0 -0.24863315784E+03  0.47667041928E+03 -0.70752324183E+03  0.88860783613E+03  0.12699999809E+01 0. -1.
       -4    1    3    3    0  502  0.24863315784E+03 -0.47667041928E+03 -0.47244952838E+02  0.53969142504E+03  0.12699999809E+01 0.  1.
</event>
<event>
 5   0  0.2361043E-03  0.1308206E+04  0.7818609E-02  0.9023083E-01
        2   -1    0    0  501    0  0.00000000000E+00  0.00000000000E+00  0.17033656273E+04  0.17033656273E+04  0.25500000920E-02 0.  1.
       -2   -1    0    0    0  501  0.00000000000E+00  0.00000000000E+00 -0.25117976686E+03  0.25117976687E+03  0.25500000920E-02 0. -1.
    10030    2    1    2    0    0  0.00000000000E+00  0.00000000000E+00  0.14521858604E+04  0.19545453942E+04  0.13082063769E+04 0.  0.
        2    1    3    3  502    0  0.34384145572E+03 -0.34795818966E+02 -0.10363562844E+03  0.36080193899E+03  0.25500000920E-02 0. -1.
       -2    1    3    3    0  502 -0.34384145572E+03  0.34795818966E+02  0.15558214889E+04  0.15937434552E+04  0.25500000920E-02 0.  1.
</event>
<event>
 5   0  0.2478236E-03  0.1281706E+04  0.7818609E-02  0.9044199E-01
       -2   -1    0    0    0  501  0.00000000000E+00  0.00000000000E+00  0.20278022392E+03  0.20278022394E+03  0.25500000920E-02 0.  1.
        2   -1    0    0  501    0  0.00000000000E+00  0.00000000000E+00 -0.20253101326E+04  0.20253101326E+04  0.25500000920E-02 0. -1.
    10030    2    1    2    0    0  0.00000000000E+00  0.00000000000E+00 -0.18225299087E+04  0.22280903565E+04  0.12817064285E+04 0.  0.
        3    1    3    3  502    0 -0.32041442243E+03  0.86721728475E+02 -0.18642177048E+04  0.18935399973E+04  0.10100000352E+00 0. -1.
       -3    1    3    3    0  502  0.32041442243E+03 -0.86721728475E+02  0.41687796159E+02  0.33455035920E+03  0.10100000352E+00 0.  1.
</event>
<event>
 5   0  0.1387622E-03  0.1297509E+04  0.7818609E-02  0.9031543E-01
        1   -1    0    0  501    0  0.00000000000E+00  0.00000000000E+00  0.35383859356E+03  0.35383859360E+03  0.50400001928E-02 0. -1.
       -1   -1    0    0    0  501  0.00000000000E+00  0.00000000000E+00 -0.11894764084E+04  0.11894764084E+04  0.50400001928E-02 0.  1.
    10030    2    1    2    0    0  0.00000000000E+00  0.00000000000E+00 -0.83563781486E+03  0.15433150020E+04  0.12975093980E+04 0.  0.
        3    1    3    3  502    0 -0.53245199726E+03  0.94241688891E+01 -0.85853759876E+03  0.10102874655E+04  0.10100000352E+00 0.  1.
       -3    1    3    3    0  502  0.53245199726E+03 -0.94241688891E+01  0.22899783902E+02  0.53302753648E+03  0.10100000352E+00 0. -1.
</event>
<event>
 5   0  0.1310461E-03  0.1028683E+04  0.7818609E-02  0.9277633E-01
        1   -1    0    0  501    0  0.00000000000E+00  0.00000000000E+00  0.99808838846E+03  0.99808838847E+03  0.50400001928E-02 0.  1.
       -1   -1    0    0    0  501  0.00000000000E+00  0.00000000000E+00 -0.26505384472E+03  0.26505384477E+03  0.50400001928E-02 0. -1.
    10030    2    1    2    0    0  0.00000000000E+00  0.00000000000E+00  0.73303454374E+03  0.12631422332E+04  0.10286829731E+04 0.  0.
        4    1    3    3  502    0 -0.23101180807E+03  0.38039834437E+03  0.68311207706E+03  0.81529937973E+03  0.12699999809E+01 0.  1.
       -4    1    3    3    0  502  0.23101180807E+03 -0.38039834437E+03  0.49922466679E+02  0.44784285351E+03  0.12699999809E+01 0. -1.
</event>
<event>
 5   0  0.2478236E-03  0.1293313E+04  0.7818609E-02  0.9034885E-01
        2   -1    0    0  501    0  0.00000000000E+00  0.00000000000E+00  0.10761497346E+04  0.10761497346E+04  0.25500000920E-02 0.  1.
       -2   -1    0    0    0  501  0.00000000000E+00  0.00000000000E+00 -0.38857456506E+03  0.38857456507E+03  0.25500000920E-02 0. -1.
    10030    2    1    2    0    0  0.00000000000E+00  0.00000000000E+00  0.68757516952E+03  0.14647242996E+04  0.12933126692E+04 0.  0.
        3    1    3    3  502    0 -0.64126691768E+03  0.56372225086E+02  0.27431110937E+03  0.69974829932E+03  0.10100000352E+00 0.  1.
       -3    1    3    3    0  502  0.64126691768E+03 -0.56372225086E+02  0.41326406014E+03  0.76497600033E+03  0.10100000352E+00 0. -1.
</event>
<event>
 5   0  0.2361043E-03  0.1274495E+04  0.7818609E-02  0.9050039E-01
        2   -1    0    0  501    0  0.00000000000E+00  0.00000000000E+00  0.23049129492E+04  0.23049129492E+04  0.25500000920E-02 0. -1.
       -2   -1    0    0    0  501  0.00000000000E+00  0.00000000000E+00 -0.17618199801E+03  0.17618199803E+03  0.25500000920E-02 0.  1.
    10030    2    1    2    0    0  0.00000000000E+00  0.00000000000E+00  0.21287309512E+04  0.24810949472E+04  0.12744946742E+04 0.  0.
        2    1    3    3  502    0  0.22528985445E+03  0.33157301188E+02 -0.94271983103E+02  0.24645918920E+03  0.25500000920E-02 0.  1.
       -2    1    3    3    0  502 -0.22528985445E+03 -0.33157301188E+02  0.22230029343E+04  0.22346357580E+04  0.25500000920E-02 0. -1.
</event>
<event>
 5   0  0.1324721E-03  0.1298366E+04  0.7818609E-02  0.9030862E-01
        1   -1    0    0  501    0  0.00000000000E+00  0.00000000000E+00  0.13751503165E+04  0.13751503165E+04  0.50400001928E-02 0.  1.
       -1   -1    0    0    0  501  0.00000000000E+00  0.00000000000E+00 -0.30646704604E+03  0.30646704608E+03  0.50400001928E-02 0. -1.
    10030    2    1    2    0    0  0.00000000000E+00  0.00000000000E+00  0.10686832705E+04  0.16816173626E+04  0.12983655193E+04 0.  0.
        1    1    3    3  502    0  0.22106329806E+01 -0.63827179383E+03  0.38086148899E+03  0.74327063948E+03  0.50400001928E-02 0. -1.
       -1    1    3    3    0  502 -0.22106329806E+01  0.63827179383E+03  0.68782178150E+03  0.93834672314E+03  0.50400001928E-02 0.  1.
</event>
<event>
 5   0  0.2334946E-03  0.1274405E+04  0.7818609E-02  0.9050112E-01
       -2   -1    0    0    0  501  0.00000000000E+00  0.00000000000E+00  0.10667307534E+04  0.10667307534E+04  0.25500000920E-02 0.  1.
        2   -1    0    0  501    0  0.00000000000E+00  0.00000000000E+00 -0.38062767246E+03  0.38062767247E+03  0.25500000920E-02 0. -1.
    10030    2    1    2    0    0  0.00000000000E+00  0.00000000000E+00  0.68610308091E+03  0.14473584259E+04  0.12744053418E+04 0.  0.
        1    1    3    3  502    0  0.47427058015E+03 -0.42400588706E+03  0.38421495325E+03  0.74319224013E+03  0.50400001928E-02 0.  1.
       -1    1    3    3    0  502 -0.47427058015E+03  0.42400588706E+03  0.30188812766E+03  0.70416618572E+03  0.50400001928E-02 0. -1.
</event>
<event>
 5   0  0.1346593E-03  0.1315287E+04  0.7818609E-02  0.9017530E-01
        1   -1    0    0  501    0  0.00000000000E+00  0.00000000000E+00  0.86170902685E+03  0.86170902687E+03  0.50400001928E-02 0.  1.
       -1   -1    0    0    0  501  0.00000000000E+00  0.00000000000E+00 -0.50190336037E+03  0.50190336040E+03  0.50400001928E-02 0. -1.
    10030    2    1    2    0    0  0.00000000000E+00  0.00000000000E+00  0.35980566648E+03  0.13636123873E+04  0.13152865182E+04 0.  0.
        2    1    3    3  502    0  0.49900156374E+03 -0.30226830074E+03  0.49457737323E+03  0.76483688743E+03  0.25500000920E-02 0.  1.
       -2    1    3    3    0  502 -0.49900156374E+03  0.30226830074E+03 -0.13477170675E+03  0.59877549983E+03  0.25500000920E-02 0. -1.
</event>
<event>
 5   0  0.2312105E-03  0.1305106E+04  0.7818609E-02  0.9025526E-01
       -2   -1    0    0    0  501  0.00000000000E+00  0.00000000000E+00  0.81850782733E+03  0.81850782733E+03  0.25500000920E-02 0.  1.
        2   -1    0    0  501    0  0.00000000000E+00  0.00000000000E+00 -0.52024589665E+03  0.52024589666E+03  0.25500000920E-02 0. -1.
    10030    2    1    2    0    0  0.00000000000E+00  0.00000000000E+00  0.29826193068E+03  0.13387537240E+04  0.13051058785E+04 0.  0.
        5    1    3    3  502    0  0.43001879204E+03  0.47619075452E+03  0.27198989676E+02  0.64221154711E+03  0.46999998093E+01 0.  1.
       -5    1    3    3    0  502 -0.43001879204E+03 -0.47619075452E+03  0.27106294100E+03  0.69654217689E+03  0.46999998093E+01 0. -1.
</event>
<event>
 5   0  0.1346593E-03  0.1004743E+04  0.7818609E-02  0.9303358E-01
        1   -1    0    0  501    0  0.00000000000E+00  0.00000000000E+00  0.38302701111E+03  0.38302701114E+03  0.50400001928E-02 0. -1.
       -1   -1    0    0    0  501  0.00000000000E+00  0.00000000000E+00 -0.65890211458E+03  0.65890211460E+03  0.50400001928E-02 0.  1.
    10030    2    1    2    0    0  0.00000000000E+00  0.00000000000E+00 -0.27587510347E+03  0.10419291257E+04  0.10047433654E+04 0.  0.
        2    1    3    3  502    0  0.62218830055E+02  0.28323585502E+03  0.28746872769E+03  0.40832830148E+03  0.25500000920E-02 0. -1.
       -2    1    3    3    0  502 -0.62218830055E+02 -0.28323585502E+03 -0.56334383116E+03  0.63360082426E+03  0.25500000920E-02 0.  1.
</event>
<event>
 5   0  0.1324721E-03  0.1048041E+04  0.7818609E-02  0.9257369E-01
        1   -1    0    0  501    0  0.00000000000E+00  0.00000000000E+00  0.71289598738E+03  0.71289598740E+03  0.50400001928E-02 0.  1.
       -1   -1    0    0    0  501  0.00000000000E+00  0.00000000000E+00 -0.38518604980E+03  0.38518604984E+03  0.50400001928E-02 0. -1.
    10030    2    1    2    0    0  0.00000000000E+00  0.00000000000E+00  0.32770993758E+03  0.10980820372E+04  0.10480412002E+04 0.  0.
        1    1    3    3  502    0 -0.14664941007E+03 -0.38679882449E+03  0.50089453221E+03  0.64962659469E+03  0.50400001928E-02 0.  1.
       -1    1    3    3    0  502  0.14664941007E+03  0.38679882449E+03 -0.17318459464E+03  0.44845544255E+03  0.50400001928E-02 0. -1.
</event>
<event>
 5   0  0.1332630E-03  0.1285071E+04  0.7818609E-02  0.9041489E-01
       -1   -1    0    0    0  501  0.00000000000E+00  0.00000000000E+00  0.33794725289E+03  0.33794725293E+03  0.50400001928E-02 0.  1.
        1   -1    0    0  501    0  0.00000000000E+00  0.00000000000E+00 -0.12216452108E+04  0.12216452108E+04  0.50400001928E-02 0. -1.
    10030    2    1    2    0    0  0.00000000000E+00  0.00000000000E+00 -0.88369795787E+03  0.15595924637E+04  0.12850706487E+04 0.  0.
        5    1    3    3  502    0 -0.42686155677E+02  0.42018940437E+03  0.14578605039E+03  0.44682984001E+03  0.46999998093E+01 0.  1.
       -5    1    3    3    0  502  0.42686155677E+02 -0.42018940437E+03 -0.10294840083E+04  0.11127626237E+04  0.46999998093E+01 0. -1.
</event>
<event>
 5   0  0.2334946E-03  0.1265758E+04  0.7818609E-02  0.9057169E-01
       -2   -1    0    0    0  501  0.00000000000E+00  0.00000000000E+00  0.53925193021E+03  0.53925193022E+03  0.25500000920E-02 0. -1.
        2   -1    0    0  501    0  0.00000000000E+00  0.00000000000E+00 -0.74276187446E+03  0.74276187446E+03  0.25500000920E-02 0.  1.
    10030    2    1    2    0    0  0.00000000000E+00  0.00000000000E+00 -0.20350994425E+03  0.12820138047E+04  0.12657579144E+04 0.  0.
        1    1    3    3  502    0  0.61237076928E+03  0.15612706239E+03 -0.67226749399E+02  0.63552580950E+03  0.50400001928E-02 0.  1.
       -1    1    3    3    0  502 -0.61237076928E+03 -0.15612706239E+03 -0.13628319485E+03  0.64648799518E+03  0.50400001928E-02 0. -1.
</event>
<event>
 5   0  0.1387622E-03  0.1306046E+04  0.7818609E-02  0.9024785E-01
        1   -1    0    0  501    0  0.00000000000E+00  0.00000000000E+00  0.12348715655E+04  0.12348715655E+04  0.50400001928E-02 0.  1.
       -1   -1    0    0    0  501  0.00000000000E+00  0.00000000000E+00 -0.34533049907E+03  0.34533049910E+03  0.50400001928E-02 0. -1.
    10030    2    1    2    0    0  0.00000000000E+00  0.00000000000E+00  0.88954106639E+03  0.15802020646E+04  0.13060456562E+04 0.  0.
        3    1    3    3  502    0 -0.35544495089E+03 -0.40336700916E+03 -0.37023292846E+01  0.53764279464E+03  0.10100000352E+00 0. -1.
       -3    1    3    3    0  502  0.35544495089E+03  0.40336700916E+03  0.89324339568E+03  0.10425592699E+04  0.10100000352E+00 0.  1.
</event>
<event>
 5   0  0.2361043E-03  0.1339997E+04  0.7818609E-02  0.8998435E-01
        2   -1    0    0  501    0  0.00000000000E+00  0.00000000000E+00  0.91754430097E+03  0.91754430097E+03  0.25500000920E-02 0. -1.
       -2   -1    0    0    0  501  0.00000000000E+00  0.00000000000E+00 -0.48923878601E+03  0.48923878602E+03  0.25500000920E-02 0.  1.
    10030    2    1    2    0    0  0.00000000000E+00  0.00000000000E+00  0.42830551495E+03  0.14067830870E+04  0.13399974029E+04 0.  0.
        2    1    3    3  502    0 -0.44554574092E+03  0.30775600681E+03 -0.20006672028E+03  0.57727936006E+03  0.25500000920E-02 0.  1.
       -2    1    3    3    0  502  0.44554574092E+03 -0.30775600681E+03  0.62837223523E+03  0.82950372693E+03  0.25500000920E-02 0. -1.
</event>
<event>
 5   0  0.1310461E-03  0.1305254E+04  0.7818609E-02  0.9025409E-01
        1   -1    0    0  501    0  0.00000000000E+00  0.00000000000E+00  0.84092882503E+03  0.84092882505E+03  0.50400001928E-02 0.  1.
       -1   -1    0    0    0  501  0.00000000000E+00  0.00000000000E+00 -0.50648957186E+03  0.50648957188E+03  0.50400001928E-02 0. -1.
    10030    2    1    2    0    0  0.00000000000E+00  0.00000000000E+00  0.33443925317E+03  0.13474183969E+04  0.13052535088E+04 0.  0.
        4    1    3    3  502    0  0.41559081806E+03  0.14246271341E+03  0.66541589801E+03  0.79736521305E+03  0.12699999809E+01 0.  1.
       -4    1    3    3    0  502 -0.41559081806E+03 -0.14246271341E+03 -0.33097664484E+03  0.55005318388E+03  0.12699999809E+01 0. -1.
</event>
<event>
 5   0  0.1332630E-03  0.1306569E+04  0.7818609E-02  0.9024372E-01
       -1   -1    0    0    0  501  0.00000000000E+00  0.00000000000E+00  0.12456484196E+04  0.12456484196E+04  0.50400001928E-02 0. -1.
        1   -1    0    0  501    0  0.00000000000E+00  0.00000000000E+00 -0.34261740223E+03  0.34261740227E+03  0.50400001928E-02 0.  1.
    10030    2    1    2    0    0  0.00000000000E+00  0.00000000000E+00  0.90303101735E+03  0.15882658219E+04  0.13065692873E+04 0.  0.
        5    1    3    3  502    0  0.25058187766E+03  0.59578993155E+03  0.56684909682E+03  0.85970745520E+03  0.46999998093E+01 0. -1.
       -5    1    3    3    0  502 -0.25058187766E+03 -0.59578993155E+03  0.33618192052E+03  0.72855836666E+03  0.46999998093E+01 0.  1.
</event>
<event>
 5   0  0.2312105E-03  0.1288117E+04  0.7818609E-02  0.9039042E-01
        2   -1    0    0  501    0  0.00000000000E+00  0.00000000000E+00  0.11832638037E+04  0.11832638037E+04  0.25500000920E-02 0.  1.
       -2   -1    0    0    0  501  0.00000000000E+00  0.00000000000E+00 -0.35056552693E+03  0.35056552694E+03  0.25500000920E-02 0. -1.
    10030    2    1    2    0    0  0.00000000000E+00  0.00000000000E+00  0.83269827677E+03  0.15338293306E+04  0.12881172289E+04 0.  0.
        5    1    3    3  502    0  0.38508752286E+03 -0.45109527428E+03  0.71524961193E+03  0.92918428963E+03  0.46999998093E+01 0.  1.
       -5    1    3    3    0  502 -0.38508752286E+03  0.45109527428E+03  0.11744866484E+03  0.60464504100E+03  0.46999998093E+01 0. -1.
</event>
<event>
 5   0  0.1332630E-03  0.1294011E+04  0.7818609E-02  0.9034328E-01
        1   -1    0    0  501    0  0.00000000000E+00  0.00000000000E+00  0.43420421770E+03  0.43420421772E+03  0.50400001928E-02 0.  1.
       -1   -1    0    0    0  501  0.00000000000E+00  0.00000000000E+00 -0.96409992790E+03  0.96409992791E+03  0.50400001928E-02 0. -1.
    10030    2    1    2    0    0  0.00000000000E+00  0.00000000000E+00 -0.52989571020E+03  0.13983041456E+04  0.12940112132E+04 0.  0.
        5    1    3    3  502    0  0.24622382291E+03  0.43666803201E+03  0.17702676280E+03  0.53166315077E+03  0.46999998093E+01 0.  1.
       -5    1    3    3    0  502 -0.24622382291E+03 -0.43666803201E+03 -0.70692247300E+03  0.86664099486E+03  0.46999998093E+01 0. -1.
</event>
<event>
 5   0  0.1346593E-03  0.1310477E+04  0.7818609E-02  0.9021298E-01
        1   -1    0    0  501    0  0.00000000000E+00  0.00000000000E+00  0.10156561853E+04  0.10156561853E+04  0.50400001928E-02 0. -1.
       -1   -1    0    0    0  501  0.00000000000E+00  0.00000000000E+00 -0.42271901813E+03  0.42271901816E+03  0.50400001928E-02 0.  1.
    10030    2    1    2    0    0  0.00000000000E+00  0.00000000000E+00  0.59293716715E+03  0.14383752035E+04  0.13104765323E+04 0.  0.
        2    1    3    3  502    0 -0.40599924356E+03 -0.50719692268E+03  0.20299170289E+03  0.68065390294E+03  0.25500000920E-02 0.  1.
       -2    1    3    3    0  502  0.40599924356E+03  0.50719692268E+03  0.38994546427E+03  0.75772130052E+03  0.25500000920E-02 0. -1.
</event>
<event>
 5   0  0.2334946E-03  0.1296093E+04  0.7818609E-02  0.9032670E-01
        2   -1    0    0  501    0  0.00000000000E+00  0.00000000000E+00  0.10163767589E+04  0.10163767589E+04  0.25500000920E-02 0. -1.
       -2   -1    0    0    0  501  0.00000000000E+00  0.00000000000E+00 -0.41319714912E+03  0.41319714913E+03  0.25500000920E-02 0.  1.
    10030    2    1    2    0    0  0.00000000000E+00  0.00000000000E+00  0.60317960981E+03  0.14295739081E+04  0.12960925572E+04 0.  0.
        1    1    3    3  502    0 -0.36251103192E+03 -0.46049324791E+03  0.60665250277E+03  0.84350194948E+03  0.50400001928E-02 0. -1.
       -1    1    3    3    0  502  0.36251103192E+03  0.46049324791E+03 -0.34728929618E+01  0.58607195859E+03  0.50400001928E-02 0.  1.
</event>
<event>
 5   0  0.1310461E-03  0.1271155E+04  0.7818609E-02  0.9052757E-01
        1   -1    0    0  501    0  0.00000000000E+00  0.00000000000E+00  0.58696413582E+03  0.58696413584E+03  0.50400001928E-02 0.  1.
       -1   -1    0    0    0  501  0.00000000000E+00  0.00000000000E+00 -0.68821748571E+03  0.68821748573E+03  0.50400001928E-02 0. -1.
    10030    2    1    2    0    0  0.00000000000E+00  0.00000000000E+00 -0.10125334989E+03  0.12751816216E+04  0.12711553513E+04 0.  0.
        4    1    3    3  502    0  0.54851054488E+03 -0.28469420774E+03  0.98311624954E+02  0.62576465086E+03  0.12699999809E+01 0.  1.
       -4    1    3    3    0  502 -0.54851054488E+03  0.28469420774E+03 -0.19956497484E+03  0.64941697071E+03  0.12699999809E+01 0. -1.
</event>
<event>
 5   0  0.2334946E-03  0.1041221E+04  0.7818609E-02  0.9264455E-01
       -2   -1    0    0    0  501  0.00000000000E+00  0.00000000000E+00  0.18743953330E+03  0.18743953332E+03  0.25500000920E-02 0. -1.
        2   -1    0    0  501    0  0.00000000000E+00  0.00000000000E+00 -0.14459877470E+04  0.14459877470E+04  0.25500000920E-02 0.  1.
    10030    2    1    2    0    0  0.00000000000E+00  0.00000000000E+00 -0.12585482137E+04  0.16334272803E+04  0.10412209534E+04 0.  0.
        1    1    3    3  502    0  0.52925687287E+02 -0.43799178772E+03 -0.10628808295E+04  0.11508056275E+04  0.50400001928E-02 0.  1.
       -1    1    3    3    0  502 -0.52925687287E+02  0.43799178772E+03 -0.19566738411E+03  0.48262165276E+03  0.50400001928E-02 0. -1.
</event>
<event>
 5   0  0.2334946E-03  0.1102998E+04  0.7818609E-02  0.9202275E-01
        2   -1    0    0  501    0  0.00000000000E+00  0.00000000000E+00  0.72178209095E+03  0.72178209095E+03  0.25500000920E-02 0.  1.
       -2   -1    0    0    0  501  0.00000000000E+00  0.00000000000E+00 -0.42138921995E+03  0.42138921996E+03  0.25500000920E-02 0. -1.
    10030    2    1    2    0    0  0.00000000000E+00  0.00000000000E+00  0.30039287099E+03  0.11431713109E+04  0.11029980821E+04 0.  0.
        1    1    3    3  502    0 -0.41884077297E+02  0.54872011360E+03  0.11278242132E+03  0.56175431782E+03  0.50400001928E-02 0.  1.
       -1    1    3    3    0  502  0.41884077297E+02 -0.54872011360E+03  0.18761044967E+03  0.58141699309E+03  0.50400001928E-02 0. -1.
</event>
<event>
 5   0  0.1310461E-03  0.1330723E+04  0.7818609E-02  0.9005550E-01
        1   -1    0    0  501    0  0.00000000000E+00  0.00000000000E+00  0.11196823169E+04  0.11196823169E+04  0.50400001928E-02 0. -1.
       -1   -1    0    0    0  501  0.00000000000E+00  0.00000000000E+00 -0.39538538454E+03  0.39538538458E+03  0.50400001928E-02 0.  1.
    10030    2    1    2    0    0  0.00000000000E+00  0.00000000000E+00  0.72429693233E+03  0.15150677015E+04  0.13307231469E+04 0.  0.
        4    1    3    3  502    0  0.26526123275E+03  0.13453313099E+03 -0.31548396996E+03  0.43358324822E+03  0.12699999809E+01 0.  1.
       -4    1    3    3    0  502 -0.26526123275E+03 -0.13453313099E+03  0.10397809023E+04  0.10814844532E+04  0.12699999809E+01 0. -1.
</event>
<event>
 5   0  0.1387622E-03  0.1316599E+04  0.7818609E-02  0.9016505E-01
       -1   -1    0    0    0  501  0.00000000000E+00  0.00000000000E+00  0.14341114880E+04  0.14341114880E+04  0.50400001928E-02 0. -1.
        1   -1    0    0  501    0  0.00000000000E+00  0.00000000000E+00 -0.30217880237E+03  0.30217880242E+03  0.50400001928E-02 0.  1.
    10030    2    1    2    0    0  0.00000000000E+00  0.00000000000E+00  0.11319326856E+04  0.17362902904E+04  0.13165987877E+04 0.  0.
        3    1    3    3  502    0  0.95676537591E+02  0.29375235588E+03 -0.20063882756E+03  0.36837534629E+03  0.10100000352E+00 0.  1.
       -3    1    3    3    0  502 -0.95676537591E+02 -0.29375235588E+03  0.13325715132E+04  0.13679149441E+04  0.10100000352E+00 0. -1.
</event>
<event>
 5   0  0.2401211E-03  0.1309191E+04  0.7818609E-02  0.9022308E-01
        2   -1    0    0  501    0  0.00000000000E+00  0.00000000000E+00  0.64758934701E+03  0.64758934702E+03  0.25500000920E-02 0. -1.
       -2   -1    0    0    0  501  0.00000000000E+00  0.00000000000E+00 -0.66167734275E+03  0.66167734275E+03  0.25500000920E-02 0.  1.
    10030    2    1    2    0    0  0.00000000000E+00  0.00000000000E+00 -0.14087995736E+02  0.13092666898E+04  0.13091908926E+04 0.  0.
        4    1    3    3  502    0 -0.59649806680E+03  0.25312958003E+03  0.85746380630E+02  0.65363490013E+03  0.12699999809E+01 0. -1.
       -4    1    3    3    0  502  0.59649806680E+03 -0.25312958003E+03 -0.99834376366E+02  0.65563178964E+03  0.12699999809E+01 0.  1.
</event>
<event>
 5   0  0.1310461E-03  0.1309443E+04  0.7818609E-02  0.9022110E-01
        1   -1    0    0  501    0  0.00000000000E+00  0.00000000000E+00  0.53094095944E+03  0.53094095946E+03  0.50400001928E-02 0.  1.
       -1   -1    0    0    0  501  0.00000000000E+00  0.00000000000E+00 -0.80735910095E+03  0.80735910097E+03  0.50400001928E-02 0. -1.
    10030    2    1    2    0    0  0.00000000000E+00  0.00000000000E+00 -0.27641814152E+03  0.13383000604E+04  0.13094426535E+04 0.  0.
        4    1    3    3  502    0 -0.41058409245E+03  0.11718503959E+03  0.36906241674E+03  0.56437603672E+03  0.12699999809E+01 0.  1.
       -4    1    3    3    0  502  0.41058409245E+03 -0.11718503959E+03 -0.64548055826E+03  0.77392402370E+03  0.12699999809E+01 0. -1.
</event>
<event>
 5   0  0.1324721E-03  0.1306725E+04  0.7818609E-02  0.9024249E-01
        1   -1    0    0  501    0  0.00000000000E+00  0.00000000000E+00  0.10898223078E+04  0.10898223078E+04  0.50400001928E-02 0.  1.
       -1   -1    0    0    0  501  0.00000000000E+00  0.00000000000E+00 -0.39169937143E+03  0.39169937147E+03  0.50400001928E-02 0. -1.
    10030    2    1    2    0    0  0.00000000000E+00  0.00000000000E+00  0.69812293640E+03  0.14815216793E+04  0.13067252397E+04 0.  0.
        1    1    3    3  502    0 -0.39296999358E+03  0.14579729938E+03 -0.21918132069E+03  0.47299336118E+03  0.50400001928E-02 0. -1.
       -1    1    3    3    0  502  0.39296999358E+03 -0.14579729938E+03  0.91730425710E+03  0.10085283181E+04  0.50400001928E-02 0.  1.
</event>
<event>
 5   0  0.1332630E-03  0.1303528E+04  0.7818609E-02  0.9026772E-01
       -1   -1    0    0    0  501  0.00000000000E+00  0.00000000000E+00  0.31197284891E+03  0.31197284895E+03  0.50400001928E-02 0.  1.
        1   -1    0    0  501    0  0.00000000000E+00  0.00000000000E+00 -0.13616457983E+04  0.13616457983E+04  0.50400001928E-02 0. -1.
    10030    2    1    2    0    0  0.00000000000E+00  0.00000000000E+00 -0.10496729494E+04  0.16736186473E+04  0.13035283180E+04 0.  0.
        5    1    3    3  502    0  0.36245848827E+03 -0.53362121824E+03 -0.64422441085E+03  0.91168796295E+03  0.46999998093E+01 0.  1.
       -5    1    3    3    0  502 -0.36245848827E+03  0.53362121824E+03 -0.40544853854E+03  0.76193068430E+03  0.46999998093E+01 0. -1.
</event>
<event>
 5   0  0.2401211E-03  0.1289971E+04  0.7818609E-02  0.9037557E-01
       -2   -1    0    0    0  501  0.00000000000E+00  0.00000000000E+00  0.59885396485E+03  0.59885396485E+03  0.25500000920E-02 0.  1.
        2   -1    0    0  501    0  0.00000000000E+00  0.00000000000E+00 -0.69467031938E+03  0.69467031938E+03  0.25500000920E-02 0. -1.
    10030    2    1    2    0    0  0.00000000000E+00  0.00000000000E+00 -0.95816354533E+02  0.12935242842E+04  0.12899706586E+04 0.  0.
        4    1    3    3  502    0 -0.12328210674E+03 -0.62875258711E+03  0.26296820366E+02  0.64126549049E+03  0.12699999809E+01 0.  1.
       -4    1    3    3    0  502  0.12328210674E+03  0.62875258711E+03 -0.12211317490E+03  0.65225879375E+03  0.12699999809E+01 0. -1.
</event>
<event>
 5   0  0.2361043E-03  0.1302995E+04  0.7818609E-02  0.9027193E-01
        2   -1    0    0  501    0  0.00000000000E+00  0.00000000000E+00  0.12278192820E+04  0.12278192820E+04  0.25500000920E-02 0.  1.
       -2   -1    0    0    0  501  0.00000000000E+00  0.00000000000E+00 -0.34569360414E+03  0.34569360415E+03  0.25500000920E-02 0. -1.
    10030    2    1    2    0    0  0.00000000000E+00  0.00000000000E+00  0.88212567786E+03  0.15735128861E+04  0.13029954303E+04 0.  0.
        2    1    3    3  502    0 -0.33439526143E+03 -0.83429465618E+01  0.11162026956E+04  0.11652460055E+04  0.25500000920E-02 0.  1.
       -2    1    3    3    0  502  0.33439526143E+03  0.83429465618E+01 -0.23407701772E+03  0.40826688068E+03  0.25500000920E-02 0. -1.
</event>
<event>
 5   0  0.1332630E-03  0.1251797E+04  0.7818609E-02  0.9068689E-01
       -1   -1    0    0    0  501  0.00000000000E+00  0.00000000000E+00  0.33516478660E+03  0.33516478664E+03  0.50400001928E-02 0. -1.
        1   -1    0    0  501    0  0.00000000000E+00  0.00000000000E+00 -0.11688242264E+04  0.11688242264E+04  0.50400001928E-02 0.  1.
    10030    2    1    2    0    0  0.00000000000E+00  0.00000000000E+00 -0.83365943977E+03  0.15039890130E+04  0.12517966647E+04 0.  0.
        5    1    3    3  502    0 -0.19068150782E+03  0.57668951067E+03 -0.59823254210E+03  0.85254588942E+03  0.46999998093E+01 0.  1.
       -5    1    3    3    0  502  0.19068150782E+03 -0.57668951067E+03 -0.23542689767E+03  0.65144312360E+03  0.46999998093E+01 0. -1.
</event>
<event>
 5   0  0.1324721E-03  0.1306114E+04  0.7818609E-02  0.9024731E-01
       -1   -1    0    0    0  501  0.00000000000E+00  0.00000000000E+00  0.78960506165E+03  0.78960506167E+03  0.50400001928E-02 0.  1.
        1   -1    0    0  501    0  0.00000000000E+00  0.00000000000E+00 -0.54012235031E+03  0.54012235034E+03  0.50400001928E-02 0. -1.
    10030    2    1    2    0    0  0.00000000000E+00  0.00000000000E+00  0.24948271134E+03  0.13297274120E+04  0.13061138415E+04 0.  0.
        1    1    3    3  502    0  0.15098805583E+03  0.62231500895E+03 -0.56760611440E+01  0.64039486340E+03  0.50400001928E-02 0.  1.
       -1    1    3    3    0  502 -0.15098805583E+03 -0.62231500895E+03  0.25515877248E+03  0.68933254861E+03  0.50400001928E-02 0. -1.
</event>
<event>
 5   0  0.2478236E-03  0.1303158E+04  0.7818609E-02  0.9027064E-01
        2   -1    0    0  501    0  0.00000000000E+00  0.00000000000E+00  0.67559231172E+03  0.67559231173E+03  0.25500000920E-02 0. -1.
       -2   -1    0    0    0  501  0.00000000000E+00  0.00000000000E+00 -0.62841940054E+03  0.62841940054E+03  0.25500000920E-02 0.  1.
    10030    2    1    2    0    0  0.00000000000E+00  0.00000000000E+00  0.47172911185E+02  0.13040117123E+04  0.13031581877E+04 0.  0.
        3    1    3    3  502    0  0.41999416570E+03  0.41126018110E+03  0.30488491138E+03  0.66218188979E+03  0.10100000352E+00 0. -1.
       -3    1    3    3    0  502 -0.41999416570E+03 -0.41126018110E+03 -0.25771200020E+03  0.64182982248E+03  0.10100000352E+00 0.  1.
</event>
<event>
 5   0  0.2401211E-03  0.1298981E+04  0.7818609E-02  0.9030374E-01
       -2   -1    0    0    0  501  0.00000000000E+00  0.00000000000E+00  0.22118778836E+03  0.22118778837E+03  0.25500000920E-02 0. -1.
        2   -1    0    0  501    0  0.00000000000E+00  0.00000000000E+00 -0.19071470531E+04  0.19071470531E+04  0.25500000920E-02 0.  1.
    10030    2    1    2    0    0  0.00000000000E+00  0.00000000000E+00 -0.16859592647E+04  0.21283348414E+04  0.12989805830E+04 0.  0.
        4    1    3    3  502    0  0.97221783583E+02  0.53298088176E+03 -0.25606279529E+03  0.59924157362E+03  0.12699999809E+01 0. -1.
       -4    1    3    3    0  502 -0.97221783583E+02 -0.53298088176E+03 -0.14298964694E+04  0.15290932678E+04  0.12699999809E+01 0.  1.
</event>
<event>
 5   0  0.2401211E-03  0.1303149E+04  0.7818609E-02  0.9027072E-01
       -2   -1    0    0    0  501  0.00000000000E+00  0.00000000000E+00  0.29810200169E+03  0.29810200170E+03  0.25500000920E-02 0. -1.
        2   -1    0    0  501    0  0.00000000000E+00  0.00000000000E+00 -0.14241738768E+04  0.14241738768E+04  0.25500000920E-02 0.  1.
    10030    2    1    2    0    0  0.00000000000E+00  0.00000000000E+00 -0.11260718751E+04  0.17222758785E+04  0.13031486230E+04 0.  0.
        4    1    3    3  502    0 -0.45924532487E+03 -0.41511923222E+03 -0.29439367094E+03  0.68549215295E+03  0.12699999809E+01 0. -1.
       -4    1    3    3    0  502  0.45924532487E+03  0.41511923222E+03 -0.83167820415E+03  0.10367837255E+04  0.12699999809E+01 0.  1.
</event>
<event>
 5   0  0.1387622E-03  0.1297910E+04  0.7818609E-02  0.9031224E-01
       -1   -1    0    0    0  501  0.00000000000E+00  0.00000000000E+00  0.61555296156E+03  0.61555296158E+03  0.50400001928E-02 0. -1.
        1   -1    0    0  501    0  0.00000000000E+00  0.00000000000E+00 -0.68416984361E+03  0.68416984363E+03  0.50400001928E-02 0.  1.
    10030    2    1    2    0    0  0.00000000000E+00  0.00000000000E+00 -0.68616882051E+02  0.12997228052E+04  0.12979102796E+04 0.  0.
        3    1    3    3  502    0 -0.25675081899E+03 -0.58809004924E+03  0.62635192262E+02  0.64474341143E+03  0.10100000352E+00 0.  1.
       -3    1    3    3    0  502  0.25675081899E+03  0.58809004924E+03 -0.13125207431E+03  0.65497939379E+03  0.10100000352E+00 0. -1.
</event>
<event>
 5   0  0.1387622E-03  0.1258516E+04  0.7818609E-02  0.9063125E-01
       -1   -1    0    0    0  501  0.00000000000E+00  0.00000000000E+00  0.87661693059E+03  0.87661693060E+03  0.50400001928E-02 0.  1.
        1   -1    0    0  501    0  0.00000000000E+00  0.00000000000E+00 -0.45169741075E+03  0.45169741078E+03  0.50400001928E-02 0. -1.
    10030    2    1    2    0    0  0.00000000000E+00  0.00000000000E+00  0.42491951984E+03  0.13283143414E+04  0.12585159479E+04 0.  0.
        3    1    3    3  502    0  0.19976665668E+03 -0.59455539088E+03  0.15902843941E+03  0.64706482263E+03  0.10100000352E+00 0. -1.
       -3    1    3    3    0  502 -0.19976665668E+03  0.59455539088E+03  0.26589108043E+03  0.68124951875E+03  0.10100000352E+00 0.  1.
</event>
<event>
 5   0  0.1324721E-03  0.1304279E+04  0.7818609E-02  0.9026179E-01
        1   -1    0    0  501    0  0.00000000000E+00  0.00000000000E+00  0.87501328450E+03  0.87501328451E+03  0.50400001928E-02 0.  1.
       -1   -1    0    0    0  501  0.00000000000E+00  0.00000000000E+00 -0.48603344797E+03  0.48603344800E+03  0.50400001928E-02 0. -1.
    10030    2    1    2    0    0  0.00000000000E+00  0.00000000000E+00  0.38897983653E+03  0.13610467325E+04  0.13042786876E+04 0.  0.
        1    1    3    3  502    0  0.11254937884E+03 -0.63630854278E+03  0.28623583636E+03  0.70674385624E+03  0.50400001928E-02 0. -1.
       -1    1    3    3    0  502 -0.11254937884E+03  0.63630854278E+03  0.10274400017E+03  0.65430287626E+03  0.50400001928E-02 0.  1.
</event>
<event>
 5   0  0.9131250E-04  0.1231534E+04  0.7818609E-02  0.9085694E-01
        4   -1    0    0  501    0  0.00000000000E+00  0.00000000000E+00  0.29540193499E+03  0.29540466499E+03  0.12699999809E+01 0.  1.
       -4   -1    0    0    0  501  0.00000000000E+00  0.00000000000E+00 -0.12835604016E+04  0.12835610299E+04  0.12699999809E+01 0. -1.
    10030    2    1    2    0    0  0.00000000000E+00  0.00000000000E+00 -0.98815846661E+03  0.15789656949E+04  0.12315338040E+04 0.  0.
        5    1    3    3  502    0  0.19175785088E+03  0.12708862950E+03  0.23821302195E+03  0.33119499837E+03  0.46999998093E+01 0. -1.
       -5    1    3    3    0  502 -0.19175785088E+03 -0.12708862950E+03 -0.12263714886E+04  0.12477706965E+04  0.46999998093E+01 0.  1.
</event>
<event>
 5   0  0.2478236E-03  0.1290470E+04  0.7818609E-02  0.9037156E-01
       -2   -1    0    0    0  501  0.00000000000E+00  0.00000000000E+00  0.16191326094E+03  0.16191326096E+03  0.25500000920E-02 0.  1.
        2   -1    0    0  501    0  0.00000000000E+00  0.00000000000E+00 -0.25713057237E+04  0.25713057237E+04  0.25500000920E-02 0. -1.
    10030    2    1    2    0    0  0.00000000000E+00  0.00000000000E+00 -0.24093924628E+04  0.27332189847E+04  0.12904704485E+04 0.  0.
        3    1    3    3  502    0 -0.30265417260E+03  0.52725724019E+03 -0.16625411465E+04  0.17702098236E+04  0.10100000352E+00 0. -1.
       -3    1    3    3    0  502  0.30265417260E+03 -0.52725724019E+03 -0.74685131627E+03  0.96300916109E+03  0.10100000352E+00 0.  1.
</event>
<event>
 5   0  0.2478236E-03  0.1289453E+04  0.7818609E-02  0.9037971E-01
        2   -1    0    0  501    0  0.00000000000E+00  0.00000000000E+00  0.88367572528E+03  0.88367572529E+03  0.25500000920E-02 0.  1.
       -2   -1    0    0    0  501  0.00000000000E+00  0.00000000000E+00 -0.47038978061E+03  0.47038978062E+03  0.25500000920E-02 0. -1.
    10030    2    1    2    0    0  0.00000000000E+00  0.00000000000E+00  0.41328594468E+03  0.13540655059E+04  0.12894526444E+04 0.  0.
        3    1    3    3  502    0 -0.16353807705E+03  0.76132992838E+02  0.85663491400E+03  0.87542236739E+03  0.10100000352E+00 0.  1.
       -3    1    3    3    0  502  0.16353807705E+03 -0.76132992838E+02 -0.44334896932E+03  0.47864313851E+03  0.10100000352E+00 0. -1.
</event>
<event>
 5   0  0.1387622E-03  0.1321668E+04  0.7818609E-02  0.9012557E-01
        1   -1    0    0  501    0  0.00000000000E+00  0.00000000000E+00  0.51156829334E+03  0.51156829336E+03  0.50400001928E-02 0. -1.
       -1   -1    0    0    0  501  0.00000000000E+00  0.00000000000E+00 -0.85365263142E+03  0.85365263143E+03  0.50400001928E-02 0.  1.
    10030    2    1    2    0    0  0.00000000000E+00  0.00000000000E+00 -0.34208433808E+03  0.13652209248E+04  0.13216680669E+04 0.  0.
        3    1    3    3  502    0 -0.22535230403E+03 -0.19944462080E+03 -0.77876605078E+03  0.83488824986E+03  0.10100000352E+00 0.  1.
       -3    1    3    3    0  502  0.22535230403E+03  0.19944462080E+03  0.43668171270E+03  0.53033267494E+03  0.10100000352E+00 0. -1.
</event>
<event>
 5   0  0.2361043E-03  0.1301620E+04  0.7818609E-02  0.9028281E-01
        2   -1    0    0  501    0  0.00000000000E+00  0.00000000000E+00  0.11830912168E+04  0.11830912168E+04  0.25500000920E-02 0. -1.
       -2   -1    0    0    0  501  0.00000000000E+00  0.00000000000E+00 -0.35800596500E+03  0.35800596501E+03  0.25500000920E-02 0.  1.
    10030    2    1    2    0    0  0.00000000000E+00  0.00000000000E+00  0.82508525180E+03  0.15410971818E+04  0.13016200871E+04 0.  0.
        2    1    3    3  502    0 -0.34108701863E+03 -0.38384075144E+03  0.88595800224E+03  0.10240095988E+04  0.25500000920E-02 0. -1.
       -2    1    3    3    0  502  0.34108701863E+03  0.38384075144E+03 -0.60872750436E+02  0.51708758300E+03  0.25500000920E-02 0.  1.
</event>
<event>
 5   0  0.2334946E-03  0.1296169E+04  0.7818609E-02  0.9032609E-01
       -2   -1    0    0    0  501  0.00000000000E+00  0.00000000000E+00  0.54931397060E+03  0.54931397061E+03  0.25500000920E-02 0. -1.
        2   -1    0    0  501    0  0.00000000000E+00  0.00000000000E+00 -0.76461473992E+03  0.76461473993E+03  0.25500000920E-02 0.  1.
    10030    2    1    2    0    0  0.00000000000E+00  0.00000000000E+00 -0.21530076932E+03  0.13139287105E+04  0.12961690612E+04 0.  0.
        1    1    3    3  502    0  0.60842369151E+03  0.57914569103E+02 -0.32619673210E+03  0.69277542809E+03  0.50400001928E-02 0.  1.
       -1    1    3    3    0  502 -0.60842369151E+03 -0.57914569103E+02  0.11089596278E+03  0.62115328244E+03  0.50400001928E-02 0. -1.
</event>
<event>
 5   0  0.2401211E-03  0.1331049E+04  0.7818609E-02  0.9005299E-01
        2   -1    0    0  501    0  0.00000000000E+00  0.00000000000E+00  0.12639483045E+04  0.12639483045E+04  0.25500000920E-02 0. -1.
       -2   -1    0    0    0  501  0.00000000000E+00  0.00000000000E+00 -0.35042778031E+03  0.35042778032E+03  0.25500000920E-02 0.  1.
    10030    2    1    2    0    0  0.00000000000E+00  0.00000000000E+00  0.91352052420E+03  0.16143760848E+04  0.13310486074E+04 0.  0.
        4    1    3    3  502    0 -0.23244828517E+03 -0.57550416865E+02  0.12098837772E+04  0.12333550272E+04  0.12699999809E+01 0. -1.
       -4    1    3    3    0  502  0.23244828517E+03  0.57550416865E+02 -0.29636325301E+03  0.38102105768E+03  0.12699999809E+01 0.  1.
</event>
<event>
 5   0  0.1332630E-03  0.1238252E+04  0.7818609E-02  0.9080018E-01
       -1   -1    0    0    0  501  0.00000000000E+00  0.00000000000E+00  0.36230177411E+03  0.36230177415E+03  0.50400001928E-02 0. -1.
        1   -1    0    0  501    0  0.00000000000E+00  0.00000000000E+00 -0.10580048543E+04  0.10580048543E+04  0.50400001928E-02 0.  1.
    10030    2    1    2    0    0  0.00000000000E+00  0.00000000000E+00 -0.69570308015E+03  0.14203066284E+04  0.12382520515E+04 0.  0.
        5    1    3    3  502    0  0.18527704157E+03 -0.33782657965E+02 -0.10243302586E+04  0.10415101626E+04  0.46999998093E+01 0.  1.
       -5    1    3    3    0  502 -0.18527704157E+03  0.33782657965E+02  0.32862717845E+03  0.37879646583E+03  0.46999998093E+01 0. -1.
</event>
<event>
 5   0  0.2334946E-03  0.1311016E+04  0.7818609E-02  0.9020875E-01
        2   -1    0    0  501    0  0.00000000000E+00  0.00000000000E+00  0.14413884369E+04  0.14413884369E+04  0.25500000920E-02 0. -1.
       -2   -1    0    0    0  501  0.00000000000E+00  0.00000000000E+00 -0.29810883249E+03  0.29810883250E+03  0.25500000920E-02 0.  1.
    10030    2    1    2    0    0  0.00000000000E+00  0.00000000000E+00  0.11432796044E+04  0.17394972694E+04  0.13110158261E+04 0.  0.
        1    1    3    3  502    0 -0.59701454161E+02 -0.53458843333E+02  0.14348643817E+04  0.14371005203E+04  0.50400001928E-02 0. -1.
       -1    1    3    3    0  502  0.59701454161E+02  0.53458843333E+02 -0.29158477723E+03  0.30239674915E+03  0.50400001928E-02 0.  1.
</event>
<event>
 5   0  0.2478236E-03  0.1296071E+04  0.7818609E-02  0.9032686E-01
        2   -1    0    0  501    0  0.00000000000E+00  0.00000000000E+00  0.73672074120E+03  0.73672074120E+03  0.25500000920E-02 0. -1.
       -2   -1    0    0    0  501  0.00000000000E+00  0.00000000000E+00 -0.57002628001E+03  0.57002628002E+03  0.25500000920E-02 0.  1.
    10030    2    1    2    0    0  0.00000000000E+00  0.00000000000E+00  0.16669446119E+03  0.13067470212E+04  0.12960712689E+04 0.  0.
        3    1    3    3  502    0 -0.41844284599E+03  0.36089112675E+03  0.42468177563E+03  0.69691566310E+03  0.10100000352E+00 0. -1.
       -3    1    3    3    0  502  0.41844284599E+03 -0.36089112675E+03 -0.25798731445E+03  0.60983135812E+03  0.10100000352E+00 0.  1.
</event>
<event>
 5   0  0.1310461E-03  0.1268551E+04  0.7818609E-02  0.9054883E-01
       -1   -1    0    0    0  501  0.00000000000E+00  0.00000000000E+00  0.56468871257E+03  0.56468871259E+03  0.50400001928E-02 0.  1.
        1   -1    0    0  501    0  0.00000000000E+00  0.00000000000E+00 -0.71243742860E+03  0.71243742862E+03  0.50400001928E-02 0. -1.
    10030    2    1    2    0    0  0.00000000000E+00  0.00000000000E+00 -0.14774871603E+03  0.12771261412E+04  0.12685509440E+04 0.  0.
        4    1    3    3  502    0 -0.13160688811E+03 -0.22672746664E+03  0.50759202410E+03  0.57129413874E+03  0.12699999809E+01 0.  1.
       -4    1    3    3    0  502  0.13160688811E+03  0.22672746664E+03 -0.65534074013E+03  0.70583200247E+03  0.12699999809E+01 0. -1.
</event>
<event>
 5   0  0.2312105E-03  0.1224513E+04  0.7818609E-02  0.9091667E-01
       -2   -1    0    0    0  501  0.00000000000E+00  0.00000000000E+00  0.54223090235E+03  0.54223090235E+03  0.25500000920E-02 0.  1.
        2   -1    0    0  501    0  0.00000000000E+00  0.00000000000E+00 -0.69132577727E+03  0.69132577727E+03  0.25500000920E-02 0. -1.
    10030    2    1    2    0    0  0.00000000000E+00  0.00000000000E+00 -0.14909487492E+03  0.12335566796E+04  0.12245132911E+04 0.  0.
        5    1    3    3  502    0 -0.29993353058E+03 -0.35747542373E+03  0.32472208054E+03  0.56852029069E+03  0.46999998093E+01 0. -1.
       -5    1    3    3    0  502  0.29993353058E+03  0.35747542373E+03 -0.47381695546E+03  0.66503638894E+03  0.46999998093E+01 0.  1.
</event>
<event>
 5   0  0.2361043E-03  0.1294414E+04  0.7818609E-02  0.9034007E-01
       -2   -1    0    0    0  501  0.00000000000E+00  0.00000000000E+00  0.25234936539E+03  0.25234936540E+03  0.25500000920E-02 0. -1.
        2   -1    0    0  501    0  0.00000000000E+00  0.00000000000E+00 -0.16599086015E+04  0.16599086015E+04  0.25500000920E-02 0.  1.
    10030    2    1    2    0    0  0.00000000000E+00  0.00000000000E+00 -0.14075592362E+04  0.19122579669E+04  0.12944139712E+04 0.  0.
        2    1    3    3  502    0 -0.17553433990E+03  0.43460848302E+03 -0.13630995413E+04  0.14414358111E+04  0.25500000920E-02 0.  1.
       -2    1    3    3    0  502  0.17553433990E+03 -0.43460848302E+03 -0.44459694886E+02  0.47082215588E+03  0.25500000920E-02 0. -1.
</event>
<event>
 5   0  0.2361043E-03  0.1113207E+04  0.7818609E-02  0.9192414E-01
        2   -1    0    0  501    0  0.00000000000E+00  0.00000000000E+00  0.10149936238E+04  0.10149936238E+04  0.25500000920E-02 0.  1.
       -2   -1    0    0    0  501  0.00000000000E+00  0.00000000000E+00 -0.30523111000E+03  0.30523111001E+03  0.25500000920E-02 0. -1.
    10030    2    1    2    0    0  0.00000000000E+00  0.00000000000E+00  0.70976251383E+03  0.13202247338E+04  0.11132073130E+04 0.  0.
        2    1    3    3  502    0 -0.32612047938E+03  0.29830159746E+03  0.75613230193E+03  0.87582787587E+03  0.25500000920E-02 0.  1.
       -2    1    3    3    0  502  0.32612047938E+03 -0.29830159746E+03 -0.46369788102E+02  0.44439685797E+03  0.25500000920E-02 0. -1.
</event>
<event>
 5   0  0.1387622E-03  0.1298234E+04  0.7818609E-02  0.9030967E-01
       -1   -1    0    0    0  501  0.00000000000E+00  0.00000000000E+00  0.31712048558E+03  0.31712048562E+03  0.50400001928E-02 0.  1.
        1   -1    0    0  501    0  0.00000000000E+00  0.00000000000E+00 -0.13286829951E+04  0.13286829951E+04  0.50400001928E-02 0. -1.
    10030    2    1    2    0    0  0.00000000000E+00  0.00000000000E+00 -0.10115625096E+04  0.16458034808E+04  0.12982335639E+04 0.  0.
        3    1    3    3  502    0  0.14389711128E+03  0.52841281440E+03 -0.94753595225E+03  0.10944180518E+04  0.10100000352E+00 0. -1.
       -3    1    3    3    0  502 -0.14389711128E+03 -0.52841281440E+03 -0.64026557307E+02  0.55138542898E+03  0.10100000352E+00 0.  1.
</event>
<event>
 5   0  0.1346593E-03  0.1306838E+04  0.7818609E-02  0.9024160E-01
        1   -1    0    0  501    0  0.00000000000E+00  0.00000000000E+00  0.81936058793E+03  0.81936058795E+03  0.50400001928E-02 0. -1.
       -1   -1    0    0    0  501  0.00000000000E+00  0.00000000000E+00 -0.52108463204E+03  0.52108463206E+03  0.50400001928E-02 0.  1.
    10030    2    1    2    0    0  0.00000000000E+00  0.00000000000E+00  0.29827595590E+03  0.13404452200E+04  0.13068377260E+04 0.  0.
        2    1    3    3  502    0 -0.41414091174E+03  0.50150012573E+03  0.21353092712E+03  0.68455133316E+03  0.25500000920E-02 0.  1.
       -2    1    3    3    0  502  0.41414091174E+03 -0.50150012573E+03  0.84745028772E+02  0.65589388684E+03  0.25500000920E-02 0. -1.
</event>
<event>
 5   0  0.2334946E-03  0.1294140E+04  0.7818609E-02  0.9034225E-01
        2   -1    0    0  501    0  0.00000000000E+00  0.00000000000E+00  0.13241216278E+04  0.13241216278E+04  0.25500000920E-02 0.  1.
       -2   -1    0    0    0  501  0.00000000000E+00  0.00000000000E+00 -0.31620948040E+03  0.31620948041E+03  0.25500000920E-02 0. -1.
    10030    2    1    2    0    0  0.00000000000E+00  0.00000000000E+00  0.10079121474E+04  0.16403311082E+04  0.12941403508E+04 0.  0.
        1    1    3    3  502    0 -0.25342615557E+03 -0.54803363242E+02  0.12553977078E+04  0.12818937670E+04  0.50400001928E-02 0.  1.
       -1    1    3    3    0  502  0.25342615557E+03  0.54803363242E+02 -0.24748556043E+03  0.35843734124E+03  0.50400001928E-02 0. -1.
</event>
<event>
 5   0  0.9131250E-04  0.1077624E+04  0.7818609E-02  0.9227280E-01
        4   -1    0    0  501    0  0.00000000000E+00  0.00000000000E+00  0.41862027691E+03  0.41862220336E+03  0.12699999809E+01 0. -1.
       -4   -1    0    0    0  501  0.00000000000E+00  0.00000000000E+00 -0.69350806202E+03  0.69350922488E+03  0.12699999809E+01 0.  1.
    10030    2    1    2    0    0  0.00000000000E+00  0.00000000000E+00 -0.27488778511E+03  0.11121314282E+04  0.10776237837E+04 0.  0.
        1    1    3    3  502    0 -0.36970768955E+03 -0.36576178265E+03  0.79679580177E+01  0.52012397151E+03  0.50400001928E-02 0. -1.
       -1    1    3    3    0  502  0.36970768955E+03  0.36576178265E+03 -0.28285574313E+03  0.59200745672E+03  0.50400001928E-02 0.  1.
</event>
<event>
 5   0  0.1332630E-03  0.9688593E+03  0.7818609E-02  0.9343375E-01
        1   -1    0    0  501    0  0.00000000000E+00  0.00000000000E+00  0.18421370098E+04  0.18421370098E+04  0.50400001928E-02 0.  1.
       -1   -1    0    0    0  501  0.00000000000E+00  0.00000000000E+00 -0.12739123279E+03  0.12739123289E+03  0.50400001928E-02 0. -1.
    10030    2    1    2    0    0  0.00000000000E+00  0.00000000000E+00  0.17147457770E+04  0.19695282427E+04  0.96885933914E+03 0.  0.
        5    1    3    3  502    0  0.15543887828E+03 -0.33497290990E+03  0.14946646408E+04  0.15396144237E+04  0.46999998093E+01 0.  1.
       -5    1    3    3    0  502 -0.15543887828E+03  0.33497290990E+03  0.22008113623E+03  0.42991381901E+03  0.46999998093E+01 0. -1.
</event>
<event>
 5   0  0.2312105E-03  0.1284171E+04  0.7818609E-02  0.9042212E-01
       -2   -1    0    0    0  501  0.00000000000E+00  0.00000000000E+00  0.35524615561E+03  0.35524615562E+03  0.25500000920E-02 0.  1.
        2   -1    0    0  501    0  0.00000000000E+00  0.00000000000E+00 -0.11605305266E+04  0.11605305266E+04  0.25500000920E-02 0. -1.
    10030    2    1    2    0    0  0.00000000000E+00  0.00000000000E+00 -0.80528437101E+03  0.15157766822E+04  0.12841713407E+04 0.  0.
        5    1    3    3  502    0  0.52930856260E+03  0.22276228644E+03 -0.74159356759E+03  0.93796252601E+03  0.46999998093E+01 0. -1.
       -5    1    3    3    0  502 -0.52930856260E+03 -0.22276228644E+03 -0.63690803418E+02  0.57781415623E+03  0.46999998093E+01 0.  1.
</event>
<event>
 5   0  0.9131250E-04  0.1269315E+04  0.7818609E-02  0.9054259E-01
       -4   -1    0    0    0  501  0.00000000000E+00  0.00000000000E+00  0.22077252805E+04  0.22077256458E+04  0.12699999809E+01 0.  1.
        4   -1    0    0  501    0  0.00000000000E+00  0.00000000000E+00 -0.18244306922E+03  0.18244748945E+03  0.12699999809E+01 0. -1.
    10030    2    1    2    0    0  0.00000000000E+00  0.00000000000E+00  0.20252822113E+04  0.23901731353E+04  0.12693146108E+04 0.  0.
        5    1    3    3  502    0 -0.19263976134E+03  0.54405491329E+03  0.15096429329E+04  0.16162146210E+04  0.46999998093E+01 0.  1.
       -5    1    3    3    0  502  0.19263976134E+03 -0.54405491329E+03  0.51563927835E+03  0.77395851420E+03  0.46999998093E+01 0. -1.
</event>
<event>
 5   0  0.1387622E-03  0.1301351E+04  0.7818609E-02  0.9028494E-01
        1   -1    0    0  501    0  0.00000000000E+00  0.00000000000E+00  0.25494748780E+04  0.25494748780E+04  0.50400001928E-02 0.  1.
       -1   -1    0    0    0  501  0.00000000000E+00  0.00000000000E+00 -0.16606507535E+03  0.16606507542E+03  0.50400001928E-02 0. -1.
    10030    2    1    2    0    0  0.00000000000E+00  0.00000000000E+00  0.23834098027E+04  0.27155399534E+04  0.13013512021E+04 0.  0.
        3    1    3    3  502    0  0.22349776173E+02 -0.36211484785E+03  0.23188209640E+04  0.23470316037E+04  0.10100000352E+00 0.  1.
       -3    1    3    3    0  502 -0.22349776173E+02  0.36211484785E+03  0.64588838650E+02  0.36850834971E+03  0.10100000352E+00 0. -1.
</event>
<event>
 5   0  0.1387622E-03  0.1319526E+04  0.7818609E-02  0.9014222E-01
        1   -1    0    0  501    0  0.00000000000E+00  0.00000000000E+00  0.10552942926E+04  0.10552942926E+04  0.50400001928E-02 0.  1.
       -1   -1    0    0    0  501  0.00000000000E+00  0.00000000000E+00 -0.41247953886E+03  0.41247953889E+03  0.50400001928E-02 0. -1.
    10030    2    1    2    0    0  0.00000000000E+00  0.00000000000E+00  0.64281475369E+03  0.14677738315E+04  0.13195261319E+04 0.  0.
        3    1    3    3  502    0  0.41201340171E+02  0.11489307442E+03  0.10426260861E+04  0.10497462239E+04  0.10100000352E+00 0.  1.
       -3    1    3    3    0  502 -0.41201340171E+02 -0.11489307442E+03 -0.39981133239E+03  0.41802760757E+03  0.10100000352E+00 0. -1.
</event>
<event>
 5   0  0.2361043E-03  0.1267265E+04  0.7818609E-02  0.9055935E-01
       -2   -1    0    0    0  501  0.00000000000E+00  0.00000000000E+00  0.27315164713E+03  0.27315164715E+03  0.25500000920E-02 0.  1.
        2   -1    0    0  501    0  0.00000000000E+00  0.00000000000E+00 -0.14698434087E+04  0.14698434087E+04  0.25500000920E-02 0. -1.
    10030    2    1    2    0    0  0.00000000000E+00  0.00000000000E+00 -0.11966917616E+04  0.17429950558E+04  0.12672650048E+04 0.  0.
        2    1    3    3  502    0  0.38883297162E+03 -0.14139538332E+03  0.61711557503E+02  0.41832051178E+03  0.25500000920E-02 0.  1.
       -2    1    3    3    0  502 -0.38883297162E+03  0.14139538332E+03 -0.12584033191E+04  0.13246745441E+04  0.25500000920E-02 0. -1.
</event>
<event>
 5   0  0.2334946E-03  0.1334676E+04  0.7818609E-02  0.9002510E-01
        2   -1    0    0  501    0  0.00000000000E+00  0.00000000000E+00  0.57014587552E+03  0.57014587553E+03  0.25500000920E-02 0. -1.
       -2   -1    0    0    0  501  0.00000000000E+00  0.00000000000E+00 -0.78109805337E+03  0.78109805338E+03  0.25500000920E-02 0.  1.
    10030    2    1    2    0    0  0.00000000000E+00  0.00000000000E+00 -0.21095217785E+03  0.13512439289E+04  0.13346757412E+04 0.  0.
        1    1    3    3  502    0  0.32553411147E+02  0.23190223013E+03  0.52718237467E+03  0.57685320932E+03  0.50400001928E-02 0. -1.
       -1    1    3    3    0  502 -0.32553411147E+02 -0.23190223013E+03 -0.73813455252E+03  0.77439071958E+03  0.50400001928E-02 0.  1.
</event>
<event>
 5   0  0.1324721E-03  0.1294857E+04  0.7818609E-02  0.9033654E-01
       -1   -1    0    0    0  501  0.00000000000E+00  0.00000000000E+00  0.41159901767E+03  0.41159901770E+03  0.50400001928E-02 0.  1.
        1   -1    0    0  501    0  0.00000000000E+00  0.00000000000E+00 -0.10183785156E+04  0.10183785156E+04  0.50400001928E-02 0. -1.
    10030    2    1    2    0    0  0.00000000000E+00  0.00000000000E+00 -0.60677949793E+03  0.14299775333E+04  0.12948568981E+04 0.  0.
        1    1    3    3  502    0 -0.63455499617E+03  0.11761143024E+03 -0.36046566843E+03  0.73920767706E+03  0.50400001928E-02 0. -1.
       -1    1    3    3    0  502  0.63455499617E+03 -0.11761143024E+03 -0.24631382950E+03  0.69076985626E+03  0.50400001928E-02 0.  1.
</event>
<event>
 5   0  0.2334946E-03  0.1309094E+04  0.7818609E-02  0.9022384E-01
        2   -1    0    0  501    0  0.00000000000E+00  0.00000000000E+00  0.14752847122E+04  0.14752847122E+04  0.25500000920E-02 0. -1.
       -2   -1    0    0    0  501  0.00000000000E+00  0.00000000000E+00 -0.29040632027E+03  0.29040632028E+03  0.25500000920E-02 0.  1.
    10030    2    1    2    0    0  0.00000000000E+00  0.00000000000E+00  0.11848783920E+04  0.17656910325E+04  0.13090943505E+04 0.  0.
        1    1    3    3  502    0  0.37423338011E+03  0.21312570517E+03 -0.72390015882E+02  0.43670757197E+03  0.50400001928E-02 0.  1.
       -1    1    3    3    0  502 -0.37423338011E+03 -0.21312570517E+03  0.12572684078E+04  0.13289834605E+04  0.50400001928E-02 0. -1.
</event>
<event>
 5   0  0.2334946E-03  0.1275095E+04  0.7818609E-02  0.9049552E-01
        2   -1    0    0  501    0  0.00000000000E+00  0.00000000000E+00  0.69045383096E+03  0.69045383096E+03  0.25500000920E-02 0.  1.
       -2   -1    0    0    0  501  0.00000000000E+00  0.00000000000E+00 -0.58869488892E+03  0.58869488892E+03  0.25500000920E-02 0. -1.
    10030    2    1    2    0    0  0.00000000000E+00  0.00000000000E+00  0.10175894204E+03  0.12791487199E+04  0.12750947280E+04 0.  0.
        1    1    3    3  502    0 -0.29984790674E+03  0.48598488480E+03  0.33528845694E+03  0.66219968651E+03  0.50400001928E-02 0.  1.
       -1    1    3    3    0  502  0.29984790674E+03 -0.48598488480E+03 -0.23352951489E+03  0.61694903338E+03  0.50400001928E-02 0. -1.
</event>
<event>
 5   0  0.2312105E-03  0.1337434E+04  0.7818609E-02  0.9000395E-01
       -2   -1    0    0    0  501  0.00000000000E+00  0.00000000000E+00  0.68604858936E+03  0.68604858936E+03  0.25500000920E-02 0. -1.
        2   -1    0    0  501    0  0.00000000000E+00  0.00000000000E+00 -0.65182361458E+03  0.65182361458E+03  0.25500000920E-02 0.  1.
    10030    2    1    2    0    0  0.00000000000E+00  0.00000000000E+00  0.34224974779E+02  0.13378722039E+04  0.13374343667E+04 0.  0.
        5    1    3    3  502    0 -0.18016707571E+03 -0.30216269017E+03  0.58597968789E+03  0.68348866202E+03  0.46999998093E+01 0. -1.
       -5    1    3    3    0  502  0.18016707571E+03  0.30216269017E+03 -0.55175471311E+03  0.65438354192E+03  0.46999998093E+01 0.  1.
</event>
<event>
 5   0  0.2478236E-03  0.1069772E+04  0.7818609E-02  0.9235166E-01
        2   -1    0    0  501    0  0.00000000000E+00  0.00000000000E+00  0.54144397669E+03  0.54144397670E+03  0.25500000920E-02 0.  1.
       -2   -1    0    0    0  501  0.00000000000E+00  0.00000000000E+00 -0.52840726772E+03  0.52840726772E+03  0.25500000920E-02 0. -1.
    10030    2    1    2    0    0  0.00000000000E+00  0.00000000000E+00  0.13036708975E+02  0.10698512444E+04  0.10697718118E+04 0.  0.
        3    1    3    3  502    0 -0.11898962420E+03  0.41147344242E+03  0.32690755494E+03  0.53882973578E+03  0.10100000352E+00 0.  1.
       -3    1    3    3    0  502  0.11898962420E+03 -0.41147344242E+03 -0.31387084597E+03  0.53102150864E+03  0.10100000352E+00 0. -1.
</event>
<event>
 5   0  0.1310461E-03  0.1311435E+04  0.7818609E-02  0.9020546E-01
       -1   -1    0    0    0  501  0.00000000000E+00  0.00000000000E+00  0.28462964747E+03  0.28462964751E+03  0.50400001928E-02 0.  1.
        1   -1    0    0  501    0  0.00000000000E+00  0.00000000000E+00 -0.15106145986E+04  0.15106145986E+04  0.50400001928E-02 0. -1.
    10030    2    1    2    0    0  0.00000000000E+00  0.00000000000E+00 -0.12259849511E+04  0.17952442461E+04  0.13114353979E+04 0.  0.
        4    1    3    3  502    0  0.11710671366E+03  0.64511822843E+03 -0.60133041110E+03  0.88965801702E+03  0.12699999809E+01 0.  1.
       -4    1    3    3    0  502 -0.11710671366E+03 -0.64511822843E+03 -0.62465454000E+03  0.90558622907E+03  0.12699999809E+01 0. -1.
</event>
<event>
 5   0  0.1324721E-03  0.1296085E+04  0.7818609E-02  0.9032676E-01
       -1   -1    0    0    0  501  0.00000000000E+00  0.00000000000E+00  0.59416312594E+03  0.59416312596E+03  0.50400001928E-02 0.  1.
        1   -1    0    0  501    0  0.00000000000E+00  0.00000000000E+00 -0.70680752680E+03  0.70680752681E+03  0.50400001928E-02 0. -1.
    10030    2    1    2    0    0  0.00000000000E+00  0.00000000000E+00 -0.11264440086E+03  0.13009706528E+04  0.12960848268E+04 0.  0.
        1    1    3    3  502    0  0.27418923007E+03 -0.82584001506E+02 -0.63985618989E+03  0.70101055267E+03  0.50400001928E-02 0. -1.
       -1    1    3    3    0  502 -0.27418923007E+03  0.82584001506E+02  0.52721178903E+03  0.59996010010E+03  0.50400001928E-02 0.  1.
</event>
<event>
 5   0  0.1324721E-03  0.1316646E+04  0.7818609E-02  0.9016468E-01
       -1   -1    0    0    0  501  0.00000000000E+00  0.00000000000E+00  0.19362096547E+03  0.19362096554E+03  0.50400001928E-02 0. -1.
        1   -1    0    0  501    0  0.00000000000E+00  0.00000000000E+00 -0.22383377397E+04  0.22383377397E+04  0.50400001928E-02 0.  1.
    10030    2    1    2    0    0  0.00000000000E+00  0.00000000000E+00 -0.20447167742E+04  0.24319587053E+04  0.13166459119E+04 0.  0.
        1    1    3    3  502    0 -0.12530064975E+03 -0.13188846341E+02  0.17114374446E+03  0.21251912806E+03  0.50400001928E-02 0. -1.
       -1    1    3    3    0  502  0.12530064975E+03  0.13188846341E+02 -0.22158605187E+04  0.22194395772E+04  0.50400001928E-02 0.  1.
</event>
<event>
 5   0  0.2312105E-03  0.1294548E+04  0.7818609E-02  0.9033900E-01
       -2   -1    0    0    0  501  0.00000000000E+00  0.00000000000E+00  0.22034687772E+03  0.22034687774E+03  0.25500000920E-02 0.  1.
        2   -1    0    0  501    0  0.00000000000E+00  0.00000000000E+00 -0.19013817802E+04  0.19013817803E+04  0.25500000920E-02 0. -1.
    10030    2    1    2    0    0  0.00000000000E+00  0.00000000000E+00 -0.16810349025E+04  0.21217286580E+04  0.12945478572E+04 0.  0.
        5    1    3    3  502    0  0.15573574184E+03  0.15097629649E+03 -0.18400140244E+04  0.18527604172E+04  0.46999998093E+01 0. -1.
       -5    1    3    3    0  502 -0.15573574184E+03 -0.15097629649E+03  0.15897912187E+03  0.26896824083E+03  0.46999998093E+01 0.  1.
</event>
<event>
 5   0  0.2334946E-03  0.1305817E+04  0.7818609E-02  0.9024965E-01
       -2   -1    0    0    0  501  0.00000000000E+00  0.00000000000E+00  0.23445899125E+03  0.23445899126E+03  0.25500000920E-02 0.  1.
        2   -1    0    0  501    0  0.00000000000E+00  0.00000000000E+00 -0.18181837034E+04  0.18181837034E+04  0.25500000920E-02 0. -1.
    10030    2    1    2    0    0  0.00000000000E+00  0.00000000000E+00 -0.15837247122E+04  0.20526426947E+04  0.13058170117E+04 0.  0.
        1    1    3    3  502    0 -0.26127649030E+03 -0.53882194707E+03 -0.38287545144E+03  0.71076585904E+03  0.50400001928E-02 0.  1.
       -1    1    3    3    0  502  0.26127649030E+03  0.53882194707E+03 -0.12008492607E+04  0.13418768356E+04  0.50400001928E-02 0. -1.
</event>
<event>
 5   0  0.1332630E-03  0.1350629E+04  0.7818609E-02  0.8990352E-01
       -1   -1    0    0    0  501  0.00000000000E+00  0.00000000000E+00  0.41040580503E+03  0.41040580506E+03  0.50400001928E-02 0.  1.
        1   -1    0    0  501    0  0.00000000000E+00  0.00000000000E+00 -0.11112158091E+04  0.11112158091E+04  0.50400001928E-02 0. -1.
    10030    2    1    2    0    0  0.00000000000E+00  0.00000000000E+00 -0.70081000405E+03  0.15216216142E+04  0.13506286221E+04 0.  0.
        5    1    3    3  502    0  0.58078486218E+03 -0.18082146930E+03 -0.19982125473E+02  0.60862865134E+03  0.46999998093E+01 0.  1.
       -5    1    3    3    0  502 -0.58078486218E+03  0.18082146930E+03 -0.68082787858E+03  0.91299296281E+03  0.46999998093E+01 0. -1.
</event>
<event>
 5   0  0.1387622E-03  0.1016540E+04  0.7818609E-02  0.9290588E-01
       -1   -1    0    0    0  501  0.00000000000E+00  0.00000000000E+00  0.38512261566E+03  0.38512261569E+03  0.50400001928E-02 0. -1.
        1   -1    0    0  501    0  0.00000000000E+00  0.00000000000E+00 -0.67079483902E+03  0.67079483904E+03  0.50400001928E-02 0.  1.
    10030    2    1    2    0    0  0.00000000000E+00  0.00000000000E+00 -0.28567222336E+03  0.10559174547E+04  0.10165397444E+04 0.  0.
        3    1    3    3  502    0 -0.23749625200E+02 -0.15778218661E+03 -0.64410501075E+03  0.66357406383E+03  0.10100000352E+00 0.  1.
       -3    1    3    3    0  502  0.23749625200E+02  0.15778218661E+03  0.35843278739E+03  0.39234339090E+03  0.10100000352E+00 0. -1.
</event>
<event>
 5   0  0.2334946E-03  0.1255631E+04  0.7818609E-02  0.9065510E-01
        2   -1    0    0  501    0  0.00000000000E+00  0.00000000000E+00  0.17365510139E+04  0.17365510139E+04  0.25500000920E-02 0.  1.
       -2   -1    0    0    0  501  0.00000000000E+00  0.00000000000E+00 -0.22697419306E+03  0.22697419307E+03  0.25500000920E-02 0. -1.
    10030    2    1    2    0    0  0.00000000000E+00  0.00000000000E+00  0.15095768208E+04  0.19635252069E+04  0.12556309412E+04 0.  0.
        1    1    3    3  502    0 -0.39570533503E+03 -0.45421837216E+03  0.47832620073E+03  0.76921583194E+03  0.50400001928E-02 0. -1.
       -1    1    3    3    0  502  0.39570533503E+03  0.45421837216E+03  0.10312506201E+04  0.11943093750E+04  0.50400001928E-02 0.  1.
</event>
<event>
 5   0  0.1324721E-03  0.1328959E+04  0.7818609E-02  0.9006910E-01
        1   -1    0    0  501    0  0.00000000000E+00  0.00000000000E+00  0.25263024843E+03  0.25263024848E+03  0.50400001928E-02 0.  1.
       -1   -1    0    0    0  501  0.00000000000E+00  0.00000000000E+00 -0.17477445289E+04  0.17477445289E+04  0.50400001928E-02 0. -1.
    10030    2    1    2    0    0  0.00000000000E+00  0.00000000000E+00 -0.14951142805E+04  0.20003747774E+04  0.13289591936E+04 0.  0.
        1    1    3    3  502    0  0.17034341036E+03  0.35607269154E+03  0.57036325348E+02  0.39882048788E+03  0.50400001928E-02 0.  1.
       -1    1    3    3    0  502 -0.17034341036E+03 -0.35607269154E+03 -0.15521506058E+04  0.16015542895E+04  0.50400001928E-02 0. -1.
</event>
<event>
 5   0  0.1346593E-03  0.1306903E+04  0.7818609E-02  0.9024109E-01
        1   -1    0    0  501    0  0.00000000000E+00  0.00000000000E+00  0.81200327969E+03  0.81200327971E+03  0.50400001928E-02 0.  1.
       -1   -1    0    0    0  501  0.00000000000E+00  0.00000000000E+00 -0.52585833713E+03  0.52585833715E+03  0.50400001928E-02 0. -1.
    10030    2    1    2    0    0  0.00000000000E+00  0.00000000000E+00  0.28614494256E+03  0.13378616169E+04  0.13069027423E+04 0.  0.
        2    1    3    3  502    0  0.39212732442E+03  0.52251709656E+03  0.15793323287E+03  0.67210926255E+03  0.25500000920E-02 0. -1.
       -2    1    3    3    0  502 -0.39212732442E+03 -0.52251709656E+03  0.12821170969E+03  0.66575235431E+03  0.25500000920E-02 0.  1.
</event>
<event>
 5   0  0.1310461E-03  0.1296340E+04  0.7818609E-02  0.9032473E-01
       -1   -1    0    0    0  501  0.00000000000E+00  0.00000000000E+00  0.32465918895E+03  0.32465918899E+03  0.50400001928E-02 0. -1.
        1   -1    0    0  501    0  0.00000000000E+00  0.00000000000E+00 -0.12940474505E+04  0.12940474505E+04  0.50400001928E-02 0.  1.
    10030    2    1    2    0    0  0.00000000000E+00  0.00000000000E+00 -0.96938826157E+03  0.16187066395E+04  0.12963400723E+04 0.  0.
        4    1    3    3  502    0  0.22266147533E+03 -0.60861870711E+03 -0.49881683371E+03  0.81781092542E+03  0.12699999809E+01 0. -1.
       -4    1    3    3    0  502 -0.22266147533E+03  0.60861870711E+03 -0.47057142786E+03  0.80089571410E+03  0.12699999809E+01 0.  1.
</event>
<event>
 5   0  0.1346593E-03  0.1311343E+04  0.7818609E-02  0.9020618E-01
        1   -1    0    0  501    0  0.00000000000E+00  0.00000000000E+00  0.96438900609E+03  0.96438900611E+03  0.50400001928E-02 0.  1.
       -1   -1    0    0    0  501  0.00000000000E+00  0.00000000000E+00 -0.44577952340E+03  0.44577952343E+03  0.50400001928E-02 0. -1.
    10030    2    1    2    0    0  0.00000000000E+00  0.00000000000E+00  0.51860948269E+03  0.14101685295E+04  0.13113426273E+04 0.  0.
        2    1    3    3  502    0 -0.62986190954E+03  0.90961264084E+02  0.42901074089E+03  0.76749605370E+03  0.25500000920E-02 0. -1.
       -2    1    3    3    0  502  0.62986190954E+03 -0.90961264084E+02  0.89598741806E+02  0.64267247583E+03  0.25500000920E-02 0.  1.
</event>
<event>
 5   0  0.1324721E-03  0.1241934E+04  0.7818609E-02  0.9076923E-01
        1   -1    0    0  501    0  0.00000000000E+00  0.00000000000E+00  0.54988732206E+03  0.54988732208E+03  0.50400001928E-02 0. -1.
       -1   -1    0    0    0  501  0.00000000000E+00  0.00000000000E+00 -0.70123494831E+03  0.70123494833E+03  0.50400001928E-02 0.  1.
    10030    2    1    2    0    0  0.00000000000E+00  0.00000000000E+00 -0.15134762625E+03  0.12511222704E+04  0.12419343105E+04 0.  0.
        1    1    3    3  502    0 -0.11513134323E+03 -0.99478741880E+02  0.53081746445E+03  0.55219419308E+03  0.50400001928E-02 0. -1.
       -1    1    3    3    0  502  0.11513134323E+03  0.99478741880E+02 -0.68216509070E+03  0.69892807733E+03  0.50400001928E-02 0.  1.
</event>
<event>
 5   0  0.1387622E-03  0.1288956E+04  0.7818609E-02  0.9038369E-01
       -1   -1    0    0    0  501  0.00000000000E+00  0.00000000000E+00  0.22197683537E+03  0.22197683542E+03  0.50400001928E-02 0.  1.
        1   -1    0    0  501    0  0.00000000000E+00  0.00000000000E+00 -0.18711492510E+04  0.18711492510E+04  0.50400001928E-02 0. -1.
    10030    2    1    2    0    0  0.00000000000E+00  0.00000000000E+00 -0.16491724157E+04  0.20931260865E+04  0.12889558399E+04 0.  0.
        3    1    3    3  502    0  0.37086406002E+03  0.42162876733E+03 -0.13382109697E+04  0.14512475936E+04  0.10100000352E+00 0. -1.
       -3    1    3    3    0  502 -0.37086406002E+03 -0.42162876733E+03 -0.31096144598E+03  0.64187849282E+03  0.10100000352E+00 0.  1.
</event>
<event>
 5   0  0.1310461E-03  0.1495464E+04  0.7818609E-02  0.8887475E-01
       -1   -1    0    0    0  501  0.00000000000E+00  0.00000000000E+00  0.63483664262E+03  0.63483664264E+03  0.50400001928E-02 0. -1.
        1   -1    0    0  501    0  0.00000000000E+00  0.00000000000E+00 -0.88070372826E+03  0.88070372828E+03  0.50400001928E-02 0.  1.
    10030    2    1    2    0    0  0.00000000000E+00  0.00000000000E+00 -0.24586708564E+03  0.15155403709E+04  0.14954638050E+04 0.  0.
        4    1    3    3  502    0 -0.64148378595E+02  0.41015797749E+03  0.50731316368E+03  0.65552485836E+03  0.12699999809E+01 0. -1.
       -4    1    3    3    0  502  0.64148378595E+02 -0.41015797749E+03 -0.75318024932E+03  0.86001551256E+03  0.12699999809E+01 0.  1.
</event>
<event>
 5   0  0.2478236E-03  0.1286203E+04  0.7818609E-02  0.9040579E-01
       -2   -1    0    0    0  501  0.00000000000E+00  0.00000000000E+00  0.51916501180E+03  0.51916501180E+03  0.25500000920E-02 0. -1.
        2   -1    0    0  501    0  0.00000000000E+00  0.00000000000E+00 -0.79662394302E+03  0.79662394303E+03  0.25500000920E-02 0.  1.
    10030    2    1    2    0    0  0.00000000000E+00  0.00000000000E+00 -0.27745893123E+03  0.13157889548E+04  0.12862025949E+04 0.  0.
        3    1    3    3  502    0 -0.41268371036E+03 -0.25872413379E+03 -0.56830936961E+03  0.74847950673E+03  0.10100000352E+00 0.  1.
       -3    1    3    3    0  502  0.41268371036E+03  0.25872413379E+03  0.29085043838E+03  0.56730944810E+03  0.10100000352E+00 0. -1.
</event>
<event>
 5   0  0.1346593E-03  0.1279231E+04  0.7818609E-02  0.9046199E-01
        1   -1    0    0  501    0  0.00000000000E+00  0.00000000000E+00  0.22412334714E+04  0.22412334714E+04  0.50400001928E-02 0.  1.
       -1   -1    0    0    0  501  0.00000000000E+00  0.00000000000E+00 -0.18253693625E+03  0.18253693632E+03  0.50400001928E-02 0. -1.
    10030    2    1    2    0    0  0.00000000000E+00  0.00000000000E+00  0.20586965351E+04  0.24237704077E+04  0.12792308492E+04 0.  0.
        2    1    3    3  502    0  0.44270981521E+02 -0.12214738099E+03  0.22159687631E+04  0.22197741916E+04  0.25500000920E-02 0.  1.
       -2    1    3    3    0  502 -0.44270981521E+02  0.12214738099E+03 -0.15727222799E+03  0.20399621612E+03  0.25500000920E-02 0. -1.
</event>
<event>
 5   0  0.1387622E-03  0.1329684E+04  0.7818609E-02  0.9006351E-01
       -1   -1    0    0    0  501  0.00000000000E+00  0.00000000000E+00  0.66191658277E+03  0.66191658279E+03  0.50400001928E-02 0.  1.
        1   -1    0    0  501    0  0.00000000000E+00  0.00000000000E+00 -0.66778075821E+03  0.66778075823E+03  0.50400001928E-02 0. -1.
    10030    2    1    2    0    0  0.00000000000E+00  0.00000000000E+00 -0.58641754441E+01  0.13296973410E+04  0.13296844100E+04 0.  0.
        3    1    3    3  502    0 -0.27587769856E+03 -0.38490166916E+03  0.46371722730E+03  0.66279067327E+03  0.10100000352E+00 0.  1.
       -3    1    3    3    0  502  0.27587769856E+03  0.38490166916E+03 -0.46958140274E+03  0.66690666775E+03  0.10100000352E+00 0. -1.
</event>
<event>
 5   0  0.9131250E-04  0.1321819E+04  0.7818609E-02  0.9012439E-01
       -4   -1    0    0    0  501  0.00000000000E+00  0.00000000000E+00  0.58241956416E+03  0.58242094881E+03  0.12699999809E+01 0.  1.
        4   -1    0    0  501    0  0.00000000000E+00  0.00000000000E+00 -0.74997451067E+03  0.74997558598E+03  0.12699999809E+01 0. -1.
    10030    2    1    2    0    0  0.00000000000E+00  0.00000000000E+00 -0.16755494652E+03  0.13323965348E+04  0.13218191502E+04 0.  0.
        5    1    3    3  502    0  0.20364177504E+03 -0.30183051540E+03  0.47218642014E+03  0.59628326988E+03  0.46999998093E+01 0.  1.
       -5    1    3    3    0  502 -0.20364177504E+03  0.30183051540E+03 -0.63974136665E+03  0.73611326491E+03  0.46999998093E+01 0. -1.
</event>
<event>
 5   0  0.2334946E-03  0.1297733E+04  0.7818609E-02  0.9031365E-01
        2   -1    0    0  501    0  0.00000000000E+00  0.00000000000E+00  0.64333043468E+03  0.64333043468E+03  0.25500000920E-02 0.  1.
       -2   -1    0    0    0  501  0.00000000000E+00  0.00000000000E+00 -0.65444999549E+03  0.65444999550E+03  0.25500000920E-02 0. -1.
    10030    2    1    2    0    0  0.00000000000E+00  0.00000000000E+00 -0.11119560818E+02  0.12977804302E+04  0.12977327923E+04 0.  0.
        1    1    3    3  502    0 -0.38649634647E+03 -0.84595006074E+01  0.51558947823E+03  0.64442493673E+03  0.50400001928E-02 0.  1.
       -1    1    3    3    0  502  0.38649634647E+03  0.84595006074E+01 -0.52670903905E+03  0.65335549345E+03  0.50400001928E-02 0. -1.
</event>
<event>
 5   0  0.1324721E-03  0.1210337E+04  0.7818609E-02  0.9103857E-01
        1   -1    0    0  501    0  0.00000000000E+00  0.00000000000E+00  0.17377036878E+04  0.17377036878E+04  0.50400001928E-02 0. -1.
       -1   -1    0    0    0  501  0.00000000000E+00  0.00000000000E+00 -0.21075443141E+03  0.21075443147E+03  0.50400001928E-02 0.  1.
    10030    2    1    2    0    0  0.00000000000E+00  0.00000000000E+00  0.15269492564E+04  0.19484581193E+04  0.12103367345E+04 0.  0.
        1    1    3    3  502    0 -0.28814194548E+03  0.22305353203E+03 -0.14350353014E+02  0.36467052465E+03  0.50400001928E-02 0.  1.
       -1    1    3    3    0  502  0.28814194548E+03 -0.22305353203E+03  0.15412996094E+04  0.15837875946E+04  0.50400001928E-02 0. -1.
</event>
<event>
 5   0  0.2361043E-03  0.1309207E+04  0.7818609E-02  0.9022296E-01
       -2   -1    0    0    0  501  0.00000000000E+00  0.00000000000E+00  0.38303620942E+03  0.38303620943E+03  0.25500000920E-02 0. -1.
        2   -1    0    0  501    0  0.00000000000E+00  0.00000000000E+00 -0.11187073527E+04  0.11187073527E+04  0.25500000920E-02 0.  1.
    10030    2    1    2    0    0  0.00000000000E+00  0.00000000000E+00 -0.73567114325E+03  0.15017435621E+04  0.13092065136E+04 0.  0.
        2    1    3    3  502    0  0.45691363981E+03  0.40882047419E+03 -0.10475709322E+03  0.62199542036E+03  0.25500000920E-02 0.  1.
       -2    1    3    3    0  502 -0.45691363981E+03 -0.40882047419E+03 -0.63091405003E+03  0.87974814174E+03  0.25500000920E-02 0. -1.
</event>
<event>
 5   0  0.1332630E-03  0.1357240E+04  0.7818609E-02  0.8985366E-01
       -1   -1    0    0    0  501  0.00000000000E+00  0.00000000000E+00  0.26855205469E+03  0.26855205474E+03  0.50400001928E-02 0.  1.
        1   -1    0    0  501    0  0.00000000000E+00  0.00000000000E+00 -0.17148439687E+04  0.17148439687E+04  0.50400001928E-02 0. -1.
    10030    2    1    2    0    0  0.00000000000E+00  0.00000000000E+00 -0.14462919140E+04  0.19833960235E+04  0.13572396565E+04 0.  0.
        5    1    3    3  502    0  0.11712347498E+03  0.21674302851E+03 -0.16471593690E+04  0.16654883745E+04  0.46999998093E+01 0. -1.
       -5    1    3    3    0  502 -0.11712347498E+03 -0.21674302851E+03  0.20086745496E+03  0.31790764895E+03  0.46999998093E+01 0.  1.
</event>
<event>
 5   0  0.1310461E-03  0.1318893E+04  0.7818609E-02  0.9014716E-01
        1   -1    0    0  501    0  0.00000000000E+00  0.00000000000E+00  0.10933682736E+04  0.10933682736E+04  0.50400001928E-02 0.  1.
       -1   -1    0    0    0  501  0.00000000000E+00  0.00000000000E+00 -0.39773397642E+03  0.39773397645E+03  0.50400001928E-02 0. -1.
    10030    2    1    2    0    0  0.00000000000E+00  0.00000000000E+00  0.69563429719E+03  0.14911022501E+04  0.13188930376E+04 0.  0.
        4    1    3    3  502    0  0.48799287084E+03  0.42119866196E+03  0.19066068636E+03  0.67223393626E+03  0.12699999809E+01 0. -1.
       -4    1    3    3    0  502 -0.48799287084E+03 -0.42119866196E+03  0.50497361083E+03  0.81886831381E+03  0.12699999809E+01 0.  1.
</event>
<event>
 5   0  0.1387622E-03  0.1294172E+04  0.7818609E-02  0.9034200E-01
       -1   -1    0    0    0  501  0.00000000000E+00  0.00000000000E+00  0.40204823914E+03  0.40204823917E+03  0.50400001928E-02 0. -1.
        1   -1    0    0  501    0  0.00000000000E+00  0.00000000000E+00 -0.10414670431E+04  0.10414670431E+04  0.50400001928E-02 0.  1.
    10030    2    1    2    0    0  0.00000000000E+00  0.00000000000E+00 -0.63941880395E+03  0.14435152823E+04  0.12941715355E+04 0.  0.
        3    1    3    3  502    0 -0.25305115656E+03 -0.54383006036E+03 -0.59048676092E+03  0.84170104397E+03  0.10100000352E+00 0.  1.
       -3    1    3    3    0  502  0.25305115656E+03  0.54383006036E+03 -0.48932043027E+02  0.60181423831E+03  0.10100000352E+00 0. -1.
</event>
<event>
 5   0  0.9131250E-04  0.1149631E+04  0.7818609E-02  0.9158124E-01
       -3   -1    0    0    0  501  0.00000000000E+00  0.00000000000E+00  0.15019327542E+04  0.15019327576E+04  0.10100000352E+00 0. -1.
        3   -1    0    0  501    0  0.00000000000E+00  0.00000000000E+00 -0.21999182508E+03  0.21999184827E+03  0.10100000352E+00 0.  1.
    10030    2    1    2    0    0  0.00000000000E+00  0.00000000000E+00  0.12819409291E+04  0.17219246058E+04  0.11496311593E+04 0.  0.
        1    1    3    3  502    0 -0.47727428278E+03 -0.29077067388E+03  0.43960255982E+03  0.71104763302E+03  0.50400001928E-02 0.  1.
       -1    1    3    3    0  502  0.47727428278E+03  0.29077067388E+03  0.84233836926E+03  0.10108769728E+04  0.50400001928E-02 0. -1.
</event>
<event>
 5   0  0.2478236E-03  0.1318956E+04  0.7818609E-02  0.9014667E-01
        2   -1    0    0  501    0  0.00000000000E+00  0.00000000000E+00  0.13049774454E+04  0.13049774454E+04  0.25500000920E-02 0. -1.
       -2   -1    0    0    0  501  0.00000000000E+00  0.00000000000E+00 -0.33327097366E+03  0.33327097367E+03  0.25500000920E-02 0.  1.
    10030    2    1    2    0    0  0.00000000000E+00  0.00000000000E+00  0.97170647170E+03  0.16382484190E+04  0.13189558049E+04 0.  0.
        3    1    3    3  502    0 -0.29565972648E+03  0.42485670810E+03  0.99342669386E+03  0.11201850305E+04  0.10100000352E+00 0.  1.
       -3    1    3    3    0  502  0.29565972648E+03 -0.42485670810E+03 -0.21720222159E+02  0.51806338853E+03  0.10100000352E+00 0. -1.
</event>
<event>
 5   0  0.2401211E-03  0.1285413E+04  0.7818609E-02  0.9041213E-01
        2   -1    0    0  501    0  0.00000000000E+00  0.00000000000E+00  0.99130682088E+03  0.99130682088E+03  0.25500000920E-02 0.  1.
       -2   -1    0    0    0  501  0.00000000000E+00  0.00000000000E+00 -0.41669417273E+03  0.41669417273E+03  0.25500000920E-02 0. -1.
    10030    2    1    2    0    0  0.00000000000E+00  0.00000000000E+00  0.57461264815E+03  0.14080009936E+04  0.12854132031E+04 0.  0.
        4    1    3    3  502    0  0.42307491710E+03 -0.18861967320E+03 -0.20071735403E+03  0.50483545409E+03  0.12699999809E+01 0. -1.
       -4    1    3    3    0  502 -0.42307491710E+03  0.18861967320E+03  0.77533000219E+03  0.90316553952E+03  0.12699999809E+01 0.  1.
</event>
<event>
 5   0  0.1310461E-03  0.1304963E+04  0.7818609E-02  0.9025639E-01
        1   -1    0    0  501    0  0.00000000000E+00  0.00000000000E+00  0.11310658191E+04  0.11310658191E+04  0.50400001928E-02 0. -1.
       -1   -1    0    0    0  501  0.00000000000E+00  0.00000000000E+00 -0.37639893385E+03  0.37639893389E+03  0.50400001928E-02 0.  1.
    10030    2    1    2    0    0  0.00000000000E+00  0.00000000000E+00  0.75466688525E+03  0.15074647530E+04  0.13049627864E+04 0.  0.
        4    1    3    3  502    0  0.53650379173E+03  0.25386707937E+03  0.64270428359E+02  0.59700679509E+03  0.12699999809E+01 0.  1.
       -4    1    3    3    0  502 -0.53650379173E+03 -0.25386707937E+03  0.69039645689E+03  0.91045795790E+03  0.12699999809E+01 0. -1.
</event>
<event>
 5   0  0.1332630E-03  0.1338362E+04  0.7818609E-02  0.8999685E-01
        1   -1    0    0  501    0  0.00000000000E+00  0.00000000000E+00  0.17167959104E+04  0.17167959104E+04  0.50400001928E-02 0. -1.
       -1   -1    0    0    0  501  0.00000000000E+00  0.00000000000E+00 -0.26083669229E+03  0.26083669234E+03  0.50400001928E-02 0.  1.
    10030    2    1    2    0    0  0.00000000000E+00  0.00000000000E+00  0.14559592181E+04  0.19776326027E+04  0.13383622330E+04 0.  0.
        5    1    3    3  502    0 -0.53304611608E+02 -0.21888287249E+03 -0.20309332564E+03  0.30334812082E+03  0.46999998093E+01 0.  1.
       -5    1    3    3    0  502  0.53304611608E+02  0.21888287249E+03  0.16590525437E+04  0.16742844819E+04  0.46999998093E+01 0. -1.
</event>
<event>
 5   0  0.2478236E-03  0.1290110E+04  0.7818609E-02  0.9037445E-01
       -2   -1    0    0    0  501  0.00000000000E+00  0.00000000000E+00  0.51451536543E+03  0.51451536543E+03  0.25500000920E-02 0.  1.
        2   -1    0    0  501    0  0.00000000000E+00  0.00000000000E+00 -0.80871382805E+03  0.80871382806E+03  0.25500000920E-02 0. -1.
    10030    2    1    2    0    0  0.00000000000E+00  0.00000000000E+00 -0.29419846263E+03  0.13232291935E+04  0.12901095934E+04 0.  0.
        3    1    3    3  502    0  0.22698049338E+03  0.55840090475E+03  0.88501798322E+02  0.60923254453E+03  0.10100000352E+00 0.  1.
       -3    1    3    3    0  502 -0.22698049338E+03 -0.55840090475E+03 -0.38270026095E+03  0.71399664897E+03  0.10100000352E+00 0. -1.
</event>
<event>
 5   0  0.1310461E-03  0.1295926E+04  0.7818609E-02  0.9032802E-01
        1   -1    0    0  501    0  0.00000000000E+00  0.00000000000E+00  0.88150981766E+03  0.88150981768E+03  0.50400001928E-02 0. -1.
       -1   -1    0    0    0  501  0.00000000000E+00  0.00000000000E+00 -0.47629223893E+03  0.47629223896E+03  0.50400001928E-02 0.  1.
    10030    2    1    2    0    0  0.00000000000E+00  0.00000000000E+00  0.40521757874E+03  0.13578020566E+04  0.12959263632E+04 0.  0.
        4    1    3    3  502    0  0.18593636159E+02 -0.30355140537E+03  0.80208587431E+03  0.85780682072E+03  0.12699999809E+01 0. -1.
       -4    1    3    3    0  502 -0.18593636159E+02  0.30355140537E+03 -0.39686829557E+03  0.49999523592E+03  0.12699999809E+01 0.  1.
</event>
<event>
 5   0  0.2478236E-03  0.1312496E+04  0.7818609E-02  0.9019714E-01
       -2   -1    0    0    0  501  0.00000000000E+00  0.00000000000E+00  0.40127123547E+03  0.40127123548E+03  0.25500000920E-02 0.  1.
        2   -1    0    0  501    0  0.00000000000E+00  0.00000000000E+00 -0.10732434722E+04  0.10732434723E+04  0.25500000920E-02 0. -1.
    10030    2    1    2    0    0  0.00000000000E+00  0.00000000000E+00 -0.67197223678E+03  0.14745147077E+04  0.13124964519E+04 0.  0.
        3    1    3    3  502    0  0.60712425202E+03 -0.26406040999E+02 -0.61428398707E+03  0.86408446541E+03  0.10100000352E+00 0. -1.
       -3    1    3    3    0  502 -0.60712425202E+03  0.26406040999E+02 -0.57688249705E+02  0.61043024232E+03  0.10100000352E+00 0.  1.
</event>
<event>
 5   0  0.1332630E-03  0.1242948E+04  0.7818609E-02  0.9076073E-01
        1   -1    0    0  501    0  0.00000000000E+00  0.00000000000E+00  0.16252262571E+04  0.16252262571E+04  0.50400001928E-02 0. -1.
       -1   -1    0    0    0  501  0.00000000000E+00  0.00000000000E+00 -0.23764702273E+03  0.23764702278E+03  0.50400001928E-02 0.  1.
    10030    2    1    2    0    0  0.00000000000E+00  0.00000000000E+00  0.13875792343E+04  0.18628732799E+04  0.12429484001E+04 0.  0.
        5    1    3    3  502    0  0.31824186211E+02 -0.27744264170E+03 -0.13828304031E+03  0.31165924902E+03  0.46999998093E+01 0.  1.
       -5    1    3    3    0  502 -0.31824186211E+02  0.27744264170E+03  0.15258622746E+04  0.15512140308E+04  0.46999998093E+01 0. -1.
</event>
<event>
 5   0  0.1346593E-03  0.1295700E+04  0.7818609E-02  0.9032982E-01
        1   -1    0    0  501    0  0.00000000000E+00  0.00000000000E+00  0.60628145605E+03  0.60628145607E+03  0.50400001928E-02 0.  1.
       -1   -1    0    0    0  501  0.00000000000E+00  0.00000000000E+00 -0.69226831634E+03  0.69226831636E+03  0.50400001928E-02 0. -1.
    10030    2    1    2    0    0  0.00000000000E+00  0.00000000000E+00 -0.85986860292E+02  0.12985497724E+04  0.12956997227E+04 0.  0.
        2    1    3    3  502    0  0.48642297481E+03 -0.21887200416E+03 -0.41149390196E+03  0.67367610615E+03  0.25500000920E-02 0. -1.
       -2    1    3    3    0  502 -0.48642297481E+03  0.21887200416E+03  0.32550704167E+03  0.62487366629E+03  0.25500000920E-02 0.  1.
</event>
<event>
 5   0  0.2312105E-03  0.1316211E+04  0.7818609E-02  0.9016807E-01
       -2   -1    0    0    0  501  0.00000000000E+00  0.00000000000E+00  0.50154668030E+03  0.50154668031E+03  0.25500000920E-02 0.  1.
        2   -1    0    0  501    0  0.00000000000E+00  0.00000000000E+00 -0.86353476668E+03  0.86353476668E+03  0.25500000920E-02 0. -1.
    10030    2    1    2    0    0  0.00000000000E+00  0.00000000000E+00 -0.36198808637E+03  0.13650814470E+04  0.13162112225E+04 0.  0.
        5    1    3    3  502    0 -0.10730721973E+03 -0.21869357628E+03 -0.81503497025E+03  0.85067374030E+03  0.46999998093E+01 0. -1.
       -5    1    3    3    0  502  0.10730721973E+03  0.21869357628E+03  0.45304688387E+03  0.51440770669E+03  0.46999998093E+01 0.  1.
</event>
<event>
 5   0  0.1324721E-03  0.1084361E+04  0.7818609E-02  0.9220570E-01
       -1   -1    0    0    0  501  0.00000000000E+00  0.00000000000E+00  0.10117483131E+04  0.10117483131E+04  0.50400001928E-02 0.  1.
        1   -1    0    0  501    0  0.00000000000E+00  0.00000000000E+00 -0.29054636291E+03  0.29054636296E+03  0.50400001928E-02 0. -1.
    10030    2    1    2    0    0  0.00000000000E+00  0.00000000000E+00  0.72120195020E+03  0.13022946761E+04  0.10843611808E+04 0.  0.
        1    1    3    3  502    0 -0.28951358987E+03 -0.14610689206E+03  0.88243202258E+03  0.94013382937E+03  0.50400001928E-02 0.  1.
       -1    1    3    3    0  502  0.28951358987E+03  0.14610689206E+03 -0.16123007237E+03  0.36216084671E+03  0.50400001928E-02 0. -1.
</event>
<event>
 5   0  0.1324721E-03  0.1264018E+04  0.7818609E-02  0.9058597E-01
       -1   -1    0    0    0  501  0.00000000000E+00  0.00000000000E+00  0.29811376458E+03  0.29811376462E+03  0.50400001928E-02 0. -1.
        1   -1    0    0  501    0  0.00000000000E+00  0.00000000000E+00 -0.13398747301E+04  0.13398747301E+04  0.50400001928E-02 0.  1.
    10030    2    1    2    0    0  0.00000000000E+00  0.00000000000E+00 -0.10417609655E+04  0.16379884947E+04  0.12640175630E+04 0.  0.
        1    1    3    3  502    0  0.38342280221E+03  0.36254064549E+03 -0.70140691664E+02  0.53232366239E+03  0.50400001928E-02 0. -1.
       -1    1    3    3    0  502 -0.38342280221E+03 -0.36254064549E+03 -0.97162027383E+03  0.11056648323E+04  0.50400001928E-02 0.  1.
</event>
<event>
 5   0  0.2478236E-03  0.1307094E+04  0.7818609E-02  0.9023958E-01
       -2   -1    0    0    0  501  0.00000000000E+00  0.00000000000E+00  0.31997181527E+03  0.31997181528E+03  0.25500000920E-02 0. -1.
        2   -1    0    0  501    0  0.00000000000E+00  0.00000000000E+00 -0.13348797025E+04  0.13348797025E+04  0.25500000920E-02 0.  1.
    10030    2    1    2    0    0  0.00000000000E+00  0.00000000000E+00 -0.10149078872E+04  0.16548515177E+04  0.13070943066E+04 0.  0.
        3    1    3    3  502    0  0.96370781728E+02  0.54015826448E+03 -0.57932519078E+02  0.55173767791E+03  0.10100000352E+00 0. -1.
       -3    1    3    3    0  502 -0.96370781728E+02 -0.54015826448E+03 -0.95697536812E+03  0.11031138398E+04  0.10100000352E+00 0.  1.
</event>
<event>
 5   0  0.1310461E-03  0.1297790E+04  0.7818609E-02  0.9031320E-01
       -1   -1    0    0    0  501  0.00000000000E+00  0.00000000000E+00  0.79242966486E+03  0.79242966487E+03  0.50400001928E-02 0. -1.
        1   -1    0    0  501    0  0.00000000000E+00  0.00000000000E+00 -0.53135881667E+03  0.53135881670E+03  0.50400001928E-02 0.  1.
    10030    2    1    2    0    0  0.00000000000E+00  0.00000000000E+00  0.26107084818E+03  0.13237884816E+04  0.12977896425E+04 0.  0.
        4    1    3    3  502    0 -0.37260243646E+03 -0.78301601281E+02 -0.40544241891E+03  0.55619140983E+03  0.12699999809E+01 0.  1.
       -4    1    3    3    0  502  0.37260243646E+03  0.78301601281E+02  0.66651326709E+03  0.76759707173E+03  0.12699999809E+01 0. -1.
</event>
<event>
 5   0  0.1324721E-03  0.1315156E+04  0.7818609E-02  0.9017632E-01
        1   -1    0    0  501    0  0.00000000000E+00  0.00000000000E+00  0.82228221865E+03  0.82228221867E+03  0.50400001928E-02 0.  1.
       -1   -1    0    0    0  501  0.00000000000E+00  0.00000000000E+00 -0.52586421753E+03  0.52586421755E+03  0.50400001928E-02 0. -1.
    10030    2    1    2    0    0  0.00000000000E+00  0.00000000000E+00  0.29641800113E+03  0.13481464362E+04  0.13151559535E+04 0.  0.
        1    1    3    3  502    0 -0.38769200673E+03  0.51721387994E+03  0.27204292330E+03  0.70130067862E+03  0.50400001928E-02 0. -1.
       -1    1    3    3    0  502  0.38769200673E+03 -0.51721387994E+03  0.24375077823E+02  0.64684575760E+03  0.50400001928E-02 0.  1.
</event>
<event>
 5   0  0.2312105E-03  0.1312282E+04  0.7818609E-02  0.9019882E-01
       -2   -1    0    0    0  501  0.00000000000E+00  0.00000000000E+00  0.32041109634E+03  0.32041109635E+03  0.25500000920E-02 0.  1.
        2   -1    0    0  501    0  0.00000000000E+00  0.00000000000E+00 -0.13436518658E+04  0.13436518658E+04  0.25500000920E-02 0. -1.
    10030    2    1    2    0    0  0.00000000000E+00  0.00000000000E+00 -0.10232407694E+04  0.16640629621E+04  0.13122819322E+04 0.  0.
        5    1    3    3  502    0 -0.15798060930E+03 -0.32456333926E+03  0.18316022740E+03  0.40480735295E+03  0.46999998093E+01 0.  1.
       -5    1    3    3    0  502  0.15798060930E+03  0.32456333926E+03 -0.12064009968E+04  0.12592556092E+04  0.46999998093E+01 0. -1.
</event>
<event>
 5   0  0.1332630E-03  0.1288567E+04  0.7818609E-02  0.9038681E-01
        1   -1    0    0  501    0  0.00000000000E+00  0.00000000000E+00  0.51167811229E+03  0.51167811231E+03  0.50400001928E-02 0. -1.
       -1   -1    0    0    0  501  0.00000000000E+00  0.00000000000E+00 -0.81125445318E+03  0.81125445319E+03  0.50400001928E-02 0.  1.
    10030    2    1    2    0    0  0.00000000000E+00  0.00000000000E+00 -0.29957634089E+03  0.13229325655E+04  0.12885668740E+04 0.  0.
        5    1    3    3  502    0 -0.15754336948E+03  0.14770979744E+03  0.47339353757E+03  0.52034760395E+03  0.46999998093E+01 0. -1.
       -5    1    3    3    0  502  0.15754336948E+03 -0.14770979744E+03 -0.77296987845E+03  0.80258496156E+03  0.46999998093E+01 0.  1.
</event>
<event>
 5   0  0.2478236E-03  0.1294238E+04  0.7818609E-02  0.9034147E-01
        2   -1    0    0  501    0  0.00000000000E+00  0.00000000000E+00  0.80088414033E+03  0.80088414034E+03  0.25500000920E-02 0.  1.
       -2   -1    0    0    0  501  0.00000000000E+00  0.00000000000E+00 -0.52287579123E+03  0.52287579124E+03  0.25500000920E-02 0. -1.
    10030    2    1    2    0    0  0.00000000000E+00  0.00000000000E+00  0.27800834910E+03  0.13237599316E+04  0.12942378894E+04 0.  0.
        3    1    3    3  502    0  0.22660870304E+02  0.36686719558E+03 -0.40573992625E+03  0.54747598321E+03  0.10100000352E+00 0. -1.
       -3    1    3    3    0  502 -0.22660870304E+02 -0.36686719558E+03  0.68374827535E+03  0.77628394836E+03  0.10100000352E+00 0.  1.
</event>
<event>
 5   0  0.1346593E-03  0.1125432E+04  0.7818609E-02  0.9180752E-01
        1   -1    0    0  501    0  0.00000000000E+00  0.00000000000E+00  0.28996733351E+03  0.28996733355E+03  0.50400001928E-02 0. -1.
       -1   -1    0    0    0  501  0.00000000000E+00  0.00000000000E+00 -0.10920180282E+04  0.10920180282E+04  0.50400001928E-02 0.  1.
    10030    2    1    2    0    0  0.00000000000E+00  0.00000000000E+00 -0.80205069467E+03  0.13819853617E+04  0.11254324605E+04 0.  0.
        2    1    3    3  502    0 -0.16720994108E+03 -0.27160450139E+03 -0.97030258916E+03  0.10213791089E+04  0.25500000920E-02 0.  1.
       -2    1    3    3    0  502  0.16720994108E+03  0.27160450139E+03  0.16825189449E+03  0.36060625283E+03  0.25500000920E-02 0. -1.
</event>
<event>
 5   0  0.1310461E-03  0.1354665E+04  0.7818609E-02  0.8987305E-01
        1   -1    0    0  501    0  0.00000000000E+00  0.00000000000E+00  0.10236494117E+04  0.10236494117E+04  0.50400001928E-02 0. -1.
       -1   -1    0    0    0  501  0.00000000000E+00  0.00000000000E+00 -0.44817987465E+03  0.44817987468E+03  0.50400001928E-02 0.  1.
    10030    2    1    2    0    0  0.00000000000E+00  0.00000000000E+00  0.57546953705E+03  0.14718292864E+04  0.13546646302E+04 0.  0.
        4    1    3    3  502    0 -0.38467569443E+03 -0.57990395217E+02 -0.31469337502E+03  0.50037167087E+03  0.12699999809E+01 0.  1.
       -4    1    3    3    0  502  0.38467569443E+03  0.57990395217E+02  0.89016291207E+03  0.97145761552E+03  0.12699999809E+01 0. -1.
</event>
<event>
 5   0  0.1324721E-03  0.1327840E+04  0.7818609E-02  0.9007775E-01
        1   -1    0    0  501    0  0.00000000000E+00  0.00000000000E+00  0.33859503702E+03  0.33859503706E+03  0.50400001928E-02 0.  1.
       -1   -1    0    0    0  501  0.00000000000E+00  0.00000000000E+00 -0.13018199124E+04  0.13018199124E+04  0.50400001928E-02 0. -1.
    10030    2    1    2    0    0  0.00000000000E+00  0.00000000000E+00 -0.96322487539E+03  0.16404149495E+04  0.13278399926E+04 0.  0.
        1    1    3    3  502    0  0.19708389520E+03 -0.57968029281E+03 -0.16442827615E+03  0.63396211373E+03  0.50400001928E-02 0. -1.
       -1    1    3    3    0  502 -0.19708389520E+03  0.57968029281E+03 -0.79879659923E+03  0.10064528357E+04  0.50400001928E-02 0.  1.
</event>
<event>
 5   0  0.1310461E-03  0.1297298E+04  0.7818609E-02  0.9031711E-01
       -1   -1    0    0    0  501  0.00000000000E+00  0.00000000000E+00  0.35372107547E+03  0.35372107551E+03  0.50400001928E-02 0.  1.
        1   -1    0    0  501    0  0.00000000000E+00  0.00000000000E+00 -0.11894831844E+04  0.11894831844E+04  0.50400001928E-02 0. -1.
    10030    2    1    2    0    0  0.00000000000E+00  0.00000000000E+00 -0.83576210891E+03  0.15432042599E+04  0.12972976085E+04 0.  0.
        4    1    3    3  502    0 -0.17395505582E+03 -0.58975587466E+03 -0.17215468755E+03  0.63852267186E+03  0.12699999809E+01 0.  1.
       -4    1    3    3    0  502  0.17395505582E+03  0.58975587466E+03 -0.66360742137E+03  0.90468158804E+03  0.12699999809E+01 0. -1.
</event>
<event>
 5   0  0.2361043E-03  0.1302130E+04  0.7818609E-02  0.9027877E-01
       -2   -1    0    0    0  501  0.00000000000E+00  0.00000000000E+00  0.22281905328E+03  0.22281905330E+03  0.25500000920E-02 0. -1.
        2   -1    0    0  501    0  0.00000000000E+00  0.00000000000E+00 -0.19023772482E+04  0.19023772482E+04  0.25500000920E-02 0.  1.
    10030    2    1    2    0    0  0.00000000000E+00  0.00000000000E+00 -0.16795581949E+04  0.21251963015E+04  0.13021304043E+04 0.  0.
        2    1    3    3  502    0 -0.43068634135E+03  0.38798821143E+03 -0.35600683549E+03  0.68026939058E+03  0.25500000920E-02 0.  1.
       -2    1    3    3    0  502  0.43068634135E+03 -0.38798821143E+03 -0.13235513594E+04  0.14449269109E+04  0.25500000920E-02 0. -1.
</event>
<event>
 5   0  0.2334946E-03  0.1329260E+04  0.7818609E-02  0.9006678E-01
        2   -1    0    0  501    0  0.00000000000E+00  0.00000000000E+00  0.10494491561E+04  0.10494491561E+04  0.25500000920E-02 0. -1.
       -2   -1    0    0    0  501  0.00000000000E+00  0.00000000000E+00 -0.42091907288E+03  0.42091907289E+03  0.25500000920E-02 0.  1.
    10030    2    1    2    0    0  0.00000000000E+00  0.00000000000E+00  0.62853008319E+03  0.14703682290E+04  0.13292601940E+04 0.  0.
        1    1    3    3  502    0 -0.23999919727E+03 -0.76407956693E+02 -0.36608376377E+03  0.44435921579E+03  0.50400001928E-02 0.  1.
       -1    1    3    3    0  502  0.23999919727E+03  0.76407956693E+02  0.99461384696E+03  0.10260090132E+04  0.50400001928E-02 0. -1.
</event>
<event>
 5   0  0.2478236E-03  0.1289846E+04  0.7818609E-02  0.9037657E-01
        2   -1    0    0  501    0  0.00000000000E+00  0.00000000000E+00  0.10103236319E+04  0.10103236319E+04  0.25500000920E-02 0. -1.
       -2   -1    0    0    0  501  0.00000000000E+00  0.00000000000E+00 -0.41167540895E+03  0.41167540895E+03  0.25500000920E-02 0.  1.
    10030    2    1    2    0    0  0.00000000000E+00  0.00000000000E+00  0.59864822292E+03  0.14219990408E+04  0.12898455634E+04 0.  0.
        3    1    3    3  502    0 -0.32884691107E+03  0.40033813746E+03 -0.12410323148E+03  0.53274059118E+03  0.10100000352E+00 0.  1.
       -3    1    3    3    0  502  0.32884691107E+03 -0.40033813746E+03  0.72275145441E+03  0.88925844965E+03  0.10100000352E+00 0. -1.
</event>
<event>
 5   0  0.2334946E-03  0.1373024E+04  0.7818609E-02  0.8973580E-01
       -2   -1    0    0    0  501  0.00000000000E+00  0.00000000000E+00  0.16496319100E+04  0.16496319100E+04  0.25500000920E-02 0.  1.
        2   -1    0    0  501    0  0.00000000000E+00  0.00000000000E+00 -0.28569913232E+03  0.28569913233E+03  0.25500000920E-02 0. -1.
    10030    2    1    2    0    0  0.00000000000E+00  0.00000000000E+00  0.13639327777E+04  0.19353310423E+04  0.13730235327E+04 0.  0.
        1    1    3    3  502    0 -0.44972474689E+03 -0.46539370752E+03  0.35913949269E+03  0.74015189401E+03  0.50400001928E-02 0. -1.
       -1    1    3    3    0  502  0.44972474689E+03  0.46539370752E+03  0.10047932850E+04  0.11951791483E+04  0.50400001928E-02 0.  1.
</event>
<event>
 5   0  0.2401211E-03  0.1299229E+04  0.7818609E-02  0.9030177E-01
       -2   -1    0    0    0  501  0.00000000000E+00  0.00000000000E+00  0.44810101335E+03  0.44810101335E+03  0.25500000920E-02 0.  1.
        2   -1    0    0  501    0  0.00000000000E+00  0.00000000000E+00 -0.94174951138E+03  0.94174951138E+03  0.25500000920E-02 0. -1.
    10030    2    1    2    0    0  0.00000000000E+00  0.00000000000E+00 -0.49364849803E+03  0.13898505247E+04  0.12992288642E+04 0.  0.
        4    1    3    3  502    0 -0.34418414236E+03 -0.38202937321E+02  0.34112508870E+03  0.48609682915E+03  0.12699999809E+01 0.  1.
       -4    1    3    3    0  502  0.34418414236E+03  0.38202937321E+02 -0.83477358673E+03  0.90375369558E+03  0.12699999809E+01 0. -1.
</event>
<event>
 5   0  0.1387622E-03  0.1304445E+04  0.7818609E-02  0.9026048E-01
        1   -1    0    0  501    0  0.00000000000E+00  0.00000000000E+00  0.11775249448E+04  0.11775249448E+04  0.50400001928E-02 0. -1.
       -1   -1    0    0    0  501  0.00000000000E+00  0.00000000000E+00 -0.36126134218E+03  0.36126134222E+03  0.50400001928E-02 0.  1.
    10030    2    1    2    0    0  0.00000000000E+00  0.00000000000E+00  0.81626360264E+03  0.15387862870E+04  0.13044450806E+04 0.  0.
        3    1    3    3  502    0 -0.92372581075E+02 -0.62260343869E+03  0.20646199316E+03  0.66241550437E+03  0.10100000352E+00 0.  1.
       -3    1    3    3    0  502  0.92372581075E+02  0.62260343869E+03  0.60980160948E+03  0.87637078268E+03  0.10100000352E+00 0. -1.
</event>
<event>
 5   0  0.1324721E-03  0.1312335E+04  0.7818609E-02  0.9019840E-01
       -1   -1    0    0    0  501  0.00000000000E+00  0.00000000000E+00  0.31363740434E+03  0.31363740438E+03  0.50400001928E-02 0.  1.
        1   -1    0    0  501    0  0.00000000000E+00  0.00000000000E+00 -0.13727813657E+04  0.13727813657E+04  0.50400001928E-02 0. -1.
    10030    2    1    2    0    0  0.00000000000E+00  0.00000000000E+00 -0.10591439614E+04  0.16864187701E+04  0.13123346895E+04 0.  0.
        1    1    3    3  502    0 -0.55975330445E+03  0.25868513393E+03 -0.24132518957E+03  0.66217792738E+03  0.50400001928E-02 0.  1.
       -1    1    3    3    0  502  0.55975330445E+03 -0.25868513393E+03 -0.81781877180E+03  0.10242408427E+04  0.50400001928E-02 0. -1.
</event>
<event>
 5   0  0.1332630E-03  0.1290907E+04  0.7818609E-02  0.9036808E-01
        1   -1    0    0  501    0  0.00000000000E+00  0.00000000000E+00  0.93491637075E+03  0.93491637077E+03  0.50400001928E-02 0.  1.
       -1   -1    0    0    0  501  0.00000000000E+00  0.00000000000E+00 -0.44561198509E+03  0.44561198512E+03  0.50400001928E-02 0. -1.
    10030    2    1    2    0    0  0.00000000000E+00  0.00000000000E+00  0.48930438566E+03  0.13805283559E+04  0.12909065650E+04 0.  0.
        5    1    3    3  502    0  0.22515599826E+03  0.34717834398E+03  0.77437936140E+03  0.87801680590E+03  0.46999998093E+01 0.  1.
       -5    1    3    3    0  502 -0.22515599826E+03 -0.34717834398E+03 -0.28507497574E+03  0.50251154999E+03  0.46999998093E+01 0. -1.
</event>
<event>
 5   0  0.1324721E-03  0.1300293E+04  0.7818609E-02  0.9029333E-01
        1   -1    0    0  501    0  0.00000000000E+00  0.00000000000E+00  0.37686571700E+03  0.37686571703E+03  0.50400001928E-02 0.  1.
       -1   -1    0    0    0  501  0.00000000000E+00  0.00000000000E+00 -0.11215949731E+04  0.11215949732E+04  0.50400001928E-02 0. -1.
    10030    2    1    2    0    0  0.00000000000E+00  0.00000000000E+00 -0.74472925615E+03  0.14984606902E+04  0.13002933419E+04 0.  0.
        1    1    3    3  502    0 -0.37118930616E+03  0.12797602631E+03 -0.96953946079E+03  0.10460239626E+04  0.50400001928E-02 0. -1.
       -1    1    3    3    0  502  0.37118930616E+03 -0.12797602631E+03  0.22481020464E+03  0.45243672757E+03  0.50400001928E-02 0.  1.
</event>
<event>
 5   0  0.1310461E-03  0.1294279E+04  0.7818609E-02  0.9034115E-01
        1   -1    0    0  501    0  0.00000000000E+00  0.00000000000E+00  0.29911681968E+03  0.29911681972E+03  0.50400001928E-02 0.  1.
       -1   -1    0    0    0  501  0.00000000000E+00  0.00000000000E+00 -0.14000861201E+04  0.14000861201E+04  0.50400001928E-02 0. -1.
    10030    2    1    2    0    0  0.00000000000E+00  0.00000000000E+00 -0.11009693004E+04  0.16992029398E+04  0.12942786525E+04 0.  0.
        4    1    3    3  502    0  0.58855141095E+03 -0.49064299165E+01 -0.90366727050E+03  0.10784400702E+04  0.12699999809E+01 0. -1.
       -4    1    3    3    0  502 -0.58855141095E+03  0.49064299165E+01 -0.19730202992E+03  0.62076286961E+03  0.12699999809E+01 0.  1.
</event>
<event>
 5   0  0.1387622E-03  0.1301110E+04  0.7818609E-02  0.9028685E-01
       -1   -1    0    0    0  501  0.00000000000E+00  0.00000000000E+00  0.30317820311E+03  0.30317820316E+03  0.50400001928E-02 0. -1.
        1   -1    0    0  501    0  0.00000000000E+00  0.00000000000E+00 -0.13959515366E+04  0.13959515367E+04  0.50400001928E-02 0.  1.
    10030    2    1    2    0    0  0.00000000000E+00  0.00000000000E+00 -0.10927733335E+04  0.16991297398E+04  0.13011104159E+04 0.  0.
        3    1    3    3  502    0  0.31354366392E+03 -0.13763433541E+03  0.17596929892E+03  0.38499096591E+03  0.10100000352E+00 0. -1.
       -3    1    3    3    0  502 -0.31354366392E+03  0.13763433541E+03 -0.12687426325E+04  0.13141387739E+04  0.10100000352E+00 0.  1.
</event>
<event>
 5   0  0.2401211E-03  0.1311408E+04  0.7818609E-02  0.9020567E-01
        2   -1    0    0  501    0  0.00000000000E+00  0.00000000000E+00  0.92015050082E+03  0.92015050082E+03  0.25500000920E-02 0. -1.
       -2   -1    0    0    0  501  0.00000000000E+00  0.00000000000E+00 -0.46725836112E+03  0.46725836113E+03  0.25500000920E-02 0.  1.
    10030    2    1    2    0    0  0.00000000000E+00  0.00000000000E+00  0.45289213970E+03  0.13874088619E+04  0.13114084261E+04 0.  0.
        4    1    3    3  502    0  0.42975656844E+03 -0.20849469836E+03  0.70168459406E+03  0.84883663317E+03  0.12699999809E+01 0. -1.
       -4    1    3    3    0  502 -0.42975656844E+03  0.20849469836E+03 -0.24879245436E+03  0.53857222878E+03  0.12699999809E+01 0.  1.
</event>
<event>
 5   0  0.1346593E-03  0.1311276E+04  0.7818609E-02  0.9020671E-01
        1   -1    0    0  501    0  0.00000000000E+00  0.00000000000E+00  0.50466357427E+03  0.50466357429E+03  0.50400001928E-02 0. -1.
       -1   -1    0    0    0  501  0.00000000000E+00  0.00000000000E+00 -0.85177791515E+03  0.85177791516E+03  0.50400001928E-02 0.  1.
    10030    2    1    2    0    0  0.00000000000E+00  0.00000000000E+00 -0.34711434088E+03  0.13564414895E+04  0.13112761527E+04 0.  0.
        2    1    3    3  502    0 -0.22991264382E+03 -0.57551971188E+03 -0.39488590343E+03  0.73485892475E+03  0.25500000920E-02 0.  1.
       -2    1    3    3    0  502  0.22991264382E+03  0.57551971188E+03  0.47771562557E+02  0.62158256470E+03  0.25500000920E-02 0. -1.
</event>
<event>
 5   0  0.1387622E-03  0.1293914E+04  0.7818609E-02  0.9034405E-01
       -1   -1    0    0    0  501  0.00000000000E+00  0.00000000000E+00  0.26485704486E+03  0.26485704491E+03  0.50400001928E-02 0.  1.
        1   -1    0    0  501    0  0.00000000000E+00  0.00000000000E+00 -0.15802994165E+04  0.15802994165E+04  0.50400001928E-02 0. -1.
    10030    2    1    2    0    0  0.00000000000E+00  0.00000000000E+00 -0.13154423716E+04  0.18451564614E+04  0.12939141139E+04 0.  0.
        3    1    3    3  502    0  0.62179925571E+03  0.14686745258E+03 -0.51265098696E+03  0.81915530131E+03  0.10100000352E+00 0.  1.
       -3    1    3    3    0  502 -0.62179925571E+03 -0.14686745258E+03 -0.80279138468E+03  0.10260011601E+04  0.10100000352E+00 0. -1.
</event>
<event>
 5   0  0.2312105E-03  0.1300878E+04  0.7818609E-02  0.9028869E-01
       -2   -1    0    0    0  501  0.00000000000E+00  0.00000000000E+00  0.22560519498E+03  0.22560519499E+03  0.25500000920E-02 0. -1.
        2   -1    0    0  501    0  0.00000000000E+00  0.00000000000E+00 -0.18752702895E+04  0.18752702895E+04  0.25500000920E-02 0.  1.
    10030    2    1    2    0    0  0.00000000000E+00  0.00000000000E+00 -0.16496650945E+04  0.21008754845E+04  0.13008777334E+04 0.  0.
        5    1    3    3  502    0 -0.47501634107E+02  0.62369806565E+03 -0.53687449590E+03  0.82432517655E+03  0.46999998093E+01 0.  1.
       -5    1    3    3    0  502  0.47501634107E+02 -0.62369806565E+03 -0.11127905986E+04  0.12765503079E+04  0.46999998093E+01 0. -1.
</event>
<event>
 5   0  0.1346593E-03  0.1290493E+04  0.7818609E-02  0.9037138E-01
       -1   -1    0    0    0  501  0.00000000000E+00  0.00000000000E+00  0.84538178194E+03  0.84538178196E+03  0.50400001928E-02 0. -1.
        1   -1    0    0  501    0  0.00000000000E+00  0.00000000000E+00 -0.49249118528E+03  0.49249118530E+03  0.50400001928E-02 0.  1.
    10030    2    1    2    0    0  0.00000000000E+00  0.00000000000E+00  0.35289059667E+03  0.13378729673E+04  0.12904930466E+04 0.  0.
        2    1    3    3  502    0 -0.21580391679E+03 -0.31931006453E+03 -0.36006108988E+03  0.52742225613E+03  0.25500000920E-02 0.  1.
       -2    1    3    3    0  502  0.21580391679E+03  0.31931006453E+03  0.71295168654E+03  0.81045071113E+03  0.25500000920E-02 0. -1.
</event>
<event>
 5   0  0.1387622E-03  0.1312291E+04  0.7818609E-02  0.9019875E-01
       -1   -1    0    0    0  501  0.00000000000E+00  0.00000000000E+00  0.11514116998E+04  0.11514116999E+04  0.50400001928E-02 0.  1.
        1   -1    0    0  501    0  0.00000000000E+00  0.00000000000E+00 -0.37391221556E+03  0.37391221559E+03  0.50400001928E-02 0. -1.
    10030    2    1    2    0    0  0.00000000000E+00  0.00000000000E+00  0.77749948428E+03  0.15253239154E+04  0.13122909734E+04 0.  0.
        3    1    3    3  502    0 -0.59070024919E+03 -0.84889199041E+02  0.71719504610E+02  0.60106294017E+03  0.10100000352E+00 0. -1.
       -3    1    3    3    0  502  0.59070024919E+03  0.84889199041E+02  0.70577997967E+03  0.92426097527E+03  0.10100000352E+00 0.  1.
</event>
<event>
 5   0  0.1332630E-03  0.1123731E+04  0.7818609E-02  0.9182366E-01
        1   -1    0    0  501    0  0.00000000000E+00  0.00000000000E+00  0.54784682295E+03  0.54784682298E+03  0.50400001928E-02 0.  1.
       -1   -1    0    0    0  501  0.00000000000E+00  0.00000000000E+00 -0.57624249102E+03  0.57624249104E+03  0.50400001928E-02 0. -1.
    10030    2    1    2    0    0  0.00000000000E+00  0.00000000000E+00 -0.28395668065E+02  0.11240893140E+04  0.11237306047E+04 0.  0.
        5    1    3    3  502    0 -0.42940617308E+03  0.36134700355E+03 -0.40837323152E+02  0.56271759828E+03  0.46999998093E+01 0.  1.
       -5    1    3    3    0  502  0.42940617308E+03 -0.36134700355E+03  0.12441655087E+02  0.56137171574E+03  0.46999998093E+01 0. -1.
</event>
<event>
 5   0  0.2361043E-03  0.1327850E+04  0.7818609E-02  0.9007766E-01
       -2   -1    0    0    0  501  0.00000000000E+00  0.00000000000E+00  0.34432375680E+03  0.34432375681E+03  0.25500000920E-02 0.  1.
        2   -1    0    0  501    0  0.00000000000E+00  0.00000000000E+00 -0.12801809721E+04  0.12801809721E+04  0.25500000920E-02 0. -1.
    10030    2    1    2    0    0  0.00000000000E+00  0.00000000000E+00 -0.93585721535E+03  0.16245047290E+04  0.13278504761E+04 0.  0.
        2    1    3    3  502    0 -0.26099814811E+02 -0.38611775625E+03 -0.11279220814E+04  0.11924664959E+04  0.25500000920E-02 0. -1.
       -2    1    3    3    0  502  0.26099814811E+02  0.38611775625E+03  0.19206486610E+03  0.43203823305E+03  0.25500000920E-02 0.  1.
</event>
<event>
 5   0  0.2361043E-03  0.1285427E+04  0.7818609E-02  0.9041202E-01
        2   -1    0    0  501    0  0.00000000000E+00  0.00000000000E+00  0.20734646791E+04  0.20734646791E+04  0.25500000920E-02 0. -1.
       -2   -1    0    0    0  501  0.00000000000E+00  0.00000000000E+00 -0.19922241996E+03  0.19922241997E+03  0.25500000920E-02 0.  1.
    10030    2    1    2    0    0  0.00000000000E+00  0.00000000000E+00  0.18742422591E+04  0.22726870990E+04  0.12854270124E+04 0.  0.
        2    1    3    3  502    0  0.32686502612E+03  0.10680998409E+03  0.18971387183E+04  0.19280519792E+04  0.25500000920E-02 0. -1.
       -2    1    3    3    0  502 -0.32686502612E+03 -0.10680998409E+03 -0.22896459161E+02  0.34463511987E+03  0.25500000920E-02 0.  1.
</event>
<event>
 5   0  0.2312105E-03  0.1212563E+04  0.7818609E-02  0.9101930E-01
        2   -1    0    0  501    0  0.00000000000E+00  0.00000000000E+00  0.11781777088E+04  0.11781777089E+04  0.25500000920E-02 0. -1.
       -2   -1    0    0    0  501  0.00000000000E+00  0.00000000000E+00 -0.31198819802E+03  0.31198819803E+03  0.25500000920E-02 0.  1.
    10030    2    1    2    0    0  0.00000000000E+00  0.00000000000E+00  0.86618951083E+03  0.14901659069E+04  0.12125634669E+04 0.  0.
        5    1    3    3  502    0  0.58034163145E+03 -0.59780518428E+02  0.23046769013E+03  0.62730181394E+03  0.46999998093E+01 0.  1.
       -5    1    3    3    0  502 -0.58034163145E+03  0.59780518428E+02  0.63572182070E+03  0.86286409294E+03  0.46999998093E+01 0. -1.
</event>
<event>
 5   0  0.2401211E-03  0.1267586E+04  0.7818609E-02  0.9055672E-01
        2   -1    0    0  501    0  0.00000000000E+00  0.00000000000E+00  0.10613772009E+04  0.10613772009E+04  0.25500000920E-02 0. -1.
       -2   -1    0    0    0  501  0.00000000000E+00  0.00000000000E+00 -0.37846474676E+03  0.37846474676E+03  0.25500000920E-02 0.  1.
    10030    2    1    2    0    0  0.00000000000E+00  0.00000000000E+00  0.68291245414E+03  0.14398419477E+04  0.12675864524E+04 0.  0.
        4    1    3    3  502    0  0.13752336029E+03  0.60578936327E+03  0.48423033902E+03  0.78763828082E+03  0.12699999809E+01 0.  1.
       -4    1    3    3    0  502 -0.13752336029E+03 -0.60578936327E+03  0.19868211512E+03  0.65220366685E+03  0.12699999809E+01 0. -1.
</event>
<event>
 5   0  0.1324721E-03  0.1317258E+04  0.7818609E-02  0.9015990E-01
       -1   -1    0    0    0  501  0.00000000000E+00  0.00000000000E+00  0.15051952321E+04  0.15051952321E+04  0.50400001928E-02 0.  1.
        1   -1    0    0  501    0  0.00000000000E+00  0.00000000000E+00 -0.28819675612E+03  0.28819675616E+03  0.50400001928E-02 0. -1.
    10030    2    1    2    0    0  0.00000000000E+00  0.00000000000E+00  0.12169984760E+04  0.17933919883E+04  0.13172583395E+04 0.  0.
        1    1    3    3  502    0 -0.35061015200E+03  0.19702767625E+02 -0.15011113922E+03  0.38190186158E+03  0.50400001928E-02 0. -1.
       -1    1    3    3    0  502  0.35061015200E+03 -0.19702767625E+02  0.13671096152E+04  0.14114901267E+04  0.50400001928E-02 0.  1.
</event>
<event>
 5   0  0.2401211E-03  0.1320810E+04  0.7818609E-02  0.9013224E-01
       -2   -1    0    0    0  501  0.00000000000E+00  0.00000000000E+00  0.75859531491E+03  0.75859531492E+03  0.25500000920E-02 0. -1.
        2   -1    0    0  501    0  0.00000000000E+00  0.00000000000E+00 -0.57492394324E+03  0.57492394324E+03  0.25500000920E-02 0.  1.
    10030    2    1    2    0    0  0.00000000000E+00  0.00000000000E+00  0.18367137167E+03  0.13335192582E+04  0.13208097664E+04 0.  0.
        4    1    3    3  502    0 -0.34278780062E+03  0.60779642296E+02 -0.47475538995E+03  0.58872059107E+03  0.12699999809E+01 0.  1.
       -4    1    3    3    0  502  0.34278780062E+03 -0.60779642296E+02  0.65842676162E+03  0.74479866708E+03  0.12699999809E+01 0. -1.
</event>
<event>
 5   0  0.1310461E-03  0.1287951E+04  0.7818609E-02  0.9039175E-01
       -1   -1    0    0    0  501  0.00000000000E+00  0.00000000000E+00  0.84001188228E+03  0.84001188230E+03  0.50400001928E-02 0. -1.
        1   -1    0    0  501    0  0.00000000000E+00  0.00000000000E+00 -0.49368845447E+03  0.49368845450E+03  0.50400001928E-02 0.  1.
    10030    2    1    2    0    0  0.00000000000E+00  0.00000000000E+00  0.34632342781E+03  0.13337003368E+04  0.12879505704E+04 0.  0.
        4    1    3    3  502    0  0.55785879709E+02  0.31545784138E+02 -0.49037671571E+03  0.49454841733E+03  0.12699999809E+01 0.  1.
       -4    1    3    3    0  502 -0.55785879709E+02 -0.31545784138E+02  0.83670014352E+03  0.83915191946E+03  0.12699999809E+01 0. -1.
</event>
<event>
 5   0  0.2334946E-03  0.1307157E+04  0.7818609E-02  0.9023909E-01
       -2   -1    0    0    0  501  0.00000000000E+00  0.00000000000E+00  0.14811653931E+03  0.14811653933E+03  0.25500000920E-02 0.  1.
        2   -1    0    0  501    0  0.00000000000E+00  0.00000000000E+00 -0.28839792768E+04  0.28839792768E+04  0.25500000920E-02 0. -1.
    10030    2    1    2    0    0  0.00000000000E+00  0.00000000000E+00 -0.27358627375E+04  0.30320958162E+04  0.13071572667E+04 0.  0.
        1    1    3    3  502    0  0.10498899497E+03 -0.48213857382E+03 -0.23620806764E+04  0.24130697079E+04  0.50400001928E-02 0.  1.
       -1    1    3    3    0  502 -0.10498899497E+03  0.48213857382E+03 -0.37378206111E+03  0.61902610823E+03  0.50400001928E-02 0. -1.
</event>
<event>
 5   0  0.1387622E-03  0.1331711E+04  0.7818609E-02  0.9004789E-01
       -1   -1    0    0    0  501  0.00000000000E+00  0.00000000000E+00  0.34011389667E+03  0.34011389671E+03  0.50400001928E-02 0. -1.
        1   -1    0    0  501    0  0.00000000000E+00  0.00000000000E+00 -0.13035742780E+04  0.13035742780E+04  0.50400001928E-02 0.  1.
    10030    2    1    2    0    0  0.00000000000E+00  0.00000000000E+00 -0.96346038131E+03  0.16436881747E+04  0.13317112710E+04 0.  0.
        3    1    3    3  502    0 -0.62721575248E+03  0.21195162034E+03 -0.56935995863E+03  0.87320894534E+03  0.10100000352E+00 0.  1.
       -3    1    3    3    0  502  0.62721575248E+03 -0.21195162034E+03 -0.39410042268E+03  0.77047922937E+03  0.10100000352E+00 0. -1.
</event>
<event>
 5   0  0.2478236E-03  0.1416754E+04  0.7818609E-02  0.8941779E-01
       -2   -1    0    0    0  501  0.00000000000E+00  0.00000000000E+00  0.75503475296E+03  0.75503475297E+03  0.25500000920E-02 0.  1.
        2   -1    0    0  501    0  0.00000000000E+00  0.00000000000E+00 -0.66460273657E+03  0.66460273658E+03  0.25500000920E-02 0. -1.
    10030    2    1    2    0    0  0.00000000000E+00  0.00000000000E+00  0.90432016391E+02  0.14196374895E+04  0.14167542667E+04 0.  0.
        3    1    3    3  502    0 -0.18450897489E+03  0.36434993734E+03 -0.53475694570E+03  0.67287401483E+03  0.10100000352E+00 0. -1.
       -3    1    3    3    0  502  0.18450897489E+03 -0.36434993734E+03  0.62518896209E+03  0.74676347472E+03  0.10100000352E+00 0.  1.
</event>
<event>
 5   0  0.1332630E-03  0.1205270E+04  0.7818609E-02  0.9108256E-01
       -1   -1    0    0    0  501  0.00000000000E+00  0.00000000000E+00  0.10774349492E+04  0.10774349493E+04  0.50400001928E-02 0.  1.
        1   -1    0    0  501    0  0.00000000000E+00  0.00000000000E+00 -0.33706805052E+03  0.33706805056E+03  0.50400001928E-02 0. -1.
    10030    2    1    2    0    0  0.00000000000E+00  0.00000000000E+00  0.74036689872E+03  0.14145029998E+04  0.12052699249E+04 0.  0.
        5    1    3    3  502    0 -0.13799579687E+02 -0.56176674498E+03  0.11474169392E+03  0.57355039054E+03  0.46999998093E+01 0. -1.
       -5    1    3    3    0  502  0.13799579687E+02  0.56176674498E+03  0.62562520480E+03  0.84095260928E+03  0.46999998093E+01 0.  1.
</event>
<event>
 5   0  0.2334946E-03  0.1297684E+04  0.7818609E-02  0.9031404E-01
        2   -1    0    0  501    0  0.00000000000E+00  0.00000000000E+00  0.56022989311E+03  0.56022989311E+03  0.25500000920E-02 0. -1.
       -2   -1    0    0    0  501  0.00000000000E+00  0.00000000000E+00 -0.75146990516E+03  0.75146990516E+03  0.25500000920E-02 0.  1.
    10030    2    1    2    0    0  0.00000000000E+00  0.00000000000E+00 -0.19124001205E+03  0.13116997983E+04  0.12976839440E+04 0.  0.
        1    1    3    3  502    0 -0.63728826331E+03  0.68379945918E+02 -0.19762455406E+03  0.67072170976E+03  0.50400001928E-02 0.  1.
       -1    1    3    3    0  502  0.63728826331E+03 -0.68379945918E+02  0.63845420103E+01  0.64097808851E+03  0.50400001928E-02 0. -1.
</event>
<event>
 5   0  0.2478236E-03  0.1304382E+04  0.7818609E-02  0.9026097E-01
        2   -1    0    0  501    0  0.00000000000E+00  0.00000000000E+00  0.10894028473E+04  0.10894028473E+04  0.25500000920E-02 0.  1.
       -2   -1    0    0    0  501  0.00000000000E+00  0.00000000000E+00 -0.39044617438E+03  0.39044617439E+03  0.25500000920E-02 0. -1.
    10030    2    1    2    0    0  0.00000000000E+00  0.00000000000E+00  0.69895667296E+03  0.14798490217E+04  0.13043821129E+04 0.  0.
        3    1    3    3  502    0 -0.35172403472E+03  0.47621962869E+03  0.65988594622E+03  0.88653505490E+03  0.10100000352E+00 0.  1.
       -3    1    3    3    0  502  0.35172403472E+03 -0.47621962869E+03  0.39070726743E+02  0.59331396683E+03  0.10100000352E+00 0. -1.
</event>
<event>
 5   0  0.1332630E-03  0.1302015E+04  0.7818609E-02  0.9027969E-01
       -1   -1    0    0    0  501  0.00000000000E+00  0.00000000000E+00  0.53431498484E+03  0.53431498486E+03  0.50400001928E-02 0.  1.
        1   -1    0    0  501    0  0.00000000000E+00  0.00000000000E+00 -0.79318532339E+03  0.79318532341E+03  0.50400001928E-02 0. -1.
    10030    2    1    2    0    0  0.00000000000E+00  0.00000000000E+00 -0.25887033855E+03  0.13275003083E+04  0.13020150599E+04 0.  0.
        5    1    3    3  502    0  0.19105020991E+03  0.16011733520E+03 -0.74258052121E+03  0.78331709047E+03  0.46999998093E+01 0. -1.
       -5    1    3    3    0  502 -0.19105020991E+03 -0.16011733520E+03  0.48371018266E+03  0.54418321781E+03  0.46999998093E+01 0.  1.
</event>
<event>
 5   0  0.1310461E-03  0.1309353E+04  0.7818609E-02  0.9022181E-01
        1   -1    0    0  501    0  0.00000000000E+00  0.00000000000E+00  0.12699985910E+04  0.12699985911E+04  0.50400001928E-02 0.  1.
       -1   -1    0    0    0  501  0.00000000000E+00  0.00000000000E+00 -0.33748196461E+03  0.33748196465E+03  0.50400001928E-02 0. -1.
    10030    2    1    2    0    0  0.00000000000E+00  0.00000000000E+00  0.93251662643E+03  0.16074805557E+04  0.13093534582E+04 0.  0.
        4    1    3    3  502    0 -0.55805489907E+03 -0.23001489428E+03  0.15502517502E+03  0.62319061270E+03  0.12699999809E+01 0. -1.
       -4    1    3    3    0  502  0.55805489907E+03  0.23001489428E+03  0.77749145141E+03  0.98428994300E+03  0.12699999809E+01 0.  1.
</event>
<event>
 5   0  0.1346593E-03  0.1302366E+04  0.7818609E-02  0.9027691E-01
        1   -1    0    0  501    0  0.00000000000E+00  0.00000000000E+00  0.12821905278E+04  0.12821905278E+04  0.50400001928E-02 0.  1.
       -1   -1    0    0    0  501  0.00000000000E+00  0.00000000000E+00 -0.33071485356E+03  0.33071485360E+03  0.50400001928E-02 0. -1.
    10030    2    1    2    0    0  0.00000000000E+00  0.00000000000E+00  0.95147567426E+03  0.16129053814E+04  0.13023662353E+04 0.  0.
        2    1    3    3  502    0  0.41594239004E+03 -0.26518176140E+03  0.10021996473E+04  0.11170199512E+04  0.25500000920E-02 0.  1.
       -2    1    3    3    0  502 -0.41594239004E+03  0.26518176140E+03 -0.50723973056E+02  0.49588543018E+03  0.25500000920E-02 0. -1.
</event>
<event>
 5   0  0.2401211E-03  0.1108556E+04  0.7818609E-02  0.9196893E-01
        2   -1    0    0  501    0  0.00000000000E+00  0.00000000000E+00  0.57984592287E+03  0.57984592288E+03  0.25500000920E-02 0.  1.
       -2   -1    0    0    0  501  0.00000000000E+00  0.00000000000E+00 -0.52983732919E+03  0.52983732920E+03  0.25500000920E-02 0. -1.
    10030    2    1    2    0    0  0.00000000000E+00  0.00000000000E+00  0.50008593676E+02  0.11096832521E+04  0.11085558446E+04 0.  0.
        4    1    3    3  502    0  0.90968223911E+02 -0.53776726507E+03 -0.73856221077E+02  0.55038641284E+03  0.12699999809E+01 0. -1.
       -4    1    3    3    0  502 -0.90968223911E+02  0.53776726507E+03  0.12386481475E+03  0.55929683924E+03  0.12699999809E+01 0.  1.
</event>
<event>
 5   0  0.2334946E-03  0.1302226E+04  0.7818609E-02  0.9027802E-01
       -2   -1    0    0    0  501  0.00000000000E+00  0.00000000000E+00  0.53021957362E+03  0.53021957362E+03  0.25500000920E-02 0.  1.
        2   -1    0    0  501    0  0.00000000000E+00  0.00000000000E+00 -0.79957048974E+03  0.79957048975E+03  0.25500000920E-02 0. -1.
    10030    2    1    2    0    0  0.00000000000E+00  0.00000000000E+00 -0.26935091612E+03  0.13297900634E+04  0.13022256704E+04 0.  0.
        1    1    3    3  502    0 -0.62518549743E+03  0.85798038112E+02 -0.29847561578E+03  0.69807299245E+03  0.50400001928E-02 0. -1.
       -1    1    3    3    0  502  0.62518549743E+03 -0.85798038112E+02  0.29124699661E+02  0.63171707092E+03  0.50400001928E-02 0.  1.
</event>
<event>
 5   0  0.1324721E-03  0.1290928E+04  0.7818609E-02  0.9036791E-01
        1   -1    0    0  501    0  0.00000000000E+00  0.00000000000E+00  0.22032532894E+04  0.22032532894E+04  0.50400001928E-02 0.  1.
       -1   -1    0    0    0  501  0.00000000000E+00  0.00000000000E+00 -0.18909474799E+03  0.18909474806E+03  0.50400001928E-02 0. -1.
    10030    2    1    2    0    0  0.00000000000E+00  0.00000000000E+00  0.20141585414E+04  0.23923480375E+04  0.12909277681E+04 0.  0.
        1    1    3    3  502    0 -0.37579238262E+03  0.12049544049E+03  0.60522630929E+02  0.39925186899E+03  0.50400001928E-02 0. -1.
       -1    1    3    3    0  502  0.37579238262E+03 -0.12049544049E+03  0.19536359105E+04  0.19930961685E+04  0.50400001928E-02 0.  1.
</event>
<event>
 5   0  0.2312105E-03  0.1297212E+04  0.7818609E-02  0.9031779E-01
       -2   -1    0    0    0  501  0.00000000000E+00  0.00000000000E+00  0.53113465842E+03  0.53113465842E+03  0.25500000920E-02 0.  1.
        2   -1    0    0  501    0  0.00000000000E+00  0.00000000000E+00 -0.79205869494E+03  0.79205869495E+03  0.25500000920E-02 0. -1.
    10030    2    1    2    0    0  0.00000000000E+00  0.00000000000E+00 -0.26092403653E+03  0.13231933534E+04  0.12972121251E+04 0.  0.
        5    1    3    3  502    0  0.21892318881E+03 -0.12600348980E+03 -0.73980718671E+03  0.78175508028E+03  0.46999998093E+01 0. -1.
       -5    1    3    3    0  502 -0.21892318881E+03  0.12600348980E+03  0.47888315018E+03  0.54143827309E+03  0.46999998093E+01 0.  1.
</event>
<event>
 5   0  0.1310461E-03  0.1306547E+04  0.7818609E-02  0.9024389E-01
       -1   -1    0    0    0  501  0.00000000000E+00  0.00000000000E+00  0.10828725262E+04  0.10828725262E+04  0.50400001928E-02 0. -1.
        1   -1    0    0  501    0  0.00000000000E+00  0.00000000000E+00 -0.39410569879E+03  0.39410569882E+03  0.50400001928E-02 0.  1.
    10030    2    1    2    0    0  0.00000000000E+00  0.00000000000E+00  0.68876682739E+03  0.14769782250E+04  0.13065469508E+04 0.  0.
        4    1    3    3  502    0  0.28249968063E+03 -0.56435241873E+03  0.53510677541E+03  0.82743011552E+03  0.12699999809E+01 0. -1.
       -4    1    3    3    0  502 -0.28249968063E+03  0.56435241873E+03  0.15366005198E+03  0.64954810950E+03  0.12699999809E+01 0.  1.
</event>
<event>
 5   0  0.1387622E-03  0.1290601E+04  0.7818609E-02  0.9037052E-01
       -1   -1    0    0    0  501  0.00000000000E+00  0.00000000000E+00  0.84366378547E+03  0.84366378548E+03  0.50400001928E-02 0. -1.
        1   -1    0    0  501    0  0.00000000000E+00  0.00000000000E+00 -0.49357630944E+03  0.49357630946E+03  0.50400001928E-02 0.  1.
    10030    2    1    2    0    0  0.00000000000E+00  0.00000000000E+00  0.35008747603E+03  0.13372400949E+04  0.12906005698E+04 0.  0.
        3    1    3    3  502    0 -0.53389143511E+03  0.13246896410E+03 -0.17452705451E+03  0.57710293180E+03  0.10100000352E+00 0.  1.
       -3    1    3    3    0  502  0.53389143511E+03 -0.13246896410E+03  0.52461453054E+03  0.76013716314E+03  0.10100000352E+00 0. -1.
</event>
<event>
 5   0  0.9131250E-04  0.1300734E+04  0.7818609E-02  0.9028984E-01
        3   -1    0    0  501    0  0.00000000000E+00  0.00000000000E+00  0.58388523057E+03  0.58388523931E+03  0.10100000352E+00 0. -1.
       -3   -1    0    0    0  501  0.00000000000E+00  0.00000000000E+00 -0.72441798440E+03  0.72441799144E+03  0.10100000352E+00 0.  1.
    10030    2    1    2    0    0  0.00000000000E+00  0.00000000000E+00 -0.14053275383E+03  0.13083032307E+04  0.13007335964E+04 0.  0.
        1    1    3    3  502    0 -0.55152698701E+03 -0.33340132127E+03  0.17640831263E+02  0.64470897107E+03  0.50400001928E-02 0. -1.
       -1    1    3    3    0  502  0.55152698701E+03  0.33340132127E+03 -0.15817358509E+03  0.66359425968E+03  0.50400001928E-02 0.  1.
</event>
<event>
 5   0  0.1346593E-03  0.1315995E+04  0.7818609E-02  0.9016977E-01
       -1   -1    0    0    0  501  0.00000000000E+00  0.00000000000E+00  0.49531913263E+03  0.49531913266E+03  0.50400001928E-02 0.  1.
        1   -1    0    0  501    0  0.00000000000E+00  0.00000000000E+00 -0.87410417560E+03  0.87410417561E+03  0.50400001928E-02 0. -1.
    10030    2    1    2    0    0  0.00000000000E+00  0.00000000000E+00 -0.37878504296E+03  0.13694233083E+04  0.13159947145E+04 0.  0.
        2    1    3    3  502    0  0.62172559402E+03 -0.12239415640E+03 -0.37389721652E+03  0.73574599714E+03  0.25500000920E-02 0.  1.
       -2    1    3    3    0  502 -0.62172559402E+03  0.12239415640E+03 -0.48878264468E+01  0.63367731113E+03  0.25500000920E-02 0. -1.
</event>
<event>
 5   0  0.9131250E-04  0.1282752E+04  0.7818609E-02  0.9043356E-01
       -3   -1    0    0    0  501  0.00000000000E+00  0.00000000000E+00  0.36731584539E+03  0.36731585928E+03  0.10100000352E+00 0.  1.
        3   -1    0    0  501    0  0.00000000000E+00  0.00000000000E+00 -0.11199162755E+04  0.11199162800E+04  0.10100000352E+00 0. -1.
    10030    2    1    2    0    0  0.00000000000E+00  0.00000000000E+00 -0.75260043006E+03  0.14872321393E+04  0.12827517409E+04 0.  0.
        5    1    3    3  502    0 -0.15098333539E+03  0.53620688588E+03 -0.77852347939E+01  0.55713238275E+03  0.46999998093E+01 0.  1.
       -5    1    3    3    0  502  0.15098333539E+03 -0.53620688588E+03 -0.74481519527E+03  0.93009975655E+03  0.46999998093E+01 0. -1.
</event>
<event>
 5   0  0.2401211E-03  0.1159921E+04  0.7818609E-02  0.9148680E-01
        2   -1    0    0  501    0  0.00000000000E+00  0.00000000000E+00  0.79285566610E+03  0.79285566610E+03  0.25500000920E-02 0. -1.
       -2   -1    0    0    0  501  0.00000000000E+00  0.00000000000E+00 -0.42423099877E+03  0.42423099877E+03  0.25500000920E-02 0.  1.
    10030    2    1    2    0    0  0.00000000000E+00  0.00000000000E+00  0.36862466733E+03  0.12170866649E+04  0.11599206027E+04 0.  0.
        4    1    3    3  502    0 -0.25300974731E+03  0.21383237008E+03 -0.31518908753E+03  0.45725702676E+03  0.12699999809E+01 0.  1.
       -4    1    3    3    0  502  0.25300974731E+03 -0.21383237008E+03  0.68381375486E+03  0.75982963811E+03  0.12699999809E+01 0. -1.
</event>
<event>
 5   0  0.1324721E-03  0.1306836E+04  0.7818609E-02  0.9024161E-01
        1   -1    0    0  501    0  0.00000000000E+00  0.00000000000E+00  0.95897083326E+03  0.95897083327E+03  0.50400001928E-02 0. -1.
       -1   -1    0    0    0  501  0.00000000000E+00  0.00000000000E+00 -0.44522250930E+03  0.44522250933E+03  0.50400001928E-02 0.  1.
    10030    2    1    2    0    0  0.00000000000E+00  0.00000000000E+00  0.51374832396E+03  0.14041933426E+04  0.13068364867E+04 0.  0.
        1    1    3    3  502    0  0.64929332286E+03 -0.73137579710E+02  0.25155826603E+03  0.70015175919E+03  0.50400001928E-02 0.  1.
       -1    1    3    3    0  502 -0.64929332286E+03  0.73137579710E+02  0.26219005793E+03  0.70404158341E+03  0.50400001928E-02 0. -1.
</event>
<event>
 5   0  0.1387622E-03  0.1306386E+04  0.7818609E-02  0.9024517E-01
        1   -1    0    0  501    0  0.00000000000E+00  0.00000000000E+00  0.74081286334E+03  0.74081286336E+03  0.50400001928E-02 0.  1.
       -1   -1    0    0    0  501  0.00000000000E+00  0.00000000000E+00 -0.57593602936E+03  0.57593602939E+03  0.50400001928E-02 0. -1.
    10030    2    1    2    0    0  0.00000000000E+00  0.00000000000E+00  0.16487683398E+03  0.13167488927E+04  0.13063855771E+04 0.  0.
        3    1    3    3  502    0  0.77679133739E+02  0.47240780247E+03  0.53032550649E+03  0.71445666957E+03  0.10100000352E+00 0.  1.
       -3    1    3    3    0  502 -0.77679133739E+02 -0.47240780247E+03 -0.36544867252E+03  0.60229222318E+03  0.10100000352E+00 0. -1.
</event>
<event>
 5   0  0.2361043E-03  0.1286817E+04  0.7818609E-02  0.9040085E-01
        2   -1    0    0  501    0  0.00000000000E+00  0.00000000000E+00  0.68615750078E+03  0.68615750079E+03  0.25500000920E-02 0.  1.
       -2   -1    0    0    0  501  0.00000000000E+00  0.00000000000E+00 -0.60332311996E+03  0.60332311997E+03  0.25500000920E-02 0. -1.
    10030    2    1    2    0    0  0.00000000000E+00  0.00000000000E+00  0.82834380818E+02  0.12894806208E+04  0.12868172895E+04 0.  0.
        2    1    3    3  502    0  0.42598430915E+03  0.14531515693E+03 -0.41931213989E+03  0.61514372072E+03  0.25500000920E-02 0. -1.
       -2    1    3    3    0  502 -0.42598430915E+03 -0.14531515693E+03  0.50214652071E+03  0.67433690003E+03  0.25500000920E-02 0.  1.
</event>
<event>
 5   0  0.2401211E-03  0.1335867E+04  0.7818609E-02  0.9001596E-01
        2   -1    0    0  501    0  0.00000000000E+00  0.00000000000E+00  0.60354187369E+03  0.60354187370E+03  0.25500000920E-02 0.  1.
       -2   -1    0    0    0  501  0.00000000000E+00  0.00000000000E+00 -0.73919464166E+03  0.73919464167E+03  0.25500000920E-02 0. -1.
    10030    2    1    2    0    0  0.00000000000E+00  0.00000000000E+00 -0.13565276797E+03  0.13427365154E+04  0.13358666386E+04 0.  0.
        4    1    3    3  502    0  0.21639611393E+03 -0.27659122448E+03 -0.63890604573E+03  0.72906277627E+03  0.12699999809E+01 0. -1.
       -4    1    3    3    0  502 -0.21639611393E+03  0.27659122448E+03  0.50325327775E+03  0.61367373909E+03  0.12699999809E+01 0.  1.
</event>
<event>
 5   0  0.1332630E-03  0.1301819E+04  0.7818609E-02  0.9028124E-01
       -1   -1    0    0    0  501  0.00000000000E+00  0.00000000000E+00  0.54590007277E+03  0.54590007280E+03  0.50400001928E-02 0. -1.
        1   -1    0    0  501    0  0.00000000000E+00  0.00000000000E+00 -0.77611820906E+03  0.77611820908E+03  0.50400001928E-02 0.  1.
    10030    2    1    2    0    0  0.00000000000E+00  0.00000000000E+00 -0.23021813629E+03  0.13220182819E+04  0.13018187076E+04 0.  0.
        5    1    3    3  502    0  0.53137531325E+02  0.37791534269E+02  0.54255766905E+03  0.54648212372E+03  0.46999998093E+01 0. -1.
       -5    1    3    3    0  502 -0.53137531325E+02 -0.37791534269E+02 -0.77277580534E+03  0.77553615816E+03  0.46999998093E+01 0.  1.
</event>
<event>
 5   0  0.2401211E-03  0.1297937E+04  0.7818609E-02  0.9031203E-01
       -2   -1    0    0    0  501  0.00000000000E+00  0.00000000000E+00  0.60529904713E+03  0.60529904713E+03  0.25500000920E-02 0.  1.
        2   -1    0    0  501    0  0.00000000000E+00  0.00000000000E+00 -0.69578804846E+03  0.69578804846E+03  0.25500000920E-02 0. -1.
    10030    2    1    2    0    0  0.00000000000E+00  0.00000000000E+00 -0.90489001330E+02  0.13010870956E+04  0.12979365820E+04 0.  0.
        4    1    3    3  502    0  0.56000088002E+03  0.29790906203E+03 -0.18271758639E+03  0.66010463120E+03  0.12699999809E+01 0. -1.
       -4    1    3    3    0  502 -0.56000088002E+03 -0.29790906203E+03  0.92228585063E+02  0.64098246439E+03  0.12699999809E+01 0.  1.
</event>
<event>
 5   0  0.1346593E-03  0.1255200E+04  0.7818609E-02  0.9065866E-01
        1   -1    0    0  501    0  0.00000000000E+00  0.00000000000E+00  0.19040959893E+04  0.19040959893E+04  0.50400001928E-02 0. -1.
       -1   -1    0    0    0  501  0.00000000000E+00  0.00000000000E+00 -0.20686032092E+03  0.20686032098E+03  0.50400001928E-02 0.  1.
    10030    2    1    2    0    0  0.00000000000E+00  0.00000000000E+00  0.16972356683E+04  0.21109563102E+04  0.12552002350E+04 0.  0.
        2    1    3    3  502    0  0.28297350162E+03  0.56016029709E+03  0.85757179679E+03  0.10626772547E+04  0.25500000920E-02 0. -1.
       -2    1    3    3    0  502 -0.28297350162E+03 -0.56016029709E+03  0.83966387154E+03  0.10482790555E+04  0.25500000920E-02 0.  1.
</event>
<event>
 5   0  0.2312105E-03  0.1286610E+04  0.7818609E-02  0.9040252E-01
       -2   -1    0    0    0  501  0.00000000000E+00  0.00000000000E+00  0.51471046081E+03  0.51471046082E+03  0.25500000920E-02 0. -1.
        2   -1    0    0  501    0  0.00000000000E+00  0.00000000000E+00 -0.80402727770E+03  0.80402727770E+03  0.25500000920E-02 0.  1.
    10030    2    1    2    0    0  0.00000000000E+00  0.00000000000E+00 -0.28931681689E+03  0.13187377385E+04  0.12866098874E+04 0.  0.
        5    1    3    3  502    0 -0.16623844399E+03 -0.58533963173E+03 -0.35858400073E+03  0.70630183372E+03  0.46999998093E+01 0.  1.
       -5    1    3    3    0  502  0.16623844399E+03  0.58533963173E+03  0.69267183837E+02  0.61243590480E+03  0.46999998093E+01 0. -1.
</event>
<event>
 5   0  0.1346593E-03  0.1311751E+04  0.7818609E-02  0.9020298E-01
       -1   -1    0    0    0  501  0.00000000000E+00  0.00000000000E+00  0.43383732528E+03  0.43383732531E+03  0.50400001928E-02 0. -1.
        1   -1    0    0  501    0  0.00000000000E+00  0.00000000000E+00 -0.99155333288E+03  0.99155333290E+03  0.50400001928E-02 0.  1.
    10030    2    1    2    0    0  0.00000000000E+00  0.00000000000E+00 -0.55771600761E+03  0.14253906582E+04  0.13117512658E+04 0.  0.
        2    1    3    3  502    0  0.34118878083E+03  0.52642939883E+03 -0.48684271025E+03  0.79407400200E+03  0.25500000920E-02 0.  1.
       -2    1    3    3    0  502 -0.34118878083E+03 -0.52642939883E+03 -0.70873297353E+02  0.63131665620E+03  0.25500000920E-02 0. -1.
</event>
<event>
 5   0  0.2478236E-03  0.1311962E+04  0.7818609E-02  0.9020132E-01
        2   -1    0    0  501    0  0.00000000000E+00  0.00000000000E+00  0.27153098549E+04  0.27153098549E+04  0.25500000920E-02 0.  1.
       -2   -1    0    0    0  501  0.00000000000E+00  0.00000000000E+00 -0.15847596556E+03  0.15847596558E+03  0.25500000920E-02 0. -1.
    10030    2    1    2    0    0  0.00000000000E+00  0.00000000000E+00  0.25568338893E+04  0.28737858205E+04  0.13119624249E+04 0.  0.
        3    1    3    3  502    0 -0.43586524316E+03  0.28515176170E+03  0.21519124110E+04  0.22140499254E+04  0.10100000352E+00 0.  1.
       -3    1    3    3    0  502  0.43586524316E+03 -0.28515176170E+03  0.40492147827E+03  0.65973589500E+03  0.10100000352E+00 0. -1.
</event>
<event>
 5   0  0.9131250E-04  0.1311455E+04  0.7818609E-02  0.9020530E-01
        4   -1    0    0  501    0  0.00000000000E+00  0.00000000000E+00  0.16008720047E+04  0.16008725084E+04  0.12699999809E+01 0. -1.
       -4   -1    0    0    0  501  0.00000000000E+00  0.00000000000E+00 -0.26858825379E+03  0.26859125632E+03  0.12699999809E+01 0.  1.
    10030    2    1    2    0    0  0.00000000000E+00  0.00000000000E+00  0.13322837509E+04  0.18694637648E+04  0.13114552127E+04 0.  0.
        2    1    3    3  502    0  0.58855822272E+03 -0.17465313662E+03  0.99454349640E+03  0.11687691243E+04  0.25500000920E-02 0. -1.
       -2    1    3    3    0  502 -0.58855822272E+03  0.17465313662E+03  0.33774025449E+03  0.70069464047E+03  0.25500000920E-02 0.  1.
</event>
<event>
 5   0  0.2361043E-03  0.1258679E+04  0.7818609E-02  0.9062990E-01
        2   -1    0    0  501    0  0.00000000000E+00  0.00000000000E+00  0.17843786493E+04  0.17843786493E+04  0.25500000920E-02 0.  1.
       -2   -1    0    0    0  501  0.00000000000E+00  0.00000000000E+00 -0.22196424314E+03  0.22196424315E+03  0.25500000920E-02 0. -1.
    10030    2    1    2    0    0  0.00000000000E+00  0.00000000000E+00  0.15624144061E+04  0.20063428924E+04  0.12586790796E+04 0.  0.
        2    1    3    3  502    0 -0.49458788374E+03  0.28480090508E+03  0.35845112249E+03  0.67395544178E+03  0.25500000920E-02 0.  1.
       -2    1    3    3    0  502  0.49458788374E+03 -0.28480090508E+03  0.12039632836E+04  0.13323874507E+04  0.25500000920E-02 0. -1.
</event>
<event>
 5   0  0.1332630E-03  0.1311052E+04  0.7818609E-02  0.9020847E-01
       -1   -1    0    0    0  501  0.00000000000E+00  0.00000000000E+00  0.44354108180E+03  0.44354108183E+03  0.50400001928E-02 0. -1.
        1   -1    0    0  501    0  0.00000000000E+00  0.00000000000E+00 -0.96882577618E+03  0.96882577619E+03  0.50400001928E-02 0.  1.
    10030    2    1    2    0    0  0.00000000000E+00  0.00000000000E+00 -0.52528469437E+03  0.14123668580E+04  0.13110515365E+04 0.  0.
        5    1    3    3  502    0  0.15238789231E+03  0.16524200644E+03  0.40070629999E+03  0.45947210934E+03  0.46999998093E+01 0. -1.
       -5    1    3    3    0  502 -0.15238789231E+03 -0.16524200644E+03 -0.92599099436E+03  0.95289474868E+03  0.46999998093E+01 0.  1.
</event>
<event>
 5   0  0.2401211E-03  0.1292269E+04  0.7818609E-02  0.9035718E-01
        2   -1    0    0  501    0  0.00000000000E+00  0.00000000000E+00  0.53960211644E+03  0.53960211645E+03  0.25500000920E-02 0.  1.
       -2   -1    0    0    0  501  0.00000000000E+00  0.00000000000E+00 -0.77369946605E+03  0.77369946605E+03  0.25500000920E-02 0. -1.
    10030    2    1    2    0    0  0.00000000000E+00  0.00000000000E+00 -0.23409734961E+03  0.13133015825E+04  0.12922691196E+04 0.  0.
        4    1    3    3  502    0 -0.25378030733E+03  0.53268225123E+02  0.48439960115E+03  0.54944202123E+03  0.12699999809E+01 0.  1.
       -4    1    3    3    0  502  0.25378030733E+03 -0.53268225123E+02 -0.71849695076E+03  0.76385956127E+03  0.12699999809E+01 0. -1.
</event>
<event>
 5   0  0.2312105E-03  0.1281433E+04  0.7818609E-02  0.9044420E-01
       -2   -1    0    0    0  501  0.00000000000E+00  0.00000000000E+00  0.29601527508E+03  0.29601527509E+03  0.25500000920E-02 0.  1.
        2   -1    0    0  501    0  0.00000000000E+00  0.00000000000E+00 -0.13868124969E+04  0.13868124969E+04  0.25500000920E-02 0. -1.
    10030    2    1    2    0    0  0.00000000000E+00  0.00000000000E+00 -0.10907972219E+04  0.16828277720E+04  0.12814330771E+04 0.  0.
        5    1    3    3  502    0 -0.52378363843E+02 -0.27019863747E+03  0.21440378324E+03  0.34891527475E+03  0.46999998093E+01 0.  1.
       -5    1    3    3    0  502  0.52378363843E+02  0.27019863747E+03 -0.13052010051E+04  0.13339124973E+04  0.46999998093E+01 0. -1.
</event>
<event>
 5   0  0.1310461E-03  0.1329425E+04  0.7818609E-02  0.9006551E-01
        1   -1    0    0  501    0  0.00000000000E+00  0.00000000000E+00  0.78148597184E+03  0.78148597186E+03  0.50400001928E-02 0. -1.
       -1   -1    0    0    0  501  0.00000000000E+00  0.00000000000E+00 -0.56538786109E+03  0.56538786112E+03  0.50400001928E-02 0.  1.
    10030    2    1    2    0    0  0.00000000000E+00  0.00000000000E+00  0.21609811075E+03  0.13468738330E+04  0.13294249616E+04 0.  0.
        4    1    3    3  502    0 -0.54144720617E+03  0.13277399449E+03 -0.25870652050E+03  0.61459310713E+03  0.12699999809E+01 0.  1.
       -4    1    3    3    0  502  0.54144720617E+03 -0.13277399449E+03  0.47480463125E+03  0.73228072584E+03  0.12699999809E+01 0. -1.
</event>
<event>
 5   0  0.9131250E-04  0.1281574E+04  0.7818609E-02  0.9044306E-01
       -4   -1    0    0    0  501  0.00000000000E+00  0.00000000000E+00  0.46563395238E+03  0.46563568432E+03  0.12699999809E+01 0. -1.
        4   -1    0    0  501    0  0.00000000000E+00  0.00000000000E+00 -0.88182223270E+03  0.88182314723E+03  0.12699999809E+01 0.  1.
    10030    2    1    2    0    0  0.00000000000E+00  0.00000000000E+00 -0.41618828032E+03  0.13474588315E+04  0.12815742733E+04 0.  0.
        1    1    3    3  502    0 -0.39819985158E+03 -0.19198560312E+03  0.27963566584E+03  0.52308479163E+03  0.50400001928E-02 0. -1.
       -1    1    3    3    0  502  0.39819985158E+03  0.19198560312E+03 -0.69582394616E+03  0.82437403991E+03  0.50400001928E-02 0.  1.
</event>
<event>
 5   0  0.2312105E-03  0.1269037E+04  0.7818609E-02  0.9054486E-01
       -2   -1    0    0    0  501  0.00000000000E+00  0.00000000000E+00  0.53602199977E+03  0.53602199978E+03  0.25500000920E-02 0. -1.
        2   -1    0    0  501    0  0.00000000000E+00  0.00000000000E+00 -0.75111429000E+03  0.75111429001E+03  0.25500000920E-02 0.  1.
    10030    2    1    2    0    0  0.00000000000E+00  0.00000000000E+00 -0.21509229023E+03  0.12871362898E+04  0.12690370898E+04 0.  0.
        5    1    3    3  502    0 -0.25489024941E+03  0.21226210076E+03  0.44106323239E+03  0.55189048155E+03  0.46999998093E+01 0. -1.
       -5    1    3    3    0  502  0.25489024941E+03 -0.21226210076E+03 -0.65615552262E+03  0.73524580823E+03  0.46999998093E+01 0.  1.
</event>
<event>
 5   0  0.1387622E-03  0.1292730E+04  0.7818609E-02  0.9035350E-01
        1   -1    0    0  501    0  0.00000000000E+00  0.00000000000E+00  0.72641829122E+03  0.72641829124E+03  0.50400001928E-02 0.  1.
       -1   -1    0    0    0  501  0.00000000000E+00  0.00000000000E+00 -0.57513386133E+03  0.57513386136E+03  0.50400001928E-02 0. -1.
    10030    2    1    2    0    0  0.00000000000E+00  0.00000000000E+00  0.15128442988E+03  0.13015521526E+04  0.12927300674E+04 0.  0.
        3    1    3    3  502    0  0.23526304473E+03 -0.47730308466E+03 -0.29376878830E+03  0.60783800969E+03  0.10100000352E+00 0. -1.
       -3    1    3    3    0  502 -0.23526304473E+03  0.47730308466E+03  0.44505321819E+03  0.69371414290E+03  0.10100000352E+00 0.  1.
</event>
<event>
 5   0  0.2334946E-03  0.1292218E+04  0.7818609E-02  0.9035759E-01
        2   -1    0    0  501    0  0.00000000000E+00  0.00000000000E+00  0.80189157923E+03  0.80189157923E+03  0.25500000920E-02 0.  1.
       -2   -1    0    0    0  501  0.00000000000E+00  0.00000000000E+00 -0.52059032012E+03  0.52059032013E+03  0.25500000920E-02 0. -1.
    10030    2    1    2    0    0  0.00000000000E+00  0.00000000000E+00  0.28130125911E+03  0.13224818994E+04  0.12922182384E+04 0.  0.
        1    1    3    3  502    0 -0.62265400865E+03  0.95279534532E+02 -0.65255176450E+01  0.62993554162E+03  0.50400001928E-02 0. -1.
       -1    1    3    3    0  502  0.62265400865E+03 -0.95279534532E+02  0.28782677675E+03  0.69254635775E+03  0.50400001928E-02 0.  1.
</event>
<event>
 5   0  0.1324721E-03  0.1286947E+04  0.7818609E-02  0.9039981E-01
        1   -1    0    0  501    0  0.00000000000E+00  0.00000000000E+00  0.63934132397E+03  0.63934132399E+03  0.50400001928E-02 0. -1.
       -1   -1    0    0    0  501  0.00000000000E+00  0.00000000000E+00 -0.64763226155E+03  0.64763226157E+03  0.50400001928E-02 0.  1.
    10030    2    1    2    0    0  0.00000000000E+00  0.00000000000E+00 -0.82909375771E+01  0.12869735856E+04  0.12869468794E+04 0.  0.
        1    1    3    3  502    0 -0.11268731695E+03  0.24679825914E+03 -0.58763872955E+03  0.64724577141E+03  0.50400001928E-02 0.  1.
       -1    1    3    3    0  502  0.11268731695E+03 -0.24679825914E+03  0.57934779197E+03  0.63972781415E+03  0.50400001928E-02 0. -1.
</event>
<event>
 5   0  0.2334946E-03  0.1305656E+04  0.7818609E-02  0.9025092E-01
        2   -1    0    0  501    0  0.00000000000E+00  0.00000000000E+00  0.15637086567E+04  0.15637086567E+04  0.25500000920E-02 0. -1.
       -2   -1    0    0    0  501  0.00000000000E+00  0.00000000000E+00 -0.27254699870E+03  0.27254699871E+03  0.25500000920E-02 0.  1.
    10030    2    1    2    0    0  0.00000000000E+00  0.00000000000E+00  0.12911616580E+04  0.18362556554E+04  0.13056555460E+04 0.  0.
        1    1    3    3  502    0  0.58281710058E+03  0.23802005379E+03  0.88858374442E+03  0.10889951284E+04  0.50400001928E-02 0. -1.
       -1    1    3    3    0  502 -0.58281710058E+03 -0.23802005379E+03  0.40257791355E+03  0.74726052702E+03  0.50400001928E-02 0.  1.
</event>
<event>
 5   0  0.2334946E-03  0.1296642E+04  0.7818609E-02  0.9032233E-01
       -2   -1    0    0    0  501  0.00000000000E+00  0.00000000000E+00  0.44590348670E+03  0.44590348670E+03  0.25500000920E-02 0. -1.
        2   -1    0    0  501    0  0.00000000000E+00  0.00000000000E+00 -0.94262525454E+03  0.94262525454E+03  0.25500000920E-02 0.  1.
    10030    2    1    2    0    0  0.00000000000E+00  0.00000000000E+00 -0.49672176784E+03  0.13885287412E+04  0.12966416431E+04 0.  0.
        1    1    3    3  502    0  0.26095826509E+03 -0.28088887430E+02 -0.88318784990E+03  0.92136256704E+03  0.50400001928E-02 0.  1.
       -1    1    3    3    0  502 -0.26095826509E+03  0.28088887430E+02  0.38646608206E+03  0.46716617420E+03  0.50400001928E-02 0. -1.
</event>
<event>
 5   0  0.2312105E-03  0.1161884E+04  0.7818609E-02  0.9146889E-01
       -2   -1    0    0    0  501  0.00000000000E+00  0.00000000000E+00  0.85929236440E+03  0.85929236440E+03  0.25500000920E-02 0.  1.
        2   -1    0    0  501    0  0.00000000000E+00  0.00000000000E+00 -0.39275763472E+03  0.39275763473E+03  0.25500000920E-02 0. -1.
    10030    2    1    2    0    0  0.00000000000E+00  0.00000000000E+00  0.46653472968E+03  0.12520499991E+04  0.11618840503E+04 0.  0.
        5    1    3    3  502    0 -0.16135239288E+03 -0.36289333118E+03  0.69013222240E+03  0.79626047177E+03  0.46999998093E+01 0.  1.
       -5    1    3    3    0  502  0.16135239288E+03  0.36289333118E+03 -0.22359749273E+03  0.45578952737E+03  0.46999998093E+01 0. -1.
</event>
<event>
 5   0  0.2478236E-03  0.1301129E+04  0.7818609E-02  0.9028670E-01
       -2   -1    0    0    0  501  0.00000000000E+00  0.00000000000E+00  0.22500351185E+03  0.22500351186E+03  0.25500000920E-02 0. -1.
        2   -1    0    0  501    0  0.00000000000E+00  0.00000000000E+00 -0.18810120902E+04  0.18810120902E+04  0.25500000920E-02 0.  1.
    10030    2    1    2    0    0  0.00000000000E+00  0.00000000000E+00 -0.16560085783E+04  0.21060156021E+04  0.13011292421E+04 0.  0.
        3    1    3    3  502    0 -0.21745458094E+03 -0.19454866953E+03  0.11315440036E+03  0.31295304458E+03  0.10100000352E+00 0. -1.
       -3    1    3    3    0  502  0.21745458094E+03  0.19454866953E+03 -0.17691629787E+04  0.17930625575E+04  0.10100000352E+00 0.  1.
</event>
<event>
 5   0  0.1346593E-03  0.1285168E+04  0.7818609E-02  0.9041410E-01
       -1   -1    0    0    0  501  0.00000000000E+00  0.00000000000E+00  0.42612714214E+03  0.42612714217E+03  0.50400001928E-02 0.  1.
        1   -1    0    0  501    0  0.00000000000E+00  0.00000000000E+00 -0.96899334354E+03  0.96899334356E+03  0.50400001928E-02 0. -1.
    10030    2    1    2    0    0  0.00000000000E+00  0.00000000000E+00 -0.54286620140E+03  0.13951204857E+04  0.12851682602E+04 0.  0.
        2    1    3    3  502    0  0.61089086408E+03 -0.19858821034E+03 -0.25296465388E+03  0.69037384164E+03  0.25500000920E-02 0. -1.
       -2    1    3    3    0  502 -0.61089086408E+03  0.19858821034E+03 -0.28990154752E+03  0.70474664409E+03  0.25500000920E-02 0.  1.
</event>
<event>
 5   0  0.1387622E-03  0.1289899E+04  0.7818609E-02  0.9037614E-01
        1   -1    0    0  501    0  0.00000000000E+00  0.00000000000E+00  0.23648148372E+04  0.23648148373E+04  0.50400001928E-02 0.  1.
       -1   -1    0    0    0  501  0.00000000000E+00  0.00000000000E+00 -0.17589526412E+03  0.17589526419E+03  0.50400001928E-02 0. -1.
    10030    2    1    2    0    0  0.00000000000E+00  0.00000000000E+00  0.21889195731E+04  0.25407101014E+04  0.12898988030E+04 0.  0.
        3    1    3    3  502    0  0.76376732117E+02 -0.63587402905E+03  0.94457457246E+03  0.11412231680E+04  0.10100000352E+00 0.  1.
       -3    1    3    3    0  502 -0.76376732117E+02  0.63587402905E+03  0.12443450007E+04  0.13994869335E+04  0.10100000352E+00 0. -1.
</event>
<event>
 5   0  0.9131250E-04  0.1320881E+04  0.7818609E-02  0.9013168E-01
       -3   -1    0    0    0  501  0.00000000000E+00  0.00000000000E+00  0.52483110628E+03  0.52483111600E+03  0.10100000352E+00 0.  1.
        3   -1    0    0  501    0  0.00000000000E+00  0.00000000000E+00 -0.83108990695E+03  0.83108991308E+03  0.10100000352E+00 0. -1.
    10030    2    1    2    0    0  0.00000000000E+00  0.00000000000E+00 -0.30625880067E+03  0.13559210291E+04  0.13208812907E+04 0.  0.
        2    1    3    3  502    0 -0.64096469889E+03 -0.11135335590E+03 -0.36328197811E+02  0.65157889243E+03  0.25500000920E-02 0. -1.
       -2    1    3    3    0  502  0.64096469889E+03  0.11135335590E+03 -0.26993060286E+03  0.70434213665E+03  0.25500000920E-02 0.  1.
</event>
<event>
 5   0  0.1346593E-03  0.1294232E+04  0.7818609E-02  0.9034152E-01
       -1   -1    0    0    0  501  0.00000000000E+00  0.00000000000E+00  0.42002143567E+03  0.42002143570E+03  0.50400001928E-02 0. -1.
        1   -1    0    0  501    0  0.00000000000E+00  0.00000000000E+00 -0.99699491107E+03  0.99699491109E+03  0.50400001928E-02 0.  1.
    10030    2    1    2    0    0  0.00000000000E+00  0.00000000000E+00 -0.57697347541E+03  0.14170163468E+04  0.12942321800E+04 0.  0.
        2    1    3    3  502    0 -0.29097774903E+03  0.33081410583E+03  0.23045545367E+03  0.49720794360E+03  0.25500000920E-02 0. -1.
       -2    1    3    3    0  502  0.29097774903E+03 -0.33081410583E+03 -0.80742892908E+03  0.91980840318E+03  0.25500000920E-02 0.  1.
</event>
<event>
 5   0  0.1324721E-03  0.1350122E+04  0.7818609E-02  0.8990736E-01
        1   -1    0    0  501    0  0.00000000000E+00  0.00000000000E+00  0.10389465513E+04  0.10389465513E+04  0.50400001928E-02 0. -1.
       -1   -1    0    0    0  501  0.00000000000E+00  0.00000000000E+00 -0.43862444965E+03  0.43862444968E+03  0.50400001928E-02 0.  1.
    10030    2    1    2    0    0  0.00000000000E+00  0.00000000000E+00  0.60032210162E+03  0.14775710010E+04  0.13501220083E+04 0.  0.
        1    1    3    3  502    0  0.57779839468E+03  0.17836927720E+03 -0.28232753800E+02  0.60536243058E+03  0.50400001928E-02 0.  1.
       -1    1    3    3    0  502 -0.57779839468E+03 -0.17836927720E+03  0.62855485543E+03  0.87220857038E+03  0.50400001928E-02 0. -1.
</event>
<event>
 5   0  0.2334946E-03  0.1307272E+04  0.7818609E-02  0.9023818E-01
        2   -1    0    0  501    0  0.00000000000E+00  0.00000000000E+00  0.13301663552E+04  0.13301663552E+04  0.25500000920E-02 0.  1.
       -2   -1    0    0    0  501  0.00000000000E+00  0.00000000000E+00 -0.32119276862E+03  0.32119276863E+03  0.25500000920E-02 0. -1.
    10030    2    1    2    0    0  0.00000000000E+00  0.00000000000E+00  0.10089735866E+04  0.16513591238E+04  0.13072716846E+04 0.  0.
        1    1    3    3  502    0 -0.20671566184E+03  0.34777018990E+02  0.12865548068E+04  0.13035198797E+04  0.50400001928E-02 0.  1.
       -1    1    3    3    0  502  0.20671566184E+03 -0.34777018990E+02 -0.27758122022E+03  0.34783924412E+03  0.50400001928E-02 0. -1.
</event>
<event>
 5   0  0.1387622E-03  0.1272740E+04  0.7818609E-02  0.9051466E-01
        1   -1    0    0  501    0  0.00000000000E+00  0.00000000000E+00  0.94062370003E+03  0.94062370004E+03  0.50400001928E-02 0.  1.
       -1   -1    0    0    0  501  0.00000000000E+00  0.00000000000E+00 -0.43053029478E+03  0.43053029481E+03  0.50400001928E-02 0. -1.
    10030    2    1    2    0    0  0.00000000000E+00  0.00000000000E+00  0.51009340524E+03  0.13711539949E+04  0.12727403488E+04 0.  0.
        3    1    3    3  502    0  0.47488940569E+03 -0.21207450488E+03 -0.14001184010E+03  0.53860827029E+03  0.10100000352E+00 0. -1.
       -3    1    3    3    0  502 -0.47488940569E+03  0.21207450488E+03  0.65010524534E+03  0.83254572456E+03  0.10100000352E+00 0.  1.
</event>
<event>
 5   0  0.2361043E-03  0.1302103E+04  0.7818609E-02  0.9027899E-01
       -2   -1    0    0    0  501  0.00000000000E+00  0.00000000000E+00  0.26387309651E+03  0.26387309653E+03  0.25500000920E-02 0.  1.
        2   -1    0    0  501    0  0.00000000000E+00  0.00000000000E+00 -0.16063321153E+04  0.16063321153E+04  0.25500000920E-02 0. -1.
    10030    2    1    2    0    0  0.00000000000E+00  0.00000000000E+00 -0.13424590188E+04  0.18702052119E+04  0.13021026524E+04 0.  0.
        2    1    3    3  502    0 -0.90514948727E+02  0.64461921131E+03 -0.65417771596E+03  0.92286259411E+03  0.25500000920E-02 0.  1.
       -2    1    3    3    0  502  0.90514948727E+02 -0.64461921131E+03 -0.68828130287E+03  0.94734261776E+03  0.25500000920E-02 0. -1.
</event>
<event>
 5   0  0.1332630E-03  0.1314841E+04  0.7818609E-02  0.9017878E-01
        1   -1    0    0  501    0  0.00000000000E+00  0.00000000000E+00  0.99317338900E+03  0.99317338901E+03  0.50400001928E-02 0. -1.
       -1   -1    0    0    0  501  0.00000000000E+00  0.00000000000E+00 -0.43517242583E+03  0.43517242586E+03  0.50400001928E-02 0.  1.
    10030    2    1    2    0    0  0.00000000000E+00  0.00000000000E+00  0.55800096317E+03  0.14283458149E+04  0.13148409379E+04 0.  0.
        5    1    3    3  502    0 -0.19335090335E+03 -0.51707687377E+03  0.66678463395E+03  0.86566558398E+03  0.46999998093E+01 0. -1.
       -5    1    3    3    0  502  0.19335090335E+03  0.51707687377E+03 -0.10878367078E+03  0.56268023090E+03  0.46999998093E+01 0.  1.
</event>
<event>
 5   0  0.2401211E-03  0.1285134E+04  0.7818609E-02  0.9041438E-01
        2   -1    0    0  501    0  0.00000000000E+00  0.00000000000E+00  0.14975911245E+04  0.14975911245E+04  0.25500000920E-02 0.  1.
       -2   -1    0    0    0  501  0.00000000000E+00  0.00000000000E+00 -0.27570430633E+03  0.27570430634E+03  0.25500000920E-02 0. -1.
    10030    2    1    2    0    0  0.00000000000E+00  0.00000000000E+00  0.12218868182E+04  0.17732954309E+04  0.12851339575E+04 0.  0.
        4    1    3    3  502    0  0.65485103785E+02 -0.55272854567E+03  0.10539890575E+04  0.11919277202E+04  0.12699999809E+01 0.  1.
       -4    1    3    3    0  502 -0.65485103785E+02  0.55272854567E+03  0.16789776069E+03  0.58136771063E+03  0.12699999809E+01 0. -1.
</event>
<event>
 5   0  0.2334946E-03  0.1290031E+04  0.7818609E-02  0.9037508E-01
        2   -1    0    0  501    0  0.00000000000E+00  0.00000000000E+00  0.14551403257E+04  0.14551403257E+04  0.25500000920E-02 0.  1.
       -2   -1    0    0    0  501  0.00000000000E+00  0.00000000000E+00 -0.28591422269E+03  0.28591422270E+03  0.25500000920E-02 0. -1.
    10030    2    1    2    0    0  0.00000000000E+00  0.00000000000E+00  0.11692261031E+04  0.17410545485E+04  0.12900314960E+04 0.  0.
        1    1    3    3  502    0 -0.33341869174E+03 -0.51842015126E+03  0.32812157557E+03  0.69827734147E+03  0.50400001928E-02 0. -1.
       -1    1    3    3    0  502  0.33341869174E+03  0.51842015126E+03  0.84110452748E+03  0.10427772070E+04  0.50400001928E-02 0.  1.
</event>
<event>
 5   0  0.2334946E-03  0.1305105E+04  0.7818609E-02  0.9025527E-01
       -2   -1    0    0    0  501  0.00000000000E+00  0.00000000000E+00  0.17151169725E+03  0.17151169727E+03  0.25500000920E-02 0. -1.
        2   -1    0    0  501    0  0.00000000000E+00  0.00000000000E+00 -0.24827737589E+04  0.24827737589E+04  0.25500000920E-02 0.  1.
    10030    2    1    2    0    0  0.00000000000E+00  0.00000000000E+00 -0.23112620616E+04  0.26542854561E+04  0.13051049633E+04 0.  0.
        1    1    3    3  502    0  0.17899847074E+03 -0.23969670965E+03 -0.23350954531E+04  0.23541804816E+04  0.50400001928E-02 0.  1.
       -1    1    3    3    0  502 -0.17899847074E+03  0.23969670965E+03  0.23833391458E+02  0.30010497450E+03  0.50400001928E-02 0. -1.
</event>
<event>
 5   0  0.1310461E-03  0.1295200E+04  0.7818609E-02  0.9033380E-01
       -1   -1    0    0    0  501  0.00000000000E+00  0.00000000000E+00  0.55188012025E+03  0.55188012027E+03  0.50400001928E-02 0. -1.
        1   -1    0    0  501    0  0.00000000000E+00  0.00000000000E+00 -0.75992170434E+03  0.75992170435E+03  0.50400001928E-02 0.  1.
    10030    2    1    2    0    0  0.00000000000E+00  0.00000000000E+00 -0.20804158409E+03  0.13118018246E+04  0.12951998789E+04 0.  0.
        4    1    3    3  502    0 -0.42999163310E+03  0.27355520129E+03 -0.50871583764E+03  0.72008240435E+03  0.12699999809E+01 0.  1.
       -4    1    3    3    0  502  0.42999163310E+03 -0.27355520129E+03  0.30067425355E+03  0.59171942028E+03  0.12699999809E+01 0. -1.
</event>
<event>
 5   0  0.2401211E-03  0.1304177E+04  0.7818609E-02  0.9026259E-01
        2   -1    0    0  501    0  0.00000000000E+00  0.00000000000E+00  0.15935342439E+04  0.15935342439E+04  0.25500000920E-02 0.  1.
       -2   -1    0    0    0  501  0.00000000000E+00  0.00000000000E+00 -0.26684061559E+03  0.26684061560E+03  0.25500000920E-02 0. -1.
    10030    2    1    2    0    0  0.00000000000E+00  0.00000000000E+00  0.13266936283E+04  0.18603748595E+04  0.13041773784E+04 0.  0.
        4    1    3    3  502    0  0.38082327454E+03 -0.89241412792E+02  0.14076157892E+04  0.14609497661E+04  0.12699999809E+01 0.  1.
       -4    1    3    3    0  502 -0.38082327454E+03  0.89241412792E+02 -0.80922160907E+02  0.39942509337E+03  0.12699999809E+01 0. -1.
</event>
<event>
 5   0  0.2401211E-03  0.1305385E+04  0.7818609E-02  0.9025306E-01
        2   -1    0    0  501    0  0.00000000000E+00  0.00000000000E+00  0.20004539171E+04  0.20004539171E+04  0.25500000920E-02 0.  1.
       -2   -1    0    0    0  501  0.00000000000E+00  0.00000000000E+00 -0.21295549021E+03  0.21295549023E+03  0.25500000920E-02 0. -1.
    10030    2    1    2    0    0  0.00000000000E+00  0.00000000000E+00  0.17874984269E+04  0.22134094073E+04  0.13053852222E+04 0.  0.
        4    1    3    3  502    0  0.97458522742E+02 -0.26678812618E+03  0.18901669481E+04  0.19113887026E+04  0.12699999809E+01 0.  1.
       -4    1    3    3    0  502 -0.97458522742E+02  0.26678812618E+03 -0.10266852121E+03  0.30202070471E+03  0.12699999809E+01 0. -1.
</event>
<event>
 5   0  0.9131250E-04  0.1302228E+04  0.7818609E-02  0.9027800E-01
       -4   -1    0    0    0  501  0.00000000000E+00  0.00000000000E+00  0.82403689713E+03  0.82403787579E+03  0.12699999809E+01 0.  1.
        4   -1    0    0  501    0  0.00000000000E+00  0.00000000000E+00 -0.51447665574E+03  0.51447822325E+03  0.12699999809E+01 0. -1.
    10030    2    1    2    0    0  0.00000000000E+00  0.00000000000E+00  0.30956024139E+03  0.13385160990E+04  0.13022280155E+04 0.  0.
        1    1    3    3  502    0  0.59695872486E+02 -0.63835398403E+03  0.38082021979E+02  0.64226913871E+03  0.50400001928E-02 0.  1.
       -1    1    3    3    0  502 -0.59695872486E+02  0.63835398403E+03  0.27147821941E+03  0.69624696032E+03  0.50400001928E-02 0. -1.
</event>
<event>
 5   0  0.2334946E-03  0.1303272E+04  0.7818609E-02  0.9026975E-01
        2   -1    0    0  501    0  0.00000000000E+00  0.00000000000E+00  0.11031120298E+04  0.11031120298E+04  0.25500000920E-02 0.  1.
       -2   -1    0    0    0  501  0.00000000000E+00  0.00000000000E+00 -0.38493768247E+03  0.38493768248E+03  0.25500000920E-02 0. -1.
    10030    2    1    2    0    0  0.00000000000E+00  0.00000000000E+00  0.71817434730E+03  0.14880497123E+04  0.13032718646E+04 0.  0.
        1    1    3    3  502    0  0.13891262490E+03  0.61094544372E+03  0.56358482960E+03  0.84272113581E+03  0.50400001928E-02 0.  1.
       -1    1    3    3    0  502 -0.13891262490E+03 -0.61094544372E+03  0.15458951770E+03  0.64532857644E+03  0.50400001928E-02 0. -1.
</event>
<event>
 5   0  0.1387622E-03  0.1217223E+04  0.7818609E-02  0.9097914E-01
        1   -1    0    0  501    0  0.00000000000E+00  0.00000000000E+00  0.11365637058E+04  0.11365637058E+04  0.50400001928E-02 0. -1.
       -1   -1    0    0    0  501  0.00000000000E+00  0.00000000000E+00 -0.32590142393E+03  0.32590142397E+03  0.50400001928E-02 0.  1.
    10030    2    1    2    0    0  0.00000000000E+00  0.00000000000E+00  0.81066228188E+03  0.14624651298E+04  0.12172226257E+04 0.  0.
        3    1    3    3  502    0  0.30008132308E+03  0.41979204106E+03  0.79304458893E+03  0.94614686409E+03  0.10100000352E+00 0. -1.
       -3    1    3    3    0  502 -0.30008132308E+03 -0.41979204106E+03  0.17617692954E+02  0.51631826571E+03  0.10100000352E+00 0.  1.
</event>
<event>
 5   0  0.1332630E-03  0.1296817E+04  0.7818609E-02  0.9032093E-01
       -1   -1    0    0    0  501  0.00000000000E+00  0.00000000000E+00  0.62007281353E+03  0.62007281355E+03  0.50400001928E-02 0. -1.
        1   -1    0    0  501    0  0.00000000000E+00  0.00000000000E+00 -0.67803906597E+03  0.67803906598E+03  0.50400001928E-02 0.  1.
    10030    2    1    2    0    0  0.00000000000E+00  0.00000000000E+00 -0.57966252437E+02  0.12981118795E+04  0.12968170131E+04 0.  0.
        5    1    3    3  502    0 -0.47384629409E+02 -0.19507489786E+03 -0.64613095450E+03  0.67661423221E+03  0.46999998093E+01 0.  1.
       -5    1    3    3    0  502  0.47384629409E+02  0.19507489786E+03  0.58816470206E+03  0.62149764732E+03  0.46999998093E+01 0. -1.
</event>
<event>
 5   0  0.1332630E-03  0.1272210E+04  0.7818609E-02  0.9051898E-01
       -1   -1    0    0    0  501  0.00000000000E+00  0.00000000000E+00  0.22886886877E+03  0.22886886882E+03  0.50400001928E-02 0.  1.
        1   -1    0    0  501    0  0.00000000000E+00  0.00000000000E+00 -0.17679527302E+04  0.17679527302E+04  0.50400001928E-02 0. -1.
    10030    2    1    2    0    0  0.00000000000E+00  0.00000000000E+00 -0.15390838615E+04  0.19968215991E+04  0.12722096391E+04 0.  0.
        5    1    3    3  502    0  0.11213257484E+03 -0.41341164291E+03 -0.15076141673E+04  0.15672924004E+04  0.46999998093E+01 0. -1.
       -5    1    3    3    0  502 -0.11213257484E+03  0.41341164291E+03 -0.31469694113E+02  0.42952919864E+03  0.46999998093E+01 0.  1.
</event>
<event>
 5   0  0.1346593E-03  0.1291186E+04  0.7818609E-02  0.9036584E-01
       -1   -1    0    0    0  501  0.00000000000E+00  0.00000000000E+00  0.60175235318E+03  0.60175235320E+03  0.50400001928E-02 0. -1.
        1   -1    0    0  501    0  0.00000000000E+00  0.00000000000E+00 -0.69262789991E+03  0.69262789993E+03  0.50400001928E-02 0.  1.
    10030    2    1    2    0    0  0.00000000000E+00  0.00000000000E+00 -0.90875546727E+02  0.12943802531E+04  0.12911862277E+04 0.  0.
        2    1    3    3  502    0 -0.43027777244E+03 -0.39879669943E+03  0.22469624924E+03  0.62822462015E+03  0.25500000920E-02 0. -1.
       -2    1    3    3    0  502  0.43027777244E+03  0.39879669943E+03 -0.31557179597E+03  0.66615563298E+03  0.25500000920E-02 0.  1.
</event>
<event>
 5   0  0.2478236E-03  0.1304816E+04  0.7818609E-02  0.9025755E-01
       -2   -1    0    0    0  501  0.00000000000E+00  0.00000000000E+00  0.27421611861E+03  0.27421611862E+03  0.25500000920E-02 0.  1.
        2   -1    0    0  501    0  0.00000000000E+00  0.00000000000E+00 -0.15521928620E+04  0.15521928620E+04  0.25500000920E-02 0. -1.
    10030    2    1    2    0    0  0.00000000000E+00  0.00000000000E+00 -0.12779767434E+04  0.18264089806E+04  0.13048161586E+04 0.  0.
        3    1    3    3  502    0  0.22265684670E+03  0.54214205037E+03 -0.10401615778E+04  0.11939138128E+04  0.10100000352E+00 0. -1.
       -3    1    3    3    0  502 -0.22265684670E+03 -0.54214205037E+03 -0.23781516557E+03  0.63249516784E+03  0.10100000352E+00 0.  1.
</event>
<event>
 5   0  0.2312105E-03  0.1301427E+04  0.7818609E-02  0.9028434E-01
        2   -1    0    0  501    0  0.00000000000E+00  0.00000000000E+00  0.68000290675E+03  0.68000290676E+03  0.25500000920E-02 0.  1.
       -2   -1    0    0    0  501  0.00000000000E+00  0.00000000000E+00 -0.62268559505E+03  0.62268559505E+03  0.25500000920E-02 0. -1.
    10030    2    1    2    0    0  0.00000000000E+00  0.00000000000E+00  0.57317311705E+02  0.13026885018E+04  0.13014269317E+04 0.  0.
        5    1    3    3  502    0  0.24787353270E+03 -0.26278070116E+03 -0.51307845343E+03  0.62750822663E+03  0.46999998093E+01 0. -1.
       -5    1    3    3    0  502 -0.24787353270E+03  0.26278070116E+03  0.57039576513E+03  0.67518027518E+03  0.46999998093E+01 0.  1.
</event>
<event>
 5   0  0.2361043E-03  0.1292928E+04  0.7818609E-02  0.9035192E-01
       -2   -1    0    0    0  501  0.00000000000E+00  0.00000000000E+00  0.56446988822E+03  0.56446988823E+03  0.25500000920E-02 0. -1.
        2   -1    0    0  501    0  0.00000000000E+00  0.00000000000E+00 -0.74036819952E+03  0.74036819953E+03  0.25500000920E-02 0.  1.
    10030    2    1    2    0    0  0.00000000000E+00  0.00000000000E+00 -0.17589831130E+03  0.13048380878E+04  0.12929277703E+04 0.  0.
        2    1    3    3  502    0  0.61919836710E+02  0.30683532218E+03  0.48288804812E+03  0.57546750398E+03  0.25500000920E-02 0. -1.
       -2    1    3    3    0  502 -0.61919836710E+02 -0.30683532218E+03 -0.65878635942E+03  0.72937058377E+03  0.25500000920E-02 0.  1.
</event>
<event>
 5   0  0.1346593E-03  0.1290208E+04  0.7818609E-02  0.9037367E-01
       -1   -1    0    0    0  501  0.00000000000E+00  0.00000000000E+00  0.29287210468E+03  0.29287210473E+03  0.50400001928E-02 0. -1.
        1   -1    0    0  501    0  0.00000000000E+00  0.00000000000E+00 -0.14209579015E+04  0.14209579015E+04  0.50400001928E-02 0.  1.
    10030    2    1    2    0    0  0.00000000000E+00  0.00000000000E+00 -0.11280857968E+04  0.17138300062E+04  0.12902076287E+04 0.  0.
        2    1    3    3  502    0 -0.62151452167E+03  0.16986233749E+03 -0.52150672827E+03  0.82891663151E+03  0.25500000920E-02 0. -1.
       -2    1    3    3    0  502  0.62151452167E+03 -0.16986233749E+03 -0.60657906851E+03  0.88491337469E+03  0.25500000920E-02 0.  1.
</event>
<event>
 5   0  0.2334946E-03  0.9886869E+03  0.7818609E-02  0.9321041E-01
       -2   -1    0    0    0  501  0.00000000000E+00  0.00000000000E+00  0.37600888697E+03  0.37600888698E+03  0.25500000920E-02 0. -1.
        2   -1    0    0  501    0  0.00000000000E+00  0.00000000000E+00 -0.64991928966E+03  0.64991928966E+03  0.25500000920E-02 0.  1.
    10030    2    1    2    0    0  0.00000000000E+00  0.00000000000E+00 -0.27391040269E+03  0.10259281766E+04  0.98868686393E+03 0.  0.
        1    1    3    3  502    0  0.38856249618E+03 -0.27367412027E+03 -0.27808213717E+03  0.55064327162E+03  0.50400001928E-02 0.  1.
       -1    1    3    3    0  502 -0.38856249618E+03  0.27367412027E+03  0.41717344839E+01  0.47528490502E+03  0.50400001928E-02 0. -1.
</event>
<event>
 5   0  0.9131250E-04  0.1296987E+04  0.7818609E-02  0.9031958E-01
        3   -1    0    0  501    0  0.00000000000E+00  0.00000000000E+00  0.53652065419E+03  0.53652066369E+03  0.10100000352E+00 0.  1.
       -3   -1    0    0    0  501  0.00000000000E+00  0.00000000000E+00 -0.78383577158E+03  0.78383577808E+03  0.10100000352E+00 0. -1.
    10030    2    1    2    0    0  0.00000000000E+00  0.00000000000E+00 -0.24731511739E+03  0.13203564418E+04  0.12969874194E+04 0.  0.
        4    1    3    3  502    0 -0.31175328887E+03  0.33870112349E+03  0.34133700803E+03  0.57308038714E+03  0.12699999809E+01 0.  1.
       -4    1    3    3    0  502  0.31175328887E+03 -0.33870112349E+03 -0.58865212542E+03  0.74727605464E+03  0.12699999809E+01 0. -1.
</event>
<event>
 5   0  0.9131250E-04  0.1146389E+04  0.7818609E-02  0.9161121E-01
       -4   -1    0    0    0  501  0.00000000000E+00  0.00000000000E+00  0.10477158155E+04  0.10477165852E+04  0.12699999809E+01 0. -1.
        4   -1    0    0  501    0  0.00000000000E+00  0.00000000000E+00 -0.31358655304E+03  0.31358912473E+03  0.12699999809E+01 0.  1.
    10030    2    1    2    0    0  0.00000000000E+00  0.00000000000E+00  0.73412926247E+03  0.13613057100E+04  0.11463888790E+04 0.  0.
        4    1    3    3  502    0 -0.16698060527E+03  0.47951942530E+03  0.68287181346E+03  0.85096235422E+03  0.12699999809E+01 0. -1.
       -4    1    3    3    0  502  0.16698060527E+03 -0.47951942530E+03  0.51257449005E+02  0.51034335575E+03  0.12699999809E+01 0.  1.
</event>
<event>
 5   0  0.1324721E-03  0.1263418E+04  0.7818609E-02  0.9059089E-01
        1   -1    0    0  501    0  0.00000000000E+00  0.00000000000E+00  0.11350101661E+04  0.11350101661E+04  0.50400001928E-02 0. -1.
       -1   -1    0    0    0  501  0.00000000000E+00  0.00000000000E+00 -0.35158823883E+03  0.35158823886E+03  0.50400001928E-02 0.  1.
    10030    2    1    2    0    0  0.00000000000E+00  0.00000000000E+00  0.78342192730E+03  0.14865984050E+04  0.12634179441E+04 0.  0.
        1    1    3    3  502    0 -0.28196041304E+03  0.96489560786E+02  0.10470990433E+04  0.10886819170E+04  0.50400001928E-02 0. -1.
       -1    1    3    3    0  502  0.28196041304E+03 -0.96489560786E+02 -0.26367711603E+03  0.39791648798E+03  0.50400001928E-02 0.  1.
</event>
<event>
 5   0  0.1387622E-03  0.1591116E+04  0.7818609E-02  0.8826024E-01
       -1   -1    0    0    0  501  0.00000000000E+00  0.00000000000E+00  0.60221516584E+03  0.60221516586E+03  0.50400001928E-02 0.  1.
        1   -1    0    0  501    0  0.00000000000E+00  0.00000000000E+00 -0.10509739674E+04  0.10509739674E+04  0.50400001928E-02 0. -1.
    10030    2    1    2    0    0  0.00000000000E+00  0.00000000000E+00 -0.44875880152E+03  0.16531891332E+04  0.15911159129E+04 0.  0.
        3    1    3    3  502    0 -0.70667298326E+01  0.16461732202E+03 -0.10330512544E+04  0.10461088403E+04  0.10100000352E+00 0. -1.
       -3    1    3    3    0  502  0.70667298326E+01 -0.16461732202E+03  0.58429245287E+03  0.60708029293E+03  0.10100000352E+00 0.  1.
</event>
<event>
 5   0  0.1346593E-03  0.1322286E+04  0.7818609E-02  0.9012077E-01
       -1   -1    0    0    0  501  0.00000000000E+00  0.00000000000E+00  0.33547450180E+03  0.33547450184E+03  0.50400001928E-02 0. -1.
        1   -1    0    0  501    0  0.00000000000E+00  0.00000000000E+00 -0.13029600628E+04  0.13029600628E+04  0.50400001928E-02 0.  1.
    10030    2    1    2    0    0  0.00000000000E+00  0.00000000000E+00 -0.96748556096E+03  0.16384345646E+04  0.13222857149E+04 0.  0.
        2    1    3    3  502    0  0.30461173250E+03  0.51382269787E+03 -0.13260086450E+03  0.61187013467E+03  0.25500000920E-02 0. -1.
       -2    1    3    3    0  502 -0.30461173250E+03 -0.51382269787E+03 -0.83488469646E+03  0.10265644299E+04  0.25500000920E-02 0.  1.
</event>
<event>
 5   0  0.1387622E-03  0.1274363E+04  0.7818609E-02  0.9050146E-01
       -1   -1    0    0    0  501  0.00000000000E+00  0.00000000000E+00  0.42955743955E+03  0.42955743958E+03  0.50400001928E-02 0. -1.
        1   -1    0    0  501    0  0.00000000000E+00  0.00000000000E+00 -0.94516008570E+03  0.94516008572E+03  0.50400001928E-02 0.  1.
    10030    2    1    2    0    0  0.00000000000E+00  0.00000000000E+00 -0.51560264615E+03  0.13747175253E+04  0.12743634433E+04 0.  0.
        3    1    3    3  502    0  0.24582237457E+03 -0.18258849937E+03  0.34498001651E+03  0.46127911499E+03  0.10100000352E+00 0. -1.
       -3    1    3    3    0  502 -0.24582237457E+03  0.18258849937E+03 -0.86058266266E+03  0.91343841030E+03  0.10100000352E+00 0.  1.
</event>
<event>
 5   0  0.1310461E-03  0.1246343E+04  0.7818609E-02  0.9073232E-01
        1   -1    0    0  501    0  0.00000000000E+00  0.00000000000E+00  0.90890100899E+03  0.90890100900E+03  0.50400001928E-02 0.  1.
       -1   -1    0    0    0  501  0.00000000000E+00  0.00000000000E+00 -0.42726623831E+03  0.42726623834E+03  0.50400001928E-02 0. -1.
    10030    2    1    2    0    0  0.00000000000E+00  0.00000000000E+00  0.48163477068E+03  0.13361672473E+04  0.12463429947E+04 0.  0.
        4    1    3    3  502    0 -0.47312102065E+03 -0.37892627788E+03  0.39585104301E+03  0.72396704718E+03  0.12699999809E+01 0.  1.
       -4    1    3    3    0  502  0.47312102065E+03  0.37892627788E+03  0.85783727662E+02  0.61220020016E+03  0.12699999809E+01 0. -1.
</event>
<event>
 5   0  0.1346593E-03  0.1302663E+04  0.7818609E-02  0.9027456E-01
       -1   -1    0    0    0  501  0.00000000000E+00  0.00000000000E+00  0.38013202228E+03  0.38013202232E+03  0.50400001928E-02 0. -1.
        1   -1    0    0  501    0  0.00000000000E+00  0.00000000000E+00 -0.11160137073E+04  0.11160137074E+04  0.50400001928E-02 0.  1.
    10030    2    1    2    0    0  0.00000000000E+00  0.00000000000E+00 -0.73588168506E+03  0.14961457297E+04  0.13026627307E+04 0.  0.
        2    1    3    3  502    0 -0.27764846490E+03  0.49545663822E+03 -0.73415156232E+03  0.92819419675E+03  0.25500000920E-02 0.  1.
       -2    1    3    3    0  502  0.27764846490E+03 -0.49545663822E+03 -0.17301227345E+01  0.56795153292E+03  0.25500000920E-02 0. -1.
</event>
<event>
 5   0  0.2361043E-03  0.1302814E+04  0.7818609E-02  0.9027336E-01
       -2   -1    0    0    0  501  0.00000000000E+00  0.00000000000E+00  0.29810934546E+03  0.29810934547E+03  0.25500000920E-02 0. -1.
        2   -1    0    0  501    0  0.00000000000E+00  0.00000000000E+00 -0.14234080028E+04  0.14234080028E+04  0.25500000920E-02 0.  1.
    10030    2    1    2    0    0  0.00000000000E+00  0.00000000000E+00 -0.11252986573E+04  0.17215173483E+04  0.13028142278E+04 0.  0.
        2    1    3    3  502    0 -0.15701111405E+03  0.19625348261E+02 -0.13976274129E+04  0.14065560883E+04  0.25500000920E-02 0.  1.
       -2    1    3    3    0  502  0.15701111405E+03 -0.19625348261E+02  0.27232875551E+03  0.31496126002E+03  0.25500000920E-02 0. -1.
</event>
<event>
 5   0  0.1346593E-03  0.1299824E+04  0.7818609E-02  0.9029705E-01
        1   -1    0    0  501    0  0.00000000000E+00  0.00000000000E+00  0.18393443801E+04  0.18393443801E+04  0.50400001928E-02 0. -1.
       -1   -1    0    0    0  501  0.00000000000E+00  0.00000000000E+00 -0.22963924749E+03  0.22963924754E+03  0.50400001928E-02 0.  1.
    10030    2    1    2    0    0  0.00000000000E+00  0.00000000000E+00  0.16097051326E+04  0.20689836277E+04  0.12998240795E+04 0.  0.
        2    1    3    3  502    0 -0.10743860229E+03  0.18184795403E+03  0.17831895397E+04  0.17956549407E+04  0.25500000920E-02 0. -1.
       -2    1    3    3    0  502  0.10743860229E+03 -0.18184795403E+03 -0.17348440702E+03  0.27332868699E+03  0.25500000920E-02 0.  1.
</event>
<event>
 5   0  0.1332630E-03  0.1291571E+04  0.7818609E-02  0.9036276E-01
        1   -1    0    0  501    0  0.00000000000E+00  0.00000000000E+00  0.17195594474E+04  0.17195594474E+04  0.50400001928E-02 0.  1.
       -1   -1    0    0    0  501  0.00000000000E+00  0.00000000000E+00 -0.24252656365E+03  0.24252656370E+03  0.50400001928E-02 0. -1.
    10030    2    1    2    0    0  0.00000000000E+00  0.00000000000E+00  0.14770328837E+04  0.19620860111E+04  0.12915708944E+04 0.  0.
        5    1    3    3  502    0  0.26773904085E+03  0.41834042660E+03  0.11155978058E+03  0.50907816803E+03  0.46999998093E+01 0. -1.
       -5    1    3    3    0  502 -0.26773904085E+03 -0.41834042660E+03  0.13654731031E+04  0.14530078430E+04  0.46999998093E+01 0.  1.
</event>
<event>
 5   0  0.9131250E-04  0.1291171E+04  0.7818609E-02  0.9036596E-01
        3   -1    0    0  501    0  0.00000000000E+00  0.00000000000E+00  0.13323854170E+04  0.13323854208E+04  0.10100000352E+00 0. -1.
       -3   -1    0    0    0  501  0.00000000000E+00  0.00000000000E+00 -0.31280774443E+03  0.31280776074E+03  0.10100000352E+00 0.  1.
    10030    2    1    2    0    0  0.00000000000E+00  0.00000000000E+00  0.10195776726E+04  0.16451931816E+04  0.12911707766E+04 0.  0.
        2    1    3    3  502    0 -0.24774782699E+02 -0.31117126672E+03 -0.21025559013E+03  0.37636253836E+03  0.25500000920E-02 0.  1.
       -2    1    3    3    0  502  0.24774782699E+02  0.31117126672E+03  0.12298332627E+04  0.12688306432E+04  0.25500000920E-02 0. -1.
</event>
<event>
 5   0  0.2478236E-03  0.1305681E+04  0.7818609E-02  0.9025072E-01
        2   -1    0    0  501    0  0.00000000000E+00  0.00000000000E+00  0.16352294194E+04  0.16352294194E+04  0.25500000920E-02 0.  1.
       -2   -1    0    0    0  501  0.00000000000E+00  0.00000000000E+00 -0.26063680854E+03  0.26063680855E+03  0.25500000920E-02 0. -1.
    10030    2    1    2    0    0  0.00000000000E+00  0.00000000000E+00  0.13745926109E+04  0.18958662280E+04  0.13056813962E+04 0.  0.
        3    1    3    3  502    0  0.12989215939E+03 -0.63570412462E+03  0.79209562976E+03  0.10239175768E+04  0.10100000352E+00 0. -1.
       -3    1    3    3    0  502 -0.12989215939E+03  0.63570412462E+03  0.58249698114E+03  0.87194865122E+03  0.10100000352E+00 0.  1.
</event>
<event>
 5   0  0.2478236E-03  0.1276672E+04  0.7818609E-02  0.9048272E-01
        2   -1    0    0  501    0  0.00000000000E+00  0.00000000000E+00  0.53093963203E+03  0.53093963204E+03  0.25500000920E-02 0.  1.
       -2   -1    0    0    0  501  0.00000000000E+00  0.00000000000E+00 -0.76745555227E+03  0.76745555227E+03  0.25500000920E-02 0. -1.
    10030    2    1    2    0    0  0.00000000000E+00  0.00000000000E+00 -0.23651592023E+03  0.12983951843E+04  0.12766715608E+04 0.  0.
        3    1    3    3  502    0  0.58258644074E+03 -0.19773549137E+03  0.54832853981E+02  0.61766733567E+03  0.10100000352E+00 0.  1.
       -3    1    3    3    0  502 -0.58258644074E+03  0.19773549137E+03 -0.29134877421E+03  0.68072784864E+03  0.10100000352E+00 0. -1.
</event>
<event>
 5   0  0.2401211E-03  0.1291997E+04  0.7818609E-02  0.9035936E-01
       -2   -1    0    0    0  501  0.00000000000E+00  0.00000000000E+00  0.33952869567E+03  0.33952869568E+03  0.25500000920E-02 0.  1.
        2   -1    0    0  501    0  0.00000000000E+00  0.00000000000E+00 -0.12290982764E+04  0.12290982764E+04  0.25500000920E-02 0. -1.
    10030    2    1    2    0    0  0.00000000000E+00  0.00000000000E+00 -0.88956958071E+03  0.15686269721E+04  0.12919971124E+04 0.  0.
        4    1    3    3  502    0  0.45588201237E+02 -0.40146959881E+03  0.16717544673E+03  0.43727035774E+03  0.12699999809E+01 0.  1.
       -4    1    3    3    0  502 -0.45588201237E+02  0.40146959881E+03 -0.10567450274E+04  0.11313566143E+04  0.12699999809E+01 0. -1.
</event>
<event>
 5   0  0.2478236E-03  0.1318120E+04  0.7818609E-02  0.9015318E-01
       -2   -1    0    0    0  501  0.00000000000E+00  0.00000000000E+00  0.12953651921E+04  0.12953651921E+04  0.25500000920E-02 0.  1.
        2   -1    0    0  501    0  0.00000000000E+00  0.00000000000E+00 -0.33531885428E+03  0.33531885429E+03  0.25500000920E-02 0. -1.
    10030    2    1    2    0    0  0.00000000000E+00  0.00000000000E+00  0.96004633782E+03  0.16306840464E+04  0.13181204377E+04 0.  0.
        3    1    3    3  502    0 -0.17345418442E+03 -0.25617359845E+02 -0.30593577721E+03  0.35261780045E+03  0.10100000352E+00 0. -1.
       -3    1    3    3    0  502  0.17345418442E+03  0.25617359845E+02  0.12659821150E+04  0.12780662459E+04  0.10100000352E+00 0.  1.
</event>
<event>
 5   0  0.2334946E-03  0.1308512E+04  0.7818609E-02  0.9022842E-01
       -2   -1    0    0    0  501  0.00000000000E+00  0.00000000000E+00  0.37788501721E+03  0.37788501722E+03  0.25500000920E-02 0. -1.
        2   -1    0    0  501    0  0.00000000000E+00  0.00000000000E+00 -0.11327550614E+04  0.11327550614E+04  0.25500000920E-02 0.  1.
    10030    2    1    2    0    0  0.00000000000E+00  0.00000000000E+00 -0.75487004416E+03  0.15106400786E+04  0.13085123857E+04 0.  0.
        1    1    3    3  502    0 -0.47345812728E+03  0.83751389296E+02 -0.88967992766E+03  0.10112899027E+04  0.50400001928E-02 0.  1.
       -1    1    3    3    0  502  0.47345812728E+03 -0.83751389296E+02  0.13480988350E+03  0.49935017594E+03  0.50400001928E-02 0. -1.
</event>
<event>
 5   0  0.2478236E-03  0.1305088E+04  0.7818609E-02  0.9025540E-01
        2   -1    0    0  501    0  0.00000000000E+00  0.00000000000E+00  0.60470430194E+03  0.60470430195E+03  0.25500000920E-02 0. -1.
       -2   -1    0    0    0  501  0.00000000000E+00  0.00000000000E+00 -0.70416886623E+03  0.70416886623E+03  0.25500000920E-02 0.  1.
    10030    2    1    2    0    0  0.00000000000E+00  0.00000000000E+00 -0.99464564284E+02  0.13088731682E+04  0.13050884149E+04 0.  0.
        3    1    3    3  502    0 -0.13033945531E+03  0.46617775174E+03 -0.48861289768E+03  0.68778822599E+03  0.10100000352E+00 0.  1.
       -3    1    3    3    0  502  0.13033945531E+03 -0.46617775174E+03  0.38914833340E+03  0.62108494219E+03  0.10100000352E+00 0. -1.
</event>
<event>
 5   0  0.2312105E-03  0.1300887E+04  0.7818609E-02  0.9028862E-01
       -2   -1    0    0    0  501  0.00000000000E+00  0.00000000000E+00  0.30069243106E+03  0.30069243107E+03  0.25500000920E-02 0. -1.
        2   -1    0    0  501    0  0.00000000000E+00  0.00000000000E+00 -0.14070084370E+04  0.14070084370E+04  0.25500000920E-02 0.  1.
    10030    2    1    2    0    0  0.00000000000E+00  0.00000000000E+00 -0.11063160059E+04  0.17077008681E+04  0.13008870627E+04 0.  0.
        5    1    3    3  502    0 -0.38819857392E+03  0.28751308780E+03 -0.11248967367E+04  0.12242453458E+04  0.46999998093E+01 0.  1.
       -5    1    3    3    0  502  0.38819857392E+03 -0.28751308780E+03  0.18580730775E+02  0.48345552226E+03  0.46999998093E+01 0. -1.
</event>
<event>
 5   0  0.1387622E-03  0.1337460E+04  0.7818609E-02  0.9000375E-01
        1   -1    0    0  501    0  0.00000000000E+00  0.00000000000E+00  0.36165428887E+03  0.36165428890E+03  0.50400001928E-02 0.  1.
       -1   -1    0    0    0  501  0.00000000000E+00  0.00000000000E+00 -0.12365404098E+04  0.12365404098E+04  0.50400001928E-02 0. -1.
    10030    2    1    2    0    0  0.00000000000E+00  0.00000000000E+00 -0.87488612092E+03  0.15981946987E+04  0.13374604930E+04 0.  0.
        3    1    3    3  502    0 -0.44589121618E+03 -0.42140396712E+03 -0.75539750416E+03  0.97315244421E+03  0.10100000352E+00 0. -1.
       -3    1    3    3    0  502  0.44589121618E+03  0.42140396712E+03 -0.11948861676E+03  0.62504225450E+03  0.10100000352E+00 0.  1.
</event>
<event>
 5   0  0.1324721E-03  0.1303513E+04  0.7818609E-02  0.9026784E-01
        1   -1    0    0  501    0  0.00000000000E+00  0.00000000000E+00  0.61438031829E+03  0.61438031831E+03  0.50400001928E-02 0.  1.
       -1   -1    0    0    0  501  0.00000000000E+00  0.00000000000E+00 -0.69140619787E+03  0.69140619789E+03  0.50400001928E-02 0. -1.
    10030    2    1    2    0    0  0.00000000000E+00  0.00000000000E+00 -0.77025879582E+02  0.13057865162E+04  0.13035127310E+04 0.  0.
        1    1    3    3  502    0  0.25121709101E+02  0.14117148429E+03  0.59838369717E+03  0.61532392876E+03  0.50400001928E-02 0.  1.
       -1    1    3    3    0  502 -0.25121709101E+02 -0.14117148429E+03 -0.67540957675E+03  0.69046258743E+03  0.50400001928E-02 0. -1.
</event>
<event>
 5   0  0.1387622E-03  0.1311414E+04  0.7818609E-02  0.9020563E-01
       -1   -1    0    0    0  501  0.00000000000E+00  0.00000000000E+00  0.13201489991E+04  0.13201489991E+04  0.50400001928E-02 0. -1.
        1   -1    0    0  501    0  0.00000000000E+00  0.00000000000E+00 -0.32568410662E+03  0.32568410666E+03  0.50400001928E-02 0.  1.
    10030    2    1    2    0    0  0.00000000000E+00  0.00000000000E+00  0.99446489244E+03  0.16458331057E+04  0.13114138133E+04 0.  0.
        3    1    3    3  502    0 -0.50382699890E+03 -0.28172774571E+03  0.88757658870E+03  0.10587749423E+04  0.10100000352E+00 0. -1.
       -3    1    3    3    0  502  0.50382699890E+03  0.28172774571E+03  0.10688830375E+03  0.58705816339E+03  0.10100000352E+00 0.  1.
</event>
<event>
 5   0  0.1310461E-03  0.1253288E+04  0.7818609E-02  0.9067451E-01
        1   -1    0    0  501    0  0.00000000000E+00  0.00000000000E+00  0.64986682119E+03  0.64986682121E+03  0.50400001928E-02 0.  1.
       -1   -1    0    0    0  501  0.00000000000E+00  0.00000000000E+00 -0.60425108534E+03  0.60425108536E+03  0.50400001928E-02 0. -1.
    10030    2    1    2    0    0  0.00000000000E+00  0.00000000000E+00  0.45615735851E+02  0.12541179066E+04  0.12532880468E+04 0.  0.
        4    1    3    3  502    0 -0.34780463708E+03  0.44278983430E+03 -0.25242009648E+03  0.61704815123E+03  0.12699999809E+01 0. -1.
       -4    1    3    3    0  502  0.34780463708E+03 -0.44278983430E+03  0.29803583233E+03  0.63706975535E+03  0.12699999809E+01 0.  1.
</event>
<event>
 5   0  0.1310461E-03  0.1208859E+04  0.7818609E-02  0.9105137E-01
       -1   -1    0    0    0  501  0.00000000000E+00  0.00000000000E+00  0.10524157014E+04  0.10524157014E+04  0.50400001928E-02 0.  1.
        1   -1    0    0  501    0  0.00000000000E+00  0.00000000000E+00 -0.34713964086E+03  0.34713964089E+03  0.50400001928E-02 0. -1.
    10030    2    1    2    0    0  0.00000000000E+00  0.00000000000E+00  0.70527606058E+03  0.13995553423E+04  0.12088593114E+04 0.  0.
        4    1    3    3  502    0 -0.53727472925E+02  0.10708836900E+03  0.10385287148E+04  0.10454176508E+04  0.12699999809E+01 0.  1.
       -4    1    3    3    0  502  0.53727472925E+02 -0.10708836900E+03 -0.33325265425E+03  0.35413769157E+03  0.12699999809E+01 0. -1.
</event>
<event>
 5   0  0.2401211E-03  0.1293482E+04  0.7818609E-02  0.9034750E-01
       -2   -1    0    0    0  501  0.00000000000E+00  0.00000000000E+00  0.43767886925E+03  0.43767886926E+03  0.25500000920E-02 0.  1.
        2   -1    0    0  501    0  0.00000000000E+00  0.00000000000E+00 -0.95566410076E+03  0.95566410076E+03  0.25500000920E-02 0. -1.
    10030    2    1    2    0    0  0.00000000000E+00  0.00000000000E+00 -0.51798523151E+03  0.13933429700E+04  0.12934820958E+04 0.  0.
        4    1    3    3  502    0 -0.53180123784E+03  0.35642605006E+03 -0.16014618570E+03  0.65992461646E+03  0.12699999809E+01 0. -1.
       -4    1    3    3    0  502  0.53180123784E+03 -0.35642605006E+03 -0.35783904581E+03  0.73341835355E+03  0.12699999809E+01 0.  1.
</event>
<event>
 5   0  0.2312105E-03  0.1300368E+04  0.7818609E-02  0.9029274E-01
        2   -1    0    0  501    0  0.00000000000E+00  0.00000000000E+00  0.74874904436E+03  0.74874904436E+03  0.25500000920E-02 0. -1.
       -2   -1    0    0    0  501  0.00000000000E+00  0.00000000000E+00 -0.56459369052E+03  0.56459369052E+03  0.25500000920E-02 0.  1.
    10030    2    1    2    0    0  0.00000000000E+00  0.00000000000E+00  0.18415535384E+03  0.13133427349E+04  0.13003676191E+04 0.  0.
        5    1    3    3  502    0  0.18779805508E+03 -0.18209999413E+02 -0.53631794956E+03  0.56855848124E+03  0.46999998093E+01 0.  1.
       -5    1    3    3    0  502 -0.18779805508E+03  0.18209999413E+02  0.72047330340E+03  0.74478425364E+03  0.46999998093E+01 0. -1.
</event>
<event>
 5   0  0.1310461E-03  0.1295832E+04  0.7818609E-02  0.9032877E-01
        1   -1    0    0  501    0  0.00000000000E+00  0.00000000000E+00  0.10256949580E+04  0.10256949580E+04  0.50400001928E-02 0. -1.
       -1   -1    0    0    0  501  0.00000000000E+00  0.00000000000E+00 -0.40927861175E+03  0.40927861178E+03  0.50400001928E-02 0.  1.
    10030    2    1    2    0    0  0.00000000000E+00  0.00000000000E+00  0.61641634625E+03  0.14349735698E+04  0.12958317924E+04 0.  0.
        4    1    3    3  502    0 -0.43386674809E+03  0.15433188944E+03  0.81292734701E+03  0.93429715381E+03  0.12699999809E+01 0. -1.
       -4    1    3    3    0  502  0.43386674809E+03 -0.15433188944E+03 -0.19651100076E+03  0.50067641598E+03  0.12699999809E+01 0.  1.
</event>
<event>
 5   0  0.2478236E-03  0.1310905E+04  0.7818609E-02  0.9020962E-01
       -2   -1    0    0    0  501  0.00000000000E+00  0.00000000000E+00  0.74349785509E+03  0.74349785509E+03  0.25500000920E-02 0. -1.
        2   -1    0    0  501    0  0.00000000000E+00  0.00000000000E+00 -0.57783361570E+03  0.57783361570E+03  0.25500000920E-02 0.  1.
    10030    2    1    2    0    0  0.00000000000E+00  0.00000000000E+00  0.16566423939E+03  0.13213314708E+04  0.13109051131E+04 0.  0.
        3    1    3    3  502    0  0.56592049521E+03 -0.17105623003E+02  0.41570019289E+03  0.70239965106E+03  0.10100000352E+00 0. -1.
       -3    1    3    3    0  502 -0.56592049521E+03  0.17105623003E+02 -0.25003595350E+03  0.61893181974E+03  0.10100000352E+00 0.  1.
</event>
<event>
 5   0  0.2334946E-03  0.1282838E+04  0.7818609E-02  0.9043287E-01
       -2   -1    0    0    0  501  0.00000000000E+00  0.00000000000E+00  0.37911682672E+03  0.37911682672E+03  0.25500000920E-02 0. -1.
        2   -1    0    0  501    0  0.00000000000E+00  0.00000000000E+00 -0.10852015547E+04  0.10852015547E+04  0.25500000920E-02 0.  1.
    10030    2    1    2    0    0  0.00000000000E+00  0.00000000000E+00 -0.70608472797E+03  0.14643183814E+04  0.12828377446E+04 0.  0.
        1    1    3    3  502    0 -0.46191123043E+03  0.18367867280E+03  0.10966540431E+03  0.50904453692E+03  0.50400001928E-02 0. -1.
       -1    1    3    3    0  502  0.46191123043E+03 -0.18367867280E+03 -0.81575013228E+03  0.95527384450E+03  0.50400001928E-02 0.  1.
</event>
<event>
 5   0  0.2361043E-03  0.1302391E+04  0.7818609E-02  0.9027671E-01
       -2   -1    0    0    0  501  0.00000000000E+00  0.00000000000E+00  0.39118955855E+03  0.39118955856E+03  0.25500000920E-02 0.  1.
        2   -1    0    0  501    0  0.00000000000E+00  0.00000000000E+00 -0.10840160643E+04  0.10840160643E+04  0.25500000920E-02 0. -1.
    10030    2    1    2    0    0  0.00000000000E+00  0.00000000000E+00 -0.69282650579E+03  0.14752056229E+04  0.13023912863E+04 0.  0.
        2    1    3    3  502    0 -0.26643630221E+02  0.33143991266E+03 -0.98061191944E+03  0.10354525751E+04  0.25500000920E-02 0. -1.
       -2    1    3    3    0  502  0.26643630221E+02 -0.33143991266E+03  0.28778541365E+03  0.43975304780E+03  0.25500000920E-02 0.  1.
</event>
<event>
 5   0  0.9131250E-04  0.1304137E+04  0.7818609E-02  0.9026291E-01
        4   -1    0    0  501    0  0.00000000000E+00  0.00000000000E+00  0.50063603155E+03  0.50063764240E+03  0.12699999809E+01 0. -1.
       -4   -1    0    0    0  501  0.00000000000E+00  0.00000000000E+00 -0.84930238896E+03  0.84930333850E+03  0.12699999809E+01 0.  1.
    10030    2    1    2    0    0  0.00000000000E+00  0.00000000000E+00 -0.34866635741E+03  0.13499409809E+04  0.13041366581E+04 0.  0.
        1    1    3    3  502    0 -0.59415664091E+02  0.41166346099E+03 -0.69416258609E+03  0.80923341639E+03  0.50400001928E-02 0.  1.
       -1    1    3    3    0  502  0.59415664091E+02 -0.41166346099E+03  0.34549622868E+03  0.54070756450E+03  0.50400001928E-02 0. -1.
</event>
<event>
 5   0  0.1310461E-03  0.1283257E+04  0.7818609E-02  0.9042949E-01
        1   -1    0    0  501    0  0.00000000000E+00  0.00000000000E+00  0.77207005140E+03  0.77207005142E+03  0.50400001928E-02 0. -1.
       -1   -1    0    0    0  501  0.00000000000E+00  0.00000000000E+00 -0.53322547404E+03  0.53322547407E+03  0.50400001928E-02 0.  1.
    10030    2    1    2    0    0  0.00000000000E+00  0.00000000000E+00  0.23884457736E+03  0.13052955255E+04  0.12832574476E+04 0.  0.
        4    1    3    3  502    0 -0.18444203153E+03 -0.26453553929E+03  0.68364460413E+03  0.75588985454E+03  0.12699999809E+01 0. -1.
       -4    1    3    3    0  502  0.18444203153E+03  0.26453553929E+03 -0.44480002678E+03  0.54940567094E+03  0.12699999809E+01 0.  1.
</event>
<event>
 5   0  0.2312105E-03  0.1306529E+04  0.7818609E-02  0.9024403E-01
       -2   -1    0    0    0  501  0.00000000000E+00  0.00000000000E+00  0.76856044685E+03  0.76856044685E+03  0.25500000920E-02 0.  1.
        2   -1    0    0  501    0  0.00000000000E+00  0.00000000000E+00 -0.55526493580E+03  0.55526493580E+03  0.25500000920E-02 0. -1.
    10030    2    1    2    0    0  0.00000000000E+00  0.00000000000E+00  0.21329551105E+03  0.13238253827E+04  0.13065292453E+04 0.  0.
        5    1    3    3  502    0  0.36213206745E+03 -0.21684355944E+03 -0.39852219485E+03  0.58051941685E+03  0.46999998093E+01 0. -1.
       -5    1    3    3    0  502 -0.36213206745E+03  0.21684355944E+03  0.61181770591E+03  0.74330596581E+03  0.46999998093E+01 0.  1.
</event>
<event>
 5   0  0.9131250E-04  0.1085102E+04  0.7818609E-02  0.9219835E-01
        4   -1    0    0  501    0  0.00000000000E+00  0.00000000000E+00  0.48502290734E+03  0.48502457004E+03  0.12699999809E+01 0.  1.
       -4   -1    0    0    0  501  0.00000000000E+00  0.00000000000E+00 -0.60689947255E+03  0.60690080136E+03  0.12699999809E+01 0. -1.
    10030    2    1    2    0    0  0.00000000000E+00  0.00000000000E+00 -0.12187656521E+03  0.10919253714E+04  0.10851023544E+04 0.  0.
        2    1    3    3  502    0  0.42788918598E+03  0.31682708026E+03 -0.16596517143E+03  0.55768538837E+03  0.25500000920E-02 0.  1.
       -2    1    3    3    0  502 -0.42788918598E+03 -0.31682708026E+03  0.44088606215E+02  0.53423998303E+03  0.25500000920E-02 0. -1.
</event>
<event>
 5   0  0.1332630E-03  0.1317038E+04  0.7818609E-02  0.9016162E-01
        1   -1    0    0  501    0  0.00000000000E+00  0.00000000000E+00  0.15578440927E+04  0.15578440927E+04  0.50400001928E-02 0. -1.
       -1   -1    0    0    0  501  0.00000000000E+00  0.00000000000E+00 -0.27836357070E+03  0.27836357074E+03  0.50400001928E-02 0.  1.
    10030    2    1    2    0    0  0.00000000000E+00  0.00000000000E+00  0.12794805220E+04  0.18362076634E+04  0.13170376521E+04 0.  0.
        5    1    3    3  502    0  0.24177062061E+03  0.36008903834E+01 -0.21420741962E+03  0.32306796192E+03  0.46999998093E+01 0.  1.
       -5    1    3    3    0  502 -0.24177062061E+03 -0.36008903834E+01  0.14936879416E+04  0.15131397015E+04  0.46999998093E+01 0. -1.
</event>
<event>
 5   0  0.1310461E-03  0.1296341E+04  0.7818609E-02  0.9032472E-01
        1   -1    0    0  501    0  0.00000000000E+00  0.00000000000E+00  0.68141477617E+03  0.68141477619E+03  0.50400001928E-02 0.  1.
       -1   -1    0    0    0  501  0.00000000000E+00  0.00000000000E+00 -0.61654767573E+03  0.61654767575E+03  0.50400001928E-02 0. -1.
    10030    2    1    2    0    0  0.00000000000E+00  0.00000000000E+00  0.64867100442E+02  0.12979624519E+04  0.12963405363E+04 0.  0.
        4    1    3    3  502    0 -0.14817417203E+03  0.11407703381E+03  0.65381773236E+03  0.68003558359E+03  0.12699999809E+01 0.  1.
       -4    1    3    3    0  502  0.14817417203E+03 -0.11407703381E+03 -0.58895063192E+03  0.61792686836E+03  0.12699999809E+01 0. -1.
</event>
<event>
 5   0  0.1387622E-03  0.1323014E+04  0.7818609E-02  0.9011512E-01
        1   -1    0    0  501    0  0.00000000000E+00  0.00000000000E+00  0.16515998870E+04  0.16515998870E+04  0.50400001928E-02 0. -1.
       -1   -1    0    0    0  501  0.00000000000E+00  0.00000000000E+00 -0.26494988661E+03  0.26494988665E+03  0.50400001928E-02 0.  1.
    10030    2    1    2    0    0  0.00000000000E+00  0.00000000000E+00  0.13866500004E+04  0.19165497736E+04  0.13230135341E+04 0.  0.
        3    1    3    3  502    0 -0.34034033322E+03  0.52934818095E+03  0.98861050742E+03  0.11719179940E+04  0.10100000352E+00 0. -1.
       -3    1    3    3    0  502  0.34034033322E+03 -0.52934818095E+03  0.39803949295E+03  0.74463177963E+03  0.10100000352E+00 0.  1.
</event>
<event>
 5   0  0.9131250E-04  0.1295223E+04  0.7818609E-02  0.9033362E-01
       -3   -1    0    0    0  501  0.00000000000E+00  0.00000000000E+00  0.70086033810E+03  0.70086034538E+03  0.10100000352E+00 0. -1.
        3   -1    0    0  501    0  0.00000000000E+00  0.00000000000E+00 -0.59840784300E+03  0.59840785153E+03  0.10100000352E+00 0.  1.
    10030    2    1    2    0    0  0.00000000000E+00  0.00000000000E+00  0.10245249510E+03  0.12992681969E+04  0.12952225036E+04 0.  0.
        3    1    3    3  502    0 -0.59010018325E+03 -0.23825960974E+03  0.17166147717E+03  0.65913089811E+03  0.10100000352E+00 0.  1.
       -3    1    3    3    0  502  0.59010018325E+03  0.23825960974E+03 -0.69208982075E+02  0.64013729879E+03  0.10100000352E+00 0. -1.
</event>
<event>
 5   0  0.1332630E-03  0.1301205E+04  0.7818609E-02  0.9028610E-01
        1   -1    0    0  501    0  0.00000000000E+00  0.00000000000E+00  0.21090613644E+04  0.21090613644E+04  0.50400001928E-02 0. -1.
       -1   -1    0    0    0  501  0.00000000000E+00  0.00000000000E+00 -0.20069751704E+03  0.20069751710E+03  0.50400001928E-02 0.  1.
    10030    2    1    2    0    0  0.00000000000E+00  0.00000000000E+00  0.19083638474E+04  0.23097588816E+04  0.13012046406E+04 0.  0.
        5    1    3    3  502    0 -0.11114010685E+02 -0.49866318639E+03  0.16956370990E+04  0.17674828871E+04  0.46999998093E+01 0. -1.
       -5    1    3    3    0  502  0.11114010685E+02  0.49866318639E+03  0.21272674843E+03  0.54227599448E+03  0.46999998093E+01 0.  1.
</event>
<event>
 5   0  0.1310461E-03  0.1278296E+04  0.7818609E-02  0.9046956E-01
       -1   -1    0    0    0  501  0.00000000000E+00  0.00000000000E+00  0.46552687157E+03  0.46552687160E+03  0.50400001928E-02 0.  1.
        1   -1    0    0  501    0  0.00000000000E+00  0.00000000000E+00 -0.87752281639E+03  0.87752281641E+03  0.50400001928E-02 0. -1.
    10030    2    1    2    0    0  0.00000000000E+00  0.00000000000E+00 -0.41199594482E+03  0.13430496880E+04  0.12782964468E+04 0.  0.
        4    1    3    3  502    0 -0.35642239289E+01 -0.58591228909E+03 -0.47428151709E+03  0.75382390818E+03  0.12699999809E+01 0. -1.
       -4    1    3    3    0  502  0.35642239289E+01  0.58591228909E+03  0.62285572270E+02  0.58922577982E+03  0.12699999809E+01 0.  1.
</event>
<event>
 5   0  0.9131250E-04  0.1263361E+04  0.7818609E-02  0.9059136E-01
        3   -1    0    0  501    0  0.00000000000E+00  0.00000000000E+00  0.35779137184E+03  0.35779138609E+03  0.10100000352E+00 0.  1.
       -3   -1    0    0    0  501  0.00000000000E+00  0.00000000000E+00 -0.11152312776E+04  0.11152312822E+04  0.10100000352E+00 0. -1.
    10030    2    1    2    0    0  0.00000000000E+00  0.00000000000E+00 -0.75743990578E+03  0.14730226683E+04  0.12633608235E+04 0.  0.
        2    1    3    3  502    0 -0.25246178033E+01 -0.62855687918E+03 -0.30562635761E+03  0.69892602937E+03  0.25500000920E-02 0.  1.
       -2    1    3    3    0  502  0.25246178033E+01  0.62855687918E+03 -0.45181354818E+03  0.77409663891E+03  0.25500000920E-02 0. -1.
</event>
<event>
 5   0  0.2334946E-03  0.1167518E+04  0.7818609E-02  0.9141773E-01
        2   -1    0    0  501    0  0.00000000000E+00  0.00000000000E+00  0.53504376243E+03  0.53504376243E+03  0.25500000920E-02 0.  1.
       -2   -1    0    0    0  501  0.00000000000E+00  0.00000000000E+00 -0.63690984636E+03  0.63690984636E+03  0.25500000920E-02 0. -1.
    10030    2    1    2    0    0  0.00000000000E+00  0.00000000000E+00 -0.10186608393E+03  0.11719536088E+04  0.11675181207E+04 0.  0.
        1    1    3    3  502    0 -0.29887758365E+02 -0.30712268718E+03  0.44648664025E+03  0.54274113814E+03  0.50400001928E-02 0.  1.
       -1    1    3    3    0  502  0.29887758365E+02  0.30712268718E+03 -0.54835272418E+03  0.62921247066E+03  0.50400001928E-02 0. -1.
</event>
<event>
 5   0  0.1324721E-03  0.1308706E+04  0.7818609E-02  0.9022690E-01
        1   -1    0    0  501    0  0.00000000000E+00  0.00000000000E+00  0.63522236632E+03  0.63522236634E+03  0.50400001928E-02 0.  1.
       -1   -1    0    0    0  501  0.00000000000E+00  0.00000000000E+00 -0.67405982780E+03  0.67405982782E+03  0.50400001928E-02 0. -1.
    10030    2    1    2    0    0  0.00000000000E+00  0.00000000000E+00 -0.38837461484E+02  0.13092821942E+04  0.13087060463E+04 0.  0.
        1    1    3    3  502    0  0.32227642524E+03  0.52924617459E+03 -0.22978319979E+03  0.66088117428E+03  0.50400001928E-02 0. -1.
       -1    1    3    3    0  502 -0.32227642524E+03 -0.52924617459E+03  0.19094573831E+03  0.64840101988E+03  0.50400001928E-02 0.  1.
</event>
<event>
 5   0  0.2401211E-03  0.1319174E+04  0.7818609E-02  0.9014497E-01
        2   -1    0    0  501    0  0.00000000000E+00  0.00000000000E+00  0.17061626697E+04  0.17061626697E+04  0.25500000920E-02 0. -1.
       -2   -1    0    0    0  501  0.00000000000E+00  0.00000000000E+00 -0.25499018517E+03  0.25499018519E+03  0.25500000920E-02 0.  1.
    10030    2    1    2    0    0  0.00000000000E+00  0.00000000000E+00  0.14511724845E+04  0.19611528549E+04  0.13191735824E+04 0.  0.
        4    1    3    3  502    0  0.10356027068E+03 -0.28304645151E+03 -0.14662804324E+03  0.33517371517E+03  0.12699999809E+01 0.  1.
       -4    1    3    3    0  502 -0.10356027068E+03  0.28304645151E+03  0.15978005278E+04  0.16259791397E+04  0.12699999809E+01 0. -1.
</event>
<event>
 5   0  0.2312105E-03  0.1306506E+04  0.7818609E-02  0.9024422E-01
       -2   -1    0    0    0  501  0.00000000000E+00  0.00000000000E+00  0.59918720990E+03  0.59918720991E+03  0.25500000920E-02 0.  1.
        2   -1    0    0  501    0  0.00000000000E+00  0.00000000000E+00 -0.71219734126E+03  0.71219734126E+03  0.25500000920E-02 0. -1.
    10030    2    1    2    0    0  0.00000000000E+00  0.00000000000E+00 -0.11301013135E+03  0.13113845512E+04  0.13065060854E+04 0.  0.
        5    1    3    3  502    0 -0.63160407825E+03  0.11895145224E+03 -0.17374999462E+03  0.66579599749E+03  0.46999998093E+01 0.  1.
       -5    1    3    3    0  502  0.63160407825E+03 -0.11895145224E+03  0.60739863261E+02  0.64558855368E+03  0.46999998093E+01 0. -1.
</event>
<event>
 5   0  0.1346593E-03  0.1335650E+04  0.7818609E-02  0.9001762E-01
       -1   -1    0    0    0  501  0.00000000000E+00  0.00000000000E+00  0.40049426422E+03  0.40049426425E+03  0.50400001928E-02 0. -1.
        1   -1    0    0  501    0  0.00000000000E+00  0.00000000000E+00 -0.11136000398E+04  0.11136000398E+04  0.50400001928E-02 0.  1.
    10030    2    1    2    0    0  0.00000000000E+00  0.00000000000E+00 -0.71310577562E+03  0.15140943041E+04  0.13356502965E+04 0.  0.
        2    1    3    3  502    0  0.58133385843E+03  0.42733272900E+02 -0.72600110936E+03  0.93104929965E+03  0.25500000920E-02 0.  1.
       -2    1    3    3    0  502 -0.58133385843E+03 -0.42733272900E+02  0.12895333747E+02  0.58304500444E+03  0.25500000920E-02 0. -1.
</event>
<event>
 5   0  0.1324721E-03  0.1272785E+04  0.7818609E-02  0.9051430E-01
        1   -1    0    0  501    0  0.00000000000E+00  0.00000000000E+00  0.63710207233E+03  0.63710207235E+03  0.50400001928E-02 0. -1.
       -1   -1    0    0    0  501  0.00000000000E+00  0.00000000000E+00 -0.63568339472E+03  0.63568339474E+03  0.50400001928E-02 0.  1.
    10030    2    1    2    0    0  0.00000000000E+00  0.00000000000E+00  0.14186776063E+01  0.12727854671E+04  0.12727846764E+04 0.  0.
        1    1    3    3  502    0  0.25782732816E+03  0.53358810104E+03 -0.23124773104E+03  0.63613418856E+03  0.50400001928E-02 0.  1.
       -1    1    3    3    0  502 -0.25782732816E+03 -0.53358810104E+03  0.23266640865E+03  0.63665127853E+03  0.50400001928E-02 0. -1.
</event>
<event>
 5   0  0.2361043E-03  0.1295280E+04  0.7818609E-02  0.9033317E-01
        2   -1    0    0  501    0  0.00000000000E+00  0.00000000000E+00  0.48112588360E+03  0.48112588361E+03  0.25500000920E-02 0. -1.
       -2   -1    0    0    0  501  0.00000000000E+00  0.00000000000E+00 -0.87178298855E+03  0.87178298855E+03  0.25500000920E-02 0.  1.
    10030    2    1    2    0    0  0.00000000000E+00  0.00000000000E+00 -0.39065710495E+03  0.13529088722E+04  0.12952796774E+04 0.  0.
        2    1    3    3  502    0 -0.57342476836E+03  0.60804452450E+02  0.11261802382E+03  0.58753379963E+03  0.25500000920E-02 0. -1.
       -2    1    3    3    0  502  0.57342476836E+03 -0.60804452450E+02 -0.50327512877E+03  0.76537507253E+03  0.25500000920E-02 0.  1.
</event>
<event>
 5   0  0.1387622E-03  0.1280552E+04  0.7818609E-02  0.9045132E-01
       -1   -1    0    0    0  501  0.00000000000E+00  0.00000000000E+00  0.38974107062E+03  0.38974107066E+03  0.50400001928E-02 0.  1.
        1   -1    0    0  501    0  0.00000000000E+00  0.00000000000E+00 -0.10518601167E+04  0.10518601167E+04  0.50400001928E-02 0. -1.
    10030    2    1    2    0    0  0.00000000000E+00  0.00000000000E+00 -0.66211904604E+03  0.14416011873E+04  0.12805515812E+04 0.  0.
        3    1    3    3  502    0 -0.14497190706E+03  0.53380306631E+02 -0.10305640232E+04  0.10420789447E+04  0.10100000352E+00 0. -1.
       -3    1    3    3    0  502  0.14497190706E+03 -0.53380306631E+02  0.36844497713E+03  0.39952224261E+03  0.10100000352E+00 0.  1.
</event>
<event>
 5   0  0.1387622E-03  0.1293342E+04  0.7818609E-02  0.9034862E-01
        1   -1    0    0  501    0  0.00000000000E+00  0.00000000000E+00  0.34987351182E+03  0.34987351186E+03  0.50400001928E-02 0. -1.
       -1   -1    0    0    0  501  0.00000000000E+00  0.00000000000E+00 -0.11952420244E+04  0.11952420245E+04  0.50400001928E-02 0.  1.
    10030    2    1    2    0    0  0.00000000000E+00  0.00000000000E+00 -0.84536851262E+03  0.15451155363E+04  0.12933422202E+04 0.  0.
        3    1    3    3  502    0 -0.75321575586E+02  0.26184911272E+03  0.27795124855E+03  0.38922384865E+03  0.10100000352E+00 0. -1.
       -3    1    3    3    0  502  0.75321575586E+02 -0.26184911272E+03 -0.11233197612E+04  0.11558916877E+04  0.10100000352E+00 0.  1.
</event>
<event>
 5   0  0.2361043E-03  0.1309143E+04  0.7818609E-02  0.9022346E-01
       -2   -1    0    0    0  501  0.00000000000E+00  0.00000000000E+00  0.37009072070E+03  0.37009072070E+03  0.25500000920E-02 0. -1.
        2   -1    0    0  501    0  0.00000000000E+00  0.00000000000E+00 -0.11577273965E+04  0.11577273965E+04  0.25500000920E-02 0.  1.
    10030    2    1    2    0    0  0.00000000000E+00  0.00000000000E+00 -0.78763667580E+03  0.15278181172E+04  0.13091434857E+04 0.  0.
        2    1    3    3  502    0  0.56028836365E+02  0.22727245272E+03  0.31957620468E+03  0.39613248904E+03  0.25500000920E-02 0. -1.
       -2    1    3    3    0  502 -0.56028836365E+02 -0.22727245272E+03 -0.11072128805E+04  0.11316856282E+04  0.25500000920E-02 0.  1.
</event>
<event>
 5   0  0.1387622E-03  0.1290698E+04  0.7818609E-02  0.9036974E-01
        1   -1    0    0  501    0  0.00000000000E+00  0.00000000000E+00  0.87906218755E+03  0.87906218756E+03  0.50400001928E-02 0.  1.
       -1   -1    0    0    0  501  0.00000000000E+00  0.00000000000E+00 -0.47377225391E+03  0.47377225394E+03  0.50400001928E-02 0. -1.
    10030    2    1    2    0    0  0.00000000000E+00  0.00000000000E+00  0.40528993364E+03  0.13528344415E+04  0.12906979104E+04 0.  0.
        3    1    3    3  502    0 -0.11781218055E+03  0.59947235706E+03 -0.15278932493E+02  0.61113032386E+03  0.10100000352E+00 0. -1.
       -3    1    3    3    0  502  0.11781218055E+03 -0.59947235706E+03  0.42056886613E+03  0.74170411764E+03  0.10100000352E+00 0.  1.
</event>
<event>
 5   0  0.2478236E-03  0.1294510E+04  0.7818609E-02  0.9033930E-01
       -2   -1    0    0    0  501  0.00000000000E+00  0.00000000000E+00  0.58816408221E+03  0.58816408222E+03  0.25500000920E-02 0. -1.
        2   -1    0    0  501    0  0.00000000000E+00  0.00000000000E+00 -0.71228298776E+03  0.71228298776E+03  0.25500000920E-02 0.  1.
    10030    2    1    2    0    0  0.00000000000E+00  0.00000000000E+00 -0.12411890554E+03  0.13004470700E+04  0.12945103627E+04 0.  0.
        3    1    3    3  502    0 -0.14928179108E+03  0.61553960945E+03  0.71837947917E+02  0.63744393080E+03  0.10100000352E+00 0. -1.
       -3    1    3    3    0  502  0.14928179108E+03 -0.61553960945E+03 -0.19595685346E+03  0.66300313918E+03  0.10100000352E+00 0.  1.
</event>
<event>
 5   0  0.2478236E-03  0.1227917E+04  0.7818609E-02  0.9088766E-01
        2   -1    0    0  501    0  0.00000000000E+00  0.00000000000E+00  0.14759209746E+04  0.14759209746E+04  0.25500000920E-02 0.  1.
       -2   -1    0    0    0  501  0.00000000000E+00  0.00000000000E+00 -0.25539629337E+03  0.25539629338E+03  0.25500000920E-02 0. -1.
    10030    2    1    2    0    0  0.00000000000E+00  0.00000000000E+00  0.12205246812E+04  0.17313172680E+04  0.12279165220E+04 0.  0.
        3    1    3    3  502    0 -0.42114368498E+03  0.43654010874E+03  0.47638659282E+03  0.77128040683E+03  0.10100000352E+00 0.  1.
       -3    1    3    3    0  502  0.42114368498E+03 -0.43654010874E+03  0.74413808842E+03  0.96003686115E+03  0.10100000352E+00 0. -1.
</event>
<event>
 5   0  0.2361043E-03  0.1276202E+04  0.7818609E-02  0.9048653E-01
        2   -1    0    0  501    0  0.00000000000E+00  0.00000000000E+00  0.48881467133E+03  0.48881467134E+03  0.25500000920E-02 0. -1.
       -2   -1    0    0    0  501  0.00000000000E+00  0.00000000000E+00 -0.83298073231E+03  0.83298073231E+03  0.25500000920E-02 0.  1.
    10030    2    1    2    0    0  0.00000000000E+00  0.00000000000E+00 -0.34416606098E+03  0.13217954036E+04  0.12762024963E+04 0.  0.
        2    1    3    3  502    0 -0.49184505011E+03 -0.47019245532E+02  0.24613828909E+03  0.55200219214E+03  0.25500000920E-02 0. -1.
       -2    1    3    3    0  502  0.49184505011E+03  0.47019245532E+02 -0.59030435006E+03  0.76979321150E+03  0.25500000920E-02 0.  1.
</event>
<event>
 5   0  0.1310461E-03  0.1296183E+04  0.7818609E-02  0.9032597E-01
        1   -1    0    0  501    0  0.00000000000E+00  0.00000000000E+00  0.11128047775E+04  0.11128047775E+04  0.50400001928E-02 0.  1.
       -1   -1    0    0    0  501  0.00000000000E+00  0.00000000000E+00 -0.37744513769E+03  0.37744513772E+03  0.50400001928E-02 0. -1.
    10030    2    1    2    0    0  0.00000000000E+00  0.00000000000E+00  0.73535963977E+03  0.14902499152E+04  0.12961832470E+04 0.  0.
        4    1    3    3  502    0  0.25685541756E+03 -0.58726063997E+03  0.25757408937E+03  0.69079359377E+03  0.12699999809E+01 0. -1.
       -4    1    3    3    0  502 -0.25685541756E+03  0.58726063997E+03  0.47778555040E+03  0.79945632142E+03  0.12699999809E+01 0.  1.
</event>
<event>
 5   0  0.2334946E-03  0.1298153E+04  0.7818609E-02  0.9031031E-01
       -2   -1    0    0    0  501  0.00000000000E+00  0.00000000000E+00  0.72501977260E+03  0.72501977261E+03  0.25500000920E-02 0. -1.
        2   -1    0    0  501    0  0.00000000000E+00  0.00000000000E+00 -0.58108798186E+03  0.58108798187E+03  0.25500000920E-02 0.  1.
    10030    2    1    2    0    0  0.00000000000E+00  0.00000000000E+00  0.14393179075E+03  0.13061077545E+04  0.12981529594E+04 0.  0.
        1    1    3    3  502    0 -0.16074265193E+03 -0.39444915726E+03 -0.42080251926E+03  0.59875128230E+03  0.50400001928E-02 0.  1.
       -1    1    3    3    0  502  0.16074265193E+03  0.39444915726E+03  0.56473431000E+03  0.70735647218E+03  0.50400001928E-02 0. -1.
</event>
<event>
 5   0  0.2361043E-03  0.1338512E+04  0.7818609E-02  0.8999570E-01
       -2   -1    0    0    0  501  0.00000000000E+00  0.00000000000E+00  0.33288719890E+03  0.33288719891E+03  0.25500000920E-02 0.  1.
        2   -1    0    0  501    0  0.00000000000E+00  0.00000000000E+00 -0.13455114053E+04  0.13455114053E+04  0.25500000920E-02 0. -1.
    10030    2    1    2    0    0  0.00000000000E+00  0.00000000000E+00 -0.10126242064E+04  0.16783986042E+04  0.13385118943E+04 0.  0.
        2    1    3    3  502    0  0.21272486224E+03  0.44323516283E+03  0.63079614983E+02  0.49566956172E+03  0.25500000920E-02 0.  1.
       -2    1    3    3    0  502 -0.21272486224E+03 -0.44323516283E+03 -0.10757038214E+04  0.11827290425E+04  0.25500000920E-02 0. -1.
</event>
<event>
 5   0  0.2334946E-03  0.1062880E+04  0.7818609E-02  0.9242146E-01
        2   -1    0    0  501    0  0.00000000000E+00  0.00000000000E+00  0.11352797643E+04  0.11352797644E+04  0.25500000920E-02 0.  1.
       -2   -1    0    0    0  501  0.00000000000E+00  0.00000000000E+00 -0.24877452739E+03  0.24877452741E+03  0.25500000920E-02 0. -1.
    10030    2    1    2    0    0  0.00000000000E+00  0.00000000000E+00  0.88650523695E+03  0.13840542918E+04  0.10628804013E+04 0.  0.
        1    1    3    3  502    0  0.26462085914E+03  0.30313010371E+03 -0.88033557527E+01  0.40247926402E+03  0.50400001928E-02 0. -1.
       -1    1    3    3    0  502 -0.26462085914E+03 -0.30313010371E+03  0.89530859271E+03  0.98157502773E+03  0.50400001928E-02 0.  1.
</event>
<event>
 5   0  0.2478236E-03  0.1108752E+04  0.7818609E-02  0.9196703E-01
        2   -1    0    0  501    0  0.00000000000E+00  0.00000000000E+00  0.98889984487E+03  0.98889984487E+03  0.25500000920E-02 0.  1.
       -2   -1    0    0    0  501  0.00000000000E+00  0.00000000000E+00 -0.31078239276E+03  0.31078239277E+03  0.25500000920E-02 0. -1.
    10030    2    1    2    0    0  0.00000000000E+00  0.00000000000E+00  0.67811745211E+03  0.12996822376E+04  0.11087518388E+04 0.  0.
        3    1    3    3  502    0  0.25294325067E+03 -0.68357468736E+02 -0.23361927155E+03  0.35104274075E+03  0.10100000352E+00 0. -1.
       -3    1    3    3    0  502 -0.25294325067E+03  0.68357468736E+02  0.91173672366E+03  0.94863949689E+03  0.10100000352E+00 0.  1.
</event>
<event>
 5   0  0.9131250E-04  0.1226019E+04  0.7818609E-02  0.9090382E-01
        4   -1    0    0  501    0  0.00000000000E+00  0.00000000000E+00  0.12078781685E+04  0.12078788362E+04  0.12699999809E+01 0.  1.
       -4   -1    0    0    0  501  0.00000000000E+00  0.00000000000E+00 -0.31110597056E+03  0.31110856275E+03  0.12699999809E+01 0. -1.
    10030    2    1    2    0    0  0.00000000000E+00  0.00000000000E+00  0.89677219798E+03  0.15189873989E+04  0.12260189000E+04 0.  0.
        5    1    3    3  502    0 -0.50175232561E+03 -0.35155438220E+03  0.47355301352E+03  0.77435161685E+03  0.46999998093E+01 0. -1.
       -5    1    3    3    0  502  0.50175232561E+03  0.35155438220E+03  0.42321918446E+03  0.74463578210E+03  0.46999998093E+01 0.  1.
</event>
<event>
 5   0  0.2334946E-03  0.1299512E+04  0.7818609E-02  0.9029953E-01
       -2   -1    0    0    0  501  0.00000000000E+00  0.00000000000E+00  0.39161951380E+03  0.39161951381E+03  0.25500000920E-02 0. -1.
        2   -1    0    0  501    0  0.00000000000E+00  0.00000000000E+00 -0.10780427746E+04  0.10780427746E+04  0.25500000920E-02 0.  1.
    10030    2    1    2    0    0  0.00000000000E+00  0.00000000000E+00 -0.68642326081E+03  0.14696622884E+04  0.12995115810E+04 0.  0.
        1    1    3    3  502    0  0.29122746801E+03  0.17188040876E+03  0.28425442886E+03  0.44176565438E+03  0.50400001928E-02 0. -1.
       -1    1    3    3    0  502 -0.29122746801E+03 -0.17188040876E+03 -0.97067768966E+03  0.10278966340E+04  0.50400001928E-02 0.  1.
</event>
<event>
 5   0  0.2401211E-03  0.1282303E+04  0.7818609E-02  0.9043718E-01
        2   -1    0    0  501    0  0.00000000000E+00  0.00000000000E+00  0.59429863739E+03  0.59429863740E+03  0.25500000920E-02 0. -1.
       -2   -1    0    0    0  501  0.00000000000E+00  0.00000000000E+00 -0.69169778717E+03  0.69169778717E+03  0.25500000920E-02 0.  1.
    10030    2    1    2    0    0  0.00000000000E+00  0.00000000000E+00 -0.97399149774E+02  0.12859964246E+04  0.12823026981E+04 0.  0.
        4    1    3    3  502    0 -0.24384904387E+03  0.50903975973E+03  0.25629749740E+03  0.61989826041E+03  0.12699999809E+01 0. -1.
       -4    1    3    3    0  502  0.24384904387E+03 -0.50903975973E+03 -0.35369664717E+03  0.66609816416E+03  0.12699999809E+01 0.  1.
</event>
<event>
 5   0  0.1324721E-03  0.1350063E+04  0.7818609E-02  0.8990780E-01
       -1   -1    0    0    0  501  0.00000000000E+00  0.00000000000E+00  0.14727633670E+04  0.14727633670E+04  0.50400001928E-02 0. -1.
        1   -1    0    0  501    0  0.00000000000E+00  0.00000000000E+00 -0.30939638210E+03  0.30939638214E+03  0.50400001928E-02 0.  1.
    10030    2    1    2    0    0  0.00000000000E+00  0.00000000000E+00  0.11633669849E+04  0.17821597491E+04  0.13500631948E+04 0.  0.
        1    1    3    3  502    0  0.47753298425E+03  0.87931099787E+02 -0.37334397309E+02  0.48699433939E+03  0.50400001928E-02 0.  1.
       -1    1    3    3    0  502 -0.47753298425E+03 -0.87931099787E+02  0.12007013822E+04  0.12951654097E+04  0.50400001928E-02 0. -1.
</event>
<event>
 5   0  0.1346593E-03  0.1306564E+04  0.7818609E-02  0.9024376E-01
        1   -1    0    0  501    0  0.00000000000E+00  0.00000000000E+00  0.11224241403E+04  0.11224241403E+04  0.50400001928E-02 0. -1.
       -1   -1    0    0    0  501  0.00000000000E+00  0.00000000000E+00 -0.38022796758E+03  0.38022796762E+03  0.50400001928E-02 0.  1.
    10030    2    1    2    0    0  0.00000000000E+00  0.00000000000E+00  0.74219617273E+03  0.15026521079E+04  0.13065635073E+04 0.  0.
        2    1    3    3  502    0  0.12520652795E+03 -0.64084149224E+03  0.39473933939E+03  0.76300303990E+03  0.25500000920E-02 0. -1.
       -2    1    3    3    0  502 -0.12520652795E+03  0.64084149224E+03  0.34745683334E+03  0.73964906804E+03  0.25500000920E-02 0.  1.
</event>
<event>
 5   0  0.1332630E-03  0.1301184E+04  0.7818609E-02  0.9028627E-01
        1   -1    0    0  501    0  0.00000000000E+00  0.00000000000E+00  0.93868067772E+03  0.93868067774E+03  0.50400001928E-02 0. -1.
       -1   -1    0    0    0  501  0.00000000000E+00  0.00000000000E+00 -0.45092022390E+03  0.45092022393E+03  0.50400001928E-02 0.  1.
    10030    2    1    2    0    0  0.00000000000E+00  0.00000000000E+00  0.48776045382E+03  0.13896009017E+04  0.13011842320E+04 0.  0.
        5    1    3    3  502    0  0.48126180570E+03  0.28550026716E+03  0.59828016028E+03  0.81919751486E+03  0.46999998093E+01 0. -1.
       -5    1    3    3    0  502 -0.48126180570E+03 -0.28550026716E+03 -0.11051970646E+03  0.57040338681E+03  0.46999998093E+01 0.  1.
</event>
<event>
 5   0  0.1332630E-03  0.1296683E+04  0.7818609E-02  0.9032200E-01
        1   -1    0    0  501    0  0.00000000000E+00  0.00000000000E+00  0.18081095545E+04  0.18081095545E+04  0.50400001928E-02 0.  1.
       -1   -1    0    0    0  501  0.00000000000E+00  0.00000000000E+00 -0.23247843691E+03  0.23247843696E+03  0.50400001928E-02 0. -1.
    10030    2    1    2    0    0  0.00000000000E+00  0.00000000000E+00  0.15756311176E+04  0.20405879914E+04  0.12966826644E+04 0.  0.
        5    1    3    3  502    0 -0.45138440841E+03 -0.24402718337E+03  0.16421122569E+03  0.53878062977E+03  0.46999998093E+01 0. -1.
       -5    1    3    3    0  502  0.45138440841E+03  0.24402718337E+03  0.14114198919E+04  0.15018073617E+04  0.46999998093E+01 0.  1.
</event>
<event>
 5   0  0.1324721E-03  0.1241453E+04  0.7818609E-02  0.9077327E-01
       -1   -1    0    0    0  501  0.00000000000E+00  0.00000000000E+00  0.77494296543E+03  0.77494296544E+03  0.50400001928E-02 0. -1.
        1   -1    0    0  501    0  0.00000000000E+00  0.00000000000E+00 -0.49719932488E+03  0.49719932491E+03  0.50400001928E-02 0.  1.
    10030    2    1    2    0    0  0.00000000000E+00  0.00000000000E+00  0.27774364055E+03  0.12721422904E+04  0.12414525674E+04 0.  0.
        1    1    3    3  502    0  0.33049852608E+03 -0.24345381564E+03 -0.33825879566E+03  0.53190041263E+03  0.50400001928E-02 0.  1.
       -1    1    3    3    0  502 -0.33049852608E+03  0.24345381564E+03  0.61600243621E+03  0.74024187772E+03  0.50400001928E-02 0. -1.
</event>
<event>
 5   0  0.2401211E-03  0.1290424E+04  0.7818609E-02  0.9037194E-01
        2   -1    0    0  501    0  0.00000000000E+00  0.00000000000E+00  0.82860582192E+03  0.82860582193E+03  0.25500000920E-02 0. -1.
       -2   -1    0    0    0  501  0.00000000000E+00  0.00000000000E+00 -0.50240830594E+03  0.50240830595E+03  0.25500000920E-02 0.  1.
    10030    2    1    2    0    0  0.00000000000E+00  0.00000000000E+00  0.32619751598E+03  0.13310141279E+04  0.12904238796E+04 0.  0.
        4    1    3    3  502    0 -0.51372077437E+03 -0.28788922962E+02  0.56465015129E+03  0.76391703893E+03  0.12699999809E+01 0. -1.
       -4    1    3    3    0  502  0.51372077437E+03  0.28788922962E+02 -0.23845263531E+03  0.56709708895E+03  0.12699999809E+01 0.  1.
</event>
<event>
 5   0  0.1324721E-03  0.1297681E+04  0.7818609E-02  0.9031406E-01
        1   -1    0    0  501    0  0.00000000000E+00  0.00000000000E+00  0.10778621490E+04  0.10778621491E+04  0.50400001928E-02 0. -1.
       -1   -1    0    0    0  501  0.00000000000E+00  0.00000000000E+00 -0.39058226366E+03  0.39058226369E+03  0.50400001928E-02 0.  1.
    10030    2    1    2    0    0  0.00000000000E+00  0.00000000000E+00  0.68727988539E+03  0.14684444127E+04  0.12976807591E+04 0.  0.
        1    1    3    3  502    0 -0.99311632339E+02  0.51697748740E+03 -0.85567947194E+02  0.53333891327E+03  0.50400001928E-02 0.  1.
       -1    1    3    3    0  502  0.99311632339E+02 -0.51697748740E+03  0.77284783258E+03  0.93510549947E+03  0.50400001928E-02 0. -1.
</event>
<event>
 5   0  0.2312105E-03  0.1314943E+04  0.7818609E-02  0.9017799E-01
       -2   -1    0    0    0  501  0.00000000000E+00  0.00000000000E+00  0.23676754697E+03  0.23676754699E+03  0.25500000920E-02 0. -1.
        2   -1    0    0  501    0  0.00000000000E+00  0.00000000000E+00 -0.18257089298E+04  0.18257089298E+04  0.25500000920E-02 0.  1.
    10030    2    1    2    0    0  0.00000000000E+00  0.00000000000E+00 -0.15889413828E+04  0.20624764768E+04  0.13149427741E+04 0.  0.
        5    1    3    3  502    0  0.62126949257E+03 -0.17479751893E+03 -0.99110584968E+03  0.11827268705E+04  0.46999998093E+01 0.  1.
       -5    1    3    3    0  502 -0.62126949257E+03  0.17479751893E+03 -0.59783553315E+03  0.87974960626E+03  0.46999998093E+01 0. -1.
</event>
<event>
 5   0  0.2312105E-03  0.1299552E+04  0.7818609E-02  0.9029921E-01
        2   -1    0    0  501    0  0.00000000000E+00  0.00000000000E+00  0.79719090806E+03  0.79719090807E+03  0.25500000920E-02 0.  1.
       -2   -1    0    0    0  501  0.00000000000E+00  0.00000000000E+00 -0.52962063496E+03  0.52962063497E+03  0.25500000920E-02 0. -1.
    10030    2    1    2    0    0  0.00000000000E+00  0.00000000000E+00  0.26757027310E+03  0.13268115430E+04  0.12995518534E+04 0.  0.
        5    1    3    3  502    0 -0.35677278731E+03 -0.23912450920E+03  0.63157707691E+03  0.76379254169E+03  0.46999998093E+01 0.  1.
       -5    1    3    3    0  502  0.35677278731E+03  0.23912450920E+03 -0.36400680380E+03  0.56301900135E+03  0.46999998093E+01 0. -1.
</event>
<event>
 5   0  0.2312105E-03  0.1296837E+04  0.7818609E-02  0.9032077E-01
       -2   -1    0    0    0  501  0.00000000000E+00  0.00000000000E+00  0.60080936157E+03  0.60080936157E+03  0.25500000920E-02 0. -1.
        2   -1    0    0  501    0  0.00000000000E+00  0.00000000000E+00 -0.69980053819E+03  0.69980053819E+03  0.25500000920E-02 0.  1.
    10030    2    1    2    0    0  0.00000000000E+00  0.00000000000E+00 -0.98991176617E+02  0.13006098998E+04  0.12968372521E+04 0.  0.
        5    1    3    3  502    0 -0.10613061811E+03 -0.52354223632E+03  0.31908469073E+03  0.62225180689E+03  0.46999998093E+01 0. -1.
       -5    1    3    3    0  502  0.10613061811E+03  0.52354223632E+03 -0.41807586735E+03  0.67835809288E+03  0.46999998093E+01 0.  1.
</event>
<event>
 5   0  0.2361043E-03  0.1306435E+04  0.7818609E-02  0.9024478E-01
        2   -1    0    0  501    0  0.00000000000E+00  0.00000000000E+00  0.12827652248E+04  0.12827652248E+04  0.25500000920E-02 0.  1.
       -2   -1    0    0    0  501  0.00000000000E+00  0.00000000000E+00 -0.33263547663E+03  0.33263547664E+03  0.25500000920E-02 0. -1.
    10030    2    1    2    0    0  0.00000000000E+00  0.00000000000E+00  0.95012974817E+03  0.16154007015E+04  0.13064351832E+04 0.  0.
        2    1    3    3  502    0 -0.18484254206E+03 -0.62203969158E+03  0.56753849540E+03  0.86209053296E+03  0.25500000920E-02 0. -1.
       -2    1    3    3    0  502  0.18484254206E+03  0.62203969158E+03  0.38259125277E+03  0.75331016849E+03  0.25500000920E-02 0.  1.
</event>
<event>
 5   0  0.1310461E-03  0.1283938E+04  0.7818609E-02  0.9042400E-01
        1   -1    0    0  501    0  0.00000000000E+00  0.00000000000E+00  0.54519626096E+03  0.54519626099E+03  0.50400001928E-02 0. -1.
       -1   -1    0    0    0  501  0.00000000000E+00  0.00000000000E+00 -0.75591881772E+03  0.75591881773E+03  0.50400001928E-02 0.  1.
    10030    2    1    2    0    0  0.00000000000E+00  0.00000000000E+00 -0.21072255675E+03  0.13011150787E+04  0.12839378693E+04 0.  0.
        4    1    3    3  502    0  0.12845548356E+03 -0.59802311101E+03 -0.30287925147E+03  0.68254663316E+03  0.12699999809E+01 0.  1.
       -4    1    3    3    0  502 -0.12845548356E+03  0.59802311101E+03  0.92156694718E+02  0.61856844556E+03  0.12699999809E+01 0. -1.
</event>
<event>
 5   0  0.2334946E-03  0.1317158E+04  0.7818609E-02  0.9016068E-01
       -2   -1    0    0    0  501  0.00000000000E+00  0.00000000000E+00  0.56802752779E+03  0.56802752779E+03  0.25500000920E-02 0. -1.
        2   -1    0    0  501    0  0.00000000000E+00  0.00000000000E+00 -0.76356566443E+03  0.76356566443E+03  0.25500000920E-02 0.  1.
    10030    2    1    2    0    0  0.00000000000E+00  0.00000000000E+00 -0.19553813664E+03  0.13315931922E+04  0.13171580265E+04 0.  0.
        1    1    3    3  502    0  0.40964582659E+03  0.97190976899E+02  0.41421024779E+03  0.59061486489E+03  0.50400001928E-02 0. -1.
       -1    1    3    3    0  502 -0.40964582659E+03 -0.97190976899E+02 -0.60974838444E+03  0.74097832733E+03  0.50400001928E-02 0.  1.
</event>
<event>
 5   0  0.2312105E-03  0.1336164E+04  0.7818609E-02  0.9001368E-01
       -2   -1    0    0    0  501  0.00000000000E+00  0.00000000000E+00  0.33154364667E+03  0.33154364668E+03  0.25500000920E-02 0. -1.
        2   -1    0    0  501    0  0.00000000000E+00  0.00000000000E+00 -0.13462285253E+04  0.13462285253E+04  0.25500000920E-02 0.  1.
    10030    2    1    2    0    0  0.00000000000E+00  0.00000000000E+00 -0.10146848786E+04  0.16777721720E+04  0.13361639339E+04 0.  0.
        5    1    3    3  502    0  0.44128277720E+03 -0.39404810838E+03 -0.89701715016E+03  0.10745539814E+04  0.46999998093E+01 0.  1.
       -5    1    3    3    0  502 -0.44128277720E+03  0.39404810838E+03 -0.11766772846E+03  0.60321819062E+03  0.46999998093E+01 0. -1.
</event>
<event>
 5   0  0.2401211E-03  0.1356713E+04  0.7818609E-02  0.8985762E-01
       -2   -1    0    0    0  501  0.00000000000E+00  0.00000000000E+00  0.26972077660E+03  0.26972077661E+03  0.25500000920E-02 0. -1.
        2   -1    0    0  501    0  0.00000000000E+00  0.00000000000E+00 -0.17060897733E+04  0.17060897733E+04  0.25500000920E-02 0.  1.
    10030    2    1    2    0    0  0.00000000000E+00  0.00000000000E+00 -0.14363689967E+04  0.19758105499E+04  0.13567134681E+04 0.  0.
        4    1    3    3  502    0 -0.30044312160E+03 -0.21375717651E+03  0.11103414550E+03  0.38508232132E+03  0.12699999809E+01 0. -1.
       -4    1    3    3    0  502  0.30044312160E+03  0.21375717651E+03 -0.15474031422E+04  0.15907282286E+04  0.12699999809E+01 0.  1.
</event>
<event>
 5   0  0.2478236E-03  0.1292520E+04  0.7818609E-02  0.9035518E-01
       -2   -1    0    0    0  501  0.00000000000E+00  0.00000000000E+00  0.17421107121E+04  0.17421107121E+04  0.25500000920E-02 0. -1.
        2   -1    0    0  501    0  0.00000000000E+00  0.00000000000E+00 -0.23973893860E+03  0.23973893861E+03  0.25500000920E-02 0.  1.
    10030    2    1    2    0    0  0.00000000000E+00  0.00000000000E+00  0.15023717735E+04  0.19818496507E+04  0.12925196680E+04 0.  0.
        3    1    3    3  502    0 -0.44443583896E+03 -0.33535185962E+03  0.24806051584E+03  0.60952285800E+03  0.10100000352E+00 0. -1.
       -3    1    3    3    0  502  0.44443583896E+03  0.33535185962E+03  0.12543112577E+04  0.13723267927E+04  0.10100000352E+00 0.  1.
</event>
<event>
 5   0  0.2312105E-03  0.1292577E+04  0.7818609E-02  0.9035473E-01
       -2   -1    0    0    0  501  0.00000000000E+00  0.00000000000E+00  0.35009790959E+03  0.35009790960E+03  0.25500000920E-02 0.  1.
        2   -1    0    0  501    0  0.00000000000E+00  0.00000000000E+00 -0.11930625753E+04  0.11930625753E+04  0.25500000920E-02 0. -1.
    10030    2    1    2    0    0  0.00000000000E+00  0.00000000000E+00 -0.84296466570E+03  0.15431604849E+04  0.12925768273E+04 0.  0.
        5    1    3    3  502    0 -0.13260704117E+03  0.45694334753E+03  0.10066724179E+03  0.48635155370E+03  0.46999998093E+01 0.  1.
       -5    1    3    3    0  502  0.13260704117E+03 -0.45694334753E+03 -0.94363190749E+03  0.10568089312E+04  0.46999998093E+01 0. -1.
</event>
<event>
 5   0  0.1310461E-03  0.1299882E+04  0.7818609E-02  0.9029659E-01
        1   -1    0    0  501    0  0.00000000000E+00  0.00000000000E+00  0.65850888118E+03  0.65850888120E+03  0.50400001928E-02 0. -1.
       -1   -1    0    0    0  501  0.00000000000E+00  0.00000000000E+00 -0.64148466816E+03  0.64148466818E+03  0.50400001928E-02 0.  1.
    10030    2    1    2    0    0  0.00000000000E+00  0.00000000000E+00  0.17024213026E+02  0.12999935494E+04  0.12998820733E+04 0.  0.
        4    1    3    3  502    0 -0.61683000266E+03 -0.91573566014E+02 -0.17468866830E+03  0.64759764816E+03  0.12699999809E+01 0.  1.
       -4    1    3    3    0  502  0.61683000266E+03  0.91573566014E+02  0.19171288132E+03  0.65239590122E+03  0.12699999809E+01 0. -1.
</event>
<event>
 5   0  0.1387622E-03  0.1321787E+04  0.7818609E-02  0.9012464E-01
       -1   -1    0    0    0  501  0.00000000000E+00  0.00000000000E+00  0.10024789291E+04  0.10024789291E+04  0.50400001928E-02 0. -1.
        1   -1    0    0  501    0  0.00000000000E+00  0.00000000000E+00 -0.43570028578E+03  0.43570028581E+03  0.50400001928E-02 0.  1.
    10030    2    1    2    0    0  0.00000000000E+00  0.00000000000E+00  0.56677864329E+03  0.14381792149E+04  0.13217872082E+04 0.  0.
        3    1    3    3  502    0  0.63928152922E+03  0.13810980413E+03  0.18002306788E+03  0.67835352639E+03  0.10100000352E+00 0. -1.
       -3    1    3    3    0  502 -0.63928152922E+03 -0.13810980413E+03  0.38675557541E+03  0.75982568850E+03  0.10100000352E+00 0.  1.
</event>
<event>
 5   0  0.1332630E-03  0.1302779E+04  0.7818609E-02  0.9027365E-01
       -1   -1    0    0    0  501  0.00000000000E+00  0.00000000000E+00  0.64375771733E+03  0.64375771735E+03  0.50400001928E-02 0. -1.
        1   -1    0    0  501    0  0.00000000000E+00  0.00000000000E+00 -0.65911133074E+03  0.65911133076E+03  0.50400001928E-02 0.  1.
    10030    2    1    2    0    0  0.00000000000E+00  0.00000000000E+00 -0.15353613417E+02  0.13028690481E+04  0.13027785779E+04 0.  0.
        5    1    3    3  502    0 -0.15114909731E+03 -0.25776744605E+03 -0.58650522554E+03  0.65825570673E+03  0.46999998093E+01 0.  1.
       -5    1    3    3    0  502  0.15114909731E+03  0.25776744605E+03  0.57115161212E+03  0.64461334138E+03  0.46999998093E+01 0. -1.
</event>
<event>
 5   0  0.2334946E-03  0.1298551E+04  0.7818609E-02  0.9030715E-01
        2   -1    0    0  501    0  0.00000000000E+00  0.00000000000E+00  0.12952732302E+04  0.12952732302E+04  0.25500000920E-02 0. -1.
       -2   -1    0    0    0  501  0.00000000000E+00  0.00000000000E+00 -0.32545901744E+03  0.32545901745E+03  0.25500000920E-02 0.  1.
    10030    2    1    2    0    0  0.00000000000E+00  0.00000000000E+00  0.96981421277E+03  0.16207322477E+04  0.12985505040E+04 0.  0.
        1    1    3    3  502    0  0.27479862469E+03  0.32023199760E+03 -0.13097548782E+03  0.44183412595E+03  0.50400001928E-02 0.  1.
       -1    1    3    3    0  502 -0.27479862469E+03 -0.32023199760E+03  0.11007897006E+04  0.11788981217E+04  0.50400001928E-02 0. -1.
</event>
<event>
 5   0  0.2312105E-03  0.1298970E+04  0.7818609E-02  0.9030382E-01
       -2   -1    0    0    0  501  0.00000000000E+00  0.00000000000E+00  0.32114980860E+03  0.32114980861E+03  0.25500000920E-02 0.  1.
        2   -1    0    0  501    0  0.00000000000E+00  0.00000000000E+00 -0.13135020166E+04  0.13135020166E+04  0.25500000920E-02 0. -1.
    10030    2    1    2    0    0  0.00000000000E+00  0.00000000000E+00 -0.99235220798E+03  0.16346518252E+04  0.12989702402E+04 0.  0.
        5    1    3    3  502    0 -0.17544410843E+03 -0.47610542683E+02  0.28845884617E+03  0.34099559365E+03  0.46999998093E+01 0.  1.
       -5    1    3    3    0  502  0.17544410843E+03  0.47610542683E+02 -0.12808110542E+04  0.12936562315E+04  0.46999998093E+01 0. -1.
</event>
<event>
 5   0  0.1332630E-03  0.1307399E+04  0.7818609E-02  0.9023718E-01
        1   -1    0    0  501    0  0.00000000000E+00  0.00000000000E+00  0.20229779807E+04  0.20229779807E+04  0.50400001928E-02 0. -1.
       -1   -1    0    0    0  501  0.00000000000E+00  0.00000000000E+00 -0.21123456133E+03  0.21123456139E+03  0.50400001928E-02 0.  1.
    10030    2    1    2    0    0  0.00000000000E+00  0.00000000000E+00  0.18117434194E+04  0.22342125421E+04  0.13073987401E+04 0.  0.
        5    1    3    3  502    0 -0.47577040712E+03  0.70483897728E+02  0.14935746424E+03  0.50364193854E+03  0.46999998093E+01 0.  1.
       -5    1    3    3    0  502  0.47577040712E+03 -0.70483897728E+02  0.16623859551E+04  0.17305706036E+04  0.46999998093E+01 0. -1.
</event>
<event>
 5   0  0.1324721E-03  0.1299815E+04  0.7818609E-02  0.9029712E-01
       -1   -1    0    0    0  501  0.00000000000E+00  0.00000000000E+00  0.24851687015E+03  0.24851687021E+03  0.50400001928E-02 0. -1.
        1   -1    0    0  501    0  0.00000000000E+00  0.00000000000E+00 -0.16996023093E+04  0.16996023093E+04  0.50400001928E-02 0.  1.
    10030    2    1    2    0    0  0.00000000000E+00  0.00000000000E+00 -0.14510854392E+04  0.19481191795E+04  0.12998151353E+04 0.  0.
        1    1    3    3  502    0 -0.13199993649E+03  0.50786950360E+03 -0.13002261630E+04  0.14021210686E+04  0.50400001928E-02 0.  1.
       -1    1    3    3    0  502  0.13199993649E+03 -0.50786950360E+03 -0.15085927612E+03  0.54599811093E+03  0.50400001928E-02 0. -1.
</event>
<event>
 5   0  0.2401211E-03  0.1359417E+04  0.7818609E-02  0.8983730E-01
       -2   -1    0    0    0  501  0.00000000000E+00  0.00000000000E+00  0.42805710629E+03  0.42805710630E+03  0.25500000920E-02 0.  1.
        2   -1    0    0  501    0  0.00000000000E+00  0.00000000000E+00 -0.10793037389E+04  0.10793037389E+04  0.25500000920E-02 0. -1.
    10030    2    1    2    0    0  0.00000000000E+00  0.00000000000E+00 -0.65124663259E+03  0.15073608452E+04  0.13594169857E+04 0.  0.
        4    1    3    3  502    0  0.39083502912E+01  0.57388832854E+03  0.78208050220E+02  0.57920739020E+03  0.12699999809E+01 0.  1.
       -4    1    3    3    0  502 -0.39083502912E+01 -0.57388832854E+03 -0.72945468281E+03  0.92815345499E+03  0.12699999809E+01 0. -1.
</event>
<event>
 5   0  0.1310461E-03  0.1306490E+04  0.7818609E-02  0.9024434E-01
        1   -1    0    0  501    0  0.00000000000E+00  0.00000000000E+00  0.86791209135E+03  0.86791209136E+03  0.50400001928E-02 0. -1.
       -1   -1    0    0    0  501  0.00000000000E+00  0.00000000000E+00 -0.49167316894E+03  0.49167316896E+03  0.50400001928E-02 0.  1.
    10030    2    1    2    0    0  0.00000000000E+00  0.00000000000E+00  0.37623892241E+03  0.13595852603E+04  0.13064900893E+04 0.  0.
        4    1    3    3  502    0 -0.36929994077E+03 -0.52835326680E+03  0.29819067000E+03  0.71025270810E+03  0.12699999809E+01 0. -1.
       -4    1    3    3    0  502  0.36929994077E+03  0.52835326680E+03  0.78048252414E+02  0.64933255223E+03  0.12699999809E+01 0.  1.
</event>
<event>
 5   0  0.2401211E-03  0.1301806E+04  0.7818609E-02  0.9028134E-01
       -2   -1    0    0    0  501  0.00000000000E+00  0.00000000000E+00  0.57724067295E+03  0.57724067296E+03  0.25500000920E-02 0.  1.
        2   -1    0    0  501    0  0.00000000000E+00  0.00000000000E+00 -0.73396521442E+03  0.73396521442E+03  0.25500000920E-02 0. -1.
    10030    2    1    2    0    0  0.00000000000E+00  0.00000000000E+00 -0.15672454147E+03  0.13112058874E+04  0.13018057832E+04 0.  0.
        4    1    3    3  502    0 -0.62367188157E+03  0.17190480306E+03 -0.60449085249E+01  0.64695906439E+03  0.12699999809E+01 0. -1.
       -4    1    3    3    0  502  0.62367188157E+03 -0.17190480306E+03 -0.15067963294E+03  0.66424682300E+03  0.12699999809E+01 0.  1.
</event>
<event>
 5   0  0.2334946E-03  0.1311244E+04  0.7818609E-02  0.9020696E-01
        2   -1    0    0  501    0  0.00000000000E+00  0.00000000000E+00  0.66254321788E+03  0.66254321789E+03  0.25500000920E-02 0. -1.
       -2   -1    0    0    0  501  0.00000000000E+00  0.00000000000E+00 -0.64877307680E+03  0.64877307681E+03  0.25500000920E-02 0.  1.
    10030    2    1    2    0    0  0.00000000000E+00  0.00000000000E+00  0.13770141082E+02  0.13113162947E+04  0.13112439925E+04 0.  0.
        1    1    3    3  502    0  0.20844888926E+03 -0.28452127067E+01 -0.61474486655E+03  0.64913040727E+03  0.50400001928E-02 0.  1.
       -1    1    3    3    0  502 -0.20844888926E+03  0.28452127067E+01  0.62851500763E+03  0.66218588743E+03  0.50400001928E-02 0. -1.
</event>
<event>
 5   0  0.9131250E-04  0.1272588E+04  0.7818609E-02  0.9051590E-01
        4   -1    0    0  501    0  0.00000000000E+00  0.00000000000E+00  0.10473706711E+04  0.10473714411E+04  0.12699999809E+01 0.  1.
       -4   -1    0    0    0  501  0.00000000000E+00  0.00000000000E+00 -0.38655651179E+03  0.38655859803E+03  0.12699999809E+01 0. -1.
    10030    2    1    2    0    0  0.00000000000E+00  0.00000000000E+00  0.66081415931E+03  0.14339300391E+04  0.12725879160E+04 0.  0.
        2    1    3    3  502    0 -0.27213560005E+03  0.31327478868E+03 -0.21310776565E+03  0.46649094077E+03  0.25500000920E-02 0.  1.
       -2    1    3    3    0  502  0.27213560005E+03 -0.31327478868E+03  0.87392192497E+03  0.96743909833E+03  0.25500000920E-02 0. -1.
</event>
<event>
 5   0  0.1324721E-03  0.1243350E+04  0.7818609E-02  0.9075736E-01
       -1   -1    0    0    0  501  0.00000000000E+00  0.00000000000E+00  0.32741670869E+03  0.32741670873E+03  0.50400001928E-02 0.  1.
        1   -1    0    0  501    0  0.00000000000E+00  0.00000000000E+00 -0.11803907389E+04  0.11803907389E+04  0.50400001928E-02 0. -1.
    10030    2    1    2    0    0  0.00000000000E+00  0.00000000000E+00 -0.85297403019E+03  0.15078074476E+04  0.12433497508E+04 0.  0.
        1    1    3    3  502    0  0.24674561352E+03  0.48088219687E+03 -0.79898182291E+03  0.96462585411E+03  0.50400001928E-02 0. -1.
       -1    1    3    3    0  502 -0.24674561352E+03 -0.48088219687E+03 -0.53992207279E+02  0.54318159351E+03  0.50400001928E-02 0.  1.
</event>
<event>
 5   0  0.1332630E-03  0.1307140E+04  0.7818609E-02  0.9023922E-01
        1   -1    0    0  501    0  0.00000000000E+00  0.00000000000E+00  0.47313576287E+03  0.47313576290E+03  0.50400001928E-02 0.  1.
       -1   -1    0    0    0  501  0.00000000000E+00  0.00000000000E+00 -0.90281474579E+03  0.90281474581E+03  0.50400001928E-02 0. -1.
    10030    2    1    2    0    0  0.00000000000E+00  0.00000000000E+00 -0.42967898292E+03  0.13759505087E+04  0.13071403039E+04 0.  0.
        5    1    3    3  502    0 -0.12346715666E+03 -0.64005193804E+03 -0.16522854586E+03  0.67248285073E+03  0.46999998093E+01 0. -1.
       -5    1    3    3    0  502  0.12346715666E+03  0.64005193804E+03 -0.26445043706E+03  0.70346765798E+03  0.46999998093E+01 0.  1.
</event>
<event>
 5   0  0.2401211E-03  0.1299388E+04  0.7818609E-02  0.9030051E-01
       -2   -1    0    0    0  501  0.00000000000E+00  0.00000000000E+00  0.34778949653E+03  0.34778949654E+03  0.25500000920E-02 0.  1.
        2   -1    0    0  501    0  0.00000000000E+00  0.00000000000E+00 -0.12136708387E+04  0.12136708387E+04  0.25500000920E-02 0. -1.
    10030    2    1    2    0    0  0.00000000000E+00  0.00000000000E+00 -0.86588134213E+03  0.15614603352E+04  0.12993875018E+04 0.  0.
        4    1    3    3  502    0  0.89047359246E+02 -0.38822164425E+03 -0.10497421338E+04  0.11227669561E+04  0.12699999809E+01 0. -1.
       -4    1    3    3    0  502 -0.89047359246E+02  0.38822164425E+03  0.18386079170E+03  0.43869337912E+03  0.12699999809E+01 0.  1.
</event>
<event>
 5   0  0.1310461E-03  0.1300759E+04  0.7818609E-02  0.9028964E-01
        1   -1    0    0  501    0  0.00000000000E+00  0.00000000000E+00  0.87910427491E+03  0.87910427492E+03  0.50400001928E-02 0. -1.
       -1   -1    0    0    0  501  0.00000000000E+00  0.00000000000E+00 -0.48116408566E+03  0.48116408568E+03  0.50400001928E-02 0.  1.
    10030    2    1    2    0    0  0.00000000000E+00  0.00000000000E+00  0.39794018925E+03  0.13602683606E+04  0.13007588626E+04 0.  0.
        4    1    3    3  502    0 -0.21319864794E+03 -0.19454147881E+03 -0.41052511580E+03  0.50182918814E+03  0.12699999809E+01 0.  1.
       -4    1    3    3    0  502  0.21319864794E+03  0.19454147881E+03  0.80846530505E+03  0.85843917247E+03  0.12699999809E+01 0. -1.
</event>
<event>
 5   0  0.2401211E-03  0.1264867E+04  0.7818609E-02  0.9057899E-01
        2   -1    0    0  501    0  0.00000000000E+00  0.00000000000E+00  0.42587164675E+03  0.42587164676E+03  0.25500000920E-02 0. -1.
       -2   -1    0    0    0  501  0.00000000000E+00  0.00000000000E+00 -0.93918471796E+03  0.93918471797E+03  0.25500000920E-02 0.  1.
    10030    2    1    2    0    0  0.00000000000E+00  0.00000000000E+00 -0.51331307121E+03  0.13650563647E+04  0.12648670166E+04 0.  0.
        4    1    3    3  502    0 -0.38252158767E+03  0.45752139897E+03 -0.29453009172E+02  0.59709102170E+03  0.12699999809E+01 0. -1.
       -4    1    3    3    0  502  0.38252158767E+03 -0.45752139897E+03 -0.48386006204E+03  0.76796534302E+03  0.12699999809E+01 0.  1.
</event>
<event>
 5   0  0.1346593E-03  0.1307852E+04  0.7818609E-02  0.9023361E-01
       -1   -1    0    0    0  501  0.00000000000E+00  0.00000000000E+00  0.31652665024E+03  0.31652665028E+03  0.50400001928E-02 0. -1.
        1   -1    0    0  501    0  0.00000000000E+00  0.00000000000E+00 -0.13509744413E+04  0.13509744413E+04  0.50400001928E-02 0.  1.
    10030    2    1    2    0    0  0.00000000000E+00  0.00000000000E+00 -0.10344477910E+04  0.16675010916E+04  0.13078523074E+04 0.  0.
        2    1    3    3  502    0  0.43331385987E+03  0.30535643035E+03 -0.29023582295E+02  0.53089153228E+03  0.25500000920E-02 0. -1.
       -2    1    3    3    0  502 -0.43331385987E+03 -0.30535643035E+03 -0.10054242087E+04  0.11366095593E+04  0.25500000920E-02 0.  1.
</event>
<event>
 5   0  0.2334946E-03  0.1286455E+04  0.7818609E-02  0.9040376E-01
       -2   -1    0    0    0  501  0.00000000000E+00  0.00000000000E+00  0.75001100498E+03  0.75001100498E+03  0.25500000920E-02 0.  1.
        2   -1    0    0  501    0  0.00000000000E+00  0.00000000000E+00 -0.55164766610E+03  0.55164766610E+03  0.25500000920E-02 0. -1.
    10030    2    1    2    0    0  0.00000000000E+00  0.00000000000E+00  0.19836333888E+03  0.13016586711E+04  0.12864553167E+04 0.  0.
        1    1    3    3  502    0  0.30625572258E+03  0.56477204622E+03  0.67477863147E+02  0.64599790545E+03  0.50400001928E-02 0.  1.
       -1    1    3    3    0  502 -0.30625572258E+03 -0.56477204622E+03  0.13088547573E+03  0.65566076563E+03  0.50400001928E-02 0. -1.
</event>
<event>
 5   0  0.1324721E-03  0.1247375E+04  0.7818609E-02  0.9072371E-01
       -1   -1    0    0    0  501  0.00000000000E+00  0.00000000000E+00  0.13759851466E+04  0.13759851466E+04  0.50400001928E-02 0. -1.
        1   -1    0    0  501    0  0.00000000000E+00  0.00000000000E+00 -0.28269642773E+03  0.28269642778E+03  0.50400001928E-02 0.  1.
    10030    2    1    2    0    0  0.00000000000E+00  0.00000000000E+00  0.10932887189E+04  0.16586815744E+04  0.12473749807E+04 0.  0.
        1    1    3    3  502    0  0.14220629861E+03  0.46860730847E+03  0.10602238530E+04  0.11678570372E+04  0.50400001928E-02 0. -1.
       -1    1    3    3    0  502 -0.14220629861E+03 -0.46860730847E+03  0.33064865891E+02  0.49082453718E+03  0.50400001928E-02 0.  1.
</event>
<event>
 5   0  0.1324721E-03  0.1294283E+04  0.7818609E-02  0.9034111E-01
        1   -1    0    0  501    0  0.00000000000E+00  0.00000000000E+00  0.31536478371E+03  0.31536478375E+03  0.50400001928E-02 0.  1.
       -1   -1    0    0    0  501  0.00000000000E+00  0.00000000000E+00 -0.13279608624E+04  0.13279608624E+04  0.50400001928E-02 0. -1.
    10030    2    1    2    0    0  0.00000000000E+00  0.00000000000E+00 -0.10125960787E+04  0.16433256461E+04  0.12942829523E+04 0.  0.
        1    1    3    3  502    0  0.46576444406E+03  0.38359363044E+03 -0.80328248974E+03  0.10046608129E+04  0.50400001928E-02 0.  1.
       -1    1    3    3    0  502 -0.46576444406E+03 -0.38359363044E+03 -0.20931358893E+03  0.63866483323E+03  0.50400001928E-02 0. -1.
</event>
<event>
 5   0  0.1387622E-03  0.1313093E+04  0.7818609E-02  0.9019246E-01
       -1   -1    0    0    0  501  0.00000000000E+00  0.00000000000E+00  0.92976961479E+03  0.92976961480E+03  0.50400001928E-02 0.  1.
        1   -1    0    0  501    0  0.00000000000E+00  0.00000000000E+00 -0.46361311093E+03  0.46361311096E+03  0.50400001928E-02 0. -1.
    10030    2    1    2    0    0  0.00000000000E+00  0.00000000000E+00  0.46615650385E+03  0.13933827258E+04  0.13130931172E+04 0.  0.
        3    1    3    3  502    0 -0.59829119137E+02  0.24510235409E+03 -0.41011828368E+03  0.48150981743E+03  0.10100000352E+00 0. -1.
       -3    1    3    3    0  502  0.59829119137E+02 -0.24510235409E+03  0.87627478753E+03  0.91187290833E+03  0.10100000352E+00 0.  1.
</event>
<event>
 5   0  0.2478236E-03  0.1266366E+04  0.7818609E-02  0.9056671E-01
        2   -1    0    0  501    0  0.00000000000E+00  0.00000000000E+00  0.13797144873E+04  0.13797144873E+04  0.25500000920E-02 0. -1.
       -2   -1    0    0    0  501  0.00000000000E+00  0.00000000000E+00 -0.29058220389E+03  0.29058220390E+03  0.25500000920E-02 0.  1.
    10030    2    1    2    0    0  0.00000000000E+00  0.00000000000E+00  0.10891322834E+04  0.16702966912E+04  0.12663656288E+04 0.  0.
        3    1    3    3  502    0 -0.59058499886E+02  0.18525411069E+03 -0.25022988743E+03  0.31689430210E+03  0.10100000352E+00 0.  1.
       -3    1    3    3    0  502  0.59058499886E+02 -0.18525411069E+03  0.13393621709E+04  0.13534023891E+04  0.10100000352E+00 0. -1.
</event>
<event>
 5   0  0.2361043E-03  0.1298012E+04  0.7818609E-02  0.9031143E-01
        2   -1    0    0  501    0  0.00000000000E+00  0.00000000000E+00  0.50490795534E+03  0.50490795534E+03  0.25500000920E-02 0.  1.
       -2   -1    0    0    0  501  0.00000000000E+00  0.00000000000E+00 -0.83422871785E+03  0.83422871785E+03  0.25500000920E-02 0. -1.
    10030    2    1    2    0    0  0.00000000000E+00  0.00000000000E+00 -0.32932076252E+03  0.13391366732E+04  0.12980118893E+04 0.  0.
        2    1    3    3  502    0  0.19459960041E+03 -0.57574442794E+03 -0.39959898797E+03  0.72734448645E+03  0.25500000920E-02 0.  1.
       -2    1    3    3    0  502 -0.19459960041E+03  0.57574442794E+03  0.70278225458E+02  0.61179218674E+03  0.25500000920E-02 0. -1.
</event>
<event>
 5   0  0.1346593E-03  0.1194437E+04  0.7818609E-02  0.9117740E-01
        1   -1    0    0  501    0  0.00000000000E+00  0.00000000000E+00  0.92181389332E+03  0.92181389333E+03  0.50400001928E-02 0. -1.
       -1   -1    0    0    0  501  0.00000000000E+00  0.00000000000E+00 -0.38692167196E+03  0.38692167199E+03  0.50400001928E-02 0.  1.
    10030    2    1    2    0    0  0.00000000000E+00  0.00000000000E+00  0.53489222136E+03  0.13087355653E+04  0.11944367256E+04 0.  0.
        2    1    3    3  502    0 -0.23893647368E+03  0.42018349342E+03 -0.11686716214E+03  0.49729542546E+03  0.25500000920E-02 0.  1.
       -2    1    3    3    0  502  0.23893647368E+03 -0.42018349342E+03  0.65175938350E+03  0.81144013986E+03  0.25500000920E-02 0. -1.
</event>
<event>
 5   0  0.2334946E-03  0.1183771E+04  0.7818609E-02  0.9127181E-01
        2   -1    0    0  501    0  0.00000000000E+00  0.00000000000E+00  0.65727011427E+03  0.65727011427E+03  0.25500000920E-02 0. -1.
       -2   -1    0    0    0  501  0.00000000000E+00  0.00000000000E+00 -0.53300561805E+03  0.53300561805E+03  0.25500000920E-02 0.  1.
    10030    2    1    2    0    0  0.00000000000E+00  0.00000000000E+00  0.12426449622E+03  0.11902757323E+04  0.11837713689E+04 0.  0.
        1    1    3    3  502    0 -0.26436545190E+03 -0.47186192469E+02 -0.46822497008E+03  0.53976870190E+03  0.50400001928E-02 0.  1.
       -1    1    3    3    0  502  0.26436545190E+03  0.47186192469E+02  0.59248946630E+03  0.65050703042E+03  0.50400001928E-02 0. -1.
</event>
<event>
 5   0  0.2312105E-03  0.1299480E+04  0.7818609E-02  0.9029977E-01
        2   -1    0    0  501    0  0.00000000000E+00  0.00000000000E+00  0.61876562699E+03  0.61876562700E+03  0.25500000920E-02 0.  1.
       -2   -1    0    0    0  501  0.00000000000E+00  0.00000000000E+00 -0.68226534584E+03  0.68226534584E+03  0.25500000920E-02 0. -1.
    10030    2    1    2    0    0  0.00000000000E+00  0.00000000000E+00 -0.63499718846E+02  0.13010309728E+04  0.12994804262E+04 0.  0.
        5    1    3    3  502    0  0.50727284376E+03 -0.38079755570E+03 -0.17265775714E+03  0.65739281069E+03  0.46999998093E+01 0. -1.
       -5    1    3    3    0  502 -0.50727284376E+03  0.38079755570E+03  0.10915803830E+03  0.64363816215E+03  0.46999998093E+01 0.  1.
</event>
<event>
 5   0  0.1310461E-03  0.1292172E+04  0.7818609E-02  0.9035796E-01
        1   -1    0    0  501    0  0.00000000000E+00  0.00000000000E+00  0.11808742426E+04  0.11808742426E+04  0.50400001928E-02 0.  1.
       -1   -1    0    0    0  501  0.00000000000E+00  0.00000000000E+00 -0.35348971630E+03  0.35348971634E+03  0.50400001928E-02 0. -1.
    10030    2    1    2    0    0  0.00000000000E+00  0.00000000000E+00  0.82738452631E+03  0.15343639590E+04  0.12921716620E+04 0.  0.
        4    1    3    3  502    0  0.41166856604E+02  0.16426338007E+03 -0.32666668048E+03  0.36795366712E+03  0.12699999809E+01 0. -1.
       -4    1    3    3    0  502 -0.41166856604E+02 -0.16426338007E+03  0.11540512068E+04  0.11664102918E+04  0.12699999809E+01 0.  1.
</event>
<event>
 5   0  0.2334946E-03  0.1302049E+04  0.7818609E-02  0.9027942E-01
        2   -1    0    0  501    0  0.00000000000E+00  0.00000000000E+00  0.30392735368E+03  0.30392735369E+03  0.25500000920E-02 0.  1.
       -2   -1    0    0    0  501  0.00000000000E+00  0.00000000000E+00 -0.13945205883E+04  0.13945205883E+04  0.25500000920E-02 0. -1.
    10030    2    1    2    0    0  0.00000000000E+00  0.00000000000E+00 -0.10905932346E+04  0.16984479420E+04  0.13020490806E+04 0.  0.
        1    1    3    3  502    0  0.28103048479E+03 -0.23736156707E+03 -0.12459586110E+04  0.12991272098E+04  0.50400001928E-02 0. -1.
       -1    1    3    3    0  502 -0.28103048479E+03  0.23736156707E+03  0.15536537642E+03  0.39932073214E+03  0.50400001928E-02 0.  1.
</event>
<event>
 5   0  0.1324721E-03  0.1284723E+04  0.7818609E-02  0.9041769E-01
       -1   -1    0    0    0  501  0.00000000000E+00  0.00000000000E+00  0.15379110204E+03  0.15379110212E+03  0.50400001928E-02 0.  1.
        1   -1    0    0  501    0  0.00000000000E+00  0.00000000000E+00 -0.26830431410E+04  0.26830431410E+04  0.50400001928E-02 0. -1.
    10030    2    1    2    0    0  0.00000000000E+00  0.00000000000E+00 -0.25292520389E+04  0.28368342431E+04  0.12847227897E+04 0.  0.
        1    1    3    3  502    0  0.34143171289E+03 -0.52365006019E+03 -0.93827702386E+03  0.11274523376E+04  0.50400001928E-02 0.  1.
       -1    1    3    3    0  502 -0.34143171289E+03  0.52365006019E+03 -0.15909750151E+04  0.17093819055E+04  0.50400001928E-02 0. -1.
</event>
<event>
 5   0  0.2334946E-03  0.1306099E+04  0.7818609E-02  0.9024742E-01
       -2   -1    0    0    0  501  0.00000000000E+00  0.00000000000E+00  0.34722331094E+03  0.34722331095E+03  0.25500000920E-02 0.  1.
        2   -1    0    0  501    0  0.00000000000E+00  0.00000000000E+00 -0.12282407362E+04  0.12282407362E+04  0.25500000920E-02 0. -1.
    10030    2    1    2    0    0  0.00000000000E+00  0.00000000000E+00 -0.88101742527E+03  0.15754640472E+04  0.13060992536E+04 0.  0.
        1    1    3    3  502    0  0.36178913219E+03  0.13732514416E+03 -0.10750442064E+04  0.11425714933E+04  0.50400001928E-02 0. -1.
       -1    1    3    3    0  502 -0.36178913219E+03 -0.13732514416E+03  0.19402678117E+03  0.43289255391E+03  0.50400001928E-02 0.  1.
</event>
<event>
 5   0  0.1310461E-03  0.1299915E+04  0.7818609E-02  0.9029632E-01
        1   -1    0    0  501    0  0.00000000000E+00  0.00000000000E+00  0.18160386892E+04  0.18160386892E+04  0.50400001928E-02 0.  1.
       -1   -1    0    0    0  501  0.00000000000E+00  0.00000000000E+00 -0.23261895418E+03  0.23261895424E+03  0.50400001928E-02 0. -1.
    10030    2    1    2    0    0  0.00000000000E+00  0.00000000000E+00  0.15834197350E+04  0.20486576434E+04  0.12999154137E+04 0.  0.
        4    1    3    3  502    0  0.23796991555E+03 -0.25477103124E+03 -0.72798738443E+02  0.35614495404E+03  0.12699999809E+01 0. -1.
       -4    1    3    3    0  502 -0.23796991555E+03  0.25477103124E+03  0.16562184735E+04  0.16925126894E+04  0.12699999809E+01 0.  1.
</event>
<event>
 5   0  0.2361043E-03  0.1324890E+04  0.7818609E-02  0.9010057E-01
        2   -1    0    0  501    0  0.00000000000E+00  0.00000000000E+00  0.23129652797E+04  0.23129652797E+04  0.25500000920E-02 0.  1.
       -2   -1    0    0    0  501  0.00000000000E+00  0.00000000000E+00 -0.18972754546E+03  0.18972754548E+03  0.25500000920E-02 0. -1.
    10030    2    1    2    0    0  0.00000000000E+00  0.00000000000E+00  0.21232377342E+04  0.25026928252E+04  0.13248897694E+04 0.  0.
        2    1    3    3  502    0  0.17953703282E+03  0.36855679012E+03  0.20445532413E+04  0.20852495319E+04  0.25500000920E-02 0.  1.
       -2    1    3    3    0  502 -0.17953703282E+03 -0.36855679012E+03  0.78684492963E+02  0.41744329332E+03  0.25500000920E-02 0. -1.
</event>
<event>
 5   0  0.2361043E-03  0.1338136E+04  0.7818609E-02  0.8999858E-01
       -2   -1    0    0    0  501  0.00000000000E+00  0.00000000000E+00  0.44697304536E+03  0.44697304536E+03  0.25500000920E-02 0.  1.
        2   -1    0    0  501    0  0.00000000000E+00  0.00000000000E+00 -0.10015189281E+04  0.10015189281E+04  0.25500000920E-02 0. -1.
    10030    2    1    2    0    0  0.00000000000E+00  0.00000000000E+00 -0.55454588279E+03  0.14484919735E+04  0.13381359651E+04 0.  0.
        2    1    3    3  502    0  0.15850522942E+03 -0.29835280928E+03  0.34786039915E+03  0.48491768772E+03  0.25500000920E-02 0.  1.
       -2    1    3    3    0  502 -0.15850522942E+03  0.29835280928E+03 -0.90240628194E+03  0.96357428580E+03  0.25500000920E-02 0. -1.
</event>
<event>
 5   0  0.1310461E-03  0.1306786E+04  0.7818609E-02  0.9024201E-01
       -1   -1    0    0    0  501  0.00000000000E+00  0.00000000000E+00  0.19874966273E+03  0.19874966279E+03  0.50400001928E-02 0.  1.
        1   -1    0    0  501    0  0.00000000000E+00  0.00000000000E+00 -0.21480425164E+04  0.21480425164E+04  0.50400001928E-02 0. -1.
    10030    2    1    2    0    0  0.00000000000E+00  0.00000000000E+00 -0.19492928537E+04  0.23467921792E+04  0.13067864795E+04 0.  0.
        4    1    3    3  502    0 -0.93501222257E+02  0.49560818144E+03 -0.22866339788E+03  0.55376755999E+03  0.12699999809E+01 0.  1.
       -4    1    3    3    0  502  0.93501222257E+02 -0.49560818144E+03 -0.17206294558E+04  0.17930246192E+04  0.12699999809E+01 0. -1.
</event>
<event>
 5   0  0.1332630E-03  0.1300067E+04  0.7818609E-02  0.9029512E-01
       -1   -1    0    0    0  501  0.00000000000E+00  0.00000000000E+00  0.44457098409E+03  0.44457098412E+03  0.50400001928E-02 0. -1.
        1   -1    0    0  501    0  0.00000000000E+00  0.00000000000E+00 -0.95045267946E+03  0.95045267947E+03  0.50400001928E-02 0.  1.
    10030    2    1    2    0    0  0.00000000000E+00  0.00000000000E+00 -0.50588169537E+03  0.13950236636E+04  0.13000672030E+04 0.  0.
        5    1    3    3  502    0 -0.33167857045E+03 -0.52345701787E+03 -0.42385230442E+02  0.62115740470E+03  0.46999998093E+01 0.  1.
       -5    1    3    3    0  502  0.33167857045E+03  0.52345701787E+03 -0.46349646493E+03  0.77386625889E+03  0.46999998093E+01 0. -1.
</event>
<event>
 5   0  0.9131250E-04  0.1200900E+04  0.7818609E-02  0.9112069E-01
        4   -1    0    0  501    0  0.00000000000E+00  0.00000000000E+00  0.14478765477E+04  0.14478771047E+04  0.12699999809E+01 0.  1.
       -4   -1    0    0    0  501  0.00000000000E+00  0.00000000000E+00 -0.24901104548E+03  0.24901428407E+03  0.12699999809E+01 0. -1.
    10030    2    1    2    0    0  0.00000000000E+00  0.00000000000E+00  0.11988655022E+04  0.16968913888E+04  0.12009004509E+04 0.  0.
        5    1    3    3  502    0  0.30218867128E+02  0.25869043690E+02 -0.24712296155E+03  0.25034822843E+03  0.46999998093E+01 0. -1.
       -5    1    3    3    0  502 -0.30218867128E+02 -0.25869043690E+02  0.14459884638E+04  0.14465431604E+04  0.46999998093E+01 0.  1.
</event>
<event>
 5   0  0.2478236E-03  0.1295861E+04  0.7818609E-02  0.9032854E-01
        2   -1    0    0  501    0  0.00000000000E+00  0.00000000000E+00  0.13265414437E+04  0.13265414437E+04  0.25500000920E-02 0. -1.
       -2   -1    0    0    0  501  0.00000000000E+00  0.00000000000E+00 -0.31647253886E+03  0.31647253887E+03  0.25500000920E-02 0.  1.
    10030    2    1    2    0    0  0.00000000000E+00  0.00000000000E+00  0.10100689048E+04  0.16430139825E+04  0.12958610089E+04 0.  0.
        3    1    3    3  502    0  0.32273398976E+03  0.15979115103E+03  0.11879614507E+04  0.12413471950E+04  0.10100000352E+00 0. -1.
       -3    1    3    3    0  502 -0.32273398976E+03 -0.15979115103E+03 -0.17789254589E+03  0.40166678750E+03  0.10100000352E+00 0.  1.
</event>
<event>
 5   0  0.1346593E-03  0.1309288E+04  0.7818609E-02  0.9022232E-01
        1   -1    0    0  501    0  0.00000000000E+00  0.00000000000E+00  0.69053544950E+03  0.69053544952E+03  0.50400001928E-02 0. -1.
       -1   -1    0    0    0  501  0.00000000000E+00  0.00000000000E+00 -0.62061848269E+03  0.62061848272E+03  0.50400001928E-02 0.  1.
    10030    2    1    2    0    0  0.00000000000E+00  0.00000000000E+00  0.69916966809E+02  0.13111539322E+04  0.13092884525E+04 0.  0.
        2    1    3    3  502    0 -0.10397834218E+03 -0.39425680712E+03  0.54784945446E+03  0.68292675329E+03  0.25500000920E-02 0. -1.
       -2    1    3    3    0  502  0.10397834218E+03  0.39425680712E+03 -0.47793248766E+03  0.62822717894E+03  0.25500000920E-02 0.  1.
</event>
<event>
 5   0  0.1324721E-03  0.1297430E+04  0.7818609E-02  0.9031605E-01
        1   -1    0    0  501    0  0.00000000000E+00  0.00000000000E+00  0.32485934174E+03  0.32485934178E+03  0.50400001928E-02 0. -1.
       -1   -1    0    0    0  501  0.00000000000E+00  0.00000000000E+00 -0.12954265495E+04  0.12954265495E+04  0.50400001928E-02 0.  1.
    10030    2    1    2    0    0  0.00000000000E+00  0.00000000000E+00 -0.97056720774E+03  0.16202858913E+04  0.12974304084E+04 0.  0.
        1    1    3    3  502    0  0.33236304705E+02  0.34497211636E+03  0.19955693232E+03  0.39991671917E+03  0.50400001928E-02 0. -1.
       -1    1    3    3    0  502 -0.33236304705E+02 -0.34497211636E+03 -0.11701241401E+04  0.12203691721E+04  0.50400001928E-02 0.  1.
</event>
<event>
 5   0  0.2334946E-03  0.1307274E+04  0.7818609E-02  0.9023816E-01
        2   -1    0    0  501    0  0.00000000000E+00  0.00000000000E+00  0.12834841651E+04  0.12834841651E+04  0.25500000920E-02 0.  1.
       -2   -1    0    0    0  501  0.00000000000E+00  0.00000000000E+00 -0.33287640493E+03  0.33287640494E+03  0.25500000920E-02 0. -1.
    10030    2    1    2    0    0  0.00000000000E+00  0.00000000000E+00  0.95060776015E+03  0.16163605700E+04  0.13072744083E+04 0.  0.
        1    1    3    3  502    0 -0.26153052219E+03 -0.45325028362E+03 -0.89742656532E+01  0.52336848501E+03  0.50400001928E-02 0. -1.
       -1    1    3    3    0  502  0.26153052219E+03  0.45325028362E+03  0.95958202580E+03  0.10929920850E+04  0.50400001928E-02 0.  1.
</event>
<event>
 5   0  0.1332630E-03  0.1294890E+04  0.7818609E-02  0.9033627E-01
        1   -1    0    0  501    0  0.00000000000E+00  0.00000000000E+00  0.19056777600E+04  0.19056777600E+04  0.50400001928E-02 0. -1.
       -1   -1    0    0    0  501  0.00000000000E+00  0.00000000000E+00 -0.21996637530E+03  0.21996637536E+03  0.50400001928E-02 0.  1.
    10030    2    1    2    0    0  0.00000000000E+00  0.00000000000E+00  0.16857113847E+04  0.21256441353E+04  0.12948900021E+04 0.  0.
        5    1    3    3  502    0  0.81461960042E+02  0.54300742203E+03  0.27974958104E+03  0.61625889803E+03  0.46999998093E+01 0.  1.
       -5    1    3    3    0  502 -0.81461960042E+02 -0.54300742203E+03  0.14059618036E+04  0.15093852373E+04  0.46999998093E+01 0. -1.
</event>
<event>
 5   0  0.1332630E-03  0.1303668E+04  0.7818609E-02  0.9026662E-01
       -1   -1    0    0    0  501  0.00000000000E+00  0.00000000000E+00  0.51225773438E+03  0.51225773441E+03  0.50400001928E-02 0.  1.
        1   -1    0    0  501    0  0.00000000000E+00  0.00000000000E+00 -0.82944063511E+03  0.82944063512E+03  0.50400001928E-02 0. -1.
    10030    2    1    2    0    0  0.00000000000E+00  0.00000000000E+00 -0.31718290072E+03  0.13416983695E+04  0.13036677193E+04 0.  0.
        5    1    3    3  502    0  0.11154160268E+03 -0.81634715501E+02 -0.81416639511E+03  0.82582974324E+03  0.46999998093E+01 0. -1.
       -5    1    3    3    0  502 -0.11154160268E+03  0.81634715501E+02  0.49698349438E+03  0.51586862629E+03  0.46999998093E+01 0.  1.
</event>
<event>
 5   0  0.2361043E-03  0.1295548E+04  0.7818609E-02  0.9033103E-01
       -2   -1    0    0    0  501  0.00000000000E+00  0.00000000000E+00  0.37292687215E+03  0.37292687216E+03  0.25500000920E-02 0. -1.
        2   -1    0    0  501    0  0.00000000000E+00  0.00000000000E+00 -0.11251835582E+04  0.11251835582E+04  0.25500000920E-02 0.  1.
    10030    2    1    2    0    0  0.00000000000E+00  0.00000000000E+00 -0.75225668603E+03  0.14981104303E+04  0.12955480461E+04 0.  0.
        2    1    3    3  502    0 -0.13294520177E+03 -0.60594876491E+03 -0.16052871491E+03  0.64079466343E+03  0.25500000920E-02 0. -1.
       -2    1    3    3    0  502  0.13294520177E+03  0.60594876491E+03 -0.59172797112E+03  0.85731576690E+03  0.25500000920E-02 0.  1.
</event>
<event>
 5   0  0.2361043E-03  0.1284481E+04  0.7818609E-02  0.9041964E-01
       -2   -1    0    0    0  501  0.00000000000E+00  0.00000000000E+00  0.40889608180E+03  0.40889608181E+03  0.25500000920E-02 0. -1.
        2   -1    0    0  501    0  0.00000000000E+00  0.00000000000E+00 -0.10087467512E+04  0.10087467512E+04  0.25500000920E-02 0.  1.
    10030    2    1    2    0    0  0.00000000000E+00  0.00000000000E+00 -0.59985066936E+03  0.14176428330E+04  0.12844805862E+04 0.  0.
        2    1    3    3  502    0  0.53460745008E+01  0.29430279507E+03  0.33006623089E+03  0.44225154887E+03  0.25500000920E-02 0. -1.
       -2    1    3    3    0  502 -0.53460745008E+01 -0.29430279507E+03 -0.92991690026E+03  0.97539128409E+03  0.25500000920E-02 0.  1.
</event>
<event>
 5   0  0.1387622E-03  0.1296460E+04  0.7818609E-02  0.9032377E-01
        1   -1    0    0  501    0  0.00000000000E+00  0.00000000000E+00  0.21245445672E+04  0.21245445672E+04  0.50400001928E-02 0. -1.
       -1   -1    0    0    0  501  0.00000000000E+00  0.00000000000E+00 -0.19778450599E+03  0.19778450606E+03  0.50400001928E-02 0.  1.
    10030    2    1    2    0    0  0.00000000000E+00  0.00000000000E+00  0.19267600612E+04  0.23223290732E+04  0.12964597915E+04 0.  0.
        3    1    3    3  502    0  0.15007875640E+02 -0.63959585090E+03  0.77641672660E+03  0.10060472317E+04  0.10100000352E+00 0. -1.
       -3    1    3    3    0  502 -0.15007875640E+02  0.63959585090E+03  0.11503433346E+04  0.13162818416E+04  0.10100000352E+00 0.  1.
</event>
<event>
 5   0  0.2312105E-03  0.1314338E+04  0.7818609E-02  0.9018272E-01
        2   -1    0    0  501    0  0.00000000000E+00  0.00000000000E+00  0.49082224978E+03  0.49082224979E+03  0.25500000920E-02 0.  1.
       -2   -1    0    0    0  501  0.00000000000E+00  0.00000000000E+00 -0.87989303884E+03  0.87989303884E+03  0.25500000920E-02 0. -1.
    10030    2    1    2    0    0  0.00000000000E+00  0.00000000000E+00 -0.38907078906E+03  0.13707152886E+04  0.13143379792E+04 0.  0.
        5    1    3    3  502    0  0.43491000982E+03  0.23827703963E+03  0.25515192760E+03  0.55771611095E+03  0.46999998093E+01 0.  1.
       -5    1    3    3    0  502 -0.43491000982E+03 -0.23827703963E+03 -0.64422271666E+03  0.81299917768E+03  0.46999998093E+01 0. -1.
</event>
<event>
 5   0  0.1310461E-03  0.1304483E+04  0.7818609E-02  0.9026018E-01
       -1   -1    0    0    0  501  0.00000000000E+00  0.00000000000E+00  0.71329786601E+03  0.71329786602E+03  0.50400001928E-02 0. -1.
        1   -1    0    0  501    0  0.00000000000E+00  0.00000000000E+00 -0.59641126215E+03  0.59641126217E+03  0.50400001928E-02 0.  1.
    10030    2    1    2    0    0  0.00000000000E+00  0.00000000000E+00  0.11688660386E+03  0.13097091282E+04  0.13044828563E+04 0.  0.
        4    1    3    3  502    0  0.56644834563E+03  0.43885292238E+02  0.38008223169E+03  0.68355962643E+03  0.12699999809E+01 0. -1.
       -4    1    3    3    0  502 -0.56644834563E+03 -0.43885292238E+02 -0.26319562783E+03  0.62614950176E+03  0.12699999809E+01 0.  1.
</event>
<event>
 5   0  0.2361043E-03  0.1345179E+04  0.7818609E-02  0.8994485E-01
        2   -1    0    0  501    0  0.00000000000E+00  0.00000000000E+00  0.17367048090E+04  0.17367048090E+04  0.25500000920E-02 0.  1.
       -2   -1    0    0    0  501  0.00000000000E+00  0.00000000000E+00 -0.26048001155E+03  0.26048001156E+03  0.25500000920E-02 0. -1.
    10030    2    1    2    0    0  0.00000000000E+00  0.00000000000E+00  0.14762247974E+04  0.19971848205E+04  0.13451793765E+04 0.  0.
        2    1    3    3  502    0  0.40559142155E+03  0.14931999170E+03 -0.27012775665E+02  0.43304797795E+03  0.25500000920E-02 0. -1.
       -2    1    3    3    0  502 -0.40559142155E+03 -0.14931999170E+03  0.15032375731E+04  0.15641368426E+04  0.25500000920E-02 0.  1.
</event>
<event>
 5   0  0.1387622E-03  0.1315821E+04  0.7818609E-02  0.9017113E-01
       -1   -1    0    0    0  501  0.00000000000E+00  0.00000000000E+00  0.67673420543E+03  0.67673420545E+03  0.50400001928E-02 0. -1.
        1   -1    0    0  501    0  0.00000000000E+00  0.00000000000E+00 -0.63960999538E+03  0.63960999540E+03  0.50400001928E-02 0.  1.
    10030    2    1    2    0    0  0.00000000000E+00  0.00000000000E+00  0.37124210049E+02  0.13163442009E+04  0.13158205988E+04 0.  0.
        3    1    3    3  502    0  0.85670193441E+02  0.53309964655E+03  0.39462569344E+03  0.66877803741E+03  0.10100000352E+00 0. -1.
       -3    1    3    3    0  502 -0.85670193441E+02 -0.53309964655E+03 -0.35750148340E+03  0.64756616344E+03  0.10100000352E+00 0.  1.
</event>
<event>
 5   0  0.1332630E-03  0.1284991E+04  0.7818609E-02  0.9041553E-01
        1   -1    0    0  501    0  0.00000000000E+00  0.00000000000E+00  0.49317796924E+03  0.49317796927E+03  0.50400001928E-02 0. -1.
       -1   -1    0    0    0  501  0.00000000000E+00  0.00000000000E+00 -0.83702141796E+03  0.83702141798E+03  0.50400001928E-02 0.  1.
    10030    2    1    2    0    0  0.00000000000E+00  0.00000000000E+00 -0.34384344872E+03  0.13301993872E+04  0.12849910866E+04 0.  0.
        5    1    3    3  502    0  0.38014164979E+03  0.51533916975E+03 -0.11816897484E+03  0.65120513695E+03  0.46999998093E+01 0.  1.
       -5    1    3    3    0  502 -0.38014164979E+03 -0.51533916975E+03 -0.22567447388E+03  0.67899425030E+03  0.46999998093E+01 0. -1.
</event>
<event>
 5   0  0.1346593E-03  0.1296395E+04  0.7818609E-02  0.9032429E-01
       -1   -1    0    0    0  501  0.00000000000E+00  0.00000000000E+00  0.76095412876E+03  0.76095412877E+03  0.50400001928E-02 0.  1.
        1   -1    0    0  501    0  0.00000000000E+00  0.00000000000E+00 -0.55214893987E+03  0.55214893990E+03  0.50400001928E-02 0. -1.
    10030    2    1    2    0    0  0.00000000000E+00  0.00000000000E+00  0.20880518888E+03  0.13131030687E+04  0.12963950255E+04 0.  0.
        2    1    3    3  502    0 -0.11498459647E+03 -0.62763725563E+03  0.21993416212E+03  0.67492297172E+03  0.25500000920E-02 0. -1.
       -2    1    3    3    0  502  0.11498459647E+03  0.62763725563E+03 -0.11128973239E+02  0.63818009694E+03  0.25500000920E-02 0.  1.
</event>
<event>
 5   0  0.1332630E-03  0.1293554E+04  0.7818609E-02  0.9034692E-01
       -1   -1    0    0    0  501  0.00000000000E+00  0.00000000000E+00  0.90015748637E+03  0.90015748638E+03  0.50400001928E-02 0.  1.
        1   -1    0    0  501    0  0.00000000000E+00  0.00000000000E+00 -0.46471928908E+03  0.46471928911E+03  0.50400001928E-02 0. -1.
    10030    2    1    2    0    0  0.00000000000E+00  0.00000000000E+00  0.43543819729E+03  0.13648767755E+04  0.12935540919E+04 0.  0.
        5    1    3    3  502    0  0.30906508140E+03  0.23630284911E+02  0.81666047504E+03  0.87351933945E+03  0.46999998093E+01 0.  1.
       -5    1    3    3    0  502 -0.30906508140E+03 -0.23630284911E+02 -0.38122227775E+03  0.49135743604E+03  0.46999998093E+01 0. -1.
</event>
<event>
 5   0  0.2361043E-03  0.1292560E+04  0.7818609E-02  0.9035486E-01
        2   -1    0    0  501    0  0.00000000000E+00  0.00000000000E+00  0.13175284424E+04  0.13175284424E+04  0.25500000920E-02 0.  1.
       -2   -1    0    0    0  501  0.00000000000E+00  0.00000000000E+00 -0.31701616322E+03  0.31701616323E+03  0.25500000920E-02 0. -1.
    10030    2    1    2    0    0  0.00000000000E+00  0.00000000000E+00  0.10005122792E+04  0.16345446057E+04  0.12925599588E+04 0.  0.
        2    1    3    3  502    0  0.36824716356E+03  0.50741697441E+03  0.30191521701E+03  0.69586691088E+03  0.25500000920E-02 0. -1.
       -2    1    3    3    0  502 -0.36824716356E+03 -0.50741697441E+03  0.69859706220E+03  0.93867769480E+03  0.25500000920E-02 0.  1.
</event>
<event>
 5   0  0.2361043E-03  0.1309911E+04  0.7818609E-02  0.9021742E-01
       -2   -1    0    0    0  501  0.00000000000E+00  0.00000000000E+00  0.46875347690E+03  0.46875347691E+03  0.25500000920E-02 0. -1.
        2   -1    0    0  501    0  0.00000000000E+00  0.00000000000E+00 -0.91512235636E+03  0.91512235636E+03  0.25500000920E-02 0.  1.
    10030    2    1    2    0    0  0.00000000000E+00  0.00000000000E+00 -0.44636887946E+03  0.13838758333E+04  0.13099111212E+04 0.  0.
        2    1    3    3  502    0  0.48489919091E+02 -0.60418298067E+03 -0.48534637664E+03  0.77649819813E+03  0.25500000920E-02 0.  1.
       -2    1    3    3    0  502 -0.48489919091E+02  0.60418298067E+03  0.38977497181E+02  0.60737763514E+03  0.25500000920E-02 0. -1.
</event>
<event>
 5   0  0.1346593E-03  0.1291680E+04  0.7818609E-02  0.9036189E-01
        1   -1    0    0  501    0  0.00000000000E+00  0.00000000000E+00  0.42378345201E+03  0.42378345204E+03  0.50400001928E-02 0.  1.
       -1   -1    0    0    0  501  0.00000000000E+00  0.00000000000E+00 -0.98425052609E+03  0.98425052610E+03  0.50400001928E-02 0. -1.
    10030    2    1    2    0    0  0.00000000000E+00  0.00000000000E+00 -0.56046707408E+03  0.14080339781E+04  0.12916796594E+04 0.  0.
        2    1    3    3  502    0 -0.30212218942E+03 -0.22231855045E+03 -0.85333542059E+03  0.93213984747E+03  0.25500000920E-02 0. -1.
       -2    1    3    3    0  502  0.30212218942E+03  0.22231855045E+03  0.29286834651E+03  0.47589413067E+03  0.25500000920E-02 0.  1.
</event>
<event>
 5   0  0.2401211E-03  0.1236089E+04  0.7818609E-02  0.9081841E-01
       -2   -1    0    0    0  501  0.00000000000E+00  0.00000000000E+00  0.76018362832E+03  0.76018362832E+03  0.25500000920E-02 0.  1.
        2   -1    0    0  501    0  0.00000000000E+00  0.00000000000E+00 -0.50248273721E+03  0.50248273722E+03  0.25500000920E-02 0. -1.
    10030    2    1    2    0    0  0.00000000000E+00  0.00000000000E+00  0.25770089111E+03  0.12626663655E+04  0.12360892368E+04 0.  0.
        4    1    3    3  502    0 -0.40942345365E+03 -0.78576264262E+02  0.59492334364E+03  0.72645522327E+03  0.12699999809E+01 0.  1.
       -4    1    3    3    0  502  0.40942345365E+03  0.78576264262E+02 -0.33722245253E+03  0.53621114227E+03  0.12699999809E+01 0. -1.
</event>
<event>
 5   0  0.1332630E-03  0.1330662E+04  0.7818609E-02  0.9005597E-01
        1   -1    0    0  501    0  0.00000000000E+00  0.00000000000E+00  0.36348595376E+03  0.36348595379E+03  0.50400001928E-02 0. -1.
       -1   -1    0    0    0  501  0.00000000000E+00  0.00000000000E+00 -0.12178332395E+04  0.12178332395E+04  0.50400001928E-02 0.  1.
    10030    2    1    2    0    0  0.00000000000E+00  0.00000000000E+00 -0.85434728577E+03  0.15813191933E+04  0.13306619054E+04 0.  0.
        5    1    3    3  502    0 -0.64833822629E+02 -0.28439352323E+03  0.28342820879E+03  0.40673915492E+03  0.46999998093E+01 0. -1.
       -5    1    3    3    0  502  0.64833822629E+02  0.28439352323E+03 -0.11377754946E+04  0.11745800384E+04  0.46999998093E+01 0.  1.
</event>
<event>
 5   0  0.1332630E-03  0.1256815E+04  0.7818609E-02  0.9064530E-01
       -1   -1    0    0    0  501  0.00000000000E+00  0.00000000000E+00  0.83325739217E+03  0.83325739219E+03  0.50400001928E-02 0.  1.
        1   -1    0    0  501    0  0.00000000000E+00  0.00000000000E+00 -0.47391866329E+03  0.47391866332E+03  0.50400001928E-02 0. -1.
    10030    2    1    2    0    0  0.00000000000E+00  0.00000000000E+00  0.35933872888E+03  0.13071760555E+04  0.12568153874E+04 0.  0.
        5    1    3    3  502    0 -0.24383217487E+03 -0.13149504217E+03  0.76629936403E+03  0.81485083355E+03  0.46999998093E+01 0.  1.
       -5    1    3    3    0  502  0.24383217487E+03  0.13149504217E+03 -0.40696063515E+03  0.49232522196E+03  0.46999998093E+01 0. -1.
</event>
<event>
 5   0  0.1387622E-03  0.1327771E+04  0.7818609E-02  0.9007828E-01
       -1   -1    0    0    0  501  0.00000000000E+00  0.00000000000E+00  0.11855025254E+04  0.11855025254E+04  0.50400001928E-02 0.  1.
        1   -1    0    0  501    0  0.00000000000E+00  0.00000000000E+00 -0.37177838930E+03  0.37177838933E+03  0.50400001928E-02 0. -1.
    10030    2    1    2    0    0  0.00000000000E+00  0.00000000000E+00  0.81372413612E+03  0.15572809148E+04  0.13277713951E+04 0.  0.
        3    1    3    3  502    0  0.34383397336E+03  0.53735368738E+03  0.62240371178E+03  0.89126717499E+03  0.10100000352E+00 0.  1.
       -3    1    3    3    0  502 -0.34383397336E+03 -0.53735368738E+03  0.19132042434E+03  0.66601373977E+03  0.10100000352E+00 0. -1.
</event>
<event>
 5   0  0.2361043E-03  0.1289003E+04  0.7818609E-02  0.9038332E-01
       -2   -1    0    0    0  501  0.00000000000E+00  0.00000000000E+00  0.34319599731E+03  0.34319599732E+03  0.25500000920E-02 0.  1.
        2   -1    0    0  501    0  0.00000000000E+00  0.00000000000E+00 -0.12103346971E+04  0.12103346971E+04  0.25500000920E-02 0. -1.
    10030    2    1    2    0    0  0.00000000000E+00  0.00000000000E+00 -0.86713869976E+03  0.15535306944E+04  0.12890027517E+04 0.  0.
        2    1    3    3  502    0  0.61712485971E+03  0.90655870524E+01 -0.20985021806E+03  0.65189139538E+03  0.25500000920E-02 0.  1.
       -2    1    3    3    0  502 -0.61712485971E+03 -0.90655870524E+01 -0.65728848170E+03  0.90163929901E+03  0.25500000920E-02 0. -1.
</event>
<event>
 5   0  0.1324721E-03  0.1314616E+04  0.7818609E-02  0.9018054E-01
        1   -1    0    0  501    0  0.00000000000E+00  0.00000000000E+00  0.48768644545E+03  0.48768644547E+03  0.50400001928E-02 0. -1.
       -1   -1    0    0    0  501  0.00000000000E+00  0.00000000000E+00 -0.88592529214E+03  0.88592529216E+03  0.50400001928E-02 0.  1.
    10030    2    1    2    0    0  0.00000000000E+00  0.00000000000E+00 -0.39823884670E+03  0.13736117376E+04  0.13146159237E+04 0.  0.
        1    1    3    3  502    0  0.19490191696E+03  0.44816107553E+03 -0.65841221160E+03  0.81996447927E+03  0.50400001928E-02 0.  1.
       -1    1    3    3    0  502 -0.19490191696E+03 -0.44816107553E+03  0.26017336491E+03  0.55364725836E+03  0.50400001928E-02 0. -1.
</event>
<event>
 5   0  0.2361043E-03  0.1369269E+04  0.7818609E-02  0.8976368E-01
       -2   -1    0    0    0  501  0.00000000000E+00  0.00000000000E+00  0.42249578096E+03  0.42249578097E+03  0.25500000920E-02 0. -1.
        2   -1    0    0  501    0  0.00000000000E+00  0.00000000000E+00 -0.11094183057E+04  0.11094183057E+04  0.25500000920E-02 0.  1.
    10030    2    1    2    0    0  0.00000000000E+00  0.00000000000E+00 -0.68692252476E+03  0.15319140867E+04  0.13692692263E+04 0.  0.
        2    1    3    3  502    0 -0.23696293236E+03  0.57095304766E+03 -0.67266802457E+03  0.91357598766E+03  0.25500000920E-02 0. -1.
       -2    1    3    3    0  502  0.23696293236E+03 -0.57095304766E+03 -0.14254500192E+02  0.61833809904E+03  0.25500000920E-02 0.  1.
</event>
<event>
 5   0  0.2361043E-03  0.1277961E+04  0.7818609E-02  0.9047227E-01
       -2   -1    0    0    0  501  0.00000000000E+00  0.00000000000E+00  0.22255491462E+03  0.22255491464E+03  0.25500000920E-02 0. -1.
        2   -1    0    0  501    0  0.00000000000E+00  0.00000000000E+00 -0.18345850092E+04  0.18345850093E+04  0.25500000920E-02 0.  1.
    10030    2    1    2    0    0  0.00000000000E+00  0.00000000000E+00 -0.16120300946E+04  0.20571399239E+04  0.12779607351E+04 0.  0.
        2    1    3    3  502    0  0.41991787769E+03 -0.13038183379E+03 -0.15523446502E+04  0.16134138836E+04  0.25500000920E-02 0.  1.
       -2    1    3    3    0  502 -0.41991787769E+03  0.13038183379E+03 -0.59685444397E+02  0.44372604033E+03  0.25500000920E-02 0. -1.
</event>
<event>
 5   0  0.1387622E-03  0.1235477E+04  0.7818609E-02  0.9082358E-01
       -1   -1    0    0    0  501  0.00000000000E+00  0.00000000000E+00  0.22422616865E+03  0.22422616871E+03  0.50400001928E-02 0.  1.
        1   -1    0    0  501    0  0.00000000000E+00  0.00000000000E+00 -0.17018556961E+04  0.17018556961E+04  0.50400001928E-02 0. -1.
    10030    2    1    2    0    0  0.00000000000E+00  0.00000000000E+00 -0.14776295275E+04  0.19260818648E+04  0.12354765597E+04 0.  0.
        3    1    3    3  502    0  0.13592939467E+03  0.54027648204E+03 -0.11548755161E+04  0.12822296773E+04  0.10100000352E+00 0. -1.
       -3    1    3    3    0  502 -0.13592939467E+03 -0.54027648204E+03 -0.32275401137E+03  0.64385218757E+03  0.10100000352E+00 0.  1.
</event>
<event>
 5   0  0.1324721E-03  0.1286095E+04  0.7818609E-02  0.9040665E-01
       -1   -1    0    0    0  501  0.00000000000E+00  0.00000000000E+00  0.58701908578E+03  0.58701908580E+03  0.50400001928E-02 0.  1.
        1   -1    0    0  501    0  0.00000000000E+00  0.00000000000E+00 -0.70442353664E+03  0.70442353666E+03  0.50400001928E-02 0. -1.
    10030    2    1    2    0    0  0.00000000000E+00  0.00000000000E+00 -0.11740445086E+03  0.12914426225E+04  0.12860949584E+04 0.  0.
        1    1    3    3  502    0 -0.43136939719E+03 -0.41255421233E+03  0.18151942841E+03  0.62388287190E+03  0.50400001928E-02 0.  1.
       -1    1    3    3    0  502  0.43136939719E+03  0.41255421233E+03 -0.29892387927E+03  0.66755975056E+03  0.50400001928E-02 0. -1.
</event>
<event>
 5   0  0.1387622E-03  0.1288157E+04  0.7818609E-02  0.9039010E-01
        1   -1    0    0  501    0  0.00000000000E+00  0.00000000000E+00  0.10739627221E+04  0.10739627221E+04  0.50400001928E-02 0.  1.
       -1   -1    0    0    0  501  0.00000000000E+00  0.00000000000E+00 -0.38626755557E+03  0.38626755560E+03  0.50400001928E-02 0. -1.
    10030    2    1    2    0    0  0.00000000000E+00  0.00000000000E+00  0.68769516656E+03  0.14602302777E+04  0.12881567536E+04 0.  0.
        3    1    3    3  502    0 -0.33945390585E+03 -0.35759062463E+03  0.81361672992E+03  0.95135282752E+03  0.10100000352E+00 0.  1.
       -3    1    3    3    0  502  0.33945390585E+03  0.35759062463E+03 -0.12592156336E+03  0.50887745022E+03  0.10100000352E+00 0. -1.
</event>
<event>
 5   0  0.1332630E-03  0.1308099E+04  0.7818609E-02  0.9023167E-01
       -1   -1    0    0    0  501  0.00000000000E+00  0.00000000000E+00  0.57210916835E+03  0.57210916837E+03  0.50400001928E-02 0.  1.
        1   -1    0    0  501    0  0.00000000000E+00  0.00000000000E+00 -0.74772609962E+03  0.74772609963E+03  0.50400001928E-02 0. -1.
    10030    2    1    2    0    0  0.00000000000E+00  0.00000000000E+00 -0.17561693127E+03  0.13198352680E+04  0.13080993189E+04 0.  0.
        5    1    3    3  502    0  0.38568387615E+03  0.23244315996E+03  0.39076439069E+03  0.59623885647E+03  0.46999998093E+01 0.  1.
       -5    1    3    3    0  502 -0.38568387615E+03 -0.23244315996E+03 -0.56638132196E+03  0.72359641154E+03  0.46999998093E+01 0. -1.
</event>
<event>
 5   0  0.1310461E-03  0.1287178E+04  0.7818609E-02  0.9039795E-01
       -1   -1    0    0    0  501  0.00000000000E+00  0.00000000000E+00  0.11582874516E+04  0.11582874516E+04  0.50400001928E-02 0. -1.
        1   -1    0    0  501    0  0.00000000000E+00  0.00000000000E+00 -0.35760285672E+03  0.35760285675E+03  0.50400001928E-02 0.  1.
    10030    2    1    2    0    0  0.00000000000E+00  0.00000000000E+00  0.80068459487E+03  0.15158903084E+04  0.12871781565E+04 0.  0.
        4    1    3    3  502    0 -0.71868908571E+02  0.27250350495E+03 -0.28107029893E+03  0.39802691626E+03  0.12699999809E+01 0.  1.
       -4    1    3    3    0  502  0.71868908571E+02 -0.27250350495E+03  0.10817548938E+04  0.11178633921E+04  0.12699999809E+01 0. -1.
</event>
<event>
 5   0  0.1310461E-03  0.1304790E+04  0.7818609E-02  0.9025775E-01
       -1   -1    0    0    0  501  0.00000000000E+00  0.00000000000E+00  0.14612888698E+04  0.14612888698E+04  0.50400001928E-02 0. -1.
        1   -1    0    0  501    0  0.00000000000E+00  0.00000000000E+00 -0.29126286918E+03  0.29126286922E+03  0.50400001928E-02 0.  1.
    10030    2    1    2    0    0  0.00000000000E+00  0.00000000000E+00  0.11700260006E+04  0.17525517390E+04  0.13047899278E+04 0.  0.
        4    1    3    3  502    0  0.25985326828E+03 -0.45206119231E+03  0.58370420383E+02  0.52468253402E+03  0.12699999809E+01 0.  1.
       -4    1    3    3    0  502 -0.25985326828E+03  0.45206119231E+03  0.11116555802E+04  0.12278692050E+04  0.12699999809E+01 0. -1.
</event>
<event>
 5   0  0.2334946E-03  0.1311094E+04  0.7818609E-02  0.9020814E-01
        2   -1    0    0  501    0  0.00000000000E+00  0.00000000000E+00  0.12404289288E+04  0.12404289288E+04  0.25500000920E-02 0. -1.
       -2   -1    0    0    0  501  0.00000000000E+00  0.00000000000E+00 -0.34644616154E+03  0.34644616155E+03  0.25500000920E-02 0.  1.
    10030    2    1    2    0    0  0.00000000000E+00  0.00000000000E+00  0.89398276723E+03  0.15868750903E+04  0.13110939570E+04 0.  0.
        1    1    3    3  502    0  0.25012260720E+03 -0.20945269747E+03  0.11351975449E+04  0.11811457222E+04  0.50400001928E-02 0. -1.
       -1    1    3    3    0  502 -0.25012260720E+03  0.20945269747E+03 -0.24121477771E+03  0.40572936808E+03  0.50400001928E-02 0.  1.
</event>
<event>
 5   0  0.2478236E-03  0.1296711E+04  0.7818609E-02  0.9032177E-01
        2   -1    0    0  501    0  0.00000000000E+00  0.00000000000E+00  0.73809687962E+03  0.73809687963E+03  0.25500000920E-02 0. -1.
       -2   -1    0    0    0  501  0.00000000000E+00  0.00000000000E+00 -0.56952564307E+03  0.56952564307E+03  0.25500000920E-02 0.  1.
    10030    2    1    2    0    0  0.00000000000E+00  0.00000000000E+00  0.16857123656E+03  0.13076225227E+04  0.12967113789E+04 0.  0.
        3    1    3    3  502    0  0.37286748841E+03 -0.24597469111E+03 -0.38959556144E+03  0.59272120282E+03  0.10100000352E+00 0.  1.
       -3    1    3    3    0  502 -0.37286748841E+03  0.24597469111E+03  0.55816679800E+03  0.71490131988E+03  0.10100000352E+00 0. -1.
</event>
<event>
 5   0  0.1332630E-03  0.1468475E+04  0.7818609E-02  0.8905692E-01
        1   -1    0    0  501    0  0.00000000000E+00  0.00000000000E+00  0.10267630878E+04  0.10267630878E+04  0.50400001928E-02 0.  1.
       -1   -1    0    0    0  501  0.00000000000E+00  0.00000000000E+00 -0.52505246918E+03  0.52505246920E+03  0.50400001928E-02 0. -1.
    10030    2    1    2    0    0  0.00000000000E+00  0.00000000000E+00  0.50171061860E+03  0.15518155570E+04  0.14684747114E+04 0.  0.
        5    1    3    3  502    0 -0.18077480629E+03 -0.44240772422E+03 -0.33816338020E+03  0.58547475329E+03  0.46999998093E+01 0. -1.
       -5    1    3    3    0  502  0.18077480629E+03  0.44240772422E+03  0.83987399881E+03  0.96634080371E+03  0.46999998093E+01 0.  1.
</event>
<event>
 5   0  0.2361043E-03  0.1306170E+04  0.7818609E-02  0.9024687E-01
        2   -1    0    0  501    0  0.00000000000E+00  0.00000000000E+00  0.13649586527E+04  0.13649586527E+04  0.25500000920E-02 0. -1.
       -2   -1    0    0    0  501  0.00000000000E+00  0.00000000000E+00 -0.31247834882E+03  0.31247834883E+03  0.25500000920E-02 0.  1.
    10030    2    1    2    0    0  0.00000000000E+00  0.00000000000E+00  0.10524803039E+04  0.16774370015E+04  0.13061700134E+04 0.  0.
        2    1    3    3  502    0  0.63819701536E+03  0.13580290878E+03  0.56215680433E+03  0.86125381456E+03  0.25500000920E-02 0.  1.
       -2    1    3    3    0  502 -0.63819701536E+03 -0.13580290878E+03  0.49032349953E+03  0.81618318694E+03  0.25500000920E-02 0. -1.
</event>
<event>
 5   0  0.2401211E-03  0.1300346E+04  0.7818609E-02  0.9029291E-01
        2   -1    0    0  501    0  0.00000000000E+00  0.00000000000E+00  0.83532589646E+03  0.83532589646E+03  0.25500000920E-02 0.  1.
       -2   -1    0    0    0  501  0.00000000000E+00  0.00000000000E+00 -0.50605994441E+03  0.50605994441E+03  0.25500000920E-02 0. -1.
    10030    2    1    2    0    0  0.00000000000E+00  0.00000000000E+00  0.32926595205E+03  0.13413858409E+04  0.13003460720E+04 0.  0.
        4    1    3    3  502    0  0.26009184277E+03 -0.57360585837E+03 -0.18671649800E+01  0.62982263109E+03  0.12699999809E+01 0.  1.
       -4    1    3    3    0  502 -0.26009184277E+03  0.57360585837E+03  0.33113311703E+03  0.71156320979E+03  0.12699999809E+01 0. -1.
</event>
<event>
 5   0  0.1310461E-03  0.1338053E+04  0.7818609E-02  0.8999921E-01
       -1   -1    0    0    0  501  0.00000000000E+00  0.00000000000E+00  0.42665441573E+03  0.42665441576E+03  0.50400001928E-02 0. -1.
        1   -1    0    0  501    0  0.00000000000E+00  0.00000000000E+00 -0.10490845684E+04  0.10490845684E+04  0.50400001928E-02 0.  1.
    10030    2    1    2    0    0  0.00000000000E+00  0.00000000000E+00 -0.62243015264E+03  0.14757389841E+04  0.13380531583E+04 0.  0.
        4    1    3    3  502    0 -0.99349062100E+02 -0.21460993550E+02 -0.10405182676E+04  0.10454715149E+04  0.12699999809E+01 0.  1.
       -4    1    3    3    0  502  0.99349062100E+02  0.21460993550E+02  0.41808811492E+03  0.43026746928E+03  0.12699999809E+01 0. -1.
</event>
<event>
 5   0  0.2312105E-03  0.1356906E+04  0.7818609E-02  0.8985617E-01
       -2   -1    0    0    0  501  0.00000000000E+00  0.00000000000E+00  0.30747136997E+03  0.30747136998E+03  0.25500000920E-02 0. -1.
        2   -1    0    0  501    0  0.00000000000E+00  0.00000000000E+00 -0.14970447810E+04  0.14970447810E+04  0.25500000920E-02 0.  1.
    10030    2    1    2    0    0  0.00000000000E+00  0.00000000000E+00 -0.11895734111E+04  0.18045161510E+04  0.13569059065E+04 0.  0.
        5    1    3    3  502    0 -0.53958341692E+03  0.35598674722E+03 -0.32095018627E+03  0.72173952370E+03  0.46999998093E+01 0. -1.
       -5    1    3    3    0  502  0.53958341692E+03 -0.35598674722E+03 -0.86862322481E+03  0.10827766273E+04  0.46999998093E+01 0.  1.
</event>
<event>
 5   0  0.2334946E-03  0.1300848E+04  0.7818609E-02  0.9028893E-01
        2   -1    0    0  501    0  0.00000000000E+00  0.00000000000E+00  0.11906574048E+04  0.11906574048E+04  0.25500000920E-02 0.  1.
       -2   -1    0    0    0  501  0.00000000000E+00  0.00000000000E+00 -0.35530913224E+03  0.35530913225E+03  0.25500000920E-02 0. -1.
    10030    2    1    2    0    0  0.00000000000E+00  0.00000000000E+00  0.83534827253E+03  0.15459665370E+04  0.13008481069E+04 0.  0.
        1    1    3    3  502    0 -0.48385944944E+03 -0.96323855281E+02 -0.86047929133E+02  0.50080185507E+03  0.50400001928E-02 0. -1.
       -1    1    3    3    0  502  0.48385944944E+03  0.96323855281E+02  0.92139620166E+03  0.10451646819E+04  0.50400001928E-02 0.  1.
</event>
<event>
 5   0  0.1310461E-03  0.1305819E+04  0.7818609E-02  0.9024963E-01
       -1   -1    0    0    0  501  0.00000000000E+00  0.00000000000E+00  0.77172926599E+03  0.77172926600E+03  0.50400001928E-02 0.  1.
        1   -1    0    0  501    0  0.00000000000E+00  0.00000000000E+00 -0.55238412716E+03  0.55238412719E+03  0.50400001928E-02 0. -1.
    10030    2    1    2    0    0  0.00000000000E+00  0.00000000000E+00  0.21934513882E+03  0.13241133932E+04  0.13058192785E+04 0.  0.
        4    1    3    3  502    0 -0.62346301166E+03 -0.18730398859E+03  0.16037785040E+03  0.67045624678E+03  0.12699999809E+01 0.  1.
       -4    1    3    3    0  502  0.62346301166E+03  0.18730398859E+03  0.58967288424E+02  0.65365714641E+03  0.12699999809E+01 0. -1.
</event>
<event>
 5   0  0.9131250E-04  0.1264393E+04  0.7818609E-02  0.9058288E-01
       -3   -1    0    0    0  501  0.00000000000E+00  0.00000000000E+00  0.16904537166E+04  0.16904537196E+04  0.10100000352E+00 0.  1.
        3   -1    0    0  501    0  0.00000000000E+00  0.00000000000E+00 -0.23642921945E+03  0.23642924102E+03  0.10100000352E+00 0. -1.
    10030    2    1    2    0    0  0.00000000000E+00  0.00000000000E+00  0.14540244971E+04  0.19268829606E+04  0.12643934141E+04 0.  0.
        5    1    3    3  502    0 -0.20243890526E+03  0.45931548724E+03  0.13126929940E+04  0.14053957499E+04  0.46999998093E+01 0.  1.
       -5    1    3    3    0  502  0.20243890526E+03 -0.45931548724E+03  0.14133150308E+03  0.52148721072E+03  0.46999998093E+01 0. -1.
</event>
<event>
 5   0  0.1324721E-03  0.1307524E+04  0.7818609E-02  0.9023620E-01
       -1   -1    0    0    0  501  0.00000000000E+00  0.00000000000E+00  0.45231569318E+03  0.45231569321E+03  0.50400001928E-02 0.  1.
        1   -1    0    0  501    0  0.00000000000E+00  0.00000000000E+00 -0.94492524716E+03  0.94492524718E+03  0.50400001928E-02 0. -1.
    10030    2    1    2    0    0  0.00000000000E+00  0.00000000000E+00 -0.49260955399E+03  0.13972409404E+04  0.13075236414E+04 0.  0.
        1    1    3    3  502    0 -0.86383581904E+02 -0.64520916192E+03 -0.18176591150E+03  0.67586672685E+03  0.50400001928E-02 0. -1.
       -1    1    3    3    0  502  0.86383581904E+02  0.64520916192E+03 -0.31084364248E+03  0.72137421353E+03  0.50400001928E-02 0.  1.
</event>
<event>
 5   0  0.2401211E-03  0.1336800E+04  0.7818609E-02  0.9000881E-01
       -2   -1    0    0    0  501  0.00000000000E+00  0.00000000000E+00  0.15516935824E+03  0.15516935826E+03  0.25500000920E-02 0.  1.
        2   -1    0    0  501    0  0.00000000000E+00  0.00000000000E+00 -0.28791686122E+04  0.28791686122E+04  0.25500000920E-02 0. -1.
    10030    2    1    2    0    0  0.00000000000E+00  0.00000000000E+00 -0.27239992540E+04  0.30343379705E+04  0.13368002780E+04 0.  0.
        4    1    3    3  502    0 -0.35849796083E+03 -0.75588738160E+02 -0.93068064674E+02  0.37801815144E+03  0.12699999809E+01 0.  1.
       -4    1    3    3    0  502  0.35849796083E+03  0.75588738160E+02 -0.26309311893E+04  0.26563198190E+04  0.12699999809E+01 0. -1.
</event>
<event>
 5   0  0.2478236E-03  0.1344280E+04  0.7818609E-02  0.8995169E-01
        2   -1    0    0  501    0  0.00000000000E+00  0.00000000000E+00  0.14941728786E+04  0.14941728786E+04  0.25500000920E-02 0.  1.
       -2   -1    0    0    0  501  0.00000000000E+00  0.00000000000E+00 -0.30235622624E+03  0.30235622625E+03  0.25500000920E-02 0. -1.
    10030    2    1    2    0    0  0.00000000000E+00  0.00000000000E+00  0.11918166524E+04  0.17965291049E+04  0.13442804364E+04 0.  0.
        3    1    3    3  502    0  0.27123859517E+03  0.10560900919E+02 -0.22584655630E+03  0.35311270910E+03  0.10100000352E+00 0. -1.
       -3    1    3    3    0  502 -0.27123859517E+03 -0.10560900919E+02  0.14176632087E+04  0.14434163958E+04  0.10100000352E+00 0.  1.
</event>
<event>
 5   0  0.2361043E-03  0.1268138E+04  0.7818609E-02  0.9055221E-01
       -2   -1    0    0    0  501  0.00000000000E+00  0.00000000000E+00  0.36918872444E+03  0.36918872445E+03  0.25500000920E-02 0.  1.
        2   -1    0    0  501    0  0.00000000000E+00  0.00000000000E+00 -0.10889911698E+04  0.10889911698E+04  0.25500000920E-02 0. -1.
    10030    2    1    2    0    0  0.00000000000E+00  0.00000000000E+00 -0.71980244531E+03  0.14581798942E+04  0.12681376280E+04 0.  0.
        2    1    3    3  502    0 -0.20846227809E+03  0.14537518135E+03 -0.10278624165E+04  0.10588161370E+04  0.25500000920E-02 0. -1.
       -2    1    3    3    0  502  0.20846227809E+03 -0.14537518135E+03  0.30805997117E+03  0.39936375722E+03  0.25500000920E-02 0.  1.
</event>
<event>
 5   0  0.2361043E-03  0.1038129E+04  0.7818609E-02  0.9267686E-01
       -2   -1    0    0    0  501  0.00000000000E+00  0.00000000000E+00  0.16328089297E+03  0.16328089299E+03  0.25500000920E-02 0. -1.
        2   -1    0    0  501    0  0.00000000000E+00  0.00000000000E+00 -0.16500899680E+04  0.16500899680E+04  0.25500000920E-02 0.  1.
    10030    2    1    2    0    0  0.00000000000E+00  0.00000000000E+00 -0.14868090751E+04  0.18133708610E+04  0.10381294013E+04 0.  0.
        2    1    3    3  502    0 -0.73551514031E+02 -0.32973050395E+03 -0.55044796465E+02  0.34228929296E+03  0.25500000920E-02 0. -1.
       -2    1    3    3    0  502  0.73551514031E+02  0.32973050395E+03 -0.14317642786E+04  0.14710815681E+04  0.25500000920E-02 0.  1.
</event>
<event>
 5   0  0.2401211E-03  0.1245898E+04  0.7818609E-02  0.9073604E-01
       -2   -1    0    0    0  501  0.00000000000E+00  0.00000000000E+00  0.49919874014E+03  0.49919874015E+03  0.25500000920E-02 0. -1.
        2   -1    0    0  501    0  0.00000000000E+00  0.00000000000E+00 -0.77737681799E+03  0.77737681799E+03  0.25500000920E-02 0.  1.
    10030    2    1    2    0    0  0.00000000000E+00  0.00000000000E+00 -0.27817807784E+03  0.12765755581E+04  0.12458981149E+04 0.  0.
        4    1    3    3  502    0 -0.91320254394E+02 -0.36918921142E+03  0.36643936489E+03  0.52812828340E+03  0.12699999809E+01 0. -1.
       -4    1    3    3    0  502  0.91320254394E+02  0.36918921142E+03 -0.64461744273E+03  0.74844727474E+03  0.12699999809E+01 0.  1.
</event>
<event>
 5   0  0.2312105E-03  0.1289007E+04  0.7818609E-02  0.9038328E-01
       -2   -1    0    0    0  501  0.00000000000E+00  0.00000000000E+00  0.42081384305E+03  0.42081384306E+03  0.25500000920E-02 0.  1.
        2   -1    0    0  501    0  0.00000000000E+00  0.00000000000E+00 -0.98709849724E+03  0.98709849724E+03  0.25500000920E-02 0. -1.
    10030    2    1    2    0    0  0.00000000000E+00  0.00000000000E+00 -0.56628465418E+03  0.14079123403E+04  0.12890069233E+04 0.  0.
        5    1    3    3  502    0 -0.11237217116E+03 -0.40995079635E+01 -0.97628247405E+03  0.98274812131E+03  0.46999998093E+01 0. -1.
       -5    1    3    3    0  502  0.11237217116E+03  0.40995079635E+01  0.40999781986E+03  0.42516421899E+03  0.46999998093E+01 0.  1.
</event>
<event>
 5   0  0.2312105E-03  0.1306760E+04  0.7818609E-02  0.9024222E-01
       -2   -1    0    0    0  501  0.00000000000E+00  0.00000000000E+00  0.65804614820E+03  0.65804614820E+03  0.25500000920E-02 0.  1.
        2   -1    0    0  501    0  0.00000000000E+00  0.00000000000E+00 -0.64874690354E+03  0.64874690355E+03  0.25500000920E-02 0. -1.
    10030    2    1    2    0    0  0.00000000000E+00  0.00000000000E+00  0.92992446527E+01  0.13067930518E+04  0.13067599642E+04 0.  0.
        5    1    3    3  502    0 -0.29360230160E+03  0.15239157813E+03  0.56809783013E+03  0.65740606872E+03  0.46999998093E+01 0.  1.
       -5    1    3    3    0  502  0.29360230160E+03 -0.15239157813E+03 -0.55879858548E+03  0.64938698303E+03  0.46999998093E+01 0. -1.
</event>
<event>
 5   0  0.2478236E-03  0.1299701E+04  0.7818609E-02  0.9029802E-01
       -2   -1    0    0    0  501  0.00000000000E+00  0.00000000000E+00  0.48247405024E+03  0.48247405025E+03  0.25500000920E-02 0. -1.
        2   -1    0    0  501    0  0.00000000000E+00  0.00000000000E+00 -0.87529209156E+03  0.87529209157E+03  0.25500000920E-02 0.  1.
    10030    2    1    2    0    0  0.00000000000E+00  0.00000000000E+00 -0.39281804132E+03  0.13577661418E+04  0.12997010742E+04 0.  0.
        3    1    3    3  502    0 -0.35295504290E+03 -0.23825167861E+02 -0.76588742968E+03  0.84364000976E+03  0.10100000352E+00 0.  1.
       -3    1    3    3    0  502  0.35295504290E+03  0.23825167861E+02  0.37306938836E+03  0.51412613206E+03  0.10100000352E+00 0. -1.
</event>
<event>
 5   0  0.1310461E-03  0.1299878E+04  0.7818609E-02  0.9029662E-01
        1   -1    0    0  501    0  0.00000000000E+00  0.00000000000E+00  0.56235113845E+03  0.56235113847E+03  0.50400001928E-02 0.  1.
       -1   -1    0    0    0  501  0.00000000000E+00  0.00000000000E+00 -0.75116851365E+03  0.75116851366E+03  0.50400001928E-02 0. -1.
    10030    2    1    2    0    0  0.00000000000E+00  0.00000000000E+00 -0.18881737520E+03  0.13135196521E+04  0.12998776386E+04 0.  0.
        4    1    3    3  502    0  0.22567697501E+03  0.49902586689E+03  0.25920956604E+03  0.60592749145E+03  0.12699999809E+01 0.  1.
       -4    1    3    3    0  502 -0.22567697501E+03 -0.49902586689E+03 -0.44802694124E+03  0.70759216068E+03  0.12699999809E+01 0. -1.
</event>
<event>
 5   0  0.1324721E-03  0.1282624E+04  0.7818609E-02  0.9043459E-01
       -1   -1    0    0    0  501  0.00000000000E+00  0.00000000000E+00  0.37655041003E+03  0.37655041006E+03  0.50400001928E-02 0.  1.
        1   -1    0    0  501    0  0.00000000000E+00  0.00000000000E+00 -0.10922338241E+04  0.10922338241E+04  0.50400001928E-02 0. -1.
    10030    2    1    2    0    0  0.00000000000E+00  0.00000000000E+00 -0.71568341410E+03  0.14687842342E+04  0.12826240203E+04 0.  0.
        1    1    3    3  502    0  0.49881362405E+03 -0.16870344840E+02  0.10332636102E+03  0.50968223137E+03  0.50400001928E-02 0.  1.
       -1    1    3    3    0  502 -0.49881362405E+03  0.16870344840E+02 -0.81900977512E+03  0.95910200283E+03  0.50400001928E-02 0. -1.
</event>
<event>
 5   0  0.2361043E-03  0.1307825E+04  0.7818609E-02  0.9023383E-01
       -2   -1    0    0    0  501  0.00000000000E+00  0.00000000000E+00  0.43094316651E+03  0.43094316652E+03  0.25500000920E-02 0. -1.
        2   -1    0    0  501    0  0.00000000000E+00  0.00000000000E+00 -0.99224601594E+03  0.99224601594E+03  0.25500000920E-02 0.  1.
    10030    2    1    2    0    0  0.00000000000E+00  0.00000000000E+00 -0.56130284943E+03  0.14231891825E+04  0.13078251260E+04 0.  0.
        2    1    3    3  502    0 -0.24690691551E+03  0.54894752403E+03 -0.55872113767E+03  0.82126470688E+03  0.25500000920E-02 0.  1.
       -2    1    3    3    0  502  0.24690691551E+03 -0.54894752403E+03 -0.25817117544E+01  0.60192447559E+03  0.25500000920E-02 0. -1.
</event>
<event>
 5   0  0.2401211E-03  0.1277000E+04  0.7818609E-02  0.9048006E-01
        2   -1    0    0  501    0  0.00000000000E+00  0.00000000000E+00  0.11101663028E+04  0.11101663028E+04  0.25500000920E-02 0. -1.
       -2   -1    0    0    0  501  0.00000000000E+00  0.00000000000E+00 -0.36722644523E+03  0.36722644524E+03  0.25500000920E-02 0.  1.
    10030    2    1    2    0    0  0.00000000000E+00  0.00000000000E+00  0.74293985757E+03  0.14773927480E+04  0.12770002741E+04 0.  0.
        4    1    3    3  502    0 -0.56688961030E+03 -0.19238261169E+03  0.62836423164E+03  0.86788139745E+03  0.12699999809E+01 0. -1.
       -4    1    3    3    0  502  0.56688961030E+03  0.19238261169E+03  0.11457562594E+03  0.60951135059E+03  0.12699999809E+01 0.  1.
</event>
<event>
 5   0  0.1332630E-03  0.1278890E+04  0.7818609E-02  0.9046475E-01
        1   -1    0    0  501    0  0.00000000000E+00  0.00000000000E+00  0.52670832811E+03  0.52670832813E+03  0.50400001928E-02 0.  1.
       -1   -1    0    0    0  501  0.00000000000E+00  0.00000000000E+00 -0.77631165421E+03  0.77631165423E+03  0.50400001928E-02 0. -1.
    10030    2    1    2    0    0  0.00000000000E+00  0.00000000000E+00 -0.24960332611E+03  0.13030199824E+04  0.12788898522E+04 0.  0.
        5    1    3    3  502    0  0.13427832023E+03 -0.15167300235E+03 -0.74273681223E+03  0.76988013948E+03  0.46999998093E+01 0. -1.
       -5    1    3    3    0  502 -0.13427832023E+03  0.15167300235E+03  0.49313348612E+03  0.53313984288E+03  0.46999998093E+01 0.  1.
</event>
<event>
 5   0  0.9131250E-04  0.1303308E+04  0.7818609E-02  0.9026946E-01
       -3   -1    0    0    0  501  0.00000000000E+00  0.00000000000E+00  0.75417820670E+03  0.75417821347E+03  0.10100000352E+00 0.  1.
        3   -1    0    0  501    0  0.00000000000E+00  0.00000000000E+00 -0.56306672890E+03  0.56306673796E+03  0.10100000352E+00 0. -1.
    10030    2    1    2    0    0  0.00000000000E+00  0.00000000000E+00  0.19111147780E+03  0.13172449514E+04  0.13033075865E+04 0.  0.
        4    1    3    3  502    0 -0.52099893115E+03 -0.27210054745E+03  0.37994073974E+03  0.69988225638E+03  0.12699999809E+01 0.  1.
       -4    1    3    3    0  502  0.52099893115E+03  0.27210054745E+03 -0.18882926194E+03  0.61736269505E+03  0.12699999809E+01 0. -1.
</event>
<event>
 5   0  0.2334946E-03  0.1347004E+04  0.7818609E-02  0.8993099E-01
       -2   -1    0    0    0  501  0.00000000000E+00  0.00000000000E+00  0.24843023533E+03  0.24843023535E+03  0.25500000920E-02 0. -1.
        2   -1    0    0  501    0  0.00000000000E+00  0.00000000000E+00 -0.18258850402E+04  0.18258850402E+04  0.25500000920E-02 0.  1.
    10030    2    1    2    0    0  0.00000000000E+00  0.00000000000E+00 -0.15774548049E+04  0.20743152755E+04  0.13470041577E+04 0.  0.
        1    1    3    3  502    0  0.27035155730E+02  0.99429890377E+02  0.23622036903E+03  0.25771547395E+03  0.50400001928E-02 0. -1.
       -1    1    3    3    0  502 -0.27035155730E+02 -0.99429890377E+02 -0.18136751739E+04  0.18165998016E+04  0.50400001928E-02 0.  1.
</event>
<event>
 5   0  0.1332630E-03  0.1300632E+04  0.7818609E-02  0.9029064E-01
        1   -1    0    0  501    0  0.00000000000E+00  0.00000000000E+00  0.11584085831E+04  0.11584085831E+04  0.50400001928E-02 0. -1.
       -1   -1    0    0    0  501  0.00000000000E+00  0.00000000000E+00 -0.36507933295E+03  0.36507933298E+03  0.50400001928E-02 0.  1.
    10030    2    1    2    0    0  0.00000000000E+00  0.00000000000E+00  0.79332925017E+03  0.15234879161E+04  0.13006322045E+04 0.  0.
        5    1    3    3  502    0 -0.10728957030E+03 -0.62076072910E+03  0.20766757357E+03  0.66332710317E+03  0.46999998093E+01 0.  1.
       -5    1    3    3    0  502  0.10728957030E+03  0.62076072910E+03  0.58566167659E+03  0.86016081294E+03  0.46999998093E+01 0. -1.
</event>
<event>
 5   0  0.1310461E-03  0.1286610E+04  0.7818609E-02  0.9040252E-01
        1   -1    0    0  501    0  0.00000000000E+00  0.00000000000E+00  0.56662326614E+03  0.56662326616E+03  0.50400001928E-02 0.  1.
       -1   -1    0    0    0  501  0.00000000000E+00  0.00000000000E+00 -0.73036363115E+03  0.73036363117E+03  0.50400001928E-02 0. -1.
    10030    2    1    2    0    0  0.00000000000E+00  0.00000000000E+00 -0.16374036501E+03  0.12969868973E+04  0.12866095386E+04 0.  0.
        4    1    3    3  502    0  0.18719859340E+03  0.35528624441E+03  0.42474453147E+03  0.58453499361E+03  0.12699999809E+01 0.  1.
       -4    1    3    3    0  502 -0.18719859340E+03 -0.35528624441E+03 -0.58848489648E+03  0.71245190373E+03  0.12699999809E+01 0. -1.
</event>
<event>
 5   0  0.1310461E-03  0.1287184E+04  0.7818609E-02  0.9039791E-01
       -1   -1    0    0    0  501  0.00000000000E+00  0.00000000000E+00  0.59956161301E+03  0.59956161303E+03  0.50400001928E-02 0.  1.
        1   -1    0    0  501    0  0.00000000000E+00  0.00000000000E+00 -0.69085572944E+03  0.69085572946E+03  0.50400001928E-02 0. -1.
    10030    2    1    2    0    0  0.00000000000E+00  0.00000000000E+00 -0.91294116424E+02  0.12904173425E+04  0.12871838649E+04 0.  0.
        4    1    3    3  502    0 -0.31197354623E+03 -0.39855114715E+01 -0.60996926435E+03  0.68513319449E+03  0.12699999809E+01 0. -1.
       -4    1    3    3    0  502  0.31197354623E+03  0.39855114715E+01  0.51867514792E+03  0.60528414800E+03  0.12699999809E+01 0.  1.
</event>
<event>
 5   0  0.1324721E-03  0.1291168E+04  0.7818609E-02  0.9036599E-01
        1   -1    0    0  501    0  0.00000000000E+00  0.00000000000E+00  0.10621003525E+04  0.10621003525E+04  0.50400001928E-02 0. -1.
       -1   -1    0    0    0  501  0.00000000000E+00  0.00000000000E+00 -0.39240979534E+03  0.39240979537E+03  0.50400001928E-02 0.  1.
    10030    2    1    2    0    0  0.00000000000E+00  0.00000000000E+00  0.66969055719E+03  0.14545101479E+04  0.12911678156E+04 0.  0.
        1    1    3    3  502    0 -0.48942012800E+03 -0.77176326323E+02 -0.13138501952E+03  0.51259171903E+03  0.50400001928E-02 0.  1.
       -1    1    3    3    0  502  0.48942012800E+03  0.77176326323E+02  0.80107557672E+03  0.94191842888E+03  0.50400001928E-02 0. -1.
</event>
<event>
 5   0  0.1324721E-03  0.1287240E+04  0.7818609E-02  0.9039746E-01
        1   -1    0    0  501    0  0.00000000000E+00  0.00000000000E+00  0.90628734873E+03  0.90628734874E+03  0.50400001928E-02 0. -1.
       -1   -1    0    0    0  501  0.00000000000E+00  0.00000000000E+00 -0.45708091622E+03  0.45708091625E+03  0.50400001928E-02 0.  1.
    10030    2    1    2    0    0  0.00000000000E+00  0.00000000000E+00  0.44920643251E+03  0.13633682650E+04  0.12872399182E+04 0.  0.
        1    1    3    3  502    0 -0.39486826146E+02  0.17594632154E+03  0.87898623062E+03  0.89729209912E+03  0.50400001928E-02 0. -1.
       -1    1    3    3    0  502  0.39486826146E+02 -0.17594632154E+03 -0.42977979811E+03  0.46607616587E+03  0.50400001928E-02 0.  1.
</event>
<event>
 5   0  0.9131250E-04  0.1253727E+04  0.7818609E-02  0.9067087E-01
       -4   -1    0    0    0  501  0.00000000000E+00  0.00000000000E+00  0.56081567565E+03  0.56081711364E+03  0.12699999809E+01 0. -1.
        4   -1    0    0  501    0  0.00000000000E+00  0.00000000000E+00 -0.70068658303E+03  0.70068773397E+03  0.12699999809E+01 0.  1.
    10030    2    1    2    0    0  0.00000000000E+00  0.00000000000E+00 -0.13987090738E+03  0.12615048476E+04  0.12537266886E+04 0.  0.
        3    1    3    3  502    0 -0.33132339813E+03  0.47468727403E+01 -0.60536451509E+03  0.69011878201E+03  0.10100000352E+00 0.  1.
       -3    1    3    3    0  502  0.33132339813E+03 -0.47468727403E+01  0.46549360771E+03  0.57138606560E+03  0.10100000352E+00 0. -1.
</event>
<event>
 5   0  0.1332630E-03  0.1321018E+04  0.7818609E-02  0.9013062E-01
        1   -1    0    0  501    0  0.00000000000E+00  0.00000000000E+00  0.83103140831E+03  0.83103140833E+03  0.50400001928E-02 0.  1.
       -1   -1    0    0    0  501  0.00000000000E+00  0.00000000000E+00 -0.52497633328E+03  0.52497633330E+03  0.50400001928E-02 0. -1.
    10030    2    1    2    0    0  0.00000000000E+00  0.00000000000E+00  0.30605507503E+03  0.13560077416E+04  0.13210175193E+04 0.  0.
        5    1    3    3  502    0  0.25986378948E+03 -0.59168204551E+03  0.29314549985E+03  0.70962892144E+03  0.46999998093E+01 0.  1.
       -5    1    3    3    0  502 -0.25986378948E+03  0.59168204551E+03  0.12909575182E+02  0.64637882019E+03  0.46999998093E+01 0. -1.
</event>
<event>
 5   0  0.2478236E-03  0.1305794E+04  0.7818609E-02  0.9024983E-01
       -2   -1    0    0    0  501  0.00000000000E+00  0.00000000000E+00  0.36858869512E+03  0.36858869513E+03  0.25500000920E-02 0. -1.
        2   -1    0    0  501    0  0.00000000000E+00  0.00000000000E+00 -0.11565041371E+04  0.11565041371E+04  0.25500000920E-02 0.  1.
    10030    2    1    2    0    0  0.00000000000E+00  0.00000000000E+00 -0.78791544195E+03  0.15250928322E+04  0.13057937828E+04 0.  0.
        3    1    3    3  502    0  0.34736380848E+03  0.36711390980E+03  0.88785956996E+02  0.51314441882E+03  0.10100000352E+00 0. -1.
       -3    1    3    3    0  502 -0.34736380848E+03 -0.36711390980E+03 -0.87670139895E+03  0.10119484134E+04  0.10100000352E+00 0.  1.
</event>
<event>
 5   0  0.1387622E-03  0.1278552E+04  0.7818609E-02  0.9046749E-01
       -1   -1    0    0    0  501  0.00000000000E+00  0.00000000000E+00  0.30121002164E+03  0.30121002168E+03  0.50400001928E-02 0. -1.
        1   -1    0    0  501    0  0.00000000000E+00  0.00000000000E+00 -0.13567730427E+04  0.13567730427E+04  0.50400001928E-02 0.  1.
    10030    2    1    2    0    0  0.00000000000E+00  0.00000000000E+00 -0.10555630210E+04  0.16579830644E+04  0.12785517394E+04 0.  0.
        3    1    3    3  502    0  0.53353764193E+03  0.10226923691E+03 -0.96475952616E+03  0.11071957215E+04  0.10100000352E+00 0.  1.
       -3    1    3    3    0  502 -0.53353764193E+03 -0.10226923691E+03 -0.90803494863E+02  0.55078734286E+03  0.10100000352E+00 0. -1.
</event>
<event>
 5   0  0.1346593E-03  0.1245546E+04  0.7818609E-02  0.9073898E-01
       -1   -1    0    0    0  501  0.00000000000E+00  0.00000000000E+00  0.45581633182E+03  0.45581633185E+03  0.50400001928E-02 0. -1.
        1   -1    0    0  501    0  0.00000000000E+00  0.00000000000E+00 -0.85088270789E+03  0.85088270791E+03  0.50400001928E-02 0.  1.
    10030    2    1    2    0    0  0.00000000000E+00  0.00000000000E+00 -0.39506637607E+03  0.13066990398E+04  0.12455460405E+04 0.  0.
        2    1    3    3  502    0  0.15204993691E+03 -0.57472546466E+03 -0.39216178704E+03  0.71219337983E+03  0.25500000920E-02 0. -1.
       -2    1    3    3    0  502 -0.15204993691E+03  0.57472546466E+03 -0.29045890263E+01  0.59450565993E+03  0.25500000920E-02 0.  1.
</event>
<event>
 5   0  0.2312105E-03  0.1259088E+04  0.7818609E-02  0.9062653E-01
       -2   -1    0    0    0  501  0.00000000000E+00  0.00000000000E+00  0.37239741970E+03  0.37239741971E+03  0.25500000920E-02 0.  1.
        2   -1    0    0  501    0  0.00000000000E+00  0.00000000000E+00 -0.10642551035E+04  0.10642551036E+04  0.25500000920E-02 0. -1.
    10030    2    1    2    0    0  0.00000000000E+00  0.00000000000E+00 -0.69185768385E+03  0.14366525233E+04  0.12590883281E+04 0.  0.
        5    1    3    3  502    0  0.52415497202E+03  0.20814877730E+03 -0.26768925376E+02  0.56462643717E+03  0.46999998093E+01 0.  1.
       -5    1    3    3    0  502 -0.52415497202E+03 -0.20814877730E+03 -0.66508875847E+03  0.87202608609E+03  0.46999998093E+01 0. -1.
</event>
<event>
 5   0  0.2478236E-03  0.1258229E+04  0.7818609E-02  0.9063362E-01
        2   -1    0    0  501    0  0.00000000000E+00  0.00000000000E+00  0.19133409933E+04  0.19133409933E+04  0.25500000920E-02 0.  1.
       -2   -1    0    0    0  501  0.00000000000E+00  0.00000000000E+00 -0.20685549399E+03  0.20685549401E+03  0.25500000920E-02 0. -1.
    10030    2    1    2    0    0  0.00000000000E+00  0.00000000000E+00  0.17064854993E+04  0.21201964873E+04  0.12582290671E+04 0.  0.
        3    1    3    3  502    0  0.22927620862E+03  0.29338960404E+03  0.17077214782E+04  0.17478437279E+04  0.10100000352E+00 0.  1.
       -3    1    3    3    0  502 -0.22927620862E+03 -0.29338960404E+03 -0.12359789648E+01  0.37235275941E+03  0.10100000352E+00 0. -1.
</event>
<event>
 5   0  0.1324721E-03  0.1304957E+04  0.7818609E-02  0.9025643E-01
       -1   -1    0    0    0  501  0.00000000000E+00  0.00000000000E+00  0.47015548964E+03  0.47015548967E+03  0.50400001928E-02 0. -1.
        1   -1    0    0  501    0  0.00000000000E+00  0.00000000000E+00 -0.90550519110E+03  0.90550519111E+03  0.50400001928E-02 0.  1.
    10030    2    1    2    0    0  0.00000000000E+00  0.00000000000E+00 -0.43534970146E+03  0.13756606808E+04  0.13049570668E+04 0.  0.
        1    1    3    3  502    0 -0.51713271299E+02 -0.63670195744E+03 -0.77565571279E+02  0.64349053056E+03  0.50400001928E-02 0. -1.
       -1    1    3    3    0  502  0.51713271299E+02  0.63670195744E+03 -0.35778413018E+03  0.73217015022E+03  0.50400001928E-02 0.  1.
</event>
<event>
 5   0  0.2401211E-03  0.1113456E+04  0.7818609E-02  0.9192176E-01
        2   -1    0    0  501    0  0.00000000000E+00  0.00000000000E+00  0.88047559588E+03  0.88047559588E+03  0.25500000920E-02 0. -1.
       -2   -1    0    0    0  501  0.00000000000E+00  0.00000000000E+00 -0.35202090244E+03  0.35202090245E+03  0.25500000920E-02 0.  1.
    10030    2    1    2    0    0  0.00000000000E+00  0.00000000000E+00  0.52845469344E+03  0.12324964983E+04  0.11134555471E+04 0.  0.
        4    1    3    3  502    0 -0.17062682146E+03 -0.45284620672E+03  0.56890153676E+03  0.74688270201E+03  0.12699999809E+01 0. -1.
       -4    1    3    3    0  502  0.17062682146E+03  0.45284620672E+03 -0.40446843320E+02  0.48561379632E+03  0.12699999809E+01 0.  1.
</event>
<event>
 5   0  0.2334946E-03  0.1306653E+04  0.7818609E-02  0.9024306E-01
        2   -1    0    0  501    0  0.00000000000E+00  0.00000000000E+00  0.20292697749E+04  0.20292697749E+04  0.25500000920E-02 0.  1.
       -2   -1    0    0    0  501  0.00000000000E+00  0.00000000000E+00 -0.21033936758E+03  0.21033936759E+03  0.25500000920E-02 0. -1.
    10030    2    1    2    0    0  0.00000000000E+00  0.00000000000E+00  0.18189304073E+04  0.22396091425E+04  0.13066527023E+04 0.  0.
        1    1    3    3  502    0 -0.59592812716E+03  0.12324876720E+03  0.13169326225E+04  0.14507350287E+04  0.50400001928E-02 0. -1.
       -1    1    3    3    0  502  0.59592812716E+03 -0.12324876720E+03  0.50199778478E+03  0.78887411373E+03  0.50400001928E-02 0.  1.
</event>
<event>
 5   0  0.2478236E-03  0.1257726E+04  0.7818609E-02  0.9063777E-01
       -2   -1    0    0    0  501  0.00000000000E+00  0.00000000000E+00  0.29121554393E+03  0.29121554394E+03  0.25500000920E-02 0. -1.
        2   -1    0    0  501    0  0.00000000000E+00  0.00000000000E+00 -0.13579925928E+04  0.13579925928E+04  0.25500000920E-02 0.  1.
    10030    2    1    2    0    0  0.00000000000E+00  0.00000000000E+00 -0.10667770489E+04  0.16492081367E+04  0.12577258073E+04 0.  0.
        3    1    3    3  502    0  0.53782882849E+02  0.61698066504E+03 -0.39028181483E+03  0.73203664165E+03  0.10100000352E+00 0. -1.
       -3    1    3    3    0  502 -0.53782882849E+02 -0.61698066504E+03 -0.67649523403E+03  0.91717149508E+03  0.10100000352E+00 0.  1.
</event>
<event>
 5   0  0.1332630E-03  0.1290637E+04  0.7818609E-02  0.9037023E-01
       -1   -1    0    0    0  501  0.00000000000E+00  0.00000000000E+00  0.28824795382E+03  0.28824795386E+03  0.50400001928E-02 0.  1.
        1   -1    0    0  501    0  0.00000000000E+00  0.00000000000E+00 -0.14447145849E+04  0.14447145849E+04  0.50400001928E-02 0. -1.
    10030    2    1    2    0    0  0.00000000000E+00  0.00000000000E+00 -0.11564666310E+04  0.17329625387E+04  0.12906370876E+04 0.  0.
        5    1    3    3  502    0 -0.58579468422E+03 -0.92433841170E+02 -0.91980814002E+03  0.10944261197E+04  0.46999998093E+01 0. -1.
       -5    1    3    3    0  502  0.58579468422E+03  0.92433841170E+02 -0.23665849102E+03  0.63853641903E+03  0.46999998093E+01 0.  1.
</event>
<event>
 5   0  0.1346593E-03  0.1287908E+04  0.7818609E-02  0.9039209E-01
       -1   -1    0    0    0  501  0.00000000000E+00  0.00000000000E+00  0.24119397303E+03  0.24119397308E+03  0.50400001928E-02 0.  1.
        1   -1    0    0  501    0  0.00000000000E+00  0.00000000000E+00 -0.17192674862E+04  0.17192674862E+04  0.50400001928E-02 0. -1.
    10030    2    1    2    0    0  0.00000000000E+00  0.00000000000E+00 -0.14780735131E+04  0.19604614593E+04  0.12879083131E+04 0.  0.
        2    1    3    3  502    0  0.17384873700E+03  0.11708547178E+03  0.18781602755E+03  0.28143782843E+03  0.25500000920E-02 0.  1.
       -2    1    3    3    0  502 -0.17384873700E+03 -0.11708547178E+03 -0.16658895407E+04  0.16790236308E+04  0.25500000920E-02 0. -1.
</event>
<event>
 5   0  0.1324721E-03  0.1303450E+04  0.7818609E-02  0.9026834E-01
        1   -1    0    0  501    0  0.00000000000E+00  0.00000000000E+00  0.47084658775E+03  0.47084658778E+03  0.50400001928E-02 0.  1.
       -1   -1    0    0    0  501  0.00000000000E+00  0.00000000000E+00 -0.90208905210E+03  0.90208905211E+03  0.50400001928E-02 0. -1.
    10030    2    1    2    0    0  0.00000000000E+00  0.00000000000E+00 -0.43124246435E+03  0.13729356399E+04  0.13034501173E+04 0.  0.
        1    1    3    3  502    0  0.38402233325E+03 -0.50900844517E+03 -0.73589242053E+02  0.64185522220E+03  0.50400001928E-02 0.  1.
       -1    1    3    3    0  502 -0.38402233325E+03  0.50900844517E+03 -0.35765322229E+03  0.73108041769E+03  0.50400001928E-02 0. -1.
</event>
<event>
 5   0  0.2361043E-03  0.1300268E+04  0.7818609E-02  0.9029353E-01
       -2   -1    0    0    0  501  0.00000000000E+00  0.00000000000E+00  0.72083837185E+03  0.72083837186E+03  0.25500000920E-02 0. -1.
        2   -1    0    0  501    0  0.00000000000E+00  0.00000000000E+00 -0.58636493278E+03  0.58636493279E+03  0.25500000920E-02 0.  1.
    10030    2    1    2    0    0  0.00000000000E+00  0.00000000000E+00  0.13447343907E+03  0.13072033046E+04  0.13002681931E+04 0.  0.
        2    1    3    3  502    0 -0.41077392837E+03  0.31412285680E+02 -0.43838950759E+03  0.60158732723E+03  0.25500000920E-02 0.  1.
       -2    1    3    3    0  502  0.41077392837E+03 -0.31412285680E+02  0.57286294666E+03  0.70561597741E+03  0.25500000920E-02 0. -1.
</event>
<event>
 5   0  0.2401211E-03  0.1282879E+04  0.7818609E-02  0.9043254E-01
        2   -1    0    0  501    0  0.00000000000E+00  0.00000000000E+00  0.16116933287E+04  0.16116933287E+04  0.25500000920E-02 0. -1.
       -2   -1    0    0    0  501  0.00000000000E+00  0.00000000000E+00 -0.25528701535E+03  0.25528701536E+03  0.25500000920E-02 0.  1.
    10030    2    1    2    0    0  0.00000000000E+00  0.00000000000E+00  0.13564063134E+04  0.18669803441E+04  0.12828786062E+04 0.  0.
        4    1    3    3  502    0 -0.26781413953E+03  0.57189254272E+03  0.84193164615E+03  0.10524428742E+04  0.12699999809E+01 0. -1.
       -4    1    3    3    0  502  0.26781413953E+03 -0.57189254272E+03  0.51447466724E+03  0.81453746991E+03  0.12699999809E+01 0.  1.
</event>
<event>
 5   0  0.1346593E-03  0.1317390E+04  0.7818609E-02  0.9015887E-01
        1   -1    0    0  501    0  0.00000000000E+00  0.00000000000E+00  0.11483500345E+04  0.11483500345E+04  0.50400001928E-02 0.  1.
       -1   -1    0    0    0  501  0.00000000000E+00  0.00000000000E+00 -0.37782826015E+03  0.37782826018E+03  0.50400001928E-02 0. -1.
    10030    2    1    2    0    0  0.00000000000E+00  0.00000000000E+00  0.77052177438E+03  0.15261782947E+04  0.13173899888E+04 0.  0.
        2    1    3    3  502    0 -0.66176273425E+02  0.11573839464E+03  0.11325558910E+04  0.11403760439E+04  0.25500000920E-02 0.  1.
       -2    1    3    3    0  502  0.66176273425E+02 -0.11573839464E+03 -0.36203411663E+03  0.38580225086E+03  0.25500000920E-02 0. -1.
</event>
<event>
 5   0  0.1332630E-03  0.1211503E+04  0.7818609E-02  0.9102847E-01
       -1   -1    0    0    0  501  0.00000000000E+00  0.00000000000E+00  0.76675956501E+03  0.76675956503E+03  0.50400001928E-02 0. -1.
        1   -1    0    0  501    0  0.00000000000E+00  0.00000000000E+00 -0.47855291406E+03  0.47855291408E+03  0.50400001928E-02 0.  1.
    10030    2    1    2    0    0  0.00000000000E+00  0.00000000000E+00  0.28820665095E+03  0.12453124791E+04  0.12115032385E+04 0.  0.
        5    1    3    3  502    0  0.36186840243E+03 -0.47685972477E+03  0.48951145538E+02  0.60063486615E+03  0.46999998093E+01 0.  1.
       -5    1    3    3    0  502 -0.36186840243E+03  0.47685972477E+03  0.23925550542E+03  0.64467761296E+03  0.46999998093E+01 0. -1.
</event>
<event>
 5   0  0.1346593E-03  0.1210467E+04  0.7818609E-02  0.9103744E-01
        1   -1    0    0  501    0  0.00000000000E+00  0.00000000000E+00  0.91581844919E+03  0.91581844921E+03  0.50400001928E-02 0. -1.
       -1   -1    0    0    0  501  0.00000000000E+00  0.00000000000E+00 -0.39997854105E+03  0.39997854108E+03  0.50400001928E-02 0.  1.
    10030    2    1    2    0    0  0.00000000000E+00  0.00000000000E+00  0.51583990815E+03  0.13157969903E+04  0.12104672275E+04 0.  0.
        2    1    3    3  502    0 -0.23029083621E+03 -0.22087380492E+03 -0.30111549577E+03  0.43873642286E+03  0.25500000920E-02 0.  1.
       -2    1    3    3    0  502  0.23029083621E+03  0.22087380492E+03  0.81695540391E+03  0.87706056743E+03  0.25500000920E-02 0. -1.
</event>
<event>
 5   0  0.9131250E-04  0.1376686E+04  0.7818609E-02  0.8970869E-01
       -3   -1    0    0    0  501  0.00000000000E+00  0.00000000000E+00  0.16569811472E+04  0.16569811502E+04  0.10100000352E+00 0.  1.
        3   -1    0    0  501    0  0.00000000000E+00  0.00000000000E+00 -0.28595151355E+03  0.28595153138E+03  0.10100000352E+00 0. -1.
    10030    2    1    2    0    0  0.00000000000E+00  0.00000000000E+00  0.13710296336E+04  0.19429326816E+04  0.13766862929E+04 0.  0.
        4    1    3    3  502    0  0.45791945378E+03 -0.44754770677E+02 -0.37045411682E+02  0.46159201799E+03  0.12699999809E+01 0. -1.
       -4    1    3    3    0  502 -0.45791945378E+03  0.44754770677E+02  0.14080750453E+04  0.14813406636E+04  0.12699999809E+01 0.  1.
</event>
<event>
 5   0  0.2361043E-03  0.1332239E+04  0.7818609E-02  0.9004383E-01
       -2   -1    0    0    0  501  0.00000000000E+00  0.00000000000E+00  0.21658863476E+03  0.21658863478E+03  0.25500000920E-02 0.  1.
        2   -1    0    0  501    0  0.00000000000E+00  0.00000000000E+00 -0.20486538997E+04  0.20486538997E+04  0.25500000920E-02 0. -1.
    10030    2    1    2    0    0  0.00000000000E+00  0.00000000000E+00 -0.18320652649E+04  0.22652425344E+04  0.13322389444E+04 0.  0.
        2    1    3    3  502    0 -0.26139258441E+03  0.41785282856E+03 -0.15412636140E+03  0.51641263037E+03  0.25500000920E-02 0.  1.
       -2    1    3    3    0  502  0.26139258441E+03 -0.41785282856E+03 -0.16779389035E+04  0.17488299041E+04  0.25500000920E-02 0. -1.
</event>
<event>
 5   0  0.2478236E-03  0.1341415E+04  0.7818609E-02  0.8997353E-01
       -2   -1    0    0    0  501  0.00000000000E+00  0.00000000000E+00  0.23803409139E+03  0.23803409141E+03  0.25500000920E-02 0. -1.
        2   -1    0    0  501    0  0.00000000000E+00  0.00000000000E+00 -0.18898481905E+04  0.18898481905E+04  0.25500000920E-02 0.  1.
    10030    2    1    2    0    0  0.00000000000E+00  0.00000000000E+00 -0.16518140991E+04  0.21278822819E+04  0.13414146218E+04 0.  0.
        3    1    3    3  502    0 -0.49672669402E+03  0.41012172643E+03 -0.11222987261E+04  0.12940215144E+04  0.10100000352E+00 0.  1.
       -3    1    3    3    0  502  0.49672669402E+03 -0.41012172643E+03 -0.52951537299E+03  0.83386076744E+03  0.10100000352E+00 0. -1.
</event>
<event>
 5   0  0.2361043E-03  0.1408734E+04  0.7818609E-02  0.8947521E-01
       -2   -1    0    0    0  501  0.00000000000E+00  0.00000000000E+00  0.33450468621E+03  0.33450468622E+03  0.25500000920E-02 0. -1.
        2   -1    0    0  501    0  0.00000000000E+00  0.00000000000E+00 -0.14831861739E+04  0.14831861739E+04  0.25500000920E-02 0.  1.
    10030    2    1    2    0    0  0.00000000000E+00  0.00000000000E+00 -0.11486814877E+04  0.18176908601E+04  0.14087337941E+04 0.  0.
        2    1    3    3  502    0 -0.36904026139E+03 -0.36619311977E+03  0.38850515599E+02  0.52134199722E+03  0.25500000920E-02 0. -1.
       -2    1    3    3    0  502  0.36904026139E+03  0.36619311977E+03 -0.11875320033E+04  0.12963488629E+04  0.25500000920E-02 0.  1.
</event>
<event>
 5   0  0.1387622E-03  0.1307638E+04  0.7818609E-02  0.9023530E-01
       -1   -1    0    0    0  501  0.00000000000E+00  0.00000000000E+00  0.83355380728E+03  0.83355380729E+03  0.50400001928E-02 0.  1.
        1   -1    0    0  501    0  0.00000000000E+00  0.00000000000E+00 -0.51283954196E+03  0.51283954198E+03  0.50400001928E-02 0. -1.
    10030    2    1    2    0    0  0.00000000000E+00  0.00000000000E+00  0.32071426532E+03  0.13463933493E+04  0.13076381040E+04 0.  0.
        3    1    3    3  502    0 -0.27702214670E+03  0.57402006827E+03  0.10301683687E+02  0.63745309116E+03  0.10100000352E+00 0.  1.
       -3    1    3    3    0  502  0.27702214670E+03 -0.57402006827E+03  0.31041258164E+03  0.70894025812E+03  0.10100000352E+00 0. -1.
</event>
<event>
 5   0  0.1332630E-03  0.1294979E+04  0.7818609E-02  0.9033556E-01
       -1   -1    0    0    0  501  0.00000000000E+00  0.00000000000E+00  0.10180299208E+04  0.10180299208E+04  0.50400001928E-02 0. -1.
        1   -1    0    0  501    0  0.00000000000E+00  0.00000000000E+00 -0.41181789995E+03  0.41181789998E+03  0.50400001928E-02 0.  1.
    10030    2    1    2    0    0  0.00000000000E+00  0.00000000000E+00  0.60621202089E+03  0.14298478208E+04  0.12949794502E+04 0.  0.
        5    1    3    3  502    0 -0.15809614440E+03 -0.36187363955E+03 -0.26343437165E+03  0.47472800638E+03  0.46999998093E+01 0.  1.
       -5    1    3    3    0  502  0.15809614440E+03  0.36187363955E+03  0.86964639254E+03  0.95511981444E+03  0.46999998093E+01 0. -1.
</event>
<event>
 5   0  0.2312105E-03  0.1303240E+04  0.7818609E-02  0.9026999E-01
       -2   -1    0    0    0  501  0.00000000000E+00  0.00000000000E+00  0.12999159288E+04  0.12999159288E+04  0.25500000920E-02 0. -1.
        2   -1    0    0  501    0  0.00000000000E+00  0.00000000000E+00 -0.32664334890E+03  0.32664334891E+03  0.25500000920E-02 0.  1.
    10030    2    1    2    0    0  0.00000000000E+00  0.00000000000E+00  0.97327257993E+03  0.16265592777E+04  0.13032404111E+04 0.  0.
        5    1    3    3  502    0 -0.65070243111E+03 -0.23807371094E+02  0.45590295126E+03  0.79488995196E+03  0.46999998093E+01 0.  1.
       -5    1    3    3    0  502  0.65070243111E+03  0.23807371094E+02  0.51736962867E+03  0.83166932578E+03  0.46999998093E+01 0. -1.
</event>
<event>
 5   0  0.1332630E-03  0.1307790E+04  0.7818609E-02  0.9023410E-01
        1   -1    0    0  501    0  0.00000000000E+00  0.00000000000E+00  0.60664065577E+03  0.60664065580E+03  0.50400001928E-02 0.  1.
       -1   -1    0    0    0  501  0.00000000000E+00  0.00000000000E+00 -0.70483016131E+03  0.70483016133E+03  0.50400001928E-02 0. -1.
    10030    2    1    2    0    0  0.00000000000E+00  0.00000000000E+00 -0.98189505538E+02  0.13114708171E+04  0.13077899392E+04 0.  0.
        5    1    3    3  502    0 -0.28966152933E+03 -0.58344384619E+03  0.80394412070E+01  0.65145778516E+03  0.46999998093E+01 0. -1.
       -5    1    3    3    0  502  0.28966152933E+03  0.58344384619E+03 -0.10622894674E+03  0.66001303196E+03  0.46999998093E+01 0.  1.
</event>
<event>
 5   0  0.1346593E-03  0.1258496E+04  0.7818609E-02  0.9063142E-01
       -1   -1    0    0    0  501  0.00000000000E+00  0.00000000000E+00  0.24744785697E+03  0.24744785702E+03  0.50400001928E-02 0.  1.
        1   -1    0    0  501    0  0.00000000000E+00  0.00000000000E+00 -0.16001466766E+04  0.16001466766E+04  0.50400001928E-02 0. -1.
    10030    2    1    2    0    0  0.00000000000E+00  0.00000000000E+00 -0.13526988197E+04  0.18475945336E+04  0.12584957148E+04 0.  0.
        2    1    3    3  502    0 -0.41325233930E+03 -0.14846329387E+03 -0.14672073265E+02  0.43935647862E+03  0.25500000920E-02 0.  1.
       -2    1    3    3    0  502  0.41325233930E+03  0.14846329387E+03 -0.13380267464E+04  0.14082380550E+04  0.25500000920E-02 0. -1.
</event>
<event>
 5   0  0.2312105E-03  0.1282711E+04  0.7818609E-02  0.9043389E-01
        2   -1    0    0  501    0  0.00000000000E+00  0.00000000000E+00  0.11375889842E+04  0.11375889842E+04  0.25500000920E-02 0.  1.
       -2   -1    0    0    0  501  0.00000000000E+00  0.00000000000E+00 -0.36158644651E+03  0.36158644652E+03  0.25500000920E-02 0. -1.
    10030    2    1    2    0    0  0.00000000000E+00  0.00000000000E+00  0.77600253772E+03  0.14991754308E+04  0.12827108145E+04 0.  0.
        5    1    3    3  502    0  0.42916338454E+03 -0.40752977228E+03  0.67678784371E+03  0.89906929729E+03  0.46999998093E+01 0.  1.
       -5    1    3    3    0  502 -0.42916338454E+03  0.40752977228E+03  0.99214694011E+02  0.60010613347E+03  0.46999998093E+01 0. -1.
</event>
<event>
 5   0  0.1324721E-03  0.1315909E+04  0.7818609E-02  0.9017043E-01
       -1   -1    0    0    0  501  0.00000000000E+00  0.00000000000E+00  0.61984448861E+03  0.61984448863E+03  0.50400001928E-02 0.  1.
        1   -1    0    0  501    0  0.00000000000E+00  0.00000000000E+00 -0.69840788577E+03  0.69840788579E+03  0.50400001928E-02 0. -1.
    10030    2    1    2    0    0  0.00000000000E+00  0.00000000000E+00 -0.78563397164E+02  0.13182523744E+04  0.13159092352E+04 0.  0.
        1    1    3    3  502    0  0.13758110496E+03  0.63490019692E+03 -0.14376246288E+03  0.66535288851E+03  0.50400001928E-02 0.  1.
       -1    1    3    3    0  502 -0.13758110496E+03 -0.63490019692E+03  0.65199065711E+02  0.65289948590E+03  0.50400001928E-02 0. -1.
</event>
<event>
 5   0  0.2478236E-03  0.1265665E+04  0.7818609E-02  0.9057246E-01
        2   -1    0    0  501    0  0.00000000000E+00  0.00000000000E+00  0.15263202259E+04  0.15263202259E+04  0.25500000920E-02 0.  1.
       -2   -1    0    0    0  501  0.00000000000E+00  0.00000000000E+00 -0.26238052400E+03  0.26238052401E+03  0.25500000920E-02 0. -1.
    10030    2    1    2    0    0  0.00000000000E+00  0.00000000000E+00  0.12639397019E+04  0.17887007500E+04  0.12656645696E+04 0.  0.
        3    1    3    3  502    0  0.17093865262E+02  0.24093815526E+03  0.14586104605E+04  0.14784748495E+04  0.10100000352E+00 0.  1.
       -3    1    3    3    0  502 -0.17093865262E+02 -0.24093815526E+03 -0.19467075856E+03  0.31022590047E+03  0.10100000352E+00 0. -1.
</event>
<event>
 5   0  0.2334946E-03  0.1154442E+04  0.7818609E-02  0.9153695E-01
        2   -1    0    0  501    0  0.00000000000E+00  0.00000000000E+00  0.11234638608E+04  0.11234638608E+04  0.25500000920E-02 0. -1.
       -2   -1    0    0    0  501  0.00000000000E+00  0.00000000000E+00 -0.29656876249E+03  0.29656876250E+03  0.25500000920E-02 0.  1.
    10030    2    1    2    0    0  0.00000000000E+00  0.00000000000E+00  0.82689509833E+03  0.14200326233E+04  0.11544423536E+04 0.  0.
        1    1    3    3  502    0  0.21870736626E+03 -0.50876646723E+03  0.21317795611E+03  0.59339790296E+03  0.50400001928E-02 0.  1.
       -1    1    3    3    0  502 -0.21870736626E+03  0.50876646723E+03  0.61371714222E+03  0.82663472037E+03  0.50400001928E-02 0. -1.
</event>
<event>
 5   0  0.2478236E-03  0.1290466E+04  0.7818609E-02  0.9037160E-01
       -2   -1    0    0    0  501  0.00000000000E+00  0.00000000000E+00  0.26775352350E+03  0.26775352351E+03  0.25500000920E-02 0.  1.
        2   -1    0    0  501    0  0.00000000000E+00  0.00000000000E+00 -0.15548841229E+04  0.15548841229E+04  0.25500000920E-02 0. -1.
    10030    2    1    2    0    0  0.00000000000E+00  0.00000000000E+00 -0.12871305994E+04  0.18226376464E+04  0.12904661213E+04 0.  0.
        3    1    3    3  502    0  0.26074701403E+03 -0.53104866915E+03 -0.27982696201E+03  0.65445002345E+03  0.10100000352E+00 0. -1.
       -3    1    3    3    0  502 -0.26074701403E+03  0.53104866915E+03 -0.10073036374E+04  0.11681876230E+04  0.10100000352E+00 0.  1.
</event>
<event>
 5   0  0.9131250E-04  0.1291821E+04  0.7818609E-02  0.9036076E-01
        4   -1    0    0  501    0  0.00000000000E+00  0.00000000000E+00  0.45980939974E+03  0.45981115362E+03  0.12699999809E+01 0. -1.
       -4   -1    0    0    0  501  0.00000000000E+00  0.00000000000E+00 -0.90732932820E+03  0.90733021701E+03  0.12699999809E+01 0.  1.
    10030    2    1    2    0    0  0.00000000000E+00  0.00000000000E+00 -0.44751992845E+03  0.13671413706E+04  0.12918209787E+04 0.  0.
        3    1    3    3  502    0 -0.55752271241E+03 -0.76542751443E+02 -0.55927786118E+03  0.79339908234E+03  0.10100000352E+00 0.  1.
       -3    1    3    3    0  502  0.55752271241E+03  0.76542751443E+02  0.11175793272E+03  0.57374228829E+03  0.10100000352E+00 0. -1.
</event>
<event>
 5   0  0.2401211E-03  0.1288550E+04  0.7818609E-02  0.9038694E-01
        2   -1    0    0  501    0  0.00000000000E+00  0.00000000000E+00  0.42831321210E+03  0.42831321211E+03  0.25500000920E-02 0. -1.
       -2   -1    0    0    0  501  0.00000000000E+00  0.00000000000E+00 -0.96912831356E+03  0.96912831356E+03  0.25500000920E-02 0.  1.
    10030    2    1    2    0    0  0.00000000000E+00  0.00000000000E+00 -0.54081510146E+03  0.13974415257E+04  0.12885502876E+04 0.  0.
        4    1    3    3  502    0 -0.28736939073E+03  0.57653934022E+03 -0.25902950397E+03  0.69431741615E+03  0.12699999809E+01 0. -1.
       -4    1    3    3    0  502  0.28736939073E+03 -0.57653934022E+03 -0.28178559749E+03  0.70312410952E+03  0.12699999809E+01 0.  1.
</event>
<event>
 5   0  0.1332630E-03  0.1287680E+04  0.7818609E-02  0.9039393E-01
        1   -1    0    0  501    0  0.00000000000E+00  0.00000000000E+00  0.11618081391E+04  0.11618081391E+04  0.50400001928E-02 0.  1.
       -1   -1    0    0    0  501  0.00000000000E+00  0.00000000000E+00 -0.35679698973E+03  0.35679698977E+03  0.50400001928E-02 0. -1.
    10030    2    1    2    0    0  0.00000000000E+00  0.00000000000E+00  0.80501114939E+03  0.15186051289E+04  0.12876795358E+04 0.  0.
        5    1    3    3  502    0 -0.47236726071E+03  0.17342881397E+03  0.87615077477E+03  0.10103814392E+04  0.46999998093E+01 0.  1.
       -5    1    3    3    0  502  0.47236726071E+03 -0.17342881397E+03 -0.71139625375E+02  0.50822368973E+03  0.46999998093E+01 0. -1.
</event>
<event>
 5   0  0.9131250E-04  0.1295830E+04  0.7818609E-02  0.9032879E-01
       -4   -1    0    0    0  501  0.00000000000E+00  0.00000000000E+00  0.52262904975E+03  0.52263059282E+03  0.12699999809E+01 0. -1.
        4   -1    0    0  501    0  0.00000000000E+00  0.00000000000E+00 -0.80323110551E+03  0.80323210952E+03  0.12699999809E+01 0.  1.
    10030    2    1    2    0    0  0.00000000000E+00  0.00000000000E+00 -0.28060205576E+03  0.13258627023E+04  0.12958296152E+04 0.  0.
        4    1    3    3  502    0  0.10480820496E+03 -0.46511667353E+03 -0.58918733298E+03  0.75793245482E+03  0.12699999809E+01 0.  1.
       -4    1    3    3    0  502 -0.10480820496E+03  0.46511667353E+03  0.30858527723E+03  0.56793024751E+03  0.12699999809E+01 0. -1.
</event>
<event>
 5   0  0.9131250E-04  0.1341922E+04  0.7818609E-02  0.8996966E-01
       -3   -1    0    0    0  501  0.00000000000E+00  0.00000000000E+00  0.32051614213E+03  0.32051615805E+03  0.10100000352E+00 0. -1.
        3   -1    0    0  501    0  0.00000000000E+00  0.00000000000E+00 -0.14045734934E+04  0.14045734970E+04  0.10100000352E+00 0.  1.
    10030    2    1    2    0    0  0.00000000000E+00  0.00000000000E+00 -0.10840573513E+04  0.17250896551E+04  0.13419217478E+04 0.  0.
        3    1    3    3  502    0 -0.57820102744E+02  0.11658948177E+03  0.30413596691E+03  0.33080956472E+03  0.10100000352E+00 0. -1.
       -3    1    3    3    0  502  0.57820102744E+02 -0.11658948177E+03 -0.13881933182E+04  0.13942800903E+04  0.10100000352E+00 0.  1.
</event>
<event>
 5   0  0.9131250E-04  0.1294023E+04  0.7818609E-02  0.9034318E-01
       -3   -1    0    0    0  501  0.00000000000E+00  0.00000000000E+00  0.84232461359E+03  0.84232461965E+03  0.10100000352E+00 0.  1.
        3   -1    0    0  501    0  0.00000000000E+00  0.00000000000E+00 -0.49698659404E+03  0.49698660430E+03  0.10100000352E+00 0. -1.
    10030    2    1    2    0    0  0.00000000000E+00  0.00000000000E+00  0.34533801955E+03  0.13393112240E+04  0.12940232636E+04 0.  0.
        5    1    3    3  502    0 -0.11148263108E+03 -0.60789602287E+03 -0.25435110875E+02  0.61857496435E+03  0.46999998093E+01 0. -1.
       -5    1    3    3    0  502  0.11148263108E+03  0.60789602287E+03  0.37077313043E+03  0.72073625960E+03  0.46999998093E+01 0.  1.
</event>
<event>
 5   0  0.9131250E-04  0.1305825E+04  0.7818609E-02  0.9024959E-01
       -3   -1    0    0    0  501  0.00000000000E+00  0.00000000000E+00  0.53809528990E+03  0.53809529938E+03  0.10100000352E+00 0. -1.
        3   -1    0    0  501    0  0.00000000000E+00  0.00000000000E+00 -0.79222865180E+03  0.79222865823E+03  0.10100000352E+00 0.  1.
    10030    2    1    2    0    0  0.00000000000E+00  0.00000000000E+00 -0.25413336189E+03  0.13303239576E+04  0.13058246692E+04 0.  0.
        2    1    3    3  502    0 -0.25634468345E+03  0.19415890431E+01  0.48468088016E+03  0.54829911737E+03  0.25500000920E-02 0. -1.
       -2    1    3    3    0  502  0.25634468345E+03 -0.19415890431E+01 -0.73881424205E+03  0.78202484025E+03  0.25500000920E-02 0.  1.
</event>
<event>
 5   0  0.1346593E-03  0.1279029E+04  0.7818609E-02  0.9046363E-01
       -1   -1    0    0    0  501  0.00000000000E+00  0.00000000000E+00  0.42065475150E+03  0.42065475153E+03  0.50400001928E-02 0.  1.
        1   -1    0    0  501    0  0.00000000000E+00  0.00000000000E+00 -0.97224272009E+03  0.97224272010E+03  0.50400001928E-02 0. -1.
    10030    2    1    2    0    0  0.00000000000E+00  0.00000000000E+00 -0.55158796859E+03  0.13928974716E+04  0.12790285686E+04 0.  0.
        2    1    3    3  502    0  0.62511203442E+03  0.41872274594E+02 -0.41551320475E+03  0.75177760427E+03  0.25500000920E-02 0. -1.
       -2    1    3    3    0  502 -0.62511203442E+03 -0.41872274594E+02 -0.13607476384E+03  0.64111986735E+03  0.25500000920E-02 0.  1.
</event>
<event>
 5   0  0.1387622E-03  0.1299650E+04  0.7818609E-02  0.9029843E-01
        1   -1    0    0  501    0  0.00000000000E+00  0.00000000000E+00  0.16892015978E+04  0.16892015979E+04  0.50400001928E-02 0.  1.
       -1   -1    0    0    0  501  0.00000000000E+00  0.00000000000E+00 -0.24998334525E+03  0.24998334530E+03  0.50400001928E-02 0. -1.
    10030    2    1    2    0    0  0.00000000000E+00  0.00000000000E+00  0.14392182526E+04  0.19391849432E+04  0.12996495932E+04 0.  0.
        3    1    3    3  502    0 -0.25995570122E+03  0.33307128504E+03  0.14562793474E+04  0.15163320862E+04  0.10100000352E+00 0.  1.
       -3    1    3    3    0  502  0.25995570122E+03 -0.33307128504E+03 -0.17061094850E+02  0.42285285700E+03  0.10100000352E+00 0. -1.
</event>
<event>
 5   0  0.1332630E-03  0.1295085E+04  0.7818609E-02  0.9033472E-01
       -1   -1    0    0    0  501  0.00000000000E+00  0.00000000000E+00  0.38720705018E+03  0.38720705021E+03  0.50400001928E-02 0.  1.
        1   -1    0    0  501    0  0.00000000000E+00  0.00000000000E+00 -0.10829129886E+04  0.10829129886E+04  0.50400001928E-02 0. -1.
    10030    2    1    2    0    0  0.00000000000E+00  0.00000000000E+00 -0.69570593846E+03  0.14701200389E+04  0.12950853933E+04 0.  0.
        5    1    3    3  502    0  0.62029465531E+03 -0.15577215292E+03 -0.23287687228E+03  0.68064980032E+03  0.46999998093E+01 0.  1.
       -5    1    3    3    0  502 -0.62029465531E+03  0.15577215292E+03 -0.46282906618E+03  0.78947023853E+03  0.46999998093E+01 0. -1.
</event>
<event>
 5   0  0.2312105E-03  0.1312137E+04  0.7818609E-02  0.9019995E-01
        2   -1    0    0  501    0  0.00000000000E+00  0.00000000000E+00  0.14720064584E+04  0.14720064584E+04  0.25500000920E-02 0. -1.
       -2   -1    0    0    0  501  0.00000000000E+00  0.00000000000E+00 -0.29240778713E+03  0.29240778714E+03  0.25500000920E-02 0.  1.
    10030    2    1    2    0    0  0.00000000000E+00  0.00000000000E+00  0.11795986713E+04  0.17644142456E+04  0.13121374184E+04 0.  0.
        5    1    3    3  502    0 -0.16195705166E+02  0.50657789971E+03  0.11499395396E+04  0.12566887061E+04  0.46999998093E+01 0. -1.
       -5    1    3    3    0  502  0.16195705166E+02 -0.50657789971E+03  0.29659131714E+02  0.50772553947E+03  0.46999998093E+01 0.  1.
</event>
<event>
 5   0  0.1324721E-03  0.1295769E+04  0.7818609E-02  0.9032927E-01
        1   -1    0    0  501    0  0.00000000000E+00  0.00000000000E+00  0.10178592415E+04  0.10178592416E+04  0.50400001928E-02 0. -1.
       -1   -1    0    0    0  501  0.00000000000E+00  0.00000000000E+00 -0.41238958753E+03  0.41238958756E+03  0.50400001928E-02 0.  1.
    10030    2    1    2    0    0  0.00000000000E+00  0.00000000000E+00  0.60546965401E+03  0.14302488291E+04  0.12957693511E+04 0.  0.
        1    1    3    3  502    0  0.21839146747E+03  0.53032854142E+03  0.63535913371E+03  0.85593482446E+03  0.50400001928E-02 0. -1.
       -1    1    3    3    0  502 -0.21839146747E+03 -0.53032854142E+03 -0.29889479696E+02  0.57431400465E+03  0.50400001928E-02 0.  1.
</event>
<event>
 5   0  0.1332630E-03  0.1115270E+04  0.7818609E-02  0.9190436E-01
        1   -1    0    0  501    0  0.00000000000E+00  0.00000000000E+00  0.67160735945E+03  0.67160735947E+03  0.50400001928E-02 0.  1.
       -1   -1    0    0    0  501  0.00000000000E+00  0.00000000000E+00 -0.46300345096E+03  0.46300345099E+03  0.50400001928E-02 0. -1.
    10030    2    1    2    0    0  0.00000000000E+00  0.00000000000E+00  0.20860390848E+03  0.11346108105E+04  0.11152695193E+04 0.  0.
        5    1    3    3  502    0  0.15752906836E+03 -0.38153983980E+03  0.48569863915E+03  0.63742710548E+03  0.46999998093E+01 0.  1.
       -5    1    3    3    0  502 -0.15752906836E+03  0.38153983980E+03 -0.27709473067E+03  0.49718370497E+03  0.46999998093E+01 0. -1.
</event>
<event>
 5   0  0.1310461E-03  0.1286546E+04  0.7818609E-02  0.9040303E-01
        1   -1    0    0  501    0  0.00000000000E+00  0.00000000000E+00  0.16587228379E+04  0.16587228379E+04  0.50400001928E-02 0.  1.
       -1   -1    0    0    0  501  0.00000000000E+00  0.00000000000E+00 -0.24946902161E+03  0.24946902166E+03  0.50400001928E-02 0. -1.
    10030    2    1    2    0    0  0.00000000000E+00  0.00000000000E+00  0.14092538162E+04  0.19081918595E+04  0.12865457062E+04 0.  0.
        4    1    3    3  502    0 -0.27998814363E+03  0.45824835215E+03  0.12298802878E+04  0.13420104500E+04  0.12699999809E+01 0.  1.
       -4    1    3    3    0  502  0.27998814363E+03 -0.45824835215E+03  0.17937352844E+03  0.56618140947E+03  0.12699999809E+01 0. -1.
</event>
<event>
 5   0  0.1346593E-03  0.1393835E+04  0.7818609E-02  0.8958293E-01
       -1   -1    0    0    0  501  0.00000000000E+00  0.00000000000E+00  0.50976884831E+03  0.50976884834E+03  0.50400001928E-02 0. -1.
        1   -1    0    0  501    0  0.00000000000E+00  0.00000000000E+00 -0.95277332650E+03  0.95277332651E+03  0.50400001928E-02 0.  1.
    10030    2    1    2    0    0  0.00000000000E+00  0.00000000000E+00 -0.44300447818E+03  0.14625421748E+04  0.13938352290E+04 0.  0.
        2    1    3    3  502    0  0.76403124673E+02  0.54980188432E+03 -0.66367033011E+03  0.86520393927E+03  0.25500000920E-02 0.  1.
       -2    1    3    3    0  502 -0.76403124673E+02 -0.54980188432E+03  0.22066585193E+03  0.59733823557E+03  0.25500000920E-02 0. -1.
</event>
<event>
 5   0  0.2361043E-03  0.1333321E+04  0.7818609E-02  0.9003551E-01
        2   -1    0    0  501    0  0.00000000000E+00  0.00000000000E+00  0.13069873185E+04  0.13069873185E+04  0.25500000920E-02 0. -1.
       -2   -1    0    0    0  501  0.00000000000E+00  0.00000000000E+00 -0.34004632001E+03  0.34004632002E+03  0.25500000920E-02 0.  1.
    10030    2    1    2    0    0  0.00000000000E+00  0.00000000000E+00  0.96694099846E+03  0.16470336385E+04  0.13333210086E+04 0.  0.
        2    1    3    3  502    0 -0.25473423881E+03  0.40103932046E+03  0.10611755926E+04  0.11626760973E+04  0.25500000920E-02 0.  1.
       -2    1    3    3    0  502  0.25473423881E+03 -0.40103932046E+03 -0.94234594115E+02  0.48435754119E+03  0.25500000920E-02 0. -1.
</event>
<event>
 5   0  0.2478236E-03  0.1327802E+04  0.7818609E-02  0.9007804E-01
        2   -1    0    0  501    0  0.00000000000E+00  0.00000000000E+00  0.12987196323E+04  0.12987196323E+04  0.25500000920E-02 0.  1.
       -2   -1    0    0    0  501  0.00000000000E+00  0.00000000000E+00 -0.33938411153E+03  0.33938411154E+03  0.25500000920E-02 0. -1.
    10030    2    1    2    0    0  0.00000000000E+00  0.00000000000E+00  0.95933552074E+03  0.16381037438E+04  0.13278024078E+04 0.  0.
        3    1    3    3  502    0 -0.61074036343E+03  0.79505522224E+02  0.17387082690E+03  0.63996561958E+03  0.10100000352E+00 0. -1.
       -3    1    3    3    0  502  0.61074036343E+03 -0.79505522224E+02  0.78546469383E+03  0.99813812423E+03  0.10100000352E+00 0.  1.
</event>
<event>
 5   0  0.2401211E-03  0.1301134E+04  0.7818609E-02  0.9028667E-01
       -2   -1    0    0    0  501  0.00000000000E+00  0.00000000000E+00  0.55445053406E+03  0.55445053407E+03  0.25500000920E-02 0.  1.
        2   -1    0    0  501    0  0.00000000000E+00  0.00000000000E+00 -0.76334542279E+03  0.76334542280E+03  0.25500000920E-02 0. -1.
    10030    2    1    2    0    0  0.00000000000E+00  0.00000000000E+00 -0.20889488873E+03  0.13177959569E+04  0.13011337784E+04 0.  0.
        4    1    3    3  502    0  0.19399589069E+03 -0.16364873427E+03 -0.71113453264E+03  0.75506903674E+03  0.12699999809E+01 0. -1.
       -4    1    3    3    0  502 -0.19399589069E+03  0.16364873427E+03  0.50223964390E+03  0.56272692013E+03  0.12699999809E+01 0.  1.
</event>
<event>
 5   0  0.1387622E-03  0.1289522E+04  0.7818609E-02  0.9037916E-01
        1   -1    0    0  501    0  0.00000000000E+00  0.00000000000E+00  0.27290400251E+04  0.27290400251E+04  0.50400001928E-02 0.  1.
       -1   -1    0    0    0  501  0.00000000000E+00  0.00000000000E+00 -0.15233069577E+03  0.15233069585E+03  0.50400001928E-02 0. -1.
    10030    2    1    2    0    0  0.00000000000E+00  0.00000000000E+00  0.25767093293E+04  0.28813707209E+04  0.12895217190E+04 0.  0.
        3    1    3    3  502    0  0.14820051210E+03  0.36634500966E+03  0.15000314709E+03  0.42269730568E+03  0.10100000352E+00 0. -1.
       -3    1    3    3    0  502 -0.14820051210E+03 -0.36634500966E+03  0.24267061822E+04  0.24586734153E+04  0.10100000352E+00 0.  1.
</event>
<event>
 5   0  0.2334946E-03  0.1319068E+04  0.7818609E-02  0.9014580E-01
       -2   -1    0    0    0  501  0.00000000000E+00  0.00000000000E+00  0.35330033851E+03  0.35330033852E+03  0.25500000920E-02 0.  1.
        2   -1    0    0  501    0  0.00000000000E+00  0.00000000000E+00 -0.12312041148E+04  0.12312041148E+04  0.25500000920E-02 0. -1.
    10030    2    1    2    0    0  0.00000000000E+00  0.00000000000E+00 -0.87790377625E+03  0.15845044533E+04  0.13190675957E+04 0.  0.
        1    1    3    3  502    0 -0.65765707248E+03 -0.43156728680E+02 -0.46860799116E+03  0.80868336054E+03  0.50400001928E-02 0. -1.
       -1    1    3    3    0  502  0.65765707248E+03  0.43156728680E+02 -0.40929578509E+03  0.77582109273E+03  0.50400001928E-02 0.  1.
</event>
<event>
 5   0  0.2312105E-03  0.1322356E+04  0.7818609E-02  0.9012022E-01
       -2   -1    0    0    0  501  0.00000000000E+00  0.00000000000E+00  0.27618621631E+03  0.27618621632E+03  0.25500000920E-02 0. -1.
        2   -1    0    0  501    0  0.00000000000E+00  0.00000000000E+00 -0.15828328146E+04  0.15828328146E+04  0.25500000920E-02 0.  1.
    10030    2    1    2    0    0  0.00000000000E+00  0.00000000000E+00 -0.13066465983E+04  0.18590190309E+04  0.13223563909E+04 0.  0.
        5    1    3    3  502    0  0.24250645875E+03  0.53302575312E+03 -0.10848232760E+04  0.12327974149E+04  0.46999998093E+01 0.  1.
       -5    1    3    3    0  502 -0.24250645875E+03 -0.53302575312E+03 -0.22182332224E+03  0.62622161598E+03  0.46999998093E+01 0. -1.
</event>
<event>
 5   0  0.1310461E-03  0.1281387E+04  0.7818609E-02  0.9044457E-01
       -1   -1    0    0    0  501  0.00000000000E+00  0.00000000000E+00  0.55925746448E+03  0.55925746450E+03  0.50400001928E-02 0.  1.
        1   -1    0    0  501    0  0.00000000000E+00  0.00000000000E+00 -0.73398726499E+03  0.73398726500E+03  0.50400001928E-02 0. -1.
    10030    2    1    2    0    0  0.00000000000E+00  0.00000000000E+00 -0.17472980051E+03  0.12932447295E+04  0.12813865253E+04 0.  0.
        4    1    3    3  502    0  0.56782426205E+02  0.36767831720E+03  0.43906992082E+03  0.57549595753E+03  0.12699999809E+01 0.  1.
       -4    1    3    3    0  502 -0.56782426205E+02 -0.36767831720E+03 -0.61379972133E+03  0.71774877197E+03  0.12699999809E+01 0. -1.
</event>
<event>
 5   0  0.1346593E-03  0.9377362E+03  0.7818609E-02  0.9379601E-01
       -1   -1    0    0    0  501  0.00000000000E+00  0.00000000000E+00  0.23920838568E+03  0.23920838573E+03  0.50400001928E-02 0.  1.
        1   -1    0    0  501    0  0.00000000000E+00  0.00000000000E+00 -0.91901998550E+03  0.91901998552E+03  0.50400001928E-02 0. -1.
    10030    2    1    2    0    0  0.00000000000E+00  0.00000000000E+00 -0.67981159982E+03  0.11582283713E+04  0.93773618290E+03 0.  0.
        2    1    3    3  502    0 -0.20096985998E+03  0.42205812558E+03 -0.29511047044E+03  0.55282197474E+03  0.25500000920E-02 0. -1.
       -2    1    3    3    0  502  0.20096985998E+03 -0.42205812558E+03 -0.38470112938E+03  0.60540639651E+03  0.25500000920E-02 0.  1.
</event>
<event>
 5   0  0.1346593E-03  0.1296835E+04  0.7818609E-02  0.9032079E-01
       -1   -1    0    0    0  501  0.00000000000E+00  0.00000000000E+00  0.14981850979E+03  0.14981850987E+03  0.50400001928E-02 0.  1.
        1   -1    0    0  501    0  0.00000000000E+00  0.00000000000E+00 -0.28063649262E+04  0.28063649262E+04  0.50400001928E-02 0. -1.
    10030    2    1    2    0    0  0.00000000000E+00  0.00000000000E+00 -0.26565464164E+04  0.29561834361E+04  0.12968352421E+04 0.  0.
        2    1    3    3  502    0 -0.56663852210E+03  0.20169872875E+03 -0.18804851078E+04  0.19743317433E+04  0.25500000920E-02 0. -1.
       -2    1    3    3    0  502  0.56663852210E+03 -0.20169872875E+03 -0.77606130867E+03  0.98185169283E+03  0.25500000920E-02 0.  1.
</event>
<event>
 5   0  0.1387622E-03  0.1282525E+04  0.7818609E-02  0.9043539E-01
       -1   -1    0    0    0  501  0.00000000000E+00  0.00000000000E+00  0.59128097088E+03  0.59128097091E+03  0.50400001928E-02 0.  1.
        1   -1    0    0  501    0  0.00000000000E+00  0.00000000000E+00 -0.69546938501E+03  0.69546938503E+03  0.50400001928E-02 0. -1.
    10030    2    1    2    0    0  0.00000000000E+00  0.00000000000E+00 -0.10418841413E+03  0.12867503559E+04  0.12825253420E+04 0.  0.
        3    1    3    3  502    0  0.14123550499E+03 -0.13756646889E+03  0.56011741874E+03  0.59380428948E+03  0.10100000352E+00 0.  1.
       -3    1    3    3    0  502 -0.14123550499E+03  0.13756646889E+03 -0.66430583287E+03  0.69294606646E+03  0.10100000352E+00 0. -1.
</event>
<event>
 5   0  0.1346593E-03  0.1275023E+04  0.7818609E-02  0.9049610E-01
        1   -1    0    0  501    0  0.00000000000E+00  0.00000000000E+00  0.70271995531E+03  0.70271995533E+03  0.50400001928E-02 0.  1.
       -1   -1    0    0    0  501  0.00000000000E+00  0.00000000000E+00 -0.57835421466E+03  0.57835421468E+03  0.50400001928E-02 0. -1.
    10030    2    1    2    0    0  0.00000000000E+00  0.00000000000E+00  0.12436574065E+03  0.12810741700E+04  0.12750232122E+04 0.  0.
        2    1    3    3  502    0 -0.32031803551E+02  0.26071107068E+03 -0.52145659402E+03  0.58387779395E+03  0.25500000920E-02 0. -1.
       -2    1    3    3    0  502  0.32031803551E+02 -0.26071107068E+03  0.64582233468E+03  0.69719637606E+03  0.25500000920E-02 0.  1.
</event>
<event>
 5   0  0.2361043E-03  0.1320548E+04  0.7818609E-02  0.9013427E-01
        2   -1    0    0  501    0  0.00000000000E+00  0.00000000000E+00  0.83238506385E+03  0.83238506385E+03  0.25500000920E-02 0. -1.
       -2   -1    0    0    0  501  0.00000000000E+00  0.00000000000E+00 -0.52375016213E+03  0.52375016214E+03  0.25500000920E-02 0.  1.
    10030    2    1    2    0    0  0.00000000000E+00  0.00000000000E+00  0.30863490171E+03  0.13561352260E+04  0.13205480864E+04 0.  0.
        2    1    3    3  502    0  0.18218303191E+03 -0.19204621319E+01 -0.49742493872E+03  0.52974136610E+03  0.25500000920E-02 0.  1.
       -2    1    3    3    0  502 -0.18218303191E+03  0.19204621319E+01  0.80605984043E+03  0.82639385989E+03  0.25500000920E-02 0. -1.
</event>
<event>
 5   0  0.2361043E-03  0.1279818E+04  0.7818609E-02  0.9045724E-01
        2   -1    0    0  501    0  0.00000000000E+00  0.00000000000E+00  0.21196199452E+04  0.21196199452E+04  0.25500000920E-02 0.  1.
       -2   -1    0    0    0  501  0.00000000000E+00  0.00000000000E+00 -0.19318727123E+03  0.19318727125E+03  0.25500000920E-02 0. -1.
    10030    2    1    2    0    0  0.00000000000E+00  0.00000000000E+00  0.19264326739E+04  0.23128072164E+04  0.12798181016E+04 0.  0.
        2    1    3    3  502    0 -0.34401595559E+03 -0.16385529397E+03  0.34185872838E+02  0.38257575586E+03  0.25500000920E-02 0. -1.
       -2    1    3    3    0  502  0.34401595559E+03  0.16385529397E+03  0.18922468011E+04  0.19302314606E+04  0.25500000920E-02 0.  1.
</event>
<event>
 5   0  0.2478236E-03  0.1311430E+04  0.7818609E-02  0.9020550E-01
        2   -1    0    0  501    0  0.00000000000E+00  0.00000000000E+00  0.72475525973E+03  0.72475525974E+03  0.25500000920E-02 0. -1.
       -2   -1    0    0    0  501  0.00000000000E+00  0.00000000000E+00 -0.59325146987E+03  0.59325146988E+03  0.25500000920E-02 0.  1.
    10030    2    1    2    0    0  0.00000000000E+00  0.00000000000E+00  0.13150378986E+03  0.13180067296E+04  0.13114299419E+04 0.  0.
        3    1    3    3  502    0 -0.48078050606E+03 -0.23948683585E+03  0.44374746411E+03  0.69671777763E+03  0.10100000352E+00 0. -1.
       -3    1    3    3    0  502  0.48078050606E+03  0.23948683585E+03 -0.31224367425E+03  0.62128895199E+03  0.10100000352E+00 0.  1.
</event>
<event>
 5   0  0.9131250E-04  0.1046555E+04  0.7818609E-02  0.9258908E-01
        3   -1    0    0  501    0  0.00000000000E+00  0.00000000000E+00  0.22603841136E+03  0.22603843392E+03  0.10100000352E+00 0.  1.
       -3   -1    0    0    0  501  0.00000000000E+00  0.00000000000E+00 -0.12113840958E+04  0.12113841001E+04  0.10100000352E+00 0. -1.
    10030    2    1    2    0    0  0.00000000000E+00  0.00000000000E+00 -0.98534568449E+03  0.14374225340E+04  0.10465550264E+04 0.  0.
        5    1    3    3  502    0  0.27416130392E+03 -0.23821894613E+03 -0.10100294244E+04  0.10733565181E+04  0.46999998093E+01 0. -1.
       -5    1    3    3    0  502 -0.27416130392E+03  0.23821894613E+03  0.24683739930E+02  0.36406601583E+03  0.46999998093E+01 0.  1.
</event>
<event>
 5   0  0.1324721E-03  0.1349848E+04  0.7818609E-02  0.8990943E-01
        1   -1    0    0  501    0  0.00000000000E+00  0.00000000000E+00  0.16052284719E+04  0.16052284719E+04  0.50400001928E-02 0.  1.
       -1   -1    0    0    0  501  0.00000000000E+00  0.00000000000E+00 -0.28377407420E+03  0.28377407425E+03  0.50400001928E-02 0. -1.
    10030    2    1    2    0    0  0.00000000000E+00  0.00000000000E+00  0.13214543977E+04  0.18890025461E+04  0.13498477300E+04 0.  0.
        1    1    3    3  502    0  0.24710124022E+03  0.56181084641E+03  0.10536420200E+04  0.12193653909E+04  0.50400001928E-02 0.  1.
       -1    1    3    3    0  502 -0.24710124022E+03 -0.56181084641E+03  0.26781237765E+03  0.66963715527E+03  0.50400001928E-02 0. -1.
</event>
<event>
 5   0  0.1346593E-03  0.1307821E+04  0.7818609E-02  0.9023386E-01
       -1   -1    0    0    0  501  0.00000000000E+00  0.00000000000E+00  0.27262721371E+03  0.27262721376E+03  0.50400001928E-02 0. -1.
        1   -1    0    0  501    0  0.00000000000E+00  0.00000000000E+00 -0.15684387558E+04  0.15684387558E+04  0.50400001928E-02 0.  1.
    10030    2    1    2    0    0  0.00000000000E+00  0.00000000000E+00 -0.12958115421E+04  0.18410659695E+04  0.13078212231E+04 0.  0.
        2    1    3    3  502    0  0.28474432515E+03 -0.47785472246E+03 -0.11318363658E+04  0.12611415564E+04  0.25500000920E-02 0.  1.
       -2    1    3    3    0  502 -0.28474432515E+03  0.47785472246E+03 -0.16397517630E+03  0.57992441312E+03  0.25500000920E-02 0. -1.
</event>
<event>
 5   0  0.1346593E-03  0.1295512E+04  0.7818609E-02  0.9033132E-01
       -1   -1    0    0    0  501  0.00000000000E+00  0.00000000000E+00  0.37399535289E+03  0.37399535293E+03  0.50400001928E-02 0. -1.
        1   -1    0    0  501    0  0.00000000000E+00  0.00000000000E+00 -0.11219063919E+04  0.11219063919E+04  0.50400001928E-02 0.  1.
    10030    2    1    2    0    0  0.00000000000E+00  0.00000000000E+00 -0.74791103903E+03  0.14959017449E+04  0.12955119096E+04 0.  0.
        2    1    3    3  502    0  0.30404543353E+03  0.50835450732E+03 -0.67664877793E+03  0.89928944141E+03  0.25500000920E-02 0. -1.
       -2    1    3    3    0  502 -0.30404543353E+03 -0.50835450732E+03 -0.71262261104E+02  0.59661230345E+03  0.25500000920E-02 0.  1.
</event>
<event>
 5   0  0.2478236E-03  0.1308198E+04  0.7818609E-02  0.9023089E-01
       -2   -1    0    0    0  501  0.00000000000E+00  0.00000000000E+00  0.74577132684E+03  0.74577132685E+03  0.25500000920E-02 0. -1.
        2   -1    0    0  501    0  0.00000000000E+00  0.00000000000E+00 -0.57369549920E+03  0.57369549920E+03  0.25500000920E-02 0.  1.
    10030    2    1    2    0    0  0.00000000000E+00  0.00000000000E+00  0.17207582765E+03  0.13194668261E+04  0.13081982321E+04 0.  0.
        3    1    3    3  502    0  0.44202023611E+03  0.42480299121E+03 -0.14397507742E+03  0.62973669385E+03  0.10100000352E+00 0.  1.
       -3    1    3    3    0  502 -0.44202023611E+03 -0.42480299121E+03  0.31605090506E+03  0.68973013220E+03  0.10100000352E+00 0. -1.
</event>
<event>
 5   0  0.2361043E-03  0.1293596E+04  0.7818609E-02  0.9034659E-01
       -2   -1    0    0    0  501  0.00000000000E+00  0.00000000000E+00  0.14678932565E+03  0.14678932567E+03  0.25500000920E-02 0. -1.
        2   -1    0    0  501    0  0.00000000000E+00  0.00000000000E+00 -0.28499855367E+04  0.28499855367E+04  0.25500000920E-02 0.  1.
    10030    2    1    2    0    0  0.00000000000E+00  0.00000000000E+00 -0.27031962111E+04  0.29967748624E+04  0.12935956943E+04 0.  0.
        2    1    3    3  502    0  0.25391341302E+03  0.58619650293E+03 -0.15861280430E+04  0.17099416745E+04  0.25500000920E-02 0.  1.
       -2    1    3    3    0  502 -0.25391341302E+03 -0.58619650293E+03 -0.11170681681E+04  0.12868331879E+04  0.25500000920E-02 0. -1.
</event>
<event>
 5   0  0.2361043E-03  0.1257637E+04  0.7818609E-02  0.9063851E-01
        2   -1    0    0  501    0  0.00000000000E+00  0.00000000000E+00  0.19857900424E+04  0.19857900424E+04  0.25500000920E-02 0.  1.
       -2   -1    0    0    0  501  0.00000000000E+00  0.00000000000E+00 -0.19912100071E+03  0.19912100073E+03  0.25500000920E-02 0. -1.
    10030    2    1    2    0    0  0.00000000000E+00  0.00000000000E+00  0.17866690417E+04  0.21849110432E+04  0.12576366732E+04 0.  0.
        2    1    3    3  502    0 -0.25484142641E+03  0.46712893676E+03  0.31124609210E+03  0.61646388866E+03  0.25500000920E-02 0. -1.
       -2    1    3    3    0  502  0.25484142641E+03 -0.46712893676E+03  0.14754229496E+04  0.15684471545E+04  0.25500000920E-02 0.  1.
</event>
<event>
 5   0  0.1310461E-03  0.1257031E+04  0.7818609E-02  0.9064352E-01
        1   -1    0    0  501    0  0.00000000000E+00  0.00000000000E+00  0.98992043262E+03  0.98992043263E+03  0.50400001928E-02 0.  1.
       -1   -1    0    0    0  501  0.00000000000E+00  0.00000000000E+00 -0.39905384864E+03  0.39905384867E+03  0.50400001928E-02 0. -1.
    10030    2    1    2    0    0  0.00000000000E+00  0.00000000000E+00  0.59086658398E+03  0.13889742813E+04  0.12570307212E+04 0.  0.
        4    1    3    3  502    0  0.26953615657E+03 -0.43987771000E+03  0.69212600996E+03  0.86323934457E+03  0.12699999809E+01 0.  1.
       -4    1    3    3    0  502 -0.26953615657E+03  0.43987771000E+03 -0.10125942599E+03  0.52573493673E+03  0.12699999809E+01 0. -1.
</event>
<event>
 5   0  0.1332630E-03  0.1297782E+04  0.7818609E-02  0.9031326E-01
       -1   -1    0    0    0  501  0.00000000000E+00  0.00000000000E+00  0.45054365319E+03  0.45054365321E+03  0.50400001928E-02 0.  1.
        1   -1    0    0  501    0  0.00000000000E+00  0.00000000000E+00 -0.93455893390E+03  0.93455893391E+03  0.50400001928E-02 0. -1.
    10030    2    1    2    0    0  0.00000000000E+00  0.00000000000E+00 -0.48401528071E+03  0.13851025871E+04  0.12977821022E+04 0.  0.
        5    1    3    3  502    0 -0.18080589291E+03 -0.34365122849E+03  0.31282687251E+03  0.49866790544E+03  0.46999998093E+01 0.  1.
       -5    1    3    3    0  502  0.18080589291E+03  0.34365122849E+03 -0.79684215322E+03  0.88643468169E+03  0.46999998093E+01 0. -1.
</event>
<event>
 5   0  0.2334946E-03  0.1308165E+04  0.7818609E-02  0.9023115E-01
       -2   -1    0    0    0  501  0.00000000000E+00  0.00000000000E+00  0.23023779972E+03  0.23023779974E+03  0.25500000920E-02 0. -1.
        2   -1    0    0  501    0  0.00000000000E+00  0.00000000000E+00 -0.18581823954E+04  0.18581823954E+04  0.25500000920E-02 0.  1.
    10030    2    1    2    0    0  0.00000000000E+00  0.00000000000E+00 -0.16279445957E+04  0.20884201952E+04  0.13081648615E+04 0.  0.
        1    1    3    3  502    0 -0.59863478729E+03 -0.70681785722E+02 -0.40863641693E+03  0.72824669217E+03  0.50400001928E-02 0. -1.
       -1    1    3    3    0  502  0.59863478729E+03  0.70681785722E+02 -0.12193081788E+04  0.13601735030E+04  0.50400001928E-02 0.  1.
</event>
<event>
 5   0  0.2478236E-03  0.1282419E+04  0.7818609E-02  0.9043625E-01
       -2   -1    0    0    0  501  0.00000000000E+00  0.00000000000E+00  0.25331355089E+03  0.25331355090E+03  0.25500000920E-02 0. -1.
        2   -1    0    0  501    0  0.00000000000E+00  0.00000000000E+00 -0.16230846895E+04  0.16230846895E+04  0.25500000920E-02 0.  1.
    10030    2    1    2    0    0  0.00000000000E+00  0.00000000000E+00 -0.13697711386E+04  0.18763982404E+04  0.12824185684E+04 0.  0.
        3    1    3    3  502    0  0.33202930324E+03 -0.29400750024E+03 -0.72847753849E+01  0.44355038785E+03  0.10100000352E+00 0. -1.
       -3    1    3    3    0  502 -0.33202930324E+03  0.29400750024E+03 -0.13624863633E+04  0.14328478526E+04  0.10100000352E+00 0.  1.
</event>
<event>
 5   0  0.9131250E-04  0.1314050E+04  0.7818609E-02  0.9018497E-01
       -4   -1    0    0    0  501  0.00000000000E+00  0.00000000000E+00  0.72722307283E+03  0.72722418177E+03  0.12699999809E+01 0.  1.
        4   -1    0    0  501    0  0.00000000000E+00  0.00000000000E+00 -0.59360077580E+03  0.59360213437E+03  0.12699999809E+01 0. -1.
    10030    2    1    2    0    0  0.00000000000E+00  0.00000000000E+00  0.13362229703E+03  0.13208263161E+04  0.13140499378E+04 0.  0.
        1    1    3    3  502    0  0.22876184095E+03  0.90980576792E+02  0.67910958296E+03  0.72235674768E+03  0.50400001928E-02 0.  1.
       -1    1    3    3    0  502 -0.22876184095E+03 -0.90980576792E+02 -0.54548728593E+03  0.59846956846E+03  0.50400001928E-02 0. -1.
</event>
<event>
 5   0  0.2478236E-03  0.1304577E+04  0.7818609E-02  0.9025943E-01
       -2   -1    0    0    0  501  0.00000000000E+00  0.00000000000E+00  0.33465326013E+03  0.33465326013E+03  0.25500000920E-02 0.  1.
        2   -1    0    0  501    0  0.00000000000E+00  0.00000000000E+00 -0.12714071334E+04  0.12714071334E+04  0.25500000920E-02 0. -1.
    10030    2    1    2    0    0  0.00000000000E+00  0.00000000000E+00 -0.93675387331E+03  0.16060603936E+04  0.13045773908E+04 0.  0.
        3    1    3    3  502    0 -0.26317196609E+03 -0.28734809408E+03  0.17563131790E+03  0.42740470393E+03  0.10100000352E+00 0.  1.
       -3    1    3    3    0  502  0.26317196609E+03  0.28734809408E+03 -0.11123851912E+04  0.11786556897E+04  0.10100000352E+00 0. -1.
</event>
<event>
 5   0  0.2361043E-03  0.1283691E+04  0.7818609E-02  0.9042600E-01
       -2   -1    0    0    0  501  0.00000000000E+00  0.00000000000E+00  0.51402802952E+03  0.51402802952E+03  0.25500000920E-02 0. -1.
        2   -1    0    0  501    0  0.00000000000E+00  0.00000000000E+00 -0.80144526267E+03  0.80144526268E+03  0.25500000920E-02 0.  1.
    10030    2    1    2    0    0  0.00000000000E+00  0.00000000000E+00 -0.28741723315E+03  0.13154732922E+04  0.12836905065E+04 0.  0.
        2    1    3    3  502    0 -0.11412206207E+03 -0.14514357878E+03  0.48622630598E+03  0.52010241697E+03  0.25500000920E-02 0. -1.
       -2    1    3    3    0  502  0.11412206207E+03  0.14514357878E+03 -0.77364353913E+03  0.79537087523E+03  0.25500000920E-02 0.  1.
</event>
<event>
 5   0  0.2312105E-03  0.1405293E+04  0.7818609E-02  0.8949996E-01
        2   -1    0    0  501    0  0.00000000000E+00  0.00000000000E+00  0.94440721554E+03  0.94440721554E+03  0.25500000920E-02 0.  1.
       -2   -1    0    0    0  501  0.00000000000E+00  0.00000000000E+00 -0.52277423525E+03  0.52277423526E+03  0.25500000920E-02 0. -1.
    10030    2    1    2    0    0  0.00000000000E+00  0.00000000000E+00  0.42163298029E+03  0.14671814508E+04  0.14052925103E+04 0.  0.
        5    1    3    3  502    0  0.16648574063E+03 -0.39635399499E+02 -0.50066525913E+03  0.52912782806E+03  0.46999998093E+01 0. -1.
       -5    1    3    3    0  502 -0.16648574063E+03  0.39635399499E+02  0.92229823941E+03  0.93805362275E+03  0.46999998093E+01 0.  1.
</event>
<event>
 5   0  0.1387622E-03  0.1316534E+04  0.7818609E-02  0.9016555E-01
       -1   -1    0    0    0  501  0.00000000000E+00  0.00000000000E+00  0.36551380603E+03  0.36551380607E+03  0.50400001928E-02 0. -1.
        1   -1    0    0  501    0  0.00000000000E+00  0.00000000000E+00 -0.11854972742E+04  0.11854972743E+04  0.50400001928E-02 0.  1.
    10030    2    1    2    0    0  0.00000000000E+00  0.00000000000E+00 -0.81998346822E+03  0.15510110803E+04  0.13165342696E+04 0.  0.
        3    1    3    3  502    0 -0.24414690852E+03  0.20127004010E+03 -0.10900311725E+04  0.11350265676E+04  0.10100000352E+00 0.  1.
       -3    1    3    3    0  502  0.24414690852E+03 -0.20127004010E+03  0.27004770431E+03  0.41598451268E+03  0.10100000352E+00 0. -1.
</event>
<event>
 5   0  0.1332630E-03  0.1285728E+04  0.7818609E-02  0.9040960E-01
       -1   -1    0    0    0  501  0.00000000000E+00  0.00000000000E+00  0.17860779216E+03  0.17860779223E+03  0.50400001928E-02 0. -1.
        1   -1    0    0  501    0  0.00000000000E+00  0.00000000000E+00 -0.23138637684E+04  0.23138637684E+04  0.50400001928E-02 0.  1.
    10030    2    1    2    0    0  0.00000000000E+00  0.00000000000E+00 -0.21352559762E+04  0.24924715606E+04  0.12857279636E+04 0.  0.
        5    1    3    3  502    0 -0.11439474523E+03 -0.37433461903E+03 -0.79073216368E+02  0.39935852098E+03  0.46999998093E+01 0. -1.
       -5    1    3    3    0  502  0.11439474523E+03  0.37433461903E+03 -0.20561827599E+04  0.20931130396E+04  0.46999998093E+01 0.  1.
</event>
<event>
 5   0  0.2334946E-03  0.1327754E+04  0.7818609E-02  0.9007841E-01
        2   -1    0    0  501    0  0.00000000000E+00  0.00000000000E+00  0.11529880962E+04  0.11529880962E+04  0.25500000920E-02 0.  1.
       -2   -1    0    0    0  501  0.00000000000E+00  0.00000000000E+00 -0.38225280491E+03  0.38225280491E+03  0.25500000920E-02 0. -1.
    10030    2    1    2    0    0  0.00000000000E+00  0.00000000000E+00  0.77073529131E+03  0.15352409011E+04  0.13277543957E+04 0.  0.
        1    1    3    3  502    0  0.21111856312E+03  0.43806042240E+03 -0.13721587797E+03  0.50526842228E+03  0.50400001928E-02 0.  1.
       -1    1    3    3    0  502 -0.21111856312E+03 -0.43806042240E+03  0.90795116928E+03  0.10299724789E+04  0.50400001928E-02 0. -1.
</event>
<event>
 5   0  0.1346593E-03  0.1312126E+04  0.7818609E-02  0.9020004E-01
        1   -1    0    0  501    0  0.00000000000E+00  0.00000000000E+00  0.36028149656E+03  0.36028149660E+03  0.50400001928E-02 0. -1.
       -1   -1    0    0    0  501  0.00000000000E+00  0.00000000000E+00 -0.11946729354E+04  0.11946729354E+04  0.50400001928E-02 0.  1.
    10030    2    1    2    0    0  0.00000000000E+00  0.00000000000E+00 -0.83439143882E+03  0.15549544320E+04  0.13121258371E+04 0.  0.
        2    1    3    3  502    0  0.95997186982E+02  0.45365541929E+02  0.35003212444E+03  0.36578132873E+03  0.25500000920E-02 0. -1.
       -2    1    3    3    0  502 -0.95997186982E+02 -0.45365541929E+02 -0.11844235633E+04  0.11891731033E+04  0.25500000920E-02 0.  1.
</event>
<event>
 5   0  0.2361043E-03  0.1126231E+04  0.7818609E-02  0.9179996E-01
        2   -1    0    0  501    0  0.00000000000E+00  0.00000000000E+00  0.74118923642E+03  0.74118923643E+03  0.25500000920E-02 0. -1.
       -2   -1    0    0    0  501  0.00000000000E+00  0.00000000000E+00 -0.42782438994E+03  0.42782438994E+03  0.25500000920E-02 0.  1.
    10030    2    1    2    0    0  0.00000000000E+00  0.00000000000E+00  0.31336484649E+03  0.11690136264E+04  0.11262305855E+04 0.  0.
        2    1    3    3  502    0  0.22174287413E+03  0.11447325919E+03 -0.36729563976E+03  0.44404967772E+03  0.25500000920E-02 0.  1.
       -2    1    3    3    0  502 -0.22174287413E+03 -0.11447325919E+03  0.68066048625E+03  0.72496394865E+03  0.25500000920E-02 0. -1.
</event>
<event>
 5   0  0.1324721E-03  0.1302080E+04  0.7818609E-02  0.9027917E-01
        1   -1    0    0  501    0  0.00000000000E+00  0.00000000000E+00  0.13351638912E+04  0.13351638912E+04  0.50400001928E-02 0. -1.
       -1   -1    0    0    0  501  0.00000000000E+00  0.00000000000E+00 -0.31745403238E+03  0.31745403242E+03  0.50400001928E-02 0.  1.
    10030    2    1    2    0    0  0.00000000000E+00  0.00000000000E+00  0.10177098588E+04  0.16526179236E+04  0.13020801222E+04 0.  0.
        1    1    3    3  502    0  0.19761772856E+03 -0.21985369098E+03  0.12450697145E+04  0.12796823848E+04  0.50400001928E-02 0. -1.
       -1    1    3    3    0  502 -0.19761772856E+03  0.21985369098E+03 -0.22735985570E+03  0.37293553878E+03  0.50400001928E-02 0.  1.
</event>
<event>
 5   0  0.2401211E-03  0.1304818E+04  0.7818609E-02  0.9025753E-01
       -2   -1    0    0    0  501  0.00000000000E+00  0.00000000000E+00  0.12023123109E+04  0.12023123109E+04  0.25500000920E-02 0. -1.
        2   -1    0    0  501    0  0.00000000000E+00  0.00000000000E+00 -0.35401588116E+03  0.35401588116E+03  0.25500000920E-02 0.  1.
    10030    2    1    2    0    0  0.00000000000E+00  0.00000000000E+00  0.84829642974E+03  0.15563281921E+04  0.13048182282E+04 0.  0.
        4    1    3    3  502    0  0.51330324688E+03  0.24623193488E+03  0.80419674682E+03  0.98531437091E+03  0.12699999809E+01 0. -1.
       -4    1    3    3    0  502 -0.51330324688E+03 -0.24623193488E+03  0.44099682918E+02  0.57101382116E+03  0.12699999809E+01 0.  1.
</event>
<event>
 5   0  0.1310461E-03  0.1308042E+04  0.7818609E-02  0.9023212E-01
       -1   -1    0    0    0  501  0.00000000000E+00  0.00000000000E+00  0.39026961430E+03  0.39026961433E+03  0.50400001928E-02 0.  1.
        1   -1    0    0  501    0  0.00000000000E+00  0.00000000000E+00 -0.10960201604E+04  0.10960201604E+04  0.50400001928E-02 0. -1.
    10030    2    1    2    0    0  0.00000000000E+00  0.00000000000E+00 -0.70575054607E+03  0.14862897747E+04  0.13080418423E+04 0.  0.
        4    1    3    3  502    0  0.57845472588E+03  0.19724983118E+03 -0.61746877677E+03  0.86878459297E+03  0.12699999809E+01 0.  1.
       -4    1    3    3    0  502 -0.57845472588E+03 -0.19724983118E+03 -0.88281769297E+02  0.61750518175E+03  0.12699999809E+01 0. -1.
</event>
<event>
 5   0  0.2312105E-03  0.1262792E+04  0.7818609E-02  0.9059603E-01
        2   -1    0    0  501    0  0.00000000000E+00  0.00000000000E+00  0.46181191053E+03  0.46181191054E+03  0.25500000920E-02 0.  1.
       -2   -1    0    0    0  501  0.00000000000E+00  0.00000000000E+00 -0.86325427762E+03  0.86325427762E+03  0.25500000920E-02 0. -1.
    10030    2    1    2    0    0  0.00000000000E+00  0.00000000000E+00 -0.40144236709E+03  0.13250661882E+04  0.12627923142E+04 0.  0.
        5    1    3    3  502    0 -0.39166329558E+03 -0.44330586149E+03  0.30887001659E+02  0.59236502328E+03  0.46999998093E+01 0.  1.
       -5    1    3    3    0  502  0.39166329558E+03  0.44330586149E+03 -0.43232936875E+03  0.73270116488E+03  0.46999998093E+01 0. -1.
</event>
<event>
 5   0  0.1346593E-03  0.1294503E+04  0.7818609E-02  0.9033935E-01
        1   -1    0    0  501    0  0.00000000000E+00  0.00000000000E+00  0.74647331764E+03  0.74647331766E+03  0.50400001928E-02 0.  1.
       -1   -1    0    0    0  501  0.00000000000E+00  0.00000000000E+00 -0.56121861523E+03  0.56121861526E+03  0.50400001928E-02 0. -1.
    10030    2    1    2    0    0  0.00000000000E+00  0.00000000000E+00  0.18525470241E+03  0.13076919329E+04  0.12945033359E+04 0.  0.
        2    1    3    3  502    0  0.52584234432E+03 -0.11613170111E+03 -0.27011035243E+03  0.60245858412E+03  0.25500000920E-02 0. -1.
       -2    1    3    3    0  502 -0.52584234432E+03  0.11613170111E+03  0.45536505484E+03  0.70523334880E+03  0.25500000920E-02 0.  1.
</event>
<event>
 5   0  0.1387622E-03  0.1181135E+04  0.7818609E-02  0.9129531E-01
        1   -1    0    0  501    0  0.00000000000E+00  0.00000000000E+00  0.21396199657E+03  0.21396199663E+03  0.50400001928E-02 0. -1.
       -1   -1    0    0    0  501  0.00000000000E+00  0.00000000000E+00 -0.16300551110E+04  0.16300551111E+04  0.50400001928E-02 0.  1.
    10030    2    1    2    0    0  0.00000000000E+00  0.00000000000E+00 -0.14160931145E+04  0.18440171077E+04  0.11811347868E+04 0.  0.
        3    1    3    3  502    0  0.47068187125E+03  0.34937831492E+03 -0.59586404207E+03  0.83585919729E+03  0.10100000352E+00 0. -1.
       -3    1    3    3    0  502 -0.47068187125E+03 -0.34937831492E+03 -0.82022907241E+03  0.10081579104E+04  0.10100000352E+00 0.  1.
</event>
<event>
 5   0  0.2334946E-03  0.1296180E+04  0.7818609E-02  0.9032600E-01
        2   -1    0    0  501    0  0.00000000000E+00  0.00000000000E+00  0.16098759574E+04  0.16098759574E+04  0.25500000920E-02 0.  1.
       -2   -1    0    0    0  501  0.00000000000E+00  0.00000000000E+00 -0.26090241104E+03  0.26090241106E+03  0.25500000920E-02 0. -1.
    10030    2    1    2    0    0  0.00000000000E+00  0.00000000000E+00  0.13489735464E+04  0.18707783685E+04  0.12961798005E+04 0.  0.
        1    1    3    3  502    0  0.34237831794E+03  0.54820462879E+03  0.60573210363E+03  0.88581183612E+03  0.50400001928E-02 0.  1.
       -1    1    3    3    0  502 -0.34237831794E+03 -0.54820462879E+03  0.74324144273E+03  0.98496653234E+03  0.50400001928E-02 0. -1.
</event>
<event>
 5   0  0.1387622E-03  0.1359526E+04  0.7818609E-02  0.8983648E-01
       -1   -1    0    0    0  501  0.00000000000E+00  0.00000000000E+00  0.46955411890E+03  0.46955411893E+03  0.50400001928E-02 0. -1.
        1   -1    0    0  501    0  0.00000000000E+00  0.00000000000E+00 -0.98407744594E+03  0.98407744595E+03  0.50400001928E-02 0.  1.
    10030    2    1    2    0    0  0.00000000000E+00  0.00000000000E+00 -0.51452332704E+03  0.14536315649E+04  0.13595258263E+04 0.  0.
        3    1    3    3  502    0  0.20845804488E+02  0.65755474376E+03 -0.74350671107E+02  0.66207312368E+03  0.10100000352E+00 0.  1.
       -3    1    3    3    0  502 -0.20845804488E+02 -0.65755474376E+03 -0.44017265593E+03  0.79155844120E+03  0.10100000352E+00 0. -1.
</event>
<event>
 5   0  0.2334946E-03  0.1279138E+04  0.7818609E-02  0.9046274E-01
       -2   -1    0    0    0  501  0.00000000000E+00  0.00000000000E+00  0.70627810757E+03  0.70627810758E+03  0.25500000920E-02 0.  1.
        2   -1    0    0  501    0  0.00000000000E+00  0.00000000000E+00 -0.57916075949E+03  0.57916075950E+03  0.25500000920E-02 0. -1.
    10030    2    1    2    0    0  0.00000000000E+00  0.00000000000E+00  0.12711734808E+03  0.12854388671E+04  0.12791380929E+04 0.  0.
        1    1    3    3  502    0  0.84216098280E+01 -0.62971759489E+03  0.17561304813E+03  0.65380051661E+03  0.50400001928E-02 0. -1.
       -1    1    3    3    0  502 -0.84216098280E+01  0.62971759489E+03 -0.48495700045E+02  0.63163835046E+03  0.50400001928E-02 0.  1.
</event>
<event>
 5   0  0.1387622E-03  0.1296989E+04  0.7818609E-02  0.9031956E-01
        1   -1    0    0  501    0  0.00000000000E+00  0.00000000000E+00  0.80585388456E+03  0.80585388457E+03  0.50400001928E-02 0.  1.
       -1   -1    0    0    0  501  0.00000000000E+00  0.00000000000E+00 -0.52186264683E+03  0.52186264685E+03  0.50400001928E-02 0. -1.
    10030    2    1    2    0    0  0.00000000000E+00  0.00000000000E+00  0.28399123773E+03  0.13277165314E+04  0.12969888838E+04 0.  0.
        3    1    3    3  502    0  0.16291836973E+03 -0.62156656557E+03  0.52414477558E+02  0.64469735403E+03  0.10100000352E+00 0. -1.
       -3    1    3    3    0  502 -0.16291836973E+03  0.62156656557E+03  0.23157676017E+03  0.68301917739E+03  0.10100000352E+00 0.  1.
</event>
<event>
 5   0  0.1332630E-03  0.1385686E+04  0.7818609E-02  0.8964245E-01
       -1   -1    0    0    0  501  0.00000000000E+00  0.00000000000E+00  0.34630322901E+03  0.34630322905E+03  0.50400001928E-02 0. -1.
        1   -1    0    0  501    0  0.00000000000E+00  0.00000000000E+00 -0.13861590485E+04  0.13861590485E+04  0.50400001928E-02 0.  1.
    10030    2    1    2    0    0  0.00000000000E+00  0.00000000000E+00 -0.10398558195E+04  0.17324622775E+04  0.13856859016E+04 0.  0.
        5    1    3    3  502    0  0.32700302882E+03  0.60722633229E+03 -0.43742554635E+03  0.81671169826E+03  0.46999998093E+01 0. -1.
       -5    1    3    3    0  502 -0.32700302882E+03 -0.60722633229E+03 -0.60243027313E+03  0.91575057928E+03  0.46999998093E+01 0.  1.
</event>
<event>
 5   0  0.2401211E-03  0.1223487E+04  0.7818609E-02  0.9092543E-01
        2   -1    0    0  501    0  0.00000000000E+00  0.00000000000E+00  0.19021485799E+04  0.19021485799E+04  0.25500000920E-02 0. -1.
       -2   -1    0    0    0  501  0.00000000000E+00  0.00000000000E+00 -0.19674070670E+03  0.19674070671E+03  0.25500000920E-02 0.  1.
    10030    2    1    2    0    0  0.00000000000E+00  0.00000000000E+00  0.17054078732E+04  0.20988892866E+04  0.12234869119E+04 0.  0.
        4    1    3    3  502    0 -0.42788347776E+03 -0.16978688765E+03  0.16155498807E+03  0.48786625711E+03  0.12699999809E+01 0.  1.
       -4    1    3    3    0  502  0.42788347776E+03  0.16978688765E+03  0.15438528851E+04  0.16110230295E+04  0.12699999809E+01 0. -1.
</event>
<event>
 5   0  0.2361043E-03  0.1319740E+04  0.7818609E-02  0.9014056E-01
        2   -1    0    0  501    0  0.00000000000E+00  0.00000000000E+00  0.85638418818E+03  0.85638418818E+03  0.25500000920E-02 0.  1.
       -2   -1    0    0    0  501  0.00000000000E+00  0.00000000000E+00 -0.50844974146E+03  0.50844974147E+03  0.25500000920E-02 0. -1.
    10030    2    1    2    0    0  0.00000000000E+00  0.00000000000E+00  0.34793444672E+03  0.13648339297E+04  0.13197398518E+04 0.  0.
        2    1    3    3  502    0  0.19469295550E+03 -0.43937975407E+03 -0.29366516482E+03  0.56320435389E+03  0.25500000920E-02 0. -1.
       -2    1    3    3    0  502 -0.19469295550E+03  0.43937975407E+03  0.64159961153E+03  0.80162957576E+03  0.25500000920E-02 0.  1.
</event>
<event>
 5   0  0.1310461E-03  0.1277235E+04  0.7818609E-02  0.9047816E-01
       -1   -1    0    0    0  501  0.00000000000E+00  0.00000000000E+00  0.90385612609E+03  0.90385612610E+03  0.50400001928E-02 0. -1.
        1   -1    0    0  501    0  0.00000000000E+00  0.00000000000E+00 -0.45121352077E+03  0.45121352080E+03  0.50400001928E-02 0.  1.
    10030    2    1    2    0    0  0.00000000000E+00  0.00000000000E+00  0.45264260532E+03  0.13550696469E+04  0.12772346769E+04 0.  0.
        4    1    3    3  502    0 -0.29409521561E+03 -0.32175120269E+03 -0.26882605899E+03  0.51213757445E+03  0.12699999809E+01 0.  1.
       -4    1    3    3    0  502  0.29409521561E+03  0.32175120269E+03  0.72146866431E+03  0.84293207244E+03  0.12699999809E+01 0. -1.
</event>
<event>
 5   0  0.9131250E-04  0.1310415E+04  0.7818609E-02  0.9021346E-01
        3   -1    0    0  501    0  0.00000000000E+00  0.00000000000E+00  0.58633152543E+03  0.58633153413E+03  0.10100000352E+00 0. -1.
       -3   -1    0    0    0  501  0.00000000000E+00  0.00000000000E+00 -0.73217475808E+03  0.73217476505E+03  0.10100000352E+00 0.  1.
    10030    2    1    2    0    0  0.00000000000E+00  0.00000000000E+00 -0.14584323265E+03  0.13185062992E+04  0.13104154351E+04 0.  0.
        3    1    3    3  502    0  0.89665567420E+01  0.55083986044E+03 -0.42978340789E+03  0.69872651223E+03  0.10100000352E+00 0.  1.
       -3    1    3    3    0  502 -0.89665567420E+01 -0.55083986044E+03  0.28394017524E+03  0.61977978694E+03  0.10100000352E+00 0. -1.
</event>
<event>
 5   0  0.2312105E-03  0.1285517E+04  0.7818609E-02  0.9041130E-01
       -2   -1    0    0    0  501  0.00000000000E+00  0.00000000000E+00  0.39325282337E+03  0.39325282338E+03  0.25500000920E-02 0. -1.
        2   -1    0    0  501    0  0.00000000000E+00  0.00000000000E+00 -0.10505672537E+04  0.10505672537E+04  0.25500000920E-02 0.  1.
    10030    2    1    2    0    0  0.00000000000E+00  0.00000000000E+00 -0.65731443030E+03  0.14438200771E+04  0.12855170768E+04 0.  0.
        5    1    3    3  502    0 -0.12836377713E+02 -0.50999602203E+03 -0.76777001153E+03  0.92182080454E+03  0.46999998093E+01 0.  1.
       -5    1    3    3    0  502  0.12836377713E+02  0.50999602203E+03  0.11045558123E+03  0.52199927251E+03  0.46999998093E+01 0. -1.
</event>
<event>
 5   0  0.1310461E-03  0.1274659E+04  0.7818609E-02  0.9049906E-01
       -1   -1    0    0    0  501  0.00000000000E+00  0.00000000000E+00  0.25100204616E+03  0.25100204621E+03  0.50400001928E-02 0. -1.
        1   -1    0    0  501    0  0.00000000000E+00  0.00000000000E+00 -0.16182690700E+04  0.16182690700E+04  0.50400001928E-02 0.  1.
    10030    2    1    2    0    0  0.00000000000E+00  0.00000000000E+00 -0.13672670238E+04  0.18692711162E+04  0.12746589314E+04 0.  0.
        4    1    3    3  502    0  0.31860073590E+03  0.29577947162E+03 -0.18858570610E+00  0.43473391082E+03  0.12699999809E+01 0. -1.
       -4    1    3    3    0  502 -0.31860073590E+03 -0.29577947162E+03 -0.13670784381E+04  0.14345372054E+04  0.12699999809E+01 0.  1.
</event>
<event>
 5   0  0.2401211E-03  0.1273212E+04  0.7818609E-02  0.9051082E-01
       -2   -1    0    0    0  501  0.00000000000E+00  0.00000000000E+00  0.16636284365E+03  0.16636284367E+03  0.25500000920E-02 0. -1.
        2   -1    0    0  501    0  0.00000000000E+00  0.00000000000E+00 -0.24360430748E+04  0.24360430748E+04  0.25500000920E-02 0.  1.
    10030    2    1    2    0    0  0.00000000000E+00  0.00000000000E+00 -0.22696802311E+04  0.26024059184E+04  0.12732117706E+04 0.  0.
        4    1    3    3  502    0 -0.43329067879E+03 -0.50554162650E+02 -0.18715902569E+03  0.47468584294E+03  0.12699999809E+01 0. -1.
       -4    1    3    3    0  502  0.43329067879E+03  0.50554162650E+02 -0.20825212054E+04  0.21277200755E+04  0.12699999809E+01 0.  1.
</event>
<event>
 5   0  0.1346593E-03  0.1242106E+04  0.7818609E-02  0.9076779E-01
       -1   -1    0    0    0  501  0.00000000000E+00  0.00000000000E+00  0.44205361728E+03  0.44205361731E+03  0.50400001928E-02 0. -1.
        1   -1    0    0  501    0  0.00000000000E+00  0.00000000000E+00 -0.87253446006E+03  0.87253446007E+03  0.50400001928E-02 0.  1.
    10030    2    1    2    0    0  0.00000000000E+00  0.00000000000E+00 -0.43048084277E+03  0.13145880774E+04  0.12421062987E+04 0.  0.
        2    1    3    3  502    0  0.94612523748E+02 -0.59810402524E+03 -0.36122828888E+03  0.70509987332E+03  0.25500000920E-02 0.  1.
       -2    1    3    3    0  502 -0.94612523748E+02  0.59810402524E+03 -0.69252553891E+02  0.60948820406E+03  0.25500000920E-02 0. -1.
</event>
<event>
 5   0  0.1346593E-03  0.1207555E+04  0.7818609E-02  0.9106269E-01
        1   -1    0    0  501    0  0.00000000000E+00  0.00000000000E+00  0.72090702987E+03  0.72090702989E+03  0.50400001928E-02 0.  1.
       -1   -1    0    0    0  501  0.00000000000E+00  0.00000000000E+00 -0.50567875934E+03  0.50567875937E+03  0.50400001928E-02 0. -1.
    10030    2    1    2    0    0  0.00000000000E+00  0.00000000000E+00  0.21522827053E+03  0.12265857893E+04  0.12075551706E+04 0.  0.
        2    1    3    3  502    0  0.49753589306E+02 -0.41817342254E+03 -0.33187412769E+03  0.53617615352E+03  0.25500000920E-02 0. -1.
       -2    1    3    3    0  502 -0.49753589306E+02  0.41817342254E+03  0.54710239822E+03  0.69040963574E+03  0.25500000920E-02 0.  1.
</event>
<event>
 5   0  0.2361043E-03  0.1298210E+04  0.7818609E-02  0.9030986E-01
       -2   -1    0    0    0  501  0.00000000000E+00  0.00000000000E+00  0.29187723150E+03  0.29187723152E+03  0.25500000920E-02 0.  1.
        2   -1    0    0  501    0  0.00000000000E+00  0.00000000000E+00 -0.14435420112E+04  0.14435420112E+04  0.25500000920E-02 0. -1.
    10030    2    1    2    0    0  0.00000000000E+00  0.00000000000E+00 -0.11516647797E+04  0.17354192427E+04  0.12982096068E+04 0.  0.
        2    1    3    3  502    0 -0.63565942292E+03 -0.73019071087E+01 -0.75125540819E+03  0.98412443732E+03  0.25500000920E-02 0. -1.
       -2    1    3    3    0  502  0.63565942292E+03  0.73019071087E+01 -0.40040937147E+03  0.75129480536E+03  0.25500000920E-02 0.  1.
</event>
<event>
 5   0  0.1332630E-03  0.1314985E+04  0.7818609E-02  0.9017766E-01
       -1   -1    0    0    0  501  0.00000000000E+00  0.00000000000E+00  0.38872306780E+03  0.38872306783E+03  0.50400001928E-02 0. -1.
        1   -1    0    0  501    0  0.00000000000E+00  0.00000000000E+00 -0.11120929847E+04  0.11120929847E+04  0.50400001928E-02 0.  1.
    10030    2    1    2    0    0  0.00000000000E+00  0.00000000000E+00 -0.72336991688E+03  0.15008160525E+04  0.13149847097E+04 0.  0.
        5    1    3    3  502    0 -0.16774768117E+02 -0.19290698088E+03 -0.10787922202E+04  0.10960425359E+04  0.46999998093E+01 0.  1.
       -5    1    3    3    0  502  0.16774768117E+02  0.19290698088E+03  0.35542230329E+03  0.40477351666E+03  0.46999998093E+01 0. -1.
</event>
<event>
 5   0  0.1310461E-03  0.1293482E+04  0.7818609E-02  0.9034750E-01
        1   -1    0    0  501    0  0.00000000000E+00  0.00000000000E+00  0.12096135047E+04  0.12096135047E+04  0.50400001928E-02 0.  1.
       -1   -1    0    0    0  501  0.00000000000E+00  0.00000000000E+00 -0.34579129758E+03  0.34579129762E+03  0.50400001928E-02 0. -1.
    10030    2    1    2    0    0  0.00000000000E+00  0.00000000000E+00  0.86382220710E+03  0.15554048023E+04  0.12934818489E+04 0.  0.
        4    1    3    3  502    0  0.21830544172E+03 -0.44914615742E+03  0.92608027083E+03  0.10521481918E+04  0.12699999809E+01 0.  1.
       -4    1    3    3    0  502 -0.21830544172E+03  0.44914615742E+03 -0.62258063734E+02  0.50325661050E+03  0.12699999809E+01 0. -1.
</event>
<event>
 5   0  0.1332630E-03  0.1232251E+04  0.7818609E-02  0.9085086E-01
       -1   -1    0    0    0  501  0.00000000000E+00  0.00000000000E+00  0.22615265664E+03  0.22615265669E+03  0.50400001928E-02 0. -1.
        1   -1    0    0  501    0  0.00000000000E+00  0.00000000000E+00 -0.16785603972E+04  0.16785603972E+04  0.50400001928E-02 0.  1.
    10030    2    1    2    0    0  0.00000000000E+00  0.00000000000E+00 -0.14524077406E+04  0.19047130539E+04  0.12322514244E+04 0.  0.
        5    1    3    3  502    0 -0.61250211003E+03  0.31294555449E+02 -0.81700238586E+03  0.10215934478E+04  0.46999998093E+01 0.  1.
       -5    1    3    3    0  502  0.61250211003E+03 -0.31294555449E+02 -0.63540535474E+03  0.88311960619E+03  0.46999998093E+01 0. -1.
</event>
<event>
 5   0  0.2361043E-03  0.1305201E+04  0.7818609E-02  0.9025451E-01
        2   -1    0    0  501    0  0.00000000000E+00  0.00000000000E+00  0.98501024461E+03  0.98501024461E+03  0.25500000920E-02 0.  1.
       -2   -1    0    0    0  501  0.00000000000E+00  0.00000000000E+00 -0.43236845179E+03  0.43236845179E+03  0.25500000920E-02 0. -1.
    10030    2    1    2    0    0  0.00000000000E+00  0.00000000000E+00  0.55264179282E+03  0.14173786964E+04  0.13052009109E+04 0.  0.
        2    1    3    3  502    0  0.79788896821E+02  0.40815391207E+02  0.97829555318E+03  0.98239215876E+03  0.25500000920E-02 0.  1.
       -2    1    3    3    0  502 -0.79788896821E+02 -0.40815391207E+02 -0.42565376036E+03  0.43498653764E+03  0.25500000920E-02 0. -1.
</event>
<event>
 5   0  0.2361043E-03  0.1300489E+04  0.7818609E-02  0.9029178E-01
        2   -1    0    0  501    0  0.00000000000E+00  0.00000000000E+00  0.93102108118E+03  0.93102108119E+03  0.25500000920E-02 0. -1.
       -2   -1    0    0    0  501  0.00000000000E+00  0.00000000000E+00 -0.45414424824E+03  0.45414424824E+03  0.25500000920E-02 0.  1.
    10030    2    1    2    0    0  0.00000000000E+00  0.00000000000E+00  0.47687683295E+03  0.13851653294E+04  0.13004889373E+04 0.  0.
        2    1    3    3  502    0  0.46672458625E+03 -0.38661982070E+03 -0.12510334614E+02  0.60618745751E+03  0.25500000920E-02 0.  1.
       -2    1    3    3    0  502 -0.46672458625E+03  0.38661982070E+03  0.48938716756E+03  0.77897787192E+03  0.25500000920E-02 0. -1.
</event>
<event>
 5   0  0.1324721E-03  0.1370546E+04  0.7818609E-02  0.8975419E-01
        1   -1    0    0  501    0  0.00000000000E+00  0.00000000000E+00  0.54984410125E+03  0.54984410127E+03  0.50400001928E-02 0. -1.
       -1   -1    0    0    0  501  0.00000000000E+00  0.00000000000E+00 -0.85405868729E+03  0.85405868731E+03  0.50400001928E-02 0.  1.
    10030    2    1    2    0    0  0.00000000000E+00  0.00000000000E+00 -0.30421458605E+03  0.14039027886E+04  0.13705460683E+04 0.  0.
        1    1    3    3  502    0 -0.12734715256E+03  0.40036671326E+03 -0.70665978470E+03  0.82211851560E+03  0.50400001928E-02 0.  1.
       -1    1    3    3    0  502  0.12734715256E+03 -0.40036671326E+03  0.40244519865E+03  0.58178427299E+03  0.50400001928E-02 0. -1.
</event>
<event>
 5   0  0.2478236E-03  0.1316084E+04  0.7818609E-02  0.9016907E-01
        2   -1    0    0  501    0  0.00000000000E+00  0.00000000000E+00  0.50043172049E+03  0.50043172049E+03  0.25500000920E-02 0. -1.
       -2   -1    0    0    0  501  0.00000000000E+00  0.00000000000E+00 -0.86529122289E+03  0.86529122289E+03  0.25500000920E-02 0.  1.
    10030    2    1    2    0    0  0.00000000000E+00  0.00000000000E+00 -0.36485950240E+03  0.13657229434E+04  0.13160838505E+04 0.  0.
        3    1    3    3  502    0 -0.58186812408E+03  0.62296051369E+02  0.12986600491E+03  0.59943014711E+03  0.10100000352E+00 0. -1.
       -3    1    3    3    0  502  0.58186812408E+03 -0.62296051369E+02 -0.49472550731E+03  0.76629279627E+03  0.10100000352E+00 0.  1.
</event>
<event>
 5   0  0.2478236E-03  0.1306387E+04  0.7818609E-02  0.9024516E-01
       -2   -1    0    0    0  501  0.00000000000E+00  0.00000000000E+00  0.21868780096E+03  0.21868780098E+03  0.25500000920E-02 0. -1.
        2   -1    0    0  501    0  0.00000000000E+00  0.00000000000E+00 -0.19510083840E+04  0.19510083840E+04  0.25500000920E-02 0.  1.
    10030    2    1    2    0    0  0.00000000000E+00  0.00000000000E+00 -0.17323205830E+04  0.21696961850E+04  0.13063869766E+04 0.  0.
        3    1    3    3  502    0  0.23253787654E+03  0.10248732855E+03 -0.18655430993E+04  0.18827715162E+04  0.10100000352E+00 0.  1.
       -3    1    3    3    0  502 -0.23253787654E+03 -0.10248732855E+03  0.13322251625E+03  0.28692466882E+03  0.10100000352E+00 0. -1.
</event>
<event>
 5   0  0.2401211E-03  0.1268535E+04  0.7818609E-02  0.9054897E-01
        2   -1    0    0  501    0  0.00000000000E+00  0.00000000000E+00  0.16167763367E+04  0.16167763367E+04  0.25500000920E-02 0.  1.
       -2   -1    0    0    0  501  0.00000000000E+00  0.00000000000E+00 -0.24882537688E+03  0.24882537690E+03  0.25500000920E-02 0. -1.
    10030    2    1    2    0    0  0.00000000000E+00  0.00000000000E+00  0.13679509599E+04  0.18656017136E+04  0.12685345582E+04 0.  0.
        4    1    3    3  502    0  0.34467964606E+02  0.21815539986E+03  0.15583946314E+04  0.15739679982E+04  0.12699999809E+01 0.  1.
       -4    1    3    3    0  502 -0.34467964606E+02 -0.21815539986E+03 -0.19044367156E+03  0.29163371549E+03  0.12699999809E+01 0. -1.
</event>
<event>
 5   0  0.1310461E-03  0.1269686E+04  0.7818609E-02  0.9053956E-01
       -1   -1    0    0    0  501  0.00000000000E+00  0.00000000000E+00  0.44681653673E+03  0.44681653675E+03  0.50400001928E-02 0.  1.
        1   -1    0    0  501    0  0.00000000000E+00  0.00000000000E+00 -0.90199344127E+03  0.90199344128E+03  0.50400001928E-02 0. -1.
    10030    2    1    2    0    0  0.00000000000E+00  0.00000000000E+00 -0.45517690454E+03  0.13488099780E+04  0.12696859227E+04 0.  0.
        4    1    3    3  502    0 -0.40558495919E+03  0.46947229308E+03 -0.37058992432E+03  0.72266305980E+03  0.12699999809E+01 0. -1.
       -4    1    3    3    0  502  0.40558495919E+03 -0.46947229308E+03 -0.84586980224E+02  0.62614691824E+03  0.12699999809E+01 0.  1.
</event>
<event>
 5   0  0.1310461E-03  0.1332530E+04  0.7818609E-02  0.9004159E-01
       -1   -1    0    0    0  501  0.00000000000E+00  0.00000000000E+00  0.43459428696E+03  0.43459428699E+03  0.50400001928E-02 0. -1.
        1   -1    0    0  501    0  0.00000000000E+00  0.00000000000E+00 -0.10214339137E+04  0.10214339138E+04  0.50400001928E-02 0.  1.
    10030    2    1    2    0    0  0.00000000000E+00  0.00000000000E+00 -0.58683962679E+03  0.14560282007E+04  0.13325304401E+04 0.  0.
        4    1    3    3  502    0  0.25444472813E+03  0.38417660234E+03 -0.81924029518E+03  0.93994151712E+03  0.12699999809E+01 0.  1.
       -4    1    3    3    0  502 -0.25444472813E+03 -0.38417660234E+03  0.23240066838E+03  0.51608668363E+03  0.12699999809E+01 0. -1.
</event>
<event>
 5   0  0.2312105E-03  0.9642963E+03  0.7818609E-02  0.9348595E-01
        2   -1    0    0  501    0  0.00000000000E+00  0.00000000000E+00  0.67772759472E+03  0.67772759473E+03  0.25500000920E-02 0.  1.
       -2   -1    0    0    0  501  0.00000000000E+00  0.00000000000E+00 -0.34300928534E+03  0.34300928535E+03  0.25500000920E-02 0. -1.
    10030    2    1    2    0    0  0.00000000000E+00  0.00000000000E+00  0.33471830938E+03  0.10207368801E+04  0.96429634019E+03 0.  0.
        5    1    3    3  502    0  0.27997450098E+03  0.32028346730E+03  0.40752553421E+03  0.58912339255E+03  0.46999998093E+01 0.  1.
       -5    1    3    3    0  502 -0.27997450098E+03 -0.32028346730E+03 -0.72807224822E+02  0.43161348752E+03  0.46999998093E+01 0. -1.
</event>
<event>
 5   0  0.1310461E-03  0.1270976E+04  0.7818609E-02  0.9052903E-01
       -1   -1    0    0    0  501  0.00000000000E+00  0.00000000000E+00  0.42335783482E+03  0.42335783485E+03  0.50400001928E-02 0. -1.
        1   -1    0    0  501    0  0.00000000000E+00  0.00000000000E+00 -0.95390992221E+03  0.95390992222E+03  0.50400001928E-02 0.  1.
    10030    2    1    2    0    0  0.00000000000E+00  0.00000000000E+00 -0.53055208739E+03  0.13772677571E+04  0.12709763795E+04 0.  0.
        4    1    3    3  502    0 -0.37712513340E+03 -0.49655372095E+03 -0.39823463684E+03  0.73985228452E+03  0.12699999809E+01 0.  1.
       -4    1    3    3    0  502  0.37712513340E+03  0.49655372095E+03 -0.13231745054E+03  0.63741547255E+03  0.12699999809E+01 0. -1.
</event>
<event>
 5   0  0.2478236E-03  0.1296911E+04  0.7818609E-02  0.9032018E-01
        2   -1    0    0  501    0  0.00000000000E+00  0.00000000000E+00  0.16029532394E+04  0.16029532394E+04  0.25500000920E-02 0. -1.
       -2   -1    0    0    0  501  0.00000000000E+00  0.00000000000E+00 -0.26232492745E+03  0.26232492746E+03  0.25500000920E-02 0.  1.
    10030    2    1    2    0    0  0.00000000000E+00  0.00000000000E+00  0.13406283119E+04  0.18652781668E+04  0.12969110875E+04 0.  0.
        3    1    3    3  502    0 -0.47498106728E+03  0.28151692293E+03  0.18123456613E+03  0.58112371345E+03  0.10100000352E+00 0.  1.
       -3    1    3    3    0  502  0.47498106728E+03 -0.28151692293E+03  0.11593937458E+04  0.12841544534E+04  0.10100000352E+00 0. -1.
</event>
<event>
 5   0  0.2478236E-03  0.1286680E+04  0.7818609E-02  0.9040196E-01
        2   -1    0    0  501    0  0.00000000000E+00  0.00000000000E+00  0.11746629988E+04  0.11746629988E+04  0.25500000920E-02 0.  1.
       -2   -1    0    0    0  501  0.00000000000E+00  0.00000000000E+00 -0.35234449110E+03  0.35234449111E+03  0.25500000920E-02 0. -1.
    10030    2    1    2    0    0  0.00000000000E+00  0.00000000000E+00  0.82231850774E+03  0.15270074900E+04  0.12866795041E+04 0.  0.
        3    1    3    3  502    0  0.16573256892E+03 -0.62097544172E+03  0.37741951745E+03  0.74533434510E+03  0.10100000352E+00 0. -1.
       -3    1    3    3    0  502 -0.16573256892E+03  0.62097544172E+03  0.44489899029E+03  0.78167314486E+03  0.10100000352E+00 0.  1.
</event>
<event>
 5   0  0.1310461E-03  0.1263626E+04  0.7818609E-02  0.9058918E-01
        1   -1    0    0  501    0  0.00000000000E+00  0.00000000000E+00  0.11095041820E+04  0.11095041820E+04  0.50400001928E-02 0.  1.
       -1   -1    0    0    0  501  0.00000000000E+00  0.00000000000E+00 -0.35978941847E+03  0.35978941851E+03  0.50400001928E-02 0. -1.
    10030    2    1    2    0    0  0.00000000000E+00  0.00000000000E+00  0.74971476349E+03  0.14692936005E+04  0.12636263126E+04 0.  0.
        4    1    3    3  502    0  0.48732464204E+03 -0.31525247772E+03  0.66512097581E+03  0.88275532103E+03  0.12699999809E+01 0.  1.
       -4    1    3    3    0  502 -0.48732464204E+03  0.31525247772E+03  0.84593787681E+02  0.58653827945E+03  0.12699999809E+01 0. -1.
</event>
<event>
 5   0  0.1387622E-03  0.1297979E+04  0.7818609E-02  0.9031169E-01
       -1   -1    0    0    0  501  0.00000000000E+00  0.00000000000E+00  0.58714282656E+03  0.58714282658E+03  0.50400001928E-02 0. -1.
        1   -1    0    0  501    0  0.00000000000E+00  0.00000000000E+00 -0.71735121912E+03  0.71735121914E+03  0.50400001928E-02 0.  1.
    10030    2    1    2    0    0  0.00000000000E+00  0.00000000000E+00 -0.13020839256E+03  0.13044940457E+04  0.12979793873E+04 0.  0.
        3    1    3    3  502    0  0.14702664421E+03 -0.58808893611E+02 -0.69763760002E+03  0.71538349942E+03  0.10100000352E+00 0.  1.
       -3    1    3    3    0  502 -0.14702664421E+03  0.58808893611E+02  0.56742920746E+03  0.58911054630E+03  0.10100000352E+00 0. -1.
</event>
<event>
 5   0  0.1310461E-03  0.1296675E+04  0.7818609E-02  0.9032206E-01
        1   -1    0    0  501    0  0.00000000000E+00  0.00000000000E+00  0.94113829705E+03  0.94113829706E+03  0.50400001928E-02 0.  1.
       -1   -1    0    0    0  501  0.00000000000E+00  0.00000000000E+00 -0.44663091599E+03  0.44663091602E+03  0.50400001928E-02 0. -1.
    10030    2    1    2    0    0  0.00000000000E+00  0.00000000000E+00  0.49450738106E+03  0.13877692131E+04  0.12966749164E+04 0.  0.
        4    1    3    3  502    0  0.55494138030E+03  0.17093945854E+03  0.55588669610E+03  0.80386060100E+03  0.12699999809E+01 0.  1.
       -4    1    3    3    0  502 -0.55494138030E+03 -0.17093945854E+03 -0.61379315042E+02  0.58390861208E+03  0.12699999809E+01 0. -1.
</event>
<event>
 5   0  0.2312105E-03  0.1189139E+04  0.7818609E-02  0.9122417E-01
        2   -1    0    0  501    0  0.00000000000E+00  0.00000000000E+00  0.11212717981E+04  0.11212717981E+04  0.25500000920E-02 0.  1.
       -2   -1    0    0    0  501  0.00000000000E+00  0.00000000000E+00 -0.31527846436E+03  0.31527846437E+03  0.25500000920E-02 0. -1.
    10030    2    1    2    0    0  0.00000000000E+00  0.00000000000E+00  0.80599333375E+03  0.14365502625E+04  0.11891389333E+04 0.  0.
        5    1    3    3  502    0  0.16781760089E+03  0.21414011870E+03 -0.23564521609E+03  0.35995763010E+03  0.46999998093E+01 0. -1.
       -5    1    3    3    0  502 -0.16781760089E+03 -0.21414011870E+03  0.10416385498E+04  0.10765926324E+04  0.46999998093E+01 0.  1.
</event>
<event>
 5   0  0.1310461E-03  0.1277234E+04  0.7818609E-02  0.9047816E-01
        1   -1    0    0  501    0  0.00000000000E+00  0.00000000000E+00  0.51214359200E+03  0.51214359203E+03  0.50400001928E-02 0. -1.
       -1   -1    0    0    0  501  0.00000000000E+00  0.00000000000E+00 -0.79632258467E+03  0.79632258468E+03  0.50400001928E-02 0.  1.
    10030    2    1    2    0    0  0.00000000000E+00  0.00000000000E+00 -0.28417899266E+03  0.13084661767E+04  0.12772337436E+04 0.  0.
        4    1    3    3  502    0  0.54431368533E+03  0.46301340638E+02 -0.48094772297E+03  0.72782795173E+03  0.12699999809E+01 0.  1.
       -4    1    3    3    0  502 -0.54431368533E+03 -0.46301340638E+02  0.19676873030E+03  0.58063822498E+03  0.12699999809E+01 0. -1.
</event>
<event>
 5   0  0.9131250E-04  0.1314784E+04  0.7818609E-02  0.9017922E-01
        3   -1    0    0  501    0  0.00000000000E+00  0.00000000000E+00  0.10853070399E+04  0.10853070446E+04  0.10100000352E+00 0.  1.
       -3   -1    0    0    0  501  0.00000000000E+00  0.00000000000E+00 -0.39819565772E+03  0.39819567053E+03  0.10100000352E+00 0. -1.
    10030    2    1    2    0    0  0.00000000000E+00  0.00000000000E+00  0.68711138218E+03  0.14835027151E+04  0.13147844897E+04 0.  0.
        4    1    3    3  502    0 -0.41148575892E+03  0.51080228408E+03  0.29407064987E+03  0.71883145676E+03  0.12699999809E+01 0.  1.
       -4    1    3    3    0  502  0.41148575892E+03 -0.51080228408E+03  0.39304073230E+03  0.76467125836E+03  0.12699999809E+01 0. -1.
</event>
<event>
 5   0  0.1346593E-03  0.1263825E+04  0.7818609E-02  0.9058755E-01
       -1   -1    0    0    0  501  0.00000000000E+00  0.00000000000E+00  0.91909530396E+03  0.91909530397E+03  0.50400001928E-02 0.  1.
        1   -1    0    0  501    0  0.00000000000E+00  0.00000000000E+00 -0.43446341595E+03  0.43446341598E+03  0.50400001928E-02 0. -1.
    10030    2    1    2    0    0  0.00000000000E+00  0.00000000000E+00  0.48463188801E+03  0.13535587200E+04  0.12638248065E+04 0.  0.
        2    1    3    3  502    0 -0.44777315086E+03 -0.98535216153E+02 -0.22342002671E+03  0.51002597169E+03  0.25500000920E-02 0. -1.
       -2    1    3    3    0  502  0.44777315086E+03  0.98535216153E+02  0.70805191472E+03  0.84353274827E+03  0.25500000920E-02 0.  1.
</event>
<event>
 5   0  0.1332630E-03  0.1293659E+04  0.7818609E-02  0.9034609E-01
        1   -1    0    0  501    0  0.00000000000E+00  0.00000000000E+00  0.17863878750E+04  0.17863878750E+04  0.50400001928E-02 0. -1.
       -1   -1    0    0    0  501  0.00000000000E+00  0.00000000000E+00 -0.23420915149E+03  0.23420915154E+03  0.50400001928E-02 0.  1.
    10030    2    1    2    0    0  0.00000000000E+00  0.00000000000E+00  0.15521787235E+04  0.20205970265E+04  0.12936589790E+04 0.  0.
        5    1    3    3  502    0  0.12669025020E+03  0.25954332933E+03  0.16800550130E+04  0.17047052813E+04  0.46999998093E+01 0. -1.
       -5    1    3    3    0  502 -0.12669025020E+03 -0.25954332933E+03 -0.12787628952E+03  0.31589174525E+03  0.46999998093E+01 0.  1.
</event>
<event>
 5   0  0.2361043E-03  0.1309513E+04  0.7818609E-02  0.9022055E-01
        2   -1    0    0  501    0  0.00000000000E+00  0.00000000000E+00  0.18472715383E+04  0.18472715383E+04  0.25500000920E-02 0.  1.
       -2   -1    0    0    0  501  0.00000000000E+00  0.00000000000E+00 -0.23207543633E+03  0.23207543634E+03  0.25500000920E-02 0. -1.
    10030    2    1    2    0    0  0.00000000000E+00  0.00000000000E+00  0.16151961020E+04  0.20793469747E+04  0.13095134185E+04 0.  0.
        2    1    3    3  502    0  0.29449495693E+03 -0.43560834960E+03  0.14271235646E+04  0.15209088015E+04  0.25500000920E-02 0.  1.
       -2    1    3    3    0  502 -0.29449495693E+03  0.43560834960E+03  0.18807253739E+03  0.55843817314E+03  0.25500000920E-02 0. -1.
</event>
<event>
 5   0  0.2401211E-03  0.1309383E+04  0.7818609E-02  0.9022157E-01
        2   -1    0    0  501    0  0.00000000000E+00  0.00000000000E+00  0.14713236573E+04  0.14713236573E+04  0.25500000920E-02 0. -1.
       -2   -1    0    0    0  501  0.00000000000E+00  0.00000000000E+00 -0.29131670285E+03  0.29131670286E+03  0.25500000920E-02 0.  1.
    10030    2    1    2    0    0  0.00000000000E+00  0.00000000000E+00  0.11800069545E+04  0.17626403602E+04  0.13093833002E+04 0.  0.
        4    1    3    3  502    0  0.26214619871E+03 -0.86052647111E+02  0.13892351542E+04  0.14163691659E+04  0.12699999809E+01 0. -1.
       -4    1    3    3    0  502 -0.26214619871E+03  0.86052647111E+02 -0.20922819968E+03  0.34627119432E+03  0.12699999809E+01 0.  1.
</event>
<event>
 5   0  0.2478236E-03  0.1225573E+04  0.7818609E-02  0.9090762E-01
        2   -1    0    0  501    0  0.00000000000E+00  0.00000000000E+00  0.62349576353E+03  0.62349576353E+03  0.25500000920E-02 0. -1.
       -2   -1    0    0    0  501  0.00000000000E+00  0.00000000000E+00 -0.60226158920E+03  0.60226158920E+03  0.25500000920E-02 0.  1.
    10030    2    1    2    0    0  0.00000000000E+00  0.00000000000E+00  0.21234174331E+02  0.12257573527E+04  0.12255734158E+04 0.  0.
        3    1    3    3  502    0 -0.28254788304E+03  0.48978520110E+03 -0.22560618777E+03  0.60878650740E+03  0.10100000352E+00 0.  1.
       -3    1    3    3    0  502  0.28254788304E+03 -0.48978520110E+03  0.24684036210E+03  0.61697084533E+03  0.10100000352E+00 0. -1.
</event>
<event>
 5   0  0.1310461E-03  0.1251209E+04  0.7818609E-02  0.9069178E-01
        1   -1    0    0  501    0  0.00000000000E+00  0.00000000000E+00  0.47808226208E+03  0.47808226211E+03  0.50400001928E-02 0. -1.
       -1   -1    0    0    0  501  0.00000000000E+00  0.00000000000E+00 -0.81864761554E+03  0.81864761555E+03  0.50400001928E-02 0.  1.
    10030    2    1    2    0    0  0.00000000000E+00  0.00000000000E+00 -0.34056535346E+03  0.12967298777E+04  0.12512088617E+04 0.  0.
        4    1    3    3  502    0 -0.25114011735E+02 -0.44739001372E+03 -0.62273270410E+03  0.76719369889E+03  0.12699999809E+01 0.  1.
       -4    1    3    3    0  502  0.25114011735E+02  0.44739001372E+03  0.28216735064E+03  0.52953617877E+03  0.12699999809E+01 0. -1.
</event>
<event>
 5   0  0.1387622E-03  0.1317600E+04  0.7818609E-02  0.9015724E-01
        1   -1    0    0  501    0  0.00000000000E+00  0.00000000000E+00  0.12107469527E+04  0.12107469527E+04  0.50400001928E-02 0.  1.
       -1   -1    0    0    0  501  0.00000000000E+00  0.00000000000E+00 -0.35847060416E+03  0.35847060419E+03  0.50400001928E-02 0. -1.
    10030    2    1    2    0    0  0.00000000000E+00  0.00000000000E+00  0.85227634856E+03  0.15692175569E+04  0.13175996230E+04 0.  0.
        3    1    3    3  502    0  0.12636743008E+03  0.58474873235E+03  0.75471852994E+03  0.96306795035E+03  0.10100000352E+00 0.  1.
       -3    1    3    3    0  502 -0.12636743008E+03 -0.58474873235E+03  0.97557818627E+02  0.60614960657E+03  0.10100000352E+00 0. -1.
</event>
<event>
 5   0  0.1332630E-03  0.1293396E+04  0.7818609E-02  0.9034818E-01
        1   -1    0    0  501    0  0.00000000000E+00  0.00000000000E+00  0.99151261494E+03  0.99151261495E+03  0.50400001928E-02 0.  1.
       -1   -1    0    0    0  501  0.00000000000E+00  0.00000000000E+00 -0.42179843886E+03  0.42179843889E+03  0.50400001928E-02 0. -1.
    10030    2    1    2    0    0  0.00000000000E+00  0.00000000000E+00  0.56971417608E+03  0.14133110538E+04  0.12933962627E+04 0.  0.
        5    1    3    3  502    0 -0.40739994957E+03  0.12365002291E+03  0.81674279772E+03  0.92106185173E+03  0.46999998093E+01 0.  1.
       -5    1    3    3    0  502  0.40739994957E+03 -0.12365002291E+03 -0.24702862165E+03  0.49224920212E+03  0.46999998093E+01 0. -1.
</event>
<event>
 5   0  0.1332630E-03  0.1294353E+04  0.7818609E-02  0.9034055E-01
        1   -1    0    0  501    0  0.00000000000E+00  0.00000000000E+00  0.56238708394E+03  0.56238708396E+03  0.50400001928E-02 0. -1.
       -1   -1    0    0    0  501  0.00000000000E+00  0.00000000000E+00 -0.74474991929E+03  0.74474991931E+03  0.50400001928E-02 0.  1.
    10030    2    1    2    0    0  0.00000000000E+00  0.00000000000E+00 -0.18236283535E+03  0.13071370033E+04  0.12943534840E+04 0.  0.
        5    1    3    3  502    0  0.55556504985E+03  0.25728028391E+03  0.12057975233E+03  0.62402502816E+03  0.46999998093E+01 0. -1.
       -5    1    3    3    0  502 -0.55556504985E+03 -0.25728028391E+03 -0.30294258769E+03  0.68311197511E+03  0.46999998093E+01 0.  1.
</event>
<event>
 5   0  0.2361043E-03  0.1304995E+04  0.7818609E-02  0.9025613E-01
       -2   -1    0    0    0  501  0.00000000000E+00  0.00000000000E+00  0.44773899369E+03  0.44773899370E+03  0.25500000920E-02 0.  1.
        2   -1    0    0  501    0  0.00000000000E+00  0.00000000000E+00 -0.95089566901E+03  0.95089566901E+03  0.25500000920E-02 0. -1.
    10030    2    1    2    0    0  0.00000000000E+00  0.00000000000E+00 -0.50315667532E+03  0.13986346627E+04  0.13049951264E+04 0.  0.
        2    1    3    3  502    0  0.58294790400E+03  0.11268439330E+03 -0.54160046462E+03  0.80365234682E+03  0.25500000920E-02 0. -1.
       -2    1    3    3    0  502 -0.58294790400E+03 -0.11268439330E+03  0.38443789307E+02  0.59498231588E+03  0.25500000920E-02 0.  1.
</event>
<event>
 5   0  0.2361043E-03  0.1310013E+04  0.7818609E-02  0.9021662E-01
        2   -1    0    0  501    0  0.00000000000E+00  0.00000000000E+00  0.91401990818E+03  0.91401990819E+03  0.25500000920E-02 0. -1.
       -2   -1    0    0    0  501  0.00000000000E+00  0.00000000000E+00 -0.46939199435E+03  0.46939199435E+03  0.25500000920E-02 0.  1.
    10030    2    1    2    0    0  0.00000000000E+00  0.00000000000E+00  0.44462791384E+03  0.13834119025E+04  0.13100131718E+04 0.  0.
        2    1    3    3  502    0  0.47929298899E+03  0.12995556600E+03 -0.22872715518E+03  0.54674155682E+03  0.25500000920E-02 0.  1.
       -2    1    3    3    0  502 -0.47929298899E+03 -0.12995556600E+03  0.67335506902E+03  0.83667034572E+03  0.25500000920E-02 0. -1.
</event>
<event>
 5   0  0.1387622E-03  0.1319917E+04  0.7818609E-02  0.9013918E-01
        1   -1    0    0  501    0  0.00000000000E+00  0.00000000000E+00  0.57687659626E+03  0.57687659628E+03  0.50400001928E-02 0. -1.
       -1   -1    0    0    0  501  0.00000000000E+00  0.00000000000E+00 -0.75500645051E+03  0.75500645053E+03  0.50400001928E-02 0.  1.
    10030    2    1    2    0    0  0.00000000000E+00  0.00000000000E+00 -0.17812985425E+03  0.13318830468E+04  0.13199174995E+04 0.  0.
        3    1    3    3  502    0  0.49751780440E+03 -0.11802749032E+02  0.34831838014E+03  0.60744462688E+03  0.10100000352E+00 0. -1.
       -3    1    3    3    0  502 -0.49751780440E+03  0.11802749032E+02 -0.52644823439E+03  0.72443841993E+03  0.10100000352E+00 0.  1.
</event>
<event>
 5   0  0.1324721E-03  0.1305110E+04  0.7818609E-02  0.9025523E-01
       -1   -1    0    0    0  501  0.00000000000E+00  0.00000000000E+00  0.21862914630E+03  0.21862914636E+03  0.50400001928E-02 0.  1.
        1   -1    0    0  501    0  0.00000000000E+00  0.00000000000E+00 -0.19477183381E+04  0.19477183382E+04  0.50400001928E-02 0. -1.
    10030    2    1    2    0    0  0.00000000000E+00  0.00000000000E+00 -0.17290891918E+04  0.21663474845E+04  0.13051099533E+04 0.  0.
        1    1    3    3  502    0  0.12821356449E+03  0.42146389386E+03 -0.65450569983E+02  0.44536985651E+03  0.50400001928E-02 0.  1.
       -1    1    3    3    0  502 -0.12821356449E+03 -0.42146389386E+03 -0.16636386219E+04  0.17209776280E+04  0.50400001928E-02 0. -1.
</event>
<event>
 5   0  0.2334946E-03  0.1300128E+04  0.7818609E-02  0.9029464E-01
       -2   -1    0    0    0  501  0.00000000000E+00  0.00000000000E+00  0.26661172034E+03  0.26661172035E+03  0.25500000920E-02 0. -1.
        2   -1    0    0  501    0  0.00000000000E+00  0.00000000000E+00 -0.15850136908E+04  0.15850136908E+04  0.25500000920E-02 0.  1.
    10030    2    1    2    0    0  0.00000000000E+00  0.00000000000E+00 -0.13184019705E+04  0.18516254112E+04  0.13001280351E+04 0.  0.
        1    1    3    3  502    0 -0.40930849785E+03  0.49941393777E+03 -0.55228732317E+03  0.84968759848E+03  0.50400001928E-02 0. -1.
       -1    1    3    3    0  502  0.40930849785E+03 -0.49941393777E+03 -0.76611464733E+03  0.10019378127E+04  0.50400001928E-02 0.  1.
</event>
<event>
 5   0  0.2312105E-03  0.1324896E+04  0.7818609E-02  0.9010052E-01
       -2   -1    0    0    0  501  0.00000000000E+00  0.00000000000E+00  0.73739503915E+03  0.73739503915E+03  0.25500000920E-02 0.  1.
        2   -1    0    0  501    0  0.00000000000E+00  0.00000000000E+00 -0.59511866586E+03  0.59511866587E+03  0.25500000920E-02 0. -1.
    10030    2    1    2    0    0  0.00000000000E+00  0.00000000000E+00  0.14227637329E+03  0.13325137050E+04  0.13248963007E+04 0.  0.
        5    1    3    3  502    0  0.32540889962E+03  0.82856951304E+02 -0.50316080007E+03  0.60493727531E+03  0.46999998093E+01 0. -1.
       -5    1    3    3    0  502 -0.32540889962E+03 -0.82856951304E+02  0.64543717335E+03  0.72757642972E+03  0.46999998093E+01 0.  1.
</event>
<event>
 5   0  0.1346593E-03  0.1306633E+04  0.7818609E-02  0.9024322E-01
       -1   -1    0    0    0  501  0.00000000000E+00  0.00000000000E+00  0.40651890732E+03  0.40651890735E+03  0.50400001928E-02 0.  1.
        1   -1    0    0  501    0  0.00000000000E+00  0.00000000000E+00 -0.10499443201E+04  0.10499443201E+04  0.50400001928E-02 0. -1.
    10030    2    1    2    0    0  0.00000000000E+00  0.00000000000E+00 -0.64342541281E+03  0.14564632275E+04  0.13066326458E+04 0.  0.
        2    1    3    3  502    0 -0.61028162819E+03  0.13404851622E+03 -0.53440593293E+03  0.82219363386E+03  0.25500000920E-02 0. -1.
       -2    1    3    3    0  502  0.61028162819E+03 -0.13404851622E+03 -0.10901947988E+03  0.63426959363E+03  0.25500000920E-02 0.  1.
</event>
<event>
 5   0  0.1346593E-03  0.1376299E+04  0.7818609E-02  0.8971155E-01
        1   -1    0    0  501    0  0.00000000000E+00  0.00000000000E+00  0.42373943106E+03  0.42373943109E+03  0.50400001928E-02 0.  1.
       -1   -1    0    0    0  501  0.00000000000E+00  0.00000000000E+00 -0.11175498367E+04  0.11175498367E+04  0.50400001928E-02 0. -1.
    10030    2    1    2    0    0  0.00000000000E+00  0.00000000000E+00 -0.69381040562E+03  0.15412892678E+04  0.13762992872E+04 0.  0.
        2    1    3    3  502    0 -0.22517069244E+03  0.14124008013E+03  0.36393100702E+03  0.45066215599E+03  0.25500000920E-02 0.  1.
       -2    1    3    3    0  502  0.22517069244E+03 -0.14124008013E+03 -0.10577414126E+04  0.10906271118E+04  0.25500000920E-02 0. -1.
</event>
<event>
 5   0  0.1387622E-03  0.1286183E+04  0.7818609E-02  0.9040594E-01
       -1   -1    0    0    0  501  0.00000000000E+00  0.00000000000E+00  0.34189658663E+03  0.34189658667E+03  0.50400001928E-02 0. -1.
        1   -1    0    0  501    0  0.00000000000E+00  0.00000000000E+00 -0.12096252609E+04  0.12096252609E+04  0.50400001928E-02 0.  1.
    10030    2    1    2    0    0  0.00000000000E+00  0.00000000000E+00 -0.86772867427E+03  0.15515218476E+04  0.12861831096E+04 0.  0.
        3    1    3    3  502    0  0.21658184343E+03  0.60753312393E+01  0.29654183314E+03  0.36726240423E+03  0.10100000352E+00 0. -1.
       -3    1    3    3    0  502 -0.21658184343E+03 -0.60753312393E+01 -0.11642705074E+04  0.11842594434E+04  0.10100000352E+00 0.  1.
</event>
<event>
 5   0  0.2478236E-03  0.1297723E+04  0.7818609E-02  0.9031373E-01
        2   -1    0    0  501    0  0.00000000000E+00  0.00000000000E+00  0.96172339263E+03  0.96172339263E+03  0.25500000920E-02 0.  1.
       -2   -1    0    0    0  501  0.00000000000E+00  0.00000000000E+00 -0.43777758690E+03  0.43777758691E+03  0.25500000920E-02 0. -1.
    10030    2    1    2    0    0  0.00000000000E+00  0.00000000000E+00  0.52394580573E+03  0.13995009795E+04  0.12977225375E+04 0.  0.
        3    1    3    3  502    0 -0.68500282126E+02  0.46498186246E+03 -0.22046027277E+03  0.51913694064E+03  0.10100000352E+00 0. -1.
       -3    1    3    3    0  502  0.68500282126E+02 -0.46498186246E+03  0.74440607850E+03  0.88036403890E+03  0.10100000352E+00 0.  1.
</event>
<event>
 5   0  0.1332630E-03  0.1304936E+04  0.7818609E-02  0.9025660E-01
        1   -1    0    0  501    0  0.00000000000E+00  0.00000000000E+00  0.84291352544E+03  0.84291352546E+03  0.50400001928E-02 0. -1.
       -1   -1    0    0    0  501  0.00000000000E+00  0.00000000000E+00 -0.50505096367E+03  0.50505096369E+03  0.50400001928E-02 0.  1.
    10030    2    1    2    0    0  0.00000000000E+00  0.00000000000E+00  0.33786256177E+03  0.13479644892E+04  0.13049356894E+04 0.  0.
        5    1    3    3  502    0 -0.15863449373E+03 -0.40407215542E+03  0.67207862949E+03  0.80009435919E+03  0.46999998093E+01 0. -1.
       -5    1    3    3    0  502  0.15863449373E+03  0.40407215542E+03 -0.33421606772E+03  0.54787012996E+03  0.46999998093E+01 0.  1.
</event>
<event>
 5   0  0.1346593E-03  0.1320863E+04  0.7818609E-02  0.9013182E-01
        1   -1    0    0  501    0  0.00000000000E+00  0.00000000000E+00  0.62990503993E+03  0.62990503995E+03  0.50400001928E-02 0. -1.
       -1   -1    0    0    0  501  0.00000000000E+00  0.00000000000E+00 -0.69243761750E+03  0.69243761751E+03  0.50400001928E-02 0.  1.
    10030    2    1    2    0    0  0.00000000000E+00  0.00000000000E+00 -0.62532577563E+02  0.13223426575E+04  0.13208632709E+04 0.  0.
        2    1    3    3  502    0  0.12657628830E+03 -0.29332500936E+03  0.54740258033E+03  0.63380651846E+03  0.25500000920E-02 0. -1.
       -2    1    3    3    0  502 -0.12657628830E+03  0.29332500936E+03 -0.60993515790E+03  0.68853613901E+03  0.25500000920E-02 0.  1.
</event>
<event>
 5   0  0.2478236E-03  0.1326737E+04  0.7818609E-02  0.9008627E-01
       -2   -1    0    0    0  501  0.00000000000E+00  0.00000000000E+00  0.35445632145E+03  0.35445632146E+03  0.25500000920E-02 0.  1.
        2   -1    0    0  501    0  0.00000000000E+00  0.00000000000E+00 -0.12415008891E+04  0.12415008891E+04  0.25500000920E-02 0. -1.
    10030    2    1    2    0    0  0.00000000000E+00  0.00000000000E+00 -0.88704456765E+03  0.15959572106E+04  0.13267371077E+04 0.  0.
        3    1    3    3  502    0  0.35495976081E+03  0.18525511120E+03  0.19270920290E+03  0.44435654052E+03  0.10100000352E+00 0.  1.
       -3    1    3    3    0  502 -0.35495976081E+03 -0.18525511120E+03 -0.10797537705E+04  0.11516006700E+04  0.10100000352E+00 0. -1.
</event>
<event>
 5   0  0.2312105E-03  0.1305591E+04  0.7818609E-02  0.9025143E-01
        2   -1    0    0  501    0  0.00000000000E+00  0.00000000000E+00  0.88025588267E+03  0.88025588267E+03  0.25500000920E-02 0.  1.
       -2   -1    0    0    0  501  0.00000000000E+00  0.00000000000E+00 -0.48411152372E+03  0.48411152373E+03  0.25500000920E-02 0. -1.
    10030    2    1    2    0    0  0.00000000000E+00  0.00000000000E+00  0.39614435895E+03  0.13643674064E+04  0.13055910794E+04 0.  0.
        5    1    3    3  502    0  0.37337305040E+03 -0.10130535045E+03  0.74752731561E+03  0.84171811574E+03  0.46999998093E+01 0.  1.
       -5    1    3    3    0  502 -0.37337305040E+03  0.10130535045E+03 -0.35138295666E+03  0.52264929065E+03  0.46999998093E+01 0. -1.
</event>
<event>
 5   0  0.2312105E-03  0.1312389E+04  0.7818609E-02  0.9019798E-01
       -2   -1    0    0    0  501  0.00000000000E+00  0.00000000000E+00  0.19089701649E+03  0.19089701651E+03  0.25500000920E-02 0.  1.
        2   -1    0    0  501    0  0.00000000000E+00  0.00000000000E+00 -0.22556216226E+04  0.22556216226E+04  0.25500000920E-02 0. -1.
    10030    2    1    2    0    0  0.00000000000E+00  0.00000000000E+00 -0.20647246061E+04  0.24465186391E+04  0.13123893296E+04 0.  0.
        5    1    3    3  502    0  0.37323007385E+03 -0.40264233451E+03 -0.36243240203E+03  0.65787603210E+03  0.46999998093E+01 0. -1.
       -5    1    3    3    0  502 -0.37323007385E+03  0.40264233451E+03 -0.17022922041E+04  0.17886426070E+04  0.46999998093E+01 0.  1.
</event>
<event>
 5   0  0.2312105E-03  0.1420805E+04  0.7818609E-02  0.8938895E-01
       -2   -1    0    0    0  501  0.00000000000E+00  0.00000000000E+00  0.20968963885E+03  0.20968963886E+03  0.25500000920E-02 0. -1.
        2   -1    0    0  501    0  0.00000000000E+00  0.00000000000E+00 -0.24067546606E+04  0.24067546606E+04  0.25500000920E-02 0.  1.
    10030    2    1    2    0    0  0.00000000000E+00  0.00000000000E+00 -0.21970650218E+04  0.26164442995E+04  0.14208047235E+04 0.  0.
        5    1    3    3  502    0 -0.45360092723E+03  0.24667930026E+03 -0.19970087268E+04  0.20626852458E+04  0.46999998093E+01 0.  1.
       -5    1    3    3    0  502  0.45360092723E+03 -0.24667930026E+03 -0.20005629496E+03  0.55375905366E+03  0.46999998093E+01 0. -1.
</event>
<event>
 5   0  0.2361043E-03  0.1343710E+04  0.7818609E-02  0.8995603E-01
        2   -1    0    0  501    0  0.00000000000E+00  0.00000000000E+00  0.46476155070E+03  0.46476155071E+03  0.25500000920E-02 0.  1.
       -2   -1    0    0    0  501  0.00000000000E+00  0.00000000000E+00 -0.97122739098E+03  0.97122739098E+03  0.25500000920E-02 0. -1.
    10030    2    1    2    0    0  0.00000000000E+00  0.00000000000E+00 -0.50646584028E+03  0.14359889417E+04  0.13437100109E+04 0.  0.
        2    1    3    3  502    0 -0.33461759031E+02 -0.88489738312E+02  0.45760773122E+03  0.46728466568E+03  0.25500000920E-02 0.  1.
       -2    1    3    3    0  502  0.33461759031E+02  0.88489738312E+02 -0.96407357149E+03  0.96870427601E+03  0.25500000920E-02 0. -1.
</event>
<event>
 5   0  0.2401211E-03  0.1311966E+04  0.7818609E-02  0.9020129E-01
        2   -1    0    0  501    0  0.00000000000E+00  0.00000000000E+00  0.23515693620E+04  0.23515693620E+04  0.25500000920E-02 0.  1.
       -2   -1    0    0    0  501  0.00000000000E+00  0.00000000000E+00 -0.18299009171E+03  0.18299009172E+03  0.25500000920E-02 0. -1.
    10030    2    1    2    0    0  0.00000000000E+00  0.00000000000E+00  0.21685792703E+04  0.25345594537E+04  0.13119663002E+04 0.  0.
        4    1    3    3  502    0  0.51146874132E+03 -0.16108528386E+03  0.18142318062E+04  0.18918211864E+04  0.12699999809E+01 0.  1.
       -4    1    3    3    0  502 -0.51146874132E+03  0.16108528386E+03  0.35434746416E+03  0.64273826732E+03  0.12699999809E+01 0. -1.
</event>
<event>
 5   0  0.2478236E-03  0.1293377E+04  0.7818609E-02  0.9034834E-01
        2   -1    0    0  501    0  0.00000000000E+00  0.00000000000E+00  0.76877759242E+03  0.76877759243E+03  0.25500000920E-02 0. -1.
       -2   -1    0    0    0  501  0.00000000000E+00  0.00000000000E+00 -0.54398847624E+03  0.54398847624E+03  0.25500000920E-02 0.  1.
    10030    2    1    2    0    0  0.00000000000E+00  0.00000000000E+00  0.22478911619E+03  0.13127660687E+04  0.12933772088E+04 0.  0.
        3    1    3    3  502    0 -0.45687089359E+03 -0.50249977890E+02 -0.34934270564E+03  0.57731829165E+03  0.10100000352E+00 0.  1.
       -3    1    3    3    0  502  0.45687089359E+03  0.50249977890E+02  0.57413182182E+03  0.73544777702E+03  0.10100000352E+00 0. -1.
</event>
<event>
 5   0  0.2312105E-03  0.1301427E+04  0.7818609E-02  0.9028435E-01
        2   -1    0    0  501    0  0.00000000000E+00  0.00000000000E+00  0.45176426994E+03  0.45176426995E+03  0.25500000920E-02 0. -1.
       -2   -1    0    0    0  501  0.00000000000E+00  0.00000000000E+00 -0.93727604440E+03  0.93727604440E+03  0.25500000920E-02 0.  1.
    10030    2    1    2    0    0  0.00000000000E+00  0.00000000000E+00 -0.48551177446E+03  0.13890403144E+04  0.13014266448E+04 0.  0.
        5    1    3    3  502    0  0.62526274722E+03 -0.15256639749E+03 -0.34499461847E+03  0.73025569869E+03  0.46999998093E+01 0. -1.
       -5    1    3    3    0  502 -0.62526274722E+03  0.15256639749E+03 -0.14051715599E+03  0.65878461566E+03  0.46999998093E+01 0.  1.
</event>
<event>
 5   0  0.2334946E-03  0.1309451E+04  0.7818609E-02  0.9022104E-01
        2   -1    0    0  501    0  0.00000000000E+00  0.00000000000E+00  0.53994106591E+03  0.53994106591E+03  0.25500000920E-02 0. -1.
       -2   -1    0    0    0  501  0.00000000000E+00  0.00000000000E+00 -0.79391119572E+03  0.79391119572E+03  0.25500000920E-02 0.  1.
    10030    2    1    2    0    0  0.00000000000E+00  0.00000000000E+00 -0.25397012981E+03  0.13338522616E+04  0.13094506593E+04 0.  0.
        1    1    3    3  502    0  0.26776096088E+03 -0.44642198269E+02  0.47991660254E+03  0.55136993340E+03  0.50400001928E-02 0. -1.
       -1    1    3    3    0  502 -0.26776096088E+03  0.44642198269E+02 -0.73388673235E+03  0.78248232823E+03  0.50400001928E-02 0.  1.
</event>
<event>
 5   0  0.9131250E-04  0.1301561E+04  0.7818609E-02  0.9028328E-01
       -3   -1    0    0    0  501  0.00000000000E+00  0.00000000000E+00  0.69251744740E+03  0.69251745477E+03  0.10100000352E+00 0.  1.
        3   -1    0    0  501    0  0.00000000000E+00  0.00000000000E+00 -0.61155926514E+03  0.61155927348E+03  0.10100000352E+00 0. -1.
    10030    2    1    2    0    0  0.00000000000E+00  0.00000000000E+00  0.80958182264E+02  0.13040767282E+04  0.13015613262E+04 0.  0.
        2    1    3    3  502    0  0.46894767360E+03 -0.50403804394E+02  0.48974617040E+03  0.67992924301E+03  0.25500000920E-02 0.  1.
       -2    1    3    3    0  502 -0.46894767360E+03  0.50403804394E+02 -0.40878798814E+03  0.62414748523E+03  0.25500000920E-02 0. -1.
</event>
<event>
 5   0  0.2334946E-03  0.1294157E+04  0.7818609E-02  0.9034212E-01
        2   -1    0    0  501    0  0.00000000000E+00  0.00000000000E+00  0.13949143140E+04  0.13949143140E+04  0.25500000920E-02 0. -1.
       -2   -1    0    0    0  501  0.00000000000E+00  0.00000000000E+00 -0.30016933667E+03  0.30016933668E+03  0.25500000920E-02 0.  1.
    10030    2    1    2    0    0  0.00000000000E+00  0.00000000000E+00  0.10947449773E+04  0.16950836507E+04  0.12941568751E+04 0.  0.
        1    1    3    3  502    0 -0.18962341368E+03  0.58278447109E+03  0.27540182517E+03  0.67189355116E+03  0.50400001928E-02 0. -1.
       -1    1    3    3    0  502  0.18962341368E+03 -0.58278447109E+03  0.81934315215E+03  0.10231900995E+04  0.50400001928E-02 0.  1.
</event>
<event>
 5   0  0.1346593E-03  0.1300213E+04  0.7818609E-02  0.9029397E-01
        1   -1    0    0  501    0  0.00000000000E+00  0.00000000000E+00  0.95038461030E+03  0.95038461032E+03  0.50400001928E-02 0.  1.
       -1   -1    0    0    0  501  0.00000000000E+00  0.00000000000E+00 -0.44470228169E+03  0.44470228171E+03  0.50400001928E-02 0. -1.
    10030    2    1    2    0    0  0.00000000000E+00  0.00000000000E+00  0.50568232862E+03  0.13950868920E+04  0.13002126052E+04 0.  0.
        2    1    3    3  502    0  0.18177209043E+02 -0.36260042439E+03 -0.32579495108E+03  0.48780306359E+03  0.25500000920E-02 0. -1.
       -2    1    3    3    0  502 -0.18177209043E+02  0.36260042439E+03  0.83147727970E+03  0.90728382844E+03  0.25500000920E-02 0.  1.
</event>
<event>
 5   0  0.2478236E-03  0.1282237E+04  0.7818609E-02  0.9043771E-01
        2   -1    0    0  501    0  0.00000000000E+00  0.00000000000E+00  0.38714184798E+03  0.38714184799E+03  0.25500000920E-02 0.  1.
       -2   -1    0    0    0  501  0.00000000000E+00  0.00000000000E+00 -0.10617120368E+04  0.10617120368E+04  0.25500000920E-02 0. -1.
    10030    2    1    2    0    0  0.00000000000E+00  0.00000000000E+00 -0.67457018885E+03  0.14488538848E+04  0.12822373571E+04 0.  0.
        3    1    3    3  502    0  0.37861330619E+03 -0.41920186564E+03  0.53592957096E+01  0.56489554081E+03  0.10100000352E+00 0.  1.
       -3    1    3    3    0  502 -0.37861330619E+03  0.41920186564E+03 -0.67992948456E+03  0.88395834402E+03  0.10100000352E+00 0. -1.
</event>
<event>
 5   0  0.1310461E-03  0.1320362E+04  0.7818609E-02  0.9013572E-01
        1   -1    0    0  501    0  0.00000000000E+00  0.00000000000E+00  0.10215774855E+04  0.10215774855E+04  0.50400001928E-02 0.  1.
       -1   -1    0    0    0  501  0.00000000000E+00  0.00000000000E+00 -0.42663333773E+03  0.42663333776E+03  0.50400001928E-02 0. -1.
    10030    2    1    2    0    0  0.00000000000E+00  0.00000000000E+00  0.59494414780E+03  0.14482108233E+04  0.13203620904E+04 0.  0.
        4    1    3    3  502    0 -0.17913234809E+03 -0.24893044687E+03  0.93870193491E+03  0.98753111395E+03  0.12699999809E+01 0.  1.
       -4    1    3    3    0  502  0.17913234809E+03  0.24893044687E+03 -0.34375778712E+03  0.46067970935E+03  0.12699999809E+01 0. -1.
</event>
<event>
 5   0  0.1324721E-03  0.1303608E+04  0.7818609E-02  0.9026709E-01
        1   -1    0    0  501    0  0.00000000000E+00  0.00000000000E+00  0.13463078832E+04  0.13463078833E+04  0.50400001928E-02 0.  1.
       -1   -1    0    0    0  501  0.00000000000E+00  0.00000000000E+00 -0.31556538634E+03  0.31556538638E+03  0.50400001928E-02 0. -1.
    10030    2    1    2    0    0  0.00000000000E+00  0.00000000000E+00  0.10307424969E+04  0.16618732696E+04  0.13036075596E+04 0.  0.
        1    1    3    3  502    0 -0.16617541746E+03 -0.52010721348E+02 -0.28536664011E+03  0.33429553365E+03  0.50400001928E-02 0. -1.
       -1    1    3    3    0  502  0.16617541746E+03  0.52010721348E+02  0.13161091370E+04  0.13275777360E+04  0.50400001928E-02 0.  1.
</event>
<event>
 5   0  0.1332630E-03  0.1286268E+04  0.7818609E-02  0.9040526E-01
        1   -1    0    0  501    0  0.00000000000E+00  0.00000000000E+00  0.13498941295E+04  0.13498941295E+04  0.50400001928E-02 0. -1.
       -1   -1    0    0    0  501  0.00000000000E+00  0.00000000000E+00 -0.30641040194E+03  0.30641040198E+03  0.50400001928E-02 0.  1.
    10030    2    1    2    0    0  0.00000000000E+00  0.00000000000E+00  0.10434837276E+04  0.16563045315E+04  0.12862684056E+04 0.  0.
        5    1    3    3  502    0  0.16990018118E+03 -0.26698480556E+03  0.12426741822E+04  0.12823447941E+04  0.46999998093E+01 0. -1.
       -5    1    3    3    0  502 -0.16990018118E+03  0.26698480556E+03 -0.19919045461E+03  0.37395973737E+03  0.46999998093E+01 0.  1.
</event>
<event>
 5   0  0.2401211E-03  0.1265280E+04  0.7818609E-02  0.9057561E-01
       -2   -1    0    0    0  501  0.00000000000E+00  0.00000000000E+00  0.10405660990E+04  0.10405660990E+04  0.25500000920E-02 0. -1.
        2   -1    0    0  501    0  0.00000000000E+00  0.00000000000E+00 -0.38463052904E+03  0.38463052905E+03  0.25500000920E-02 0.  1.
    10030    2    1    2    0    0  0.00000000000E+00  0.00000000000E+00  0.65593557000E+03  0.14251966281E+04  0.12652801890E+04 0.  0.
        4    1    3    3  502    0 -0.13268877784E+03 -0.57931784711E+03  0.83730058722E+02  0.60018981613E+03  0.12699999809E+01 0.  1.
       -4    1    3    3    0  502  0.13268877784E+03  0.57931784711E+03  0.57220551128E+03  0.82500681197E+03  0.12699999809E+01 0. -1.
</event>
<event>
 5   0  0.1346593E-03  0.1278111E+04  0.7818609E-02  0.9047106E-01
       -1   -1    0    0    0  501  0.00000000000E+00  0.00000000000E+00  0.81145259731E+03  0.81145259733E+03  0.50400001928E-02 0.  1.
        1   -1    0    0  501    0  0.00000000000E+00  0.00000000000E+00 -0.50328514104E+03  0.50328514107E+03  0.50400001928E-02 0. -1.
    10030    2    1    2    0    0  0.00000000000E+00  0.00000000000E+00  0.30816745627E+03  0.13147377384E+04  0.12781111609E+04 0.  0.
        2    1    3    3  502    0  0.42309581110E+03 -0.17726080528E+03 -0.30359408199E+03  0.55009165153E+03  0.25500000920E-02 0. -1.
       -2    1    3    3    0  502 -0.42309581110E+03  0.17726080528E+03  0.61176153826E+03  0.76464608687E+03  0.25500000920E-02 0.  1.
</event>
<event>
 5   0  0.2361043E-03  0.1256987E+04  0.7818609E-02  0.9064388E-01
        2   -1    0    0  501    0  0.00000000000E+00  0.00000000000E+00  0.19974591451E+04  0.19974591451E+04  0.25500000920E-02 0.  1.
       -2   -1    0    0    0  501  0.00000000000E+00  0.00000000000E+00 -0.19775323865E+03  0.19775323867E+03  0.25500000920E-02 0. -1.
    10030    2    1    2    0    0  0.00000000000E+00  0.00000000000E+00  0.17997059064E+04  0.21952123838E+04  0.12569868974E+04 0.  0.
        2    1    3    3  502    0 -0.16967733172E+03 -0.55582473199E+02  0.19522349110E+04  0.19603828595E+04  0.25500000920E-02 0.  1.
       -2    1    3    3    0  502  0.16967733172E+03  0.55582473199E+02 -0.15252900454E+03  0.23482952425E+03  0.25500000920E-02 0. -1.
</event>
<event>
 5   0  0.2334946E-03  0.1316892E+04  0.7818609E-02  0.9016276E-01
        2   -1    0    0  501    0  0.00000000000E+00  0.00000000000E+00  0.16391039941E+04  0.16391039941E+04  0.25500000920E-02 0.  1.
       -2   -1    0    0    0  501  0.00000000000E+00  0.00000000000E+00 -0.26450497900E+03  0.26450497901E+03  0.25500000920E-02 0. -1.
    10030    2    1    2    0    0  0.00000000000E+00  0.00000000000E+00  0.13745990151E+04  0.19036089731E+04  0.13168920495E+04 0.  0.
        1    1    3    3  502    0 -0.24625591652E+03 -0.84699549281E+02 -0.18690075901E+03  0.32054310757E+03  0.50400001928E-02 0. -1.
       -1    1    3    3    0  502  0.24625591652E+03  0.84699549281E+02  0.15614997741E+04  0.15830658655E+04  0.50400001928E-02 0.  1.
</event>
<event>
 5   0  0.2312105E-03  0.1307579E+04  0.7818609E-02  0.9023577E-01
       -2   -1    0    0    0  501  0.00000000000E+00  0.00000000000E+00  0.29971749109E+03  0.29971749110E+03  0.25500000920E-02 0.  1.
        2   -1    0    0  501    0  0.00000000000E+00  0.00000000000E+00 -0.14261450425E+04  0.14261450425E+04  0.25500000920E-02 0. -1.
    10030    2    1    2    0    0  0.00000000000E+00  0.00000000000E+00 -0.11264275514E+04  0.17258625336E+04  0.13075788528E+04 0.  0.
        5    1    3    3  502    0  0.36810909881E+02 -0.60484475685E+03 -0.88712903545E+03  0.10743427007E+04  0.46999998093E+01 0. -1.
       -5    1    3    3    0  502 -0.36810909881E+02  0.60484475685E+03 -0.23929851599E+03  0.65151983295E+03  0.46999998093E+01 0.  1.
</event>
<event>
 5   0  0.1346593E-03  0.1301044E+04  0.7818609E-02  0.9028737E-01
        1   -1    0    0  501    0  0.00000000000E+00  0.00000000000E+00  0.87931967894E+03  0.87931967895E+03  0.50400001928E-02 0.  1.
       -1   -1    0    0    0  501  0.00000000000E+00  0.00000000000E+00 -0.48125750142E+03  0.48125750144E+03  0.50400001928E-02 0. -1.
    10030    2    1    2    0    0  0.00000000000E+00  0.00000000000E+00  0.39806217752E+03  0.13605771804E+04  0.13010444906E+04 0.  0.
        2    1    3    3  502    0  0.35581546774E+03  0.33225694497E+03 -0.25219831558E+03  0.54827302957E+03  0.25500000920E-02 0. -1.
       -2    1    3    3    0  502 -0.35581546774E+03 -0.33225694497E+03  0.65026049310E+03  0.81230415083E+03  0.25500000920E-02 0.  1.
</event>
<event>
 5   0  0.1310461E-03  0.1316874E+04  0.7818609E-02  0.9016290E-01
       -1   -1    0    0    0  501  0.00000000000E+00  0.00000000000E+00  0.47552061406E+03  0.47552061409E+03  0.50400001928E-02 0.  1.
        1   -1    0    0  501    0  0.00000000000E+00  0.00000000000E+00 -0.91171503536E+03  0.91171503538E+03  0.50400001928E-02 0. -1.
    10030    2    1    2    0    0  0.00000000000E+00  0.00000000000E+00 -0.43619442130E+03  0.13872356495E+04  0.13168740160E+04 0.  0.
        4    1    3    3  502    0  0.15570516491E+03  0.55087435839E+03  0.12460153159E+03  0.58586159773E+03  0.12699999809E+01 0.  1.
       -4    1    3    3    0  502 -0.15570516491E+03 -0.55087435839E+03 -0.56079595289E+03  0.80137405174E+03  0.12699999809E+01 0. -1.
</event>
<event>
 5   0  0.2401211E-03  0.1309035E+04  0.7818609E-02  0.9022431E-01
       -2   -1    0    0    0  501  0.00000000000E+00  0.00000000000E+00  0.53163341477E+03  0.53163341478E+03  0.25500000920E-02 0. -1.
        2   -1    0    0  501    0  0.00000000000E+00  0.00000000000E+00 -0.80580518506E+03  0.80580518507E+03  0.25500000920E-02 0.  1.
    10030    2    1    2    0    0  0.00000000000E+00  0.00000000000E+00 -0.27417177029E+03  0.13374385998E+04  0.13090347011E+04 0.  0.
        4    1    3    3  502    0 -0.59196856728E+03 -0.16433186738E+03 -0.36772645775E+03  0.71600007535E+03  0.12699999809E+01 0.  1.
       -4    1    3    3    0  502  0.59196856728E+03  0.16433186738E+03  0.93554687459E+02  0.62143852449E+03  0.12699999809E+01 0. -1.
</event>
<event>
 5   0  0.2478236E-03  0.1295048E+04  0.7818609E-02  0.9033501E-01
       -2   -1    0    0    0  501  0.00000000000E+00  0.00000000000E+00  0.30442963659E+03  0.30442963660E+03  0.25500000920E-02 0.  1.
        2   -1    0    0  501    0  0.00000000000E+00  0.00000000000E+00 -0.13772878909E+04  0.13772878909E+04  0.25500000920E-02 0. -1.
    10030    2    1    2    0    0  0.00000000000E+00  0.00000000000E+00 -0.10728582543E+04  0.16817175275E+04  0.12950478788E+04 0.  0.
        3    1    3    3  502    0  0.28517769367E+03  0.15356857341E+03 -0.12645324874E+04  0.13053551416E+04  0.10100000352E+00 0. -1.
       -3    1    3    3    0  502 -0.28517769367E+03 -0.15356857341E+03  0.19167423310E+03  0.37636238593E+03  0.10100000352E+00 0.  1.
</event>
<event>
 5   0  0.1324721E-03  0.1290386E+04  0.7818609E-02  0.9037224E-01
       -1   -1    0    0    0  501  0.00000000000E+00  0.00000000000E+00  0.36151694477E+03  0.36151694481E+03  0.50400001928E-02 0. -1.
        1   -1    0    0  501    0  0.00000000000E+00  0.00000000000E+00 -0.11514652066E+04  0.11514652066E+04  0.50400001928E-02 0.  1.
    10030    2    1    2    0    0  0.00000000000E+00  0.00000000000E+00 -0.78994826186E+03  0.15129821515E+04  0.12903862732E+04 0.  0.
        1    1    3    3  502    0 -0.10994341140E+03 -0.25402342093E+03 -0.10783119572E+04  0.11132709145E+04  0.50400001928E-02 0.  1.
       -1    1    3    3    0  502  0.10994341140E+03  0.25402342093E+03  0.28836369534E+03  0.39971123691E+03  0.50400001928E-02 0. -1.
</event>
<event>
 5   0  0.1324721E-03  0.1273994E+04  0.7818609E-02  0.9050446E-01
       -1   -1    0    0    0  501  0.00000000000E+00  0.00000000000E+00  0.40034569154E+03  0.40034569158E+03  0.50400001928E-02 0. -1.
        1   -1    0    0  501    0  0.00000000000E+00  0.00000000000E+00 -0.10135375334E+04  0.10135375334E+04  0.50400001928E-02 0.  1.
    10030    2    1    2    0    0  0.00000000000E+00  0.00000000000E+00 -0.61319184187E+03  0.14138832250E+04  0.12739943246E+04 0.  0.
        1    1    3    3  502    0 -0.15196016541E+03 -0.54433567825E+02 -0.99046401191E+03  0.10035306991E+04  0.50400001928E-02 0.  1.
       -1    1    3    3    0  502  0.15196016541E+03  0.54433567825E+02  0.37727217004E+03  0.41035252587E+03  0.50400001928E-02 0. -1.
</event>
<event>
 5   0  0.1346593E-03  0.1335941E+04  0.7818609E-02  0.9001539E-01
       -1   -1    0    0    0  501  0.00000000000E+00  0.00000000000E+00  0.49445684917E+03  0.49445684920E+03  0.50400001928E-02 0.  1.
        1   -1    0    0  501    0  0.00000000000E+00  0.00000000000E+00 -0.90237329586E+03  0.90237329587E+03  0.50400001928E-02 0. -1.
    10030    2    1    2    0    0  0.00000000000E+00  0.00000000000E+00 -0.40791644668E+03  0.13968301451E+04  0.13359411015E+04 0.  0.
        2    1    3    3  502    0  0.43045280443E+03  0.37475830904E+03 -0.56683731223E+03  0.80438668908E+03  0.25500000920E-02 0. -1.
       -2    1    3    3    0  502 -0.43045280443E+03 -0.37475830904E+03  0.15892086554E+03  0.59244345599E+03  0.25500000920E-02 0.  1.
</event>
<event>
 5   0  0.1346593E-03  0.1287121E+04  0.7818609E-02  0.9039841E-01
        1   -1    0    0  501    0  0.00000000000E+00  0.00000000000E+00  0.74635370503E+03  0.74635370504E+03  0.50400001928E-02 0. -1.
       -1   -1    0    0    0  501  0.00000000000E+00  0.00000000000E+00 -0.55492478604E+03  0.55492478606E+03  0.50400001928E-02 0.  1.
    10030    2    1    2    0    0  0.00000000000E+00  0.00000000000E+00  0.19142891899E+03  0.13012784911E+04  0.12871210823E+04 0.  0.
        2    1    3    3  502    0  0.36918040626E+03 -0.43314752917E+03 -0.20802178945E+03  0.60595711010E+03  0.25500000920E-02 0.  1.
       -2    1    3    3    0  502 -0.36918040626E+03  0.43314752917E+03  0.39945070844E+03  0.69532138100E+03  0.25500000920E-02 0. -1.
</event>
<event>
 5   0  0.2312105E-03  0.1298645E+04  0.7818609E-02  0.9030640E-01
        2   -1    0    0  501    0  0.00000000000E+00  0.00000000000E+00  0.13058889167E+04  0.13058889167E+04  0.25500000920E-02 0.  1.
       -2   -1    0    0    0  501  0.00000000000E+00  0.00000000000E+00 -0.32286040801E+03  0.32286040802E+03  0.25500000920E-02 0. -1.
    10030    2    1    2    0    0  0.00000000000E+00  0.00000000000E+00  0.98302850869E+03  0.16287493247E+04  0.12986451840E+04 0.  0.
        5    1    3    3  502    0 -0.20515812303E+03  0.51732838038E+03  0.72007967648E+02  0.56118245339E+03  0.46999998093E+01 0. -1.
       -5    1    3    3    0  502  0.20515812303E+03 -0.51732838038E+03  0.91102054104E+03  0.10675668713E+04  0.46999998093E+01 0.  1.
</event>
<event>
 5   0  0.1332630E-03  0.1295753E+04  0.7818609E-02  0.9032940E-01
       -1   -1    0    0    0  501  0.00000000000E+00  0.00000000000E+00  0.38407395524E+03  0.38407395527E+03  0.50400001928E-02 0. -1.
        1   -1    0    0  501    0  0.00000000000E+00  0.00000000000E+00 -0.10928725906E+04  0.10928725906E+04  0.50400001928E-02 0.  1.
    10030    2    1    2    0    0  0.00000000000E+00  0.00000000000E+00 -0.70879863532E+03  0.14769465458E+04  0.12957529062E+04 0.  0.
        5    1    3    3  502    0 -0.36885791989E+03  0.14335617356E+03  0.23027645949E+03  0.45788262181E+03  0.46999998093E+01 0. -1.
       -5    1    3    3    0  502  0.36885791989E+03 -0.14335617356E+03 -0.93907509482E+03  0.10190639240E+04  0.46999998093E+01 0.  1.
</event>
<event>
 5   0  0.1387622E-03  0.1293834E+04  0.7818609E-02  0.9034469E-01
        1   -1    0    0  501    0  0.00000000000E+00  0.00000000000E+00  0.40412230226E+03  0.40412230229E+03  0.50400001928E-02 0. -1.
       -1   -1    0    0    0  501  0.00000000000E+00  0.00000000000E+00 -0.10355822461E+04  0.10355822461E+04  0.50400001928E-02 0.  1.
    10030    2    1    2    0    0  0.00000000000E+00  0.00000000000E+00 -0.63145994386E+03  0.14397045484E+04  0.12938344276E+04 0.  0.
        3    1    3    3  502    0 -0.21007057002E+03  0.76768853264E+02 -0.99119195255E+03  0.10161124929E+04  0.10100000352E+00 0.  1.
       -3    1    3    3    0  502  0.21007057002E+03 -0.76768853264E+02  0.35973200869E+03  0.42359205552E+03  0.10100000352E+00 0. -1.
</event>
<event>
 5   0  0.1332630E-03  0.1323827E+04  0.7818609E-02  0.9010881E-01
        1   -1    0    0  501    0  0.00000000000E+00  0.00000000000E+00  0.42966012731E+03  0.42966012734E+03  0.50400001928E-02 0.  1.
       -1   -1    0    0    0  501  0.00000000000E+00  0.00000000000E+00 -0.10197116238E+04  0.10197116238E+04  0.50400001928E-02 0. -1.
    10030    2    1    2    0    0  0.00000000000E+00  0.00000000000E+00 -0.59005149646E+03  0.14493717511E+04  0.13238269164E+04 0.  0.
        5    1    3    3  502    0 -0.87695204954E+02  0.51464337631E+03  0.15045105120E+03  0.54332850335E+03  0.46999998093E+01 0.  1.
       -5    1    3    3    0  502  0.87695204954E+02 -0.51464337631E+03 -0.74050254766E+03  0.90604324777E+03  0.46999998093E+01 0. -1.
</event>
<event>
 5   0  0.1310461E-03  0.1286773E+04  0.7818609E-02  0.9040121E-01
       -1   -1    0    0    0  501  0.00000000000E+00  0.00000000000E+00  0.45608770046E+03  0.45608770048E+03  0.50400001928E-02 0. -1.
        1   -1    0    0  501    0  0.00000000000E+00  0.00000000000E+00 -0.90760211528E+03  0.90760211529E+03  0.50400001928E-02 0.  1.
    10030    2    1    2    0    0  0.00000000000E+00  0.00000000000E+00 -0.45151441482E+03  0.13636898158E+04  0.12867729586E+04 0.  0.
        4    1    3    3  502    0  0.99071581812E+02  0.38481070332E+03  0.31050370223E+03  0.50429021179E+03  0.12699999809E+01 0. -1.
       -4    1    3    3    0  502 -0.99071581812E+02 -0.38481070332E+03 -0.76201811705E+03  0.85939960398E+03  0.12699999809E+01 0.  1.
</event>
<event>
 5   0  0.2361043E-03  0.1305542E+04  0.7818609E-02  0.9025182E-01
       -2   -1    0    0    0  501  0.00000000000E+00  0.00000000000E+00  0.11595200609E+04  0.11595200609E+04  0.25500000920E-02 0.  1.
        2   -1    0    0  501    0  0.00000000000E+00  0.00000000000E+00 -0.36748845223E+03  0.36748845224E+03  0.25500000920E-02 0. -1.
    10030    2    1    2    0    0  0.00000000000E+00  0.00000000000E+00  0.79203160869E+03  0.15270085132E+04  0.13055423893E+04 0.  0.
        2    1    3    3  502    0  0.54239368458E+03 -0.16969832887E+03  0.77161592647E+03  0.95832122478E+03  0.25500000920E-02 0.  1.
       -2    1    3    3    0  502 -0.54239368458E+03  0.16969832887E+03  0.20415682225E+02  0.56868728839E+03  0.25500000920E-02 0. -1.
</event>
<event>
 5   0  0.2334946E-03  0.1314359E+04  0.7818609E-02  0.9018256E-01
       -2   -1    0    0    0  501  0.00000000000E+00  0.00000000000E+00  0.68290600211E+03  0.68290600211E+03  0.25500000920E-02 0.  1.
        2   -1    0    0  501    0  0.00000000000E+00  0.00000000000E+00 -0.63242179777E+03  0.63242179777E+03  0.25500000920E-02 0. -1.
    10030    2    1    2    0    0  0.00000000000E+00  0.00000000000E+00  0.50484204339E+02  0.13153277999E+04  0.13143586140E+04 0.  0.
        1    1    3    3  502    0 -0.71902280400E+02 -0.40725081008E+03  0.53636472234E+03  0.67728153351E+03  0.50400001928E-02 0.  1.
       -1    1    3    3    0  502  0.71902280400E+02  0.40725081008E+03 -0.48588051800E+03  0.63804626638E+03  0.50400001928E-02 0. -1.
</event>
<event>
 5   0  0.1332630E-03  0.1306288E+04  0.7818609E-02  0.9024593E-01
        1   -1    0    0  501    0  0.00000000000E+00  0.00000000000E+00  0.64862105434E+03  0.64862105436E+03  0.50400001928E-02 0.  1.
       -1   -1    0    0    0  501  0.00000000000E+00  0.00000000000E+00 -0.65769896564E+03  0.65769896566E+03  0.50400001928E-02 0. -1.
    10030    2    1    2    0    0  0.00000000000E+00  0.00000000000E+00 -0.90779113071E+01  0.13063200200E+04  0.13062884774E+04 0.  0.
        5    1    3    3  502    0 -0.17896329130E+03 -0.84148923688E+02  0.61794407054E+03  0.64883423561E+03  0.46999998093E+01 0.  1.
       -5    1    3    3    0  502  0.17896329130E+03  0.84148923688E+02 -0.62702198184E+03  0.65748578441E+03  0.46999998093E+01 0. -1.
</event>
<event>
 5   0  0.1346593E-03  0.1308203E+04  0.7818609E-02  0.9023085E-01
        1   -1    0    0  501    0  0.00000000000E+00  0.00000000000E+00  0.92139273248E+03  0.92139273249E+03  0.50400001928E-02 0. -1.
       -1   -1    0    0    0  501  0.00000000000E+00  0.00000000000E+00 -0.46434988652E+03  0.46434988655E+03  0.50400001928E-02 0.  1.
    10030    2    1    2    0    0  0.00000000000E+00  0.00000000000E+00  0.45704284596E+03  0.13857426190E+04  0.13082027531E+04 0.  0.
        2    1    3    3  502    0  0.65119642538E+03  0.11218252411E+02  0.29265750021E+03  0.71402454163E+03  0.25500000920E-02 0.  1.
       -2    1    3    3    0  502 -0.65119642538E+03 -0.11218252411E+02  0.16438534575E+03  0.67171807741E+03  0.25500000920E-02 0. -1.
</event>
<event>
 5   0  0.1387622E-03  0.1299677E+04  0.7818609E-02  0.9029821E-01
        1   -1    0    0  501    0  0.00000000000E+00  0.00000000000E+00  0.51921234696E+03  0.51921234698E+03  0.50400001928E-02 0. -1.
       -1   -1    0    0    0  501  0.00000000000E+00  0.00000000000E+00 -0.81332865087E+03  0.81332865089E+03  0.50400001928E-02 0.  1.
    10030    2    1    2    0    0  0.00000000000E+00  0.00000000000E+00 -0.29411630392E+03  0.13325409979E+04  0.12996773102E+04 0.  0.
        3    1    3    3  502    0  0.27126109838E+03  0.35035243056E+03  0.34031505514E+03  0.55869826924E+03  0.10100000352E+00 0. -1.
       -3    1    3    3    0  502 -0.27126109838E+03 -0.35035243056E+03 -0.63443135905E+03  0.77384272863E+03  0.10100000352E+00 0.  1.
</event>
<event>
 5   0  0.2361043E-03  0.1316951E+04  0.7818609E-02  0.9016230E-01
       -2   -1    0    0    0  501  0.00000000000E+00  0.00000000000E+00  0.66568473856E+03  0.66568473857E+03  0.25500000920E-02 0. -1.
        2   -1    0    0  501    0  0.00000000000E+00  0.00000000000E+00 -0.65134430556E+03  0.65134430557E+03  0.25500000920E-02 0.  1.
    10030    2    1    2    0    0  0.00000000000E+00  0.00000000000E+00  0.14340433000E+02  0.13170290441E+04  0.13169509691E+04 0.  0.
        2    1    3    3  502    0  0.44368049140E+03 -0.31586343270E+03 -0.36294343885E+03  0.65448455014E+03  0.25500000920E-02 0.  1.
       -2    1    3    3    0  502 -0.44368049140E+03  0.31586343270E+03  0.37728387184E+03  0.66254449400E+03  0.25500000920E-02 0. -1.
</event>
<event>
 5   0  0.2334946E-03  0.1314475E+04  0.7818609E-02  0.9018165E-01
        2   -1    0    0  501    0  0.00000000000E+00  0.00000000000E+00  0.38844219715E+03  0.38844219716E+03  0.25500000920E-02 0.  1.
       -2   -1    0    0    0  501  0.00000000000E+00  0.00000000000E+00 -0.11120339776E+04  0.11120339776E+04  0.25500000920E-02 0. -1.
    10030    2    1    2    0    0  0.00000000000E+00  0.00000000000E+00 -0.72359178046E+03  0.15004761748E+04  0.13144746807E+04 0.  0.
        1    1    3    3  502    0  0.60103951671E+03 -0.18262062581E+03 -0.58244017380E+03  0.85664190284E+03  0.50400001928E-02 0.  1.
       -1    1    3    3    0  502 -0.60103951671E+03  0.18262062581E+03 -0.14115160666E+03  0.64383427193E+03  0.50400001928E-02 0. -1.
</event>
<event>
 5   0  0.1324721E-03  0.1297456E+04  0.7818609E-02  0.9031585E-01
        1   -1    0    0  501    0  0.00000000000E+00  0.00000000000E+00  0.10062312583E+04  0.10062312583E+04  0.50400001928E-02 0.  1.
       -1   -1    0    0    0  501  0.00000000000E+00  0.00000000000E+00 -0.41824194806E+03  0.41824194809E+03  0.50400001928E-02 0. -1.
    10030    2    1    2    0    0  0.00000000000E+00  0.00000000000E+00  0.58798931021E+03  0.14244732064E+04  0.12974561599E+04 0.  0.
        1    1    3    3  502    0  0.20007332368E+02  0.80741263366E+02 -0.41236250216E+03  0.42066884621E+03  0.50400001928E-02 0. -1.
       -1    1    3    3    0  502 -0.20007332368E+02 -0.80741263366E+02  0.10003518124E+04  0.10038043602E+04  0.50400001928E-02 0.  1.
</event>
<event>
 5   0  0.2361043E-03  0.1313893E+04  0.7818609E-02  0.9018619E-01
        2   -1    0    0  501    0  0.00000000000E+00  0.00000000000E+00  0.67113964810E+03  0.67113964811E+03  0.25500000920E-02 0.  1.
       -2   -1    0    0    0  501  0.00000000000E+00  0.00000000000E+00 -0.64305398354E+03  0.64305398355E+03  0.25500000920E-02 0. -1.
    10030    2    1    2    0    0  0.00000000000E+00  0.00000000000E+00  0.28085664562E+02  0.13141936317E+04  0.13138934877E+04 0.  0.
        2    1    3    3  502    0 -0.21883845953E+02  0.39461199599E+03 -0.51084508340E+03  0.64587942322E+03  0.25500000920E-02 0. -1.
       -2    1    3    3    0  502  0.21883845953E+02 -0.39461199599E+03  0.53893074796E+03  0.66831420844E+03  0.25500000920E-02 0.  1.
</event>
<event>
 5   0  0.1310461E-03  0.1335065E+04  0.7818609E-02  0.9002212E-01
        1   -1    0    0  501    0  0.00000000000E+00  0.00000000000E+00  0.31412245893E+03  0.31412245897E+03  0.50400001928E-02 0.  1.
       -1   -1    0    0    0  501  0.00000000000E+00  0.00000000000E+00 -0.14185529546E+04  0.14185529546E+04  0.50400001928E-02 0. -1.
    10030    2    1    2    0    0  0.00000000000E+00  0.00000000000E+00 -0.11044304956E+04  0.17326754135E+04  0.13350645561E+04 0.  0.
        4    1    3    3  502    0 -0.30664887092E+03  0.36496699099E+03  0.54248388969E+02  0.47976966886E+03  0.12699999809E+01 0.  1.
       -4    1    3    3    0  502  0.30664887092E+03 -0.36496699099E+03 -0.11586788846E+04  0.12529057447E+04  0.12699999809E+01 0. -1.
</event>
<event>
 5   0  0.9131250E-04  0.1288846E+04  0.7818609E-02  0.9038458E-01
        3   -1    0    0  501    0  0.00000000000E+00  0.00000000000E+00  0.61370886029E+03  0.61370886861E+03  0.10100000352E+00 0. -1.
       -3   -1    0    0    0  501  0.00000000000E+00  0.00000000000E+00 -0.67667380686E+03  0.67667381439E+03  0.10100000352E+00 0.  1.
    10030    2    1    2    0    0  0.00000000000E+00  0.00000000000E+00 -0.62964946562E+02  0.12903826830E+04  0.12888455625E+04 0.  0.
        1    1    3    3  502    0 -0.10068523106E+03  0.48915129842E+03 -0.43924478484E+03  0.66508833213E+03  0.50400001928E-02 0.  1.
       -1    1    3    3    0  502  0.10068523106E+03 -0.48915129842E+03  0.37627983828E+03  0.62529435087E+03  0.50400001928E-02 0. -1.
</event>
<event>
 5   0  0.1387622E-03  0.1310576E+04  0.7818609E-02  0.9021220E-01
       -1   -1    0    0    0  501  0.00000000000E+00  0.00000000000E+00  0.28943129335E+03  0.28943129340E+03  0.50400001928E-02 0.  1.
        1   -1    0    0  501    0  0.00000000000E+00  0.00000000000E+00 -0.14836069603E+04  0.14836069603E+04  0.50400001928E-02 0. -1.
    10030    2    1    2    0    0  0.00000000000E+00  0.00000000000E+00 -0.11941756670E+04  0.17730382537E+04  0.13105758756E+04 0.  0.
        3    1    3    3  502    0 -0.63443913476E+01  0.34796306180E+03 -0.13482457299E+04  0.13924385451E+04  0.10100000352E+00 0. -1.
       -3    1    3    3    0  502  0.63443913476E+01 -0.34796306180E+03  0.15407006291E+03  0.38059970858E+03  0.10100000352E+00 0.  1.
</event>
<event>
 5   0  0.2312105E-03  0.1303080E+04  0.7818609E-02  0.9027126E-01
       -2   -1    0    0    0  501  0.00000000000E+00  0.00000000000E+00  0.61180849298E+03  0.61180849299E+03  0.25500000920E-02 0. -1.
        2   -1    0    0  501    0  0.00000000000E+00  0.00000000000E+00 -0.69385162994E+03  0.69385162995E+03  0.25500000920E-02 0.  1.
    10030    2    1    2    0    0  0.00000000000E+00  0.00000000000E+00 -0.82043136957E+02  0.13056601229E+04  0.13030799209E+04 0.  0.
        5    1    3    3  502    0 -0.41037711781E+03  0.21057547438E+03 -0.50207486122E+03  0.68180104540E+03  0.46999998093E+01 0.  1.
       -5    1    3    3    0  502  0.41037711781E+03 -0.21057547438E+03  0.42003172427E+03  0.62385907754E+03  0.46999998093E+01 0. -1.
</event>
<event>
 5   0  0.2361043E-03  0.1300394E+04  0.7818609E-02  0.9029252E-01
        2   -1    0    0  501    0  0.00000000000E+00  0.00000000000E+00  0.97891605316E+03  0.97891605317E+03  0.25500000920E-02 0.  1.
       -2   -1    0    0    0  501  0.00000000000E+00  0.00000000000E+00 -0.43186175836E+03  0.43186175836E+03  0.25500000920E-02 0. -1.
    10030    2    1    2    0    0  0.00000000000E+00  0.00000000000E+00  0.54705429481E+03  0.14107778115E+04  0.13003944140E+04 0.  0.
        2    1    3    3  502    0  0.12115992095E+03  0.37526158522E+03  0.83437723168E+03  0.92286854348E+03  0.25500000920E-02 0.  1.
       -2    1    3    3    0  502 -0.12115992095E+03 -0.37526158522E+03 -0.28732293687E+03  0.48790926805E+03  0.25500000920E-02 0. -1.
</event>
<event>
 5   0  0.1332630E-03  0.1121006E+04  0.7818609E-02  0.9184956E-01
       -1   -1    0    0    0  501  0.00000000000E+00  0.00000000000E+00  0.35661633555E+03  0.35661633559E+03  0.50400001928E-02 0.  1.
        1   -1    0    0  501    0  0.00000000000E+00  0.00000000000E+00 -0.88095747837E+03  0.88095747839E+03  0.50400001928E-02 0. -1.
    10030    2    1    2    0    0  0.00000000000E+00  0.00000000000E+00 -0.52434114282E+03  0.12375738140E+04  0.11210063831E+04 0.  0.
        5    1    3    3  502    0  0.21552646291E+03 -0.76492421648E+01 -0.83329626353E+03  0.86076414885E+03  0.46999998093E+01 0. -1.
       -5    1    3    3    0  502 -0.21552646291E+03  0.76492421648E+01  0.30895512072E+03  0.37680966513E+03  0.46999998093E+01 0.  1.
</event>
<event>
 5   0  0.1332630E-03  0.1304932E+04  0.7818609E-02  0.9025664E-01
        1   -1    0    0  501    0  0.00000000000E+00  0.00000000000E+00  0.71309676350E+03  0.71309676352E+03  0.50400001928E-02 0.  1.
       -1   -1    0    0    0  501  0.00000000000E+00  0.00000000000E+00 -0.59698993747E+03  0.59698993749E+03  0.50400001928E-02 0. -1.
    10030    2    1    2    0    0  0.00000000000E+00  0.00000000000E+00  0.11610682603E+03  0.13100867010E+04  0.13049315573E+04 0.  0.
        5    1    3    3  502    0 -0.61312940903E+03 -0.11772101337E+03  0.24828439980E+03  0.67190262865E+03  0.46999998093E+01 0. -1.
       -5    1    3    3    0  502  0.61312940903E+03  0.11772101337E+03 -0.13217757378E+03  0.63818407236E+03  0.46999998093E+01 0.  1.
</event>
<event>
 5   0  0.1346593E-03  0.1265027E+04  0.7818609E-02  0.9057768E-01
        1   -1    0    0  501    0  0.00000000000E+00  0.00000000000E+00  0.19885364399E+04  0.19885364400E+04  0.50400001928E-02 0. -1.
       -1   -1    0    0    0  501  0.00000000000E+00  0.00000000000E+00 -0.20118977430E+03  0.20118977437E+03  0.50400001928E-02 0.  1.
    10030    2    1    2    0    0  0.00000000000E+00  0.00000000000E+00  0.17873466656E+04  0.21897262143E+04  0.12650267944E+04 0.  0.
        2    1    3    3  502    0  0.51541271504E+03  0.23192462816E+03  0.13852020766E+04  0.14960695482E+04  0.25500000920E-02 0. -1.
       -2    1    3    3    0  502 -0.51541271504E+03 -0.23192462816E+03  0.40214458901E+03  0.69365666611E+03  0.25500000920E-02 0.  1.
</event>
<event>
 5   0  0.1324721E-03  0.1301423E+04  0.7818609E-02  0.9028437E-01
        1   -1    0    0  501    0  0.00000000000E+00  0.00000000000E+00  0.85775469610E+03  0.85775469611E+03  0.50400001928E-02 0. -1.
       -1   -1    0    0    0  501  0.00000000000E+00  0.00000000000E+00 -0.49364425084E+03  0.49364425087E+03  0.50400001928E-02 0.  1.
    10030    2    1    2    0    0  0.00000000000E+00  0.00000000000E+00  0.36411044525E+03  0.13513989470E+04  0.13014233353E+04 0.  0.
        1    1    3    3  502    0  0.51373937722E+03  0.30660316180E+03  0.44779661452E+03  0.74729877194E+03  0.50400001928E-02 0.  1.
       -1    1    3    3    0  502 -0.51373937722E+03 -0.30660316180E+03 -0.83686169267E+02  0.60410017504E+03  0.50400001928E-02 0. -1.
</event>
<event>
 5   0  0.2361043E-03  0.1283037E+04  0.7818609E-02  0.9043126E-01
        2   -1    0    0  501    0  0.00000000000E+00  0.00000000000E+00  0.91780343246E+03  0.91780343246E+03  0.25500000920E-02 0.  1.
       -2   -1    0    0    0  501  0.00000000000E+00  0.00000000000E+00 -0.44840324132E+03  0.44840324133E+03  0.25500000920E-02 0. -1.
    10030    2    1    2    0    0  0.00000000000E+00  0.00000000000E+00  0.46940019114E+03  0.13662066738E+04  0.12830370751E+04 0.  0.
        2    1    3    3  502    0  0.14911289220E+03  0.18229475350E+03  0.87010562292E+03  0.90141545739E+03  0.25500000920E-02 0.  1.
       -2    1    3    3    0  502 -0.14911289220E+03 -0.18229475350E+03 -0.40070543178E+03  0.46479121640E+03  0.25500000920E-02 0. -1.
</event>
<event>
 5   0  0.1324721E-03  0.1258368E+04  0.7818609E-02  0.9063247E-01
       -1   -1    0    0    0  501  0.00000000000E+00  0.00000000000E+00  0.20903371492E+03  0.20903371499E+03  0.50400001928E-02 0.  1.
        1   -1    0    0  501    0  0.00000000000E+00  0.00000000000E+00 -0.18938224861E+04  0.18938224861E+04  0.50400001928E-02 0. -1.
    10030    2    1    2    0    0  0.00000000000E+00  0.00000000000E+00 -0.16847887712E+04  0.21028562011E+04  0.12583683876E+04 0.  0.
        1    1    3    3  502    0 -0.11452730454E+03 -0.58422349082E+03 -0.11825731837E+04  0.13239761802E+04  0.50400001928E-02 0. -1.
       -1    1    3    3    0  502  0.11452730454E+03  0.58422349082E+03 -0.50221558742E+03  0.77888002091E+03  0.50400001928E-02 0.  1.
</event>
<event>
 5   0  0.2312105E-03  0.1310346E+04  0.7818609E-02  0.9021401E-01
       -2   -1    0    0    0  501  0.00000000000E+00  0.00000000000E+00  0.42968089669E+03  0.42968089670E+03  0.25500000920E-02 0. -1.
        2   -1    0    0  501    0  0.00000000000E+00  0.00000000000E+00 -0.99900068844E+03  0.99900068844E+03  0.25500000920E-02 0.  1.
    10030    2    1    2    0    0  0.00000000000E+00  0.00000000000E+00 -0.56931979175E+03  0.14286815851E+04  0.13103457736E+04 0.  0.
        5    1    3    3  502    0 -0.54034146642E+03  0.26093328494E+03 -0.57142219477E+03  0.82861359764E+03  0.46999998093E+01 0.  1.
       -5    1    3    3    0  502  0.54034146642E+03 -0.26093328494E+03  0.21024030219E+01  0.60006798750E+03  0.46999998093E+01 0. -1.
</event>
<event>
 5   0  0.1387622E-03  0.1300190E+04  0.7818609E-02  0.9029415E-01
        1   -1    0    0  501    0  0.00000000000E+00  0.00000000000E+00  0.92551899782E+03  0.92551899783E+03  0.50400001928E-02 0. -1.
       -1   -1    0    0    0  501  0.00000000000E+00  0.00000000000E+00 -0.45663380135E+03  0.45663380138E+03  0.50400001928E-02 0.  1.
    10030    2    1    2    0    0  0.00000000000E+00  0.00000000000E+00  0.46888519647E+03  0.13821527992E+04  0.13001896142E+04 0.  0.
        3    1    3    3  502    0  0.56473376596E+03  0.11555683941E+03 -0.85081016539E+02  0.58268035759E+03  0.10100000352E+00 0.  1.
       -3    1    3    3    0  502 -0.56473376596E+03 -0.11555683941E+03  0.55396621301E+03  0.79947244161E+03  0.10100000352E+00 0. -1.
</event>
<event>
 5   0  0.1332630E-03  0.1368536E+04  0.7818609E-02  0.8976914E-01
        1   -1    0    0  501    0  0.00000000000E+00  0.00000000000E+00  0.20837743675E+04  0.20837743675E+04  0.50400001928E-02 0.  1.
       -1   -1    0    0    0  501  0.00000000000E+00  0.00000000000E+00 -0.22469948986E+03  0.22469948992E+03  0.50400001928E-02 0. -1.
    10030    2    1    2    0    0  0.00000000000E+00  0.00000000000E+00  0.18590748777E+04  0.23084738575E+04  0.13685364993E+04 0.  0.
        5    1    3    3  502    0 -0.20283166707E+02 -0.39723879872E+03 -0.96300121995E+01  0.39790061221E+03  0.46999998093E+01 0. -1.
       -5    1    3    3    0  502  0.20283166707E+02  0.39723879872E+03  0.18687048899E+04  0.19105732453E+04  0.46999998093E+01 0.  1.
</event>
<event>
 5   0  0.1332630E-03  0.1313587E+04  0.7818609E-02  0.9018860E-01
        1   -1    0    0  501    0  0.00000000000E+00  0.00000000000E+00  0.20395629567E+04  0.20395629567E+04  0.50400001928E-02 0. -1.
       -1   -1    0    0    0  501  0.00000000000E+00  0.00000000000E+00 -0.21150492678E+03  0.21150492684E+03  0.50400001928E-02 0.  1.
    10030    2    1    2    0    0  0.00000000000E+00  0.00000000000E+00  0.18280580299E+04  0.22510678835E+04  0.13135868664E+04 0.  0.
        5    1    3    3  502    0  0.65423115661E+03 -0.45295125400E+02  0.85258768079E+03  0.10756383677E+04  0.46999998093E+01 0.  1.
       -5    1    3    3    0  502 -0.65423115661E+03  0.45295125400E+02  0.97547034908E+03  0.11754295158E+04  0.46999998093E+01 0. -1.
</event>
<event>
 5   0  0.2361043E-03  0.1296766E+04  0.7818609E-02  0.9032134E-01
       -2   -1    0    0    0  501  0.00000000000E+00  0.00000000000E+00  0.46038674391E+03  0.46038674392E+03  0.25500000920E-02 0.  1.
        2   -1    0    0  501    0  0.00000000000E+00  0.00000000000E+00 -0.91314622681E+03  0.91314622682E+03  0.25500000920E-02 0. -1.
    10030    2    1    2    0    0  0.00000000000E+00  0.00000000000E+00 -0.45275948290E+03  0.13735329707E+04  0.12967658510E+04 0.  0.
        2    1    3    3  502    0 -0.22735156267E+03 -0.60716172068E+03 -0.21775328509E+03  0.68392293519E+03  0.25500000920E-02 0. -1.
       -2    1    3    3    0  502  0.22735156267E+03  0.60716172068E+03 -0.23500619781E+03  0.68961003554E+03  0.25500000920E-02 0.  1.
</event>
<event>
 5   0  0.1332630E-03  0.1336171E+04  0.7818609E-02  0.9001363E-01
        1   -1    0    0  501    0  0.00000000000E+00  0.00000000000E+00  0.44639825477E+03  0.44639825479E+03  0.50400001928E-02 0. -1.
       -1   -1    0    0    0  501  0.00000000000E+00  0.00000000000E+00 -0.99986571930E+03  0.99986571931E+03  0.50400001928E-02 0.  1.
    10030    2    1    2    0    0  0.00000000000E+00  0.00000000000E+00 -0.55346746453E+03  0.14462639741E+04  0.13361711150E+04 0.  0.
        5    1    3    3  502    0  0.22021811430E+03 -0.53631133455E+03  0.82566322691E+02  0.58563226779E+03  0.46999998093E+01 0. -1.
       -5    1    3    3    0  502 -0.22021811430E+03  0.53631133455E+03 -0.63603378723E+03  0.86063170632E+03  0.46999998093E+01 0.  1.
</event>
<event>
 5   0  0.1324721E-03  0.1321299E+04  0.7818609E-02  0.9012843E-01
       -1   -1    0    0    0  501  0.00000000000E+00  0.00000000000E+00  0.47579982569E+03  0.47579982572E+03  0.50400001928E-02 0.  1.
        1   -1    0    0  501    0  0.00000000000E+00  0.00000000000E+00 -0.91731382844E+03  0.91731382845E+03  0.50400001928E-02 0. -1.
    10030    2    1    2    0    0  0.00000000000E+00  0.00000000000E+00 -0.44151400274E+03  0.13931136542E+04  0.13212989968E+04 0.  0.
        1    1    3    3  502    0 -0.37066191779E+03  0.54072910582E+03 -0.30692750023E+03  0.72386650261E+03  0.50400001928E-02 0. -1.
       -1    1    3    3    0  502  0.37066191779E+03 -0.54072910582E+03 -0.13458650252E+03  0.66924715156E+03  0.50400001928E-02 0.  1.
</event>
<event>
 5   0  0.2361043E-03  0.1278700E+04  0.7818609E-02  0.9046629E-01
       -2   -1    0    0    0  501  0.00000000000E+00  0.00000000000E+00  0.45233272646E+03  0.45233272647E+03  0.25500000920E-02 0. -1.
        2   -1    0    0  501    0  0.00000000000E+00  0.00000000000E+00 -0.90369006061E+03  0.90369006062E+03  0.25500000920E-02 0.  1.
    10030    2    1    2    0    0  0.00000000000E+00  0.00000000000E+00 -0.45135733415E+03  0.13560227871E+04  0.12787002604E+04 0.  0.
        2    1    3    3  502    0  0.35662665715E+03 -0.21310345801E+03  0.28968440363E+03  0.50647083837E+03  0.25500000920E-02 0. -1.
       -2    1    3    3    0  502 -0.35662665715E+03  0.21310345801E+03 -0.74104173779E+03  0.84955194871E+03  0.25500000920E-02 0.  1.
</event>
<event>
 5   0  0.9131250E-04  0.1287402E+04  0.7818609E-02  0.9039616E-01
       -4   -1    0    0    0  501  0.00000000000E+00  0.00000000000E+00  0.11488036841E+04  0.11488043861E+04  0.12699999809E+01 0.  1.
        4   -1    0    0  501    0  0.00000000000E+00  0.00000000000E+00 -0.36067826162E+03  0.36068049753E+03  0.12699999809E+01 0. -1.
    10030    2    1    2    0    0  0.00000000000E+00  0.00000000000E+00  0.78812542248E+03  0.15094848836E+04  0.12874016204E+04 0.  0.
        5    1    3    3  502    0  0.10805697328E+03  0.42879099185E+03  0.94250263932E+03  0.10410914174E+04  0.46999998093E+01 0.  1.
       -5    1    3    3    0  502 -0.10805697328E+03 -0.42879099185E+03 -0.15437721684E+03  0.46839346627E+03  0.46999998093E+01 0. -1.
</event>
<event>
 5   0  0.1346593E-03  0.1293032E+04  0.7818609E-02  0.9035109E-01
       -1   -1    0    0    0  501  0.00000000000E+00  0.00000000000E+00  0.61199286496E+03  0.61199286498E+03  0.50400001928E-02 0.  1.
        1   -1    0    0  501    0  0.00000000000E+00  0.00000000000E+00 -0.68298695854E+03  0.68298695855E+03  0.50400001928E-02 0. -1.
    10030    2    1    2    0    0  0.00000000000E+00  0.00000000000E+00 -0.70994093574E+02  0.12949798235E+04  0.12930323206E+04 0.  0.
        2    1    3    3  502    0 -0.34750519329E+03  0.32075851875E+03 -0.47699801221E+03  0.67169411965E+03  0.25500000920E-02 0. -1.
       -2    1    3    3    0  502  0.34750519329E+03 -0.32075851875E+03  0.40600391864E+03  0.62328570389E+03  0.25500000920E-02 0.  1.
</event>
<event>
 5   0  0.1310461E-03  0.1273152E+04  0.7818609E-02  0.9051131E-01
       -1   -1    0    0    0  501  0.00000000000E+00  0.00000000000E+00  0.58701449411E+03  0.58701449414E+03  0.50400001928E-02 0.  1.
        1   -1    0    0  501    0  0.00000000000E+00  0.00000000000E+00 -0.69032229679E+03  0.69032229681E+03  0.50400001928E-02 0. -1.
    10030    2    1    2    0    0  0.00000000000E+00  0.00000000000E+00 -0.10330780268E+03  0.12773367909E+04  0.12731522986E+04 0.  0.
        4    1    3    3  502    0 -0.37103601321E+03  0.51677752447E+03 -0.29200710886E+02  0.63685243763E+03  0.12699999809E+01 0. -1.
       -4    1    3    3    0  502  0.37103601321E+03 -0.51677752447E+03 -0.74107091792E+02  0.64048435332E+03  0.12699999809E+01 0.  1.
</event>
<event>
 5   0  0.1310461E-03  0.1267003E+04  0.7818609E-02  0.9056150E-01
        1   -1    0    0  501    0  0.00000000000E+00  0.00000000000E+00  0.14246875501E+04  0.14246875501E+04  0.50400001928E-02 0. -1.
       -1   -1    0    0    0  501  0.00000000000E+00  0.00000000000E+00 -0.28169260187E+03  0.28169260192E+03  0.50400001928E-02 0.  1.
    10030    2    1    2    0    0  0.00000000000E+00  0.00000000000E+00  0.11429949482E+04  0.17063801520E+04  0.12670026723E+04 0.  0.
        4    1    3    3  502    0 -0.79396553255E+02 -0.11076116396E+03 -0.26171570973E+03  0.29507384453E+03  0.12699999809E+01 0.  1.
       -4    1    3    3    0  502  0.79396553255E+02  0.11076116396E+03  0.14047106580E+04  0.14113063075E+04  0.12699999809E+01 0. -1.
</event>
<event>
 5   0  0.1332630E-03  0.1341410E+04  0.7818609E-02  0.8997357E-01
        1   -1    0    0  501    0  0.00000000000E+00  0.00000000000E+00  0.69408627226E+03  0.69408627228E+03  0.50400001928E-02 0.  1.
       -1   -1    0    0    0  501  0.00000000000E+00  0.00000000000E+00 -0.64811094640E+03  0.64811094642E+03  0.50400001928E-02 0. -1.
    10030    2    1    2    0    0  0.00000000000E+00  0.00000000000E+00  0.45975325863E+02  0.13421972187E+04  0.13414095733E+04 0.  0.
        5    1    3    3  502    0  0.40112985586E+03 -0.29548376195E+03 -0.42628267179E+03  0.65570940294E+03  0.46999998093E+01 0. -1.
       -5    1    3    3    0  502 -0.40112985586E+03  0.29548376195E+03  0.47225799766E+03  0.68648781576E+03  0.46999998093E+01 0.  1.
</event>
<event>
 5   0  0.1387622E-03  0.1278499E+04  0.7818609E-02  0.9046792E-01
        1   -1    0    0  501    0  0.00000000000E+00  0.00000000000E+00  0.10635433999E+04  0.10635433999E+04  0.50400001928E-02 0.  1.
       -1   -1    0    0    0  501  0.00000000000E+00  0.00000000000E+00 -0.38422495909E+03  0.38422495912E+03  0.50400001928E-02 0. -1.
    10030    2    1    2    0    0  0.00000000000E+00  0.00000000000E+00  0.67931844079E+03  0.14477683590E+04  0.12784989939E+04 0.  0.
        3    1    3    3  502    0 -0.40676845562E+03 -0.39497875807E+02 -0.21696802065E+03  0.46270486367E+03  0.10100000352E+00 0. -1.
       -3    1    3    3    0  502  0.40676845562E+03  0.39497875807E+02  0.89628646144E+03  0.98506349534E+03  0.10100000352E+00 0.  1.
</event>
<event>
 5   0  0.2312105E-03  0.1311757E+04  0.7818609E-02  0.9020294E-01
       -2   -1    0    0    0  501  0.00000000000E+00  0.00000000000E+00  0.16225068877E+04  0.16225068877E+04  0.25500000920E-02 0. -1.
        2   -1    0    0  501    0  0.00000000000E+00  0.00000000000E+00 -0.26513064662E+03  0.26513064663E+03  0.25500000920E-02 0.  1.
    10030    2    1    2    0    0  0.00000000000E+00  0.00000000000E+00  0.13573762411E+04  0.18876375344E+04  0.13117565327E+04 0.  0.
        5    1    3    3  502    0 -0.21504831416E+02 -0.13484651589E+03  0.16018005518E+04  0.16076172239E+04  0.46999998093E+01 0. -1.
       -5    1    3    3    0  502  0.21504831416E+02  0.13484651589E+03 -0.24442431072E+03  0.28002031050E+03  0.46999998093E+01 0.  1.
</event>
<event>
 5   0  0.1332630E-03  0.1284046E+04  0.7818609E-02  0.9042313E-01
        1   -1    0    0  501    0  0.00000000000E+00  0.00000000000E+00  0.10570333135E+04  0.10570333135E+04  0.50400001928E-02 0.  1.
       -1   -1    0    0    0  501  0.00000000000E+00  0.00000000000E+00 -0.38995327798E+03  0.38995327802E+03  0.50400001928E-02 0. -1.
    10030    2    1    2    0    0  0.00000000000E+00  0.00000000000E+00  0.66708003550E+03  0.14469865915E+04  0.12840461138E+04 0.  0.
        5    1    3    3  502    0 -0.15446800946E+03 -0.20956028835E+03 -0.32778157842E+03  0.41861525719E+03  0.46999998093E+01 0. -1.
       -5    1    3    3    0  502  0.15446800946E+03  0.20956028835E+03  0.99486161392E+03  0.10283713343E+04  0.46999998093E+01 0.  1.
</event>
<event>
 5   0  0.2334946E-03  0.1283478E+04  0.7818609E-02  0.9042771E-01
       -2   -1    0    0    0  501  0.00000000000E+00  0.00000000000E+00  0.22914198458E+03  0.22914198459E+03  0.25500000920E-02 0.  1.
        2   -1    0    0  501    0  0.00000000000E+00  0.00000000000E+00 -0.17972646007E+04  0.17972646007E+04  0.25500000920E-02 0. -1.
    10030    2    1    2    0    0  0.00000000000E+00  0.00000000000E+00 -0.15681226161E+04  0.20264065852E+04  0.12834777402E+04 0.  0.
        1    1    3    3  502    0  0.21150951366E+03  0.34258626955E+02 -0.17391212680E+04  0.17522707305E+04  0.50400001928E-02 0. -1.
       -1    1    3    3    0  502 -0.21150951366E+03 -0.34258626955E+02  0.17099865195E+03  0.27413585479E+03  0.50400001928E-02 0.  1.
</event>
<event>
 5   0  0.1387622E-03  0.1304452E+04  0.7818609E-02  0.9026042E-01
       -1   -1    0    0    0  501  0.00000000000E+00  0.00000000000E+00  0.22894637033E+03  0.22894637039E+03  0.50400001928E-02 0.  1.
        1   -1    0    0  501    0  0.00000000000E+00  0.00000000000E+00 -0.18580719423E+04  0.18580719423E+04  0.50400001928E-02 0. -1.
    10030    2    1    2    0    0  0.00000000000E+00  0.00000000000E+00 -0.16291255719E+04  0.20870183127E+04  0.13044521104E+04 0.  0.
        3    1    3    3  502    0  0.46947445739E+03 -0.35510550263E+03 -0.36518009071E+03  0.69272122314E+03  0.10100000352E+00 0.  1.
       -3    1    3    3    0  502 -0.46947445739E+03  0.35510550263E+03 -0.12639454812E+04  0.13942970895E+04  0.10100000352E+00 0. -1.
</event>
<event>
 5   0  0.1346593E-03  0.1332721E+04  0.7818609E-02  0.9004012E-01
        1   -1    0    0  501    0  0.00000000000E+00  0.00000000000E+00  0.88957981040E+03  0.88957981041E+03  0.50400001928E-02 0. -1.
       -1   -1    0    0    0  501  0.00000000000E+00  0.00000000000E+00 -0.49915267509E+03  0.49915267511E+03  0.50400001928E-02 0.  1.
    10030    2    1    2    0    0  0.00000000000E+00  0.00000000000E+00  0.39042713531E+03  0.13887324855E+04  0.13327207391E+04 0.  0.
        2    1    3    3  502    0 -0.38030259837E+03 -0.12269524452E+03  0.75087153542E+03  0.85058347742E+03  0.25500000920E-02 0. -1.
       -2    1    3    3    0  502  0.38030259837E+03  0.12269524452E+03 -0.36044440011E+03  0.53814900811E+03  0.25500000920E-02 0.  1.
</event>
<event>
 5   0  0.9131250E-04  0.1265941E+04  0.7818609E-02  0.9057019E-01
        3   -1    0    0  501    0  0.00000000000E+00  0.00000000000E+00  0.17189723629E+04  0.17189723658E+04  0.10100000352E+00 0.  1.
       -3   -1    0    0    0  501  0.00000000000E+00  0.00000000000E+00 -0.23307611983E+03  0.23307614171E+03  0.10100000352E+00 0. -1.
    10030    2    1    2    0    0  0.00000000000E+00  0.00000000000E+00  0.14858962430E+04  0.19520485076E+04  0.12659406506E+04 0.  0.
        1    1    3    3  502    0  0.48491754314E+03 -0.26532070727E+03  0.12184950601E+04  0.13380098329E+04  0.50400001928E-02 0. -1.
       -1    1    3    3    0  502 -0.48491754314E+03  0.26532070727E+03  0.26740118297E+03  0.61403867470E+03  0.50400001928E-02 0.  1.
</event>
<event>
 5   0  0.2334946E-03  0.1292028E+04  0.7818609E-02  0.9035911E-01
        2   -1    0    0  501    0  0.00000000000E+00  0.00000000000E+00  0.15190790267E+04  0.15190790267E+04  0.25500000920E-02 0.  1.
       -2   -1    0    0    0  501  0.00000000000E+00  0.00000000000E+00 -0.27472828261E+03  0.27472828262E+03  0.25500000920E-02 0. -1.
    10030    2    1    2    0    0  0.00000000000E+00  0.00000000000E+00  0.12443507441E+04  0.17938073093E+04  0.12920278204E+04 0.  0.
        1    1    3    3  502    0 -0.45828170927E+03 -0.40878018232E+03  0.34377215274E+03  0.70377741903E+03  0.50400001928E-02 0. -1.
       -1    1    3    3    0  502  0.45828170927E+03  0.40878018232E+03  0.90057859131E+03  0.10900298903E+04  0.50400001928E-02 0.  1.
</event>
<event>
 5   0  0.2478236E-03  0.1297946E+04  0.7818609E-02  0.9031195E-01
        2   -1    0    0  501    0  0.00000000000E+00  0.00000000000E+00  0.89454066651E+03  0.89454066652E+03  0.25500000920E-02 0.  1.
       -2   -1    0    0    0  501  0.00000000000E+00  0.00000000000E+00 -0.47081844484E+03  0.47081844485E+03  0.25500000920E-02 0. -1.
    10030    2    1    2    0    0  0.00000000000E+00  0.00000000000E+00  0.42372222167E+03  0.13653591114E+04  0.12979464480E+04 0.  0.
        3    1    3    3  502    0 -0.56102752126E+03 -0.84363339614E+02  0.54334206604E+03  0.78555054809E+03  0.10100000352E+00 0.  1.
       -3    1    3    3    0  502  0.56102752126E+03  0.84363339614E+02 -0.11961984436E+03  0.57980856328E+03  0.10100000352E+00 0. -1.
</event>
<event>
 5   0  0.2334946E-03  0.1307675E+04  0.7818609E-02  0.9023501E-01
       -2   -1    0    0    0  501  0.00000000000E+00  0.00000000000E+00  0.54661121912E+03  0.54661121913E+03  0.25500000920E-02 0. -1.
        2   -1    0    0  501    0  0.00000000000E+00  0.00000000000E+00 -0.78209778685E+03  0.78209778686E+03  0.25500000920E-02 0.  1.
    10030    2    1    2    0    0  0.00000000000E+00  0.00000000000E+00 -0.23548656773E+03  0.13287090060E+04  0.13076749210E+04 0.  0.
        1    1    3    3  502    0  0.27624813081E+03  0.57054825656E+03  0.45036853657E+02  0.63550504408E+03  0.50400001928E-02 0.  1.
       -1    1    3    3    0  502 -0.27624813081E+03 -0.57054825656E+03 -0.28052342139E+03  0.69320396191E+03  0.50400001928E-02 0. -1.
</event>
<event>
 5   0  0.2478236E-03  0.1005142E+04  0.7818609E-02  0.9302923E-01
        2   -1    0    0  501    0  0.00000000000E+00  0.00000000000E+00  0.17237062103E+04  0.17237062103E+04  0.25500000920E-02 0. -1.
       -2   -1    0    0    0  501  0.00000000000E+00  0.00000000000E+00 -0.14653167935E+03  0.14653167937E+03  0.25500000920E-02 0.  1.
    10030    2    1    2    0    0  0.00000000000E+00  0.00000000000E+00  0.15771745309E+04  0.18702378896E+04  0.10051419118E+04 0.  0.
        3    1    3    3  502    0 -0.22427025938E+03  0.94041409190E+02 -0.29762224345E+02  0.24500354300E+03  0.10100000352E+00 0.  1.
       -3    1    3    3    0  502  0.22427025938E+03 -0.94041409190E+02  0.16069367553E+04  0.16252343466E+04  0.10100000352E+00 0. -1.
</event>
<event>
 5   0  0.2361043E-03  0.1376571E+04  0.7818609E-02  0.8970954E-01
       -2   -1    0    0    0  501  0.00000000000E+00  0.00000000000E+00  0.72407444400E+03  0.72407444401E+03  0.25500000920E-02 0. -1.
        2   -1    0    0  501    0  0.00000000000E+00  0.00000000000E+00 -0.65426596526E+03  0.65426596527E+03  0.25500000920E-02 0.  1.
    10030    2    1    2    0    0  0.00000000000E+00  0.00000000000E+00  0.69808478740E+02  0.13783404093E+04  0.13765714875E+04 0.  0.
        2    1    3    3  502    0 -0.24766876897E+03  0.41604629280E+03 -0.45491035961E+03  0.66436268119E+03  0.25500000920E-02 0.  1.
       -2    1    3    3    0  502  0.24766876897E+03 -0.41604629280E+03  0.52471883835E+03  0.71397772808E+03  0.25500000920E-02 0. -1.
</event>
<event>
 5   0  0.2334946E-03  0.1325623E+04  0.7818609E-02  0.9009489E-01
       -2   -1    0    0    0  501  0.00000000000E+00  0.00000000000E+00  0.42007448544E+03  0.42007448545E+03  0.25500000920E-02 0. -1.
        2   -1    0    0  501    0  0.00000000000E+00  0.00000000000E+00 -0.10458126165E+04  0.10458126165E+04  0.25500000920E-02 0.  1.
    10030    2    1    2    0    0  0.00000000000E+00  0.00000000000E+00 -0.62573813108E+03  0.14658871020E+04  0.13256231693E+04 0.  0.
        1    1    3    3  502    0 -0.53642316287E+03  0.32569998168E+02 -0.74187279727E+03  0.91607088252E+03  0.50400001928E-02 0.  1.
       -1    1    3    3    0  502  0.53642316287E+03 -0.32569998168E+02  0.11613466620E+03  0.54981621944E+03  0.50400001928E-02 0. -1.
</event>
<event>
 5   0  0.1332630E-03  0.1324796E+04  0.7818609E-02  0.9010129E-01
       -1   -1    0    0    0  501  0.00000000000E+00  0.00000000000E+00  0.54346500016E+03  0.54346500019E+03  0.50400001928E-02 0. -1.
        1   -1    0    0  501    0  0.00000000000E+00  0.00000000000E+00 -0.80735901483E+03  0.80735901485E+03  0.50400001928E-02 0.  1.
    10030    2    1    2    0    0  0.00000000000E+00  0.00000000000E+00 -0.26389401467E+03  0.13508240150E+04  0.13247963876E+04 0.  0.
        5    1    3    3  502    0  0.34467069157E+02  0.26998459673E+03  0.48379591351E+03  0.55512182199E+03  0.46999998093E+01 0. -1.
       -5    1    3    3    0  502 -0.34467069157E+02 -0.26998459673E+03 -0.74768992817E+03  0.79570219304E+03  0.46999998093E+01 0.  1.
</event>
<event>
 5   0  0.1332630E-03  0.1279913E+04  0.7818609E-02  0.9045647E-01
       -1   -1    0    0    0  501  0.00000000000E+00  0.00000000000E+00  0.69936854874E+03  0.69936854876E+03  0.50400001928E-02 0.  1.
        1   -1    0    0  501    0  0.00000000000E+00  0.00000000000E+00 -0.58559188355E+03  0.58559188357E+03  0.50400001928E-02 0. -1.
    10030    2    1    2    0    0  0.00000000000E+00  0.00000000000E+00  0.11377666519E+03  0.12849604323E+04  0.12799133498E+04 0.  0.
        5    1    3    3  502    0  0.28710065720E+03  0.36642218302E+03 -0.38396791080E+03  0.60344465371E+03  0.46999998093E+01 0. -1.
       -5    1    3    3    0  502 -0.28710065720E+03 -0.36642218302E+03  0.49774457599E+03  0.68151577861E+03  0.46999998093E+01 0.  1.
</event>
<event>
 5   0  0.2361043E-03  0.1315806E+04  0.7818609E-02  0.9017124E-01
       -2   -1    0    0    0  501  0.00000000000E+00  0.00000000000E+00  0.26070425953E+03  0.26070425954E+03  0.25500000920E-02 0.  1.
        2   -1    0    0  501    0  0.00000000000E+00  0.00000000000E+00 -0.16602580604E+04  0.16602580604E+04  0.25500000920E-02 0. -1.
    10030    2    1    2    0    0  0.00000000000E+00  0.00000000000E+00 -0.13995538009E+04  0.19209623199E+04  0.13158059861E+04 0.  0.
        2    1    3    3  502    0  0.42806888564E+03 -0.13414492401E+03  0.28016313121E+01  0.44860414692E+03  0.25500000920E-02 0. -1.
       -2    1    3    3    0  502 -0.42806888564E+03  0.13414492401E+03 -0.14023554322E+04  0.14723581730E+04  0.25500000920E-02 0.  1.
</event>
<event>
 5   0  0.1387622E-03  0.1300117E+04  0.7818609E-02  0.9029472E-01
        1   -1    0    0  501    0  0.00000000000E+00  0.00000000000E+00  0.63345793931E+03  0.63345793933E+03  0.50400001928E-02 0.  1.
       -1   -1    0    0    0  501  0.00000000000E+00  0.00000000000E+00 -0.66709430568E+03  0.66709430570E+03  0.50400001928E-02 0. -1.
    10030    2    1    2    0    0  0.00000000000E+00  0.00000000000E+00 -0.33636366371E+02  0.13005522450E+04  0.13001172012E+04 0.  0.
        3    1    3    3  502    0 -0.98982555548E+02 -0.63463010989E+03  0.83331506810E+02  0.64768593694E+03  0.10100000352E+00 0.  1.
       -3    1    3    3    0  502  0.98982555548E+02  0.63463010989E+03 -0.11696787318E+03  0.65286630809E+03  0.10100000352E+00 0. -1.
</event>
<event>
 5   0  0.1332630E-03  0.1068002E+04  0.7818609E-02  0.9236953E-01
       -1   -1    0    0    0  501  0.00000000000E+00  0.00000000000E+00  0.43893248326E+03  0.43893248329E+03  0.50400001928E-02 0. -1.
        1   -1    0    0  501    0  0.00000000000E+00  0.00000000000E+00 -0.64966035720E+03  0.64966035722E+03  0.50400001928E-02 0.  1.
    10030    2    1    2    0    0  0.00000000000E+00  0.00000000000E+00 -0.21072787394E+03  0.10885928405E+04  0.10680019361E+04 0.  0.
        5    1    3    3  502    0 -0.61177104764E+02 -0.41023856604E+03  0.23741825814E+03  0.47794125006E+03  0.46999998093E+01 0.  1.
       -5    1    3    3    0  502  0.61177104764E+02  0.41023856604E+03 -0.44814613209E+03  0.61065159045E+03  0.46999998093E+01 0. -1.
</event>
<event>
 5   0  0.2312105E-03  0.1274638E+04  0.7818609E-02  0.9049922E-01
       -2   -1    0    0    0  501  0.00000000000E+00  0.00000000000E+00  0.27249199785E+03  0.27249199786E+03  0.25500000920E-02 0.  1.
        2   -1    0    0  501    0  0.00000000000E+00  0.00000000000E+00 -0.14905969481E+04  0.14905969481E+04  0.25500000920E-02 0. -1.
    10030    2    1    2    0    0  0.00000000000E+00  0.00000000000E+00 -0.12181049503E+04  0.17630889460E+04  0.12746383650E+04 0.  0.
        5    1    3    3  502    0 -0.23583396740E+03  0.30672741348E+03 -0.13095267909E+04  0.13654969324E+04  0.46999998093E+01 0. -1.
       -5    1    3    3    0  502  0.23583396740E+03 -0.30672741348E+03  0.91421840574E+02  0.39759201362E+03  0.46999998093E+01 0.  1.
</event>
<event>
 5   0  0.2478236E-03  0.1295814E+04  0.7818609E-02  0.9032891E-01
       -2   -1    0    0    0  501  0.00000000000E+00  0.00000000000E+00  0.25274950430E+03  0.25274950432E+03  0.25500000920E-02 0. -1.
        2   -1    0    0  501    0  0.00000000000E+00  0.00000000000E+00 -0.16608674771E+04  0.16608674771E+04  0.25500000920E-02 0.  1.
    10030    2    1    2    0    0  0.00000000000E+00  0.00000000000E+00 -0.14081179728E+04  0.19136169814E+04  0.12958139242E+04 0.  0.
        3    1    3    3  502    0  0.14352833674E+03 -0.34598381140E+03 -0.14847629312E+04  0.15312825191E+04  0.10100000352E+00 0.  1.
       -3    1    3    3    0  502 -0.14352833674E+03  0.34598381140E+03  0.76644958442E+02  0.38233446229E+03  0.10100000352E+00 0. -1.
</event>
<event>
 5   0  0.1332630E-03  0.1299191E+04  0.7818609E-02  0.9030207E-01
       -1   -1    0    0    0  501  0.00000000000E+00  0.00000000000E+00  0.41821316920E+03  0.41821316923E+03  0.50400001928E-02 0.  1.
        1   -1    0    0  501    0  0.00000000000E+00  0.00000000000E+00 -0.10089937375E+04  0.10089937375E+04  0.50400001928E-02 0. -1.
    10030    2    1    2    0    0  0.00000000000E+00  0.00000000000E+00 -0.59078056827E+03  0.14272069067E+04  0.12991912387E+04 0.  0.
        5    1    3    3  502    0  0.13513445062E+03 -0.63475179117E+03 -0.32609472814E+03  0.72631330558E+03  0.46999998093E+01 0. -1.
       -5    1    3    3    0  502 -0.13513445062E+03  0.63475179117E+03 -0.26468584013E+03  0.70089360113E+03  0.46999998093E+01 0.  1.
</event>
<event>
 5   0  0.2361043E-03  0.1310128E+04  0.7818609E-02  0.9021572E-01
       -2   -1    0    0    0  501  0.00000000000E+00  0.00000000000E+00  0.35210179332E+03  0.35210179333E+03  0.25500000920E-02 0.  1.
        2   -1    0    0  501    0  0.00000000000E+00  0.00000000000E+00 -0.12187060774E+04  0.12187060774E+04  0.25500000920E-02 0. -1.
    10030    2    1    2    0    0  0.00000000000E+00  0.00000000000E+00 -0.86660428408E+03  0.15708078707E+04  0.13101276203E+04 0.  0.
        2    1    3    3  502    0 -0.25147694984E+03 -0.58574166970E+03 -0.61424239088E+03  0.88522747059E+03  0.25500000920E-02 0. -1.
       -2    1    3    3    0  502  0.25147694984E+03  0.58574166970E+03 -0.25236189321E+03  0.68558040016E+03  0.25500000920E-02 0.  1.
</event>
<event>
 5   0  0.1324721E-03  0.1317498E+04  0.7818609E-02  0.9015803E-01
       -1   -1    0    0    0  501  0.00000000000E+00  0.00000000000E+00  0.34821620894E+03  0.34821620898E+03  0.50400001928E-02 0. -1.
        1   -1    0    0  501    0  0.00000000000E+00  0.00000000000E+00 -0.12462084579E+04  0.12462084579E+04  0.50400001928E-02 0.  1.
    10030    2    1    2    0    0  0.00000000000E+00  0.00000000000E+00 -0.89799224896E+03  0.15944246669E+04  0.13174976050E+04 0.  0.
        1    1    3    3  502    0  0.73261100292E+02  0.37431356992E+03  0.20099303548E+03  0.43113343385E+03  0.50400001928E-02 0. -1.
       -1    1    3    3    0  502 -0.73261100292E+02 -0.37431356992E+03 -0.10989852844E+04  0.11632912330E+04  0.50400001928E-02 0.  1.
</event>
<event>
 5   0  0.9131250E-04  0.1329781E+04  0.7818609E-02  0.9006276E-01
       -3   -1    0    0    0  501  0.00000000000E+00  0.00000000000E+00  0.27339656173E+03  0.27339658039E+03  0.10100000352E+00 0.  1.
        3   -1    0    0  501    0  0.00000000000E+00  0.00000000000E+00 -0.16169897610E+04  0.16169897641E+04  0.10100000352E+00 0. -1.
    10030    2    1    2    0    0  0.00000000000E+00  0.00000000000E+00 -0.13435931992E+04  0.18903863445E+04  0.13297811273E+04 0.  0.
        4    1    3    3  502    0  0.25944838283E+03  0.88560404858E+02  0.18931006618E+03  0.33316110625E+03  0.12699999809E+01 0.  1.
       -4    1    3    3    0  502 -0.25944838283E+03 -0.88560404858E+02 -0.15329032654E+04  0.15572252383E+04  0.12699999809E+01 0. -1.
</event>
<event>
 5   0  0.2334946E-03  0.1292361E+04  0.7818609E-02  0.9035645E-01
       -2   -1    0    0    0  501  0.00000000000E+00  0.00000000000E+00  0.62164123634E+03  0.62164123634E+03  0.25500000920E-02 0.  1.
        2   -1    0    0  501    0  0.00000000000E+00  0.00000000000E+00 -0.67168838892E+03  0.67168838893E+03  0.25500000920E-02 0. -1.
    10030    2    1    2    0    0  0.00000000000E+00  0.00000000000E+00 -0.50047152582E+02  0.12933296253E+04  0.12923609411E+04 0.  0.
        1    1    3    3  502    0  0.50470345647E+03  0.98122821818E+02 -0.41671896008E+03  0.66182199937E+03  0.50400001928E-02 0. -1.
       -1    1    3    3    0  502 -0.50470345647E+03 -0.98122821818E+02  0.36667180750E+03  0.63150762590E+03  0.50400001928E-02 0.  1.
</event>
<event>
 5   0  0.1346593E-03  0.1301417E+04  0.7818609E-02  0.9028443E-01
        1   -1    0    0  501    0  0.00000000000E+00  0.00000000000E+00  0.98477907766E+03  0.98477907767E+03  0.50400001928E-02 0. -1.
       -1   -1    0    0    0  501  0.00000000000E+00  0.00000000000E+00 -0.42996574240E+03  0.42996574243E+03  0.50400001928E-02 0.  1.
    10030    2    1    2    0    0  0.00000000000E+00  0.00000000000E+00  0.55481333525E+03  0.14147448201E+04  0.13014165625E+04 0.  0.
        2    1    3    3  502    0  0.50458295031E+03 -0.34562560331E+03  0.51892521285E+03  0.80208751888E+03  0.25500000920E-02 0.  1.
       -2    1    3    3    0  502 -0.50458295031E+03  0.34562560331E+03  0.35888122402E+02  0.61265730122E+03  0.25500000920E-02 0. -1.
</event>
<event>
 5   0  0.1387622E-03  0.1289787E+04  0.7818609E-02  0.9037703E-01
       -1   -1    0    0    0  501  0.00000000000E+00  0.00000000000E+00  0.25725663140E+03  0.25725663145E+03  0.50400001928E-02 0.  1.
        1   -1    0    0  501    0  0.00000000000E+00  0.00000000000E+00 -0.16166260408E+04  0.16166260408E+04  0.50400001928E-02 0. -1.
    10030    2    1    2    0    0  0.00000000000E+00  0.00000000000E+00 -0.13593694094E+04  0.18738826722E+04  0.12897872220E+04 0.  0.
        3    1    3    3  502    0 -0.74578025451E+02  0.34427755113E+03 -0.14644975627E+04  0.15062675842E+04  0.10100000352E+00 0. -1.
       -3    1    3    3    0  502  0.74578025451E+02 -0.34427755113E+03  0.10512815329E+03  0.36761508798E+03  0.10100000352E+00 0.  1.
</event>
<event>
 5   0  0.1332630E-03  0.1300549E+04  0.7818609E-02  0.9029130E-01
       -1   -1    0    0    0  501  0.00000000000E+00  0.00000000000E+00  0.39020408864E+03  0.39020408868E+03  0.50400001928E-02 0.  1.
        1   -1    0    0  501    0  0.00000000000E+00  0.00000000000E+00 -0.10836807346E+04  0.10836807346E+04  0.50400001928E-02 0. -1.
    10030    2    1    2    0    0  0.00000000000E+00  0.00000000000E+00 -0.69347664592E+03  0.14738848232E+04  0.13005485819E+04 0.  0.
        5    1    3    3  502    0  0.36910853169E+03  0.20286703187E+03  0.21470800099E+03  0.47277664544E+03  0.46999998093E+01 0.  1.
       -5    1    3    3    0  502 -0.36910853169E+03 -0.20286703187E+03 -0.90818464691E+03  0.10011081778E+04  0.46999998093E+01 0. -1.
</event>
<event>
 5   0  0.1346593E-03  0.1315879E+04  0.7818609E-02  0.9017067E-01
        1   -1    0    0  501    0  0.00000000000E+00  0.00000000000E+00  0.64691281642E+03  0.64691281644E+03  0.50400001928E-02 0. -1.
       -1   -1    0    0    0  501  0.00000000000E+00  0.00000000000E+00 -0.66915412938E+03  0.66915412940E+03  0.50400001928E-02 0.  1.
    10030    2    1    2    0    0  0.00000000000E+00  0.00000000000E+00 -0.22241312960E+02  0.13160669458E+04  0.13158789952E+04 0.  0.
        2    1    3    3  502    0 -0.60117247682E+03 -0.25253080447E+03  0.76665614525E+02  0.65654989951E+03  0.25500000920E-02 0. -1.
       -2    1    3    3    0  502  0.60117247682E+03  0.25253080447E+03 -0.98906927485E+02  0.65951704633E+03  0.25500000920E-02 0.  1.
</event>
<event>
 5   0  0.2401211E-03  0.1310725E+04  0.7818609E-02  0.9021103E-01
       -2   -1    0    0    0  501  0.00000000000E+00  0.00000000000E+00  0.34425749730E+03  0.34425749731E+03  0.25500000920E-02 0.  1.
        2   -1    0    0  501    0  0.00000000000E+00  0.00000000000E+00 -0.12476130297E+04  0.12476130297E+04  0.25500000920E-02 0. -1.
    10030    2    1    2    0    0  0.00000000000E+00  0.00000000000E+00 -0.90335553243E+03  0.15918705270E+04  0.13107252027E+04 0.  0.
        4    1    3    3  502    0  0.59475771670E+03 -0.26840453796E+03 -0.37759561268E+03  0.75389508368E+03  0.12699999809E+01 0. -1.
       -4    1    3    3    0  502 -0.59475771670E+03  0.26840453796E+03 -0.52575991974E+03  0.83797544336E+03  0.12699999809E+01 0.  1.
</event>
<event>
 5   0  0.1310461E-03  0.1318030E+04  0.7818609E-02  0.9015388E-01
       -1   -1    0    0    0  501  0.00000000000E+00  0.00000000000E+00  0.37408726005E+03  0.37408726009E+03  0.50400001928E-02 0. -1.
        1   -1    0    0  501    0  0.00000000000E+00  0.00000000000E+00 -0.11609603776E+04  0.11609603776E+04  0.50400001928E-02 0.  1.
    10030    2    1    2    0    0  0.00000000000E+00  0.00000000000E+00 -0.78687311753E+03  0.15350476377E+04  0.13180295698E+04 0.  0.
        4    1    3    3  502    0  0.26831787905E+03  0.56503416478E+03 -0.63505872952E+03  0.89138055533E+03  0.12699999809E+01 0. -1.
       -4    1    3    3    0  502 -0.26831787905E+03 -0.56503416478E+03 -0.15181438801E+03  0.64366708235E+03  0.12699999809E+01 0.  1.
</event>
<event>
 5   0  0.1387622E-03  0.1282439E+04  0.7818609E-02  0.9043609E-01
        1   -1    0    0  501    0  0.00000000000E+00  0.00000000000E+00  0.55031172544E+03  0.55031172547E+03  0.50400001928E-02 0. -1.
       -1   -1    0    0    0  501  0.00000000000E+00  0.00000000000E+00 -0.74714419955E+03  0.74714419957E+03  0.50400001928E-02 0.  1.
    10030    2    1    2    0    0  0.00000000000E+00  0.00000000000E+00 -0.19683247411E+03  0.12974559250E+04  0.12824386358E+04 0.  0.
        3    1    3    3  502    0 -0.72559945803E+02 -0.55121723370E+03 -0.42162046553E+03  0.69776013903E+03  0.10100000352E+00 0. -1.
       -3    1    3    3    0  502  0.72559945803E+02  0.55121723370E+03  0.22478799142E+03  0.59969578600E+03  0.10100000352E+00 0.  1.
</event>
<event>
 5   0  0.9131250E-04  0.1323236E+04  0.7818609E-02  0.9011339E-01
        4   -1    0    0  501    0  0.00000000000E+00  0.00000000000E+00  0.14550474283E+04  0.14550479826E+04  0.12699999809E+01 0. -1.
       -4   -1    0    0    0  501  0.00000000000E+00  0.00000000000E+00 -0.30083919707E+03  0.30084187773E+03  0.12699999809E+01 0.  1.
    10030    2    1    2    0    0  0.00000000000E+00  0.00000000000E+00  0.11542082312E+04  0.17558898603E+04  0.13232356405E+04 0.  0.
        4    1    3    3  502    0  0.58816362855E+03  0.16962095669E+03  0.24396194178E+03  0.65895884912E+03  0.12699999809E+01 0.  1.
       -4    1    3    3    0  502 -0.58816362855E+03 -0.16962095669E+03  0.91024628947E+03  0.10969310112E+04  0.12699999809E+01 0. -1.
</event>
<event>
 5   0  0.2334946E-03  0.1296901E+04  0.7818609E-02  0.9032026E-01
       -2   -1    0    0    0  501  0.00000000000E+00  0.00000000000E+00  0.50028461223E+03  0.50028461223E+03  0.25500000920E-02 0.  1.
        2   -1    0    0  501    0  0.00000000000E+00  0.00000000000E+00 -0.84049794452E+03  0.84049794452E+03  0.25500000920E-02 0. -1.
    10030    2    1    2    0    0  0.00000000000E+00  0.00000000000E+00 -0.34021333229E+03  0.13407825568E+04  0.12969012117E+04 0.  0.
        1    1    3    3  502    0 -0.14231250021E+02  0.23376304075E+03  0.45503522558E+03  0.51176629846E+03  0.50400001928E-02 0.  1.
       -1    1    3    3    0  502  0.14231250021E+02 -0.23376304075E+03 -0.79524855787E+03  0.82901625830E+03  0.50400001928E-02 0. -1.
</event>
<event>
 5   0  0.2478236E-03  0.1298535E+04  0.7818609E-02  0.9030727E-01
       -2   -1    0    0    0  501  0.00000000000E+00  0.00000000000E+00  0.59334897182E+03  0.59334897183E+03  0.25500000920E-02 0. -1.
        2   -1    0    0  501    0  0.00000000000E+00  0.00000000000E+00 -0.71045624908E+03  0.71045624909E+03  0.25500000920E-02 0.  1.
    10030    2    1    2    0    0  0.00000000000E+00  0.00000000000E+00 -0.11710727726E+03  0.13038052209E+04  0.12985353055E+04 0.  0.
        3    1    3    3  502    0 -0.35481234235E+03 -0.15832713724E+03  0.46373932893E+03  0.60499045948E+03  0.10100000352E+00 0. -1.
       -3    1    3    3    0  502  0.35481234235E+03  0.15832713724E+03 -0.58084660619E+03  0.69881476143E+03  0.10100000352E+00 0.  1.
</event>
<event>
 5   0  0.2478236E-03  0.1306860E+04  0.7818609E-02  0.9024143E-01
       -2   -1    0    0    0  501  0.00000000000E+00  0.00000000000E+00  0.51275969928E+03  0.51275969928E+03  0.25500000920E-02 0. -1.
        2   -1    0    0  501    0  0.00000000000E+00  0.00000000000E+00 -0.83269149537E+03  0.83269149537E+03  0.25500000920E-02 0.  1.
    10030    2    1    2    0    0  0.00000000000E+00  0.00000000000E+00 -0.31993179609E+03  0.13454511947E+04  0.13068598100E+04 0.  0.
        3    1    3    3  502    0 -0.38619692237E+03 -0.40648331974E+03 -0.50542475847E+03  0.75487147830E+03  0.10100000352E+00 0.  1.
       -3    1    3    3    0  502  0.38619692237E+03  0.40648331974E+03  0.18549296238E+03  0.59057971635E+03  0.10100000352E+00 0. -1.
</event>
<event>
 5   0  0.1310461E-03  0.1288426E+04  0.7818609E-02  0.9038794E-01
       -1   -1    0    0    0  501  0.00000000000E+00  0.00000000000E+00  0.58330994651E+03  0.58330994653E+03  0.50400001928E-02 0.  1.
        1   -1    0    0  501    0  0.00000000000E+00  0.00000000000E+00 -0.71147443877E+03  0.71147443878E+03  0.50400001928E-02 0. -1.
    10030    2    1    2    0    0  0.00000000000E+00  0.00000000000E+00 -0.12816449226E+03  0.12947843853E+04  0.12884255770E+04 0.  0.
        4    1    3    3  502    0 -0.48046283200E+03 -0.26554075087E+03  0.27470481161E+03  0.61385728775E+03  0.12699999809E+01 0. -1.
       -4    1    3    3    0  502  0.48046283200E+03  0.26554075087E+03 -0.40286930386E+03  0.68092709756E+03  0.12699999809E+01 0.  1.
</event>
<event>
 5   0  0.2334946E-03  0.1295257E+04  0.7818609E-02  0.9033335E-01
       -2   -1    0    0    0  501  0.00000000000E+00  0.00000000000E+00  0.59431798280E+03  0.59431798281E+03  0.25500000920E-02 0. -1.
        2   -1    0    0  501    0  0.00000000000E+00  0.00000000000E+00 -0.70572092053E+03  0.70572092054E+03  0.25500000920E-02 0.  1.
    10030    2    1    2    0    0  0.00000000000E+00  0.00000000000E+00 -0.11140293773E+03  0.13000389033E+04  0.12952569381E+04 0.  0.
        1    1    3    3  502    0 -0.11038637658E+02  0.60666598001E+03 -0.28293778397E+03  0.66949178669E+03  0.50400001928E-02 0.  1.
       -1    1    3    3    0  502  0.11038637658E+02 -0.60666598001E+03  0.17153484624E+03  0.63054711666E+03  0.50400001928E-02 0. -1.
</event>
<event>
 5   0  0.1346593E-03  0.1382544E+04  0.7818609E-02  0.8966552E-01
        1   -1    0    0  501    0  0.00000000000E+00  0.00000000000E+00  0.17063428222E+04  0.17063428222E+04  0.50400001928E-02 0.  1.
       -1   -1    0    0    0  501  0.00000000000E+00  0.00000000000E+00 -0.28004752083E+03  0.28004752088E+03  0.50400001928E-02 0. -1.
    10030    2    1    2    0    0  0.00000000000E+00  0.00000000000E+00  0.14262953013E+04  0.19863903431E+04  0.13825441434E+04 0.  0.
        2    1    3    3  502    0 -0.44463099610E+03  0.74460634254E+02 -0.39771739590E+02  0.45257364044E+03  0.25500000920E-02 0. -1.
       -2    1    3    3    0  502  0.44463099610E+03 -0.74460634254E+02  0.14660670409E+04  0.15338167026E+04  0.25500000920E-02 0.  1.
</event>
<event>
 5   0  0.1324721E-03  0.1442223E+04  0.7818609E-02  0.8923810E-01
        1   -1    0    0  501    0  0.00000000000E+00  0.00000000000E+00  0.11686245100E+04  0.11686245100E+04  0.50400001928E-02 0.  1.
       -1   -1    0    0    0  501  0.00000000000E+00  0.00000000000E+00 -0.44496924345E+03  0.44496924348E+03  0.50400001928E-02 0. -1.
    10030    2    1    2    0    0  0.00000000000E+00  0.00000000000E+00  0.72365526658E+03  0.16135937535E+04  0.14422232339E+04 0.  0.
        1    1    3    3  502    0 -0.52556010321E+03 -0.45193933862E+03  0.13935498580E+03  0.70702362052E+03  0.50400001928E-02 0. -1.
       -1    1    3    3    0  502  0.52556010321E+03  0.45193933862E+03  0.58430028078E+03  0.90657013299E+03  0.50400001928E-02 0.  1.
</event>
<event>
 5   0  0.1332630E-03  0.1295681E+04  0.7818609E-02  0.9032997E-01
       -1   -1    0    0    0  501  0.00000000000E+00  0.00000000000E+00  0.74299085548E+03  0.74299085549E+03  0.50400001928E-02 0. -1.
        1   -1    0    0  501    0  0.00000000000E+00  0.00000000000E+00 -0.56487573082E+03  0.56487573084E+03  0.50400001928E-02 0.  1.
    10030    2    1    2    0    0  0.00000000000E+00  0.00000000000E+00  0.17811512466E+03  0.13078665863E+04  0.12956812918E+04 0.  0.
        5    1    3    3  502    0 -0.12707673527E+03  0.26263742314E+03  0.67289884448E+03  0.73344519739E+03  0.46999998093E+01 0. -1.
       -5    1    3    3    0  502  0.12707673527E+03 -0.26263742314E+03 -0.49478371982E+03  0.57442138895E+03  0.46999998093E+01 0.  1.
</event>
<event>
 5   0  0.2361043E-03  0.1287287E+04  0.7818609E-02  0.9039708E-01
       -2   -1    0    0    0  501  0.00000000000E+00  0.00000000000E+00  0.66308541492E+03  0.66308541493E+03  0.25500000920E-02 0. -1.
        2   -1    0    0  501    0  0.00000000000E+00  0.00000000000E+00 -0.62477184540E+03  0.62477184540E+03  0.25500000920E-02 0.  1.
    10030    2    1    2    0    0  0.00000000000E+00  0.00000000000E+00  0.38313569523E+02  0.12878572603E+04  0.12872872226E+04 0.  0.
        2    1    3    3  502    0 -0.40704897268E+03 -0.37777520033E+02  0.51652992019E+03  0.65872540989E+03  0.25500000920E-02 0. -1.
       -2    1    3    3    0  502  0.40704897268E+03  0.37777520033E+02 -0.47821635067E+03  0.62913185044E+03  0.25500000920E-02 0.  1.
</event>
<event>
 5   0  0.2334946E-03  0.1308077E+04  0.7818609E-02  0.9023184E-01
       -2   -1    0    0    0  501  0.00000000000E+00  0.00000000000E+00  0.86935541627E+03  0.86935541627E+03  0.25500000920E-02 0.  1.
        2   -1    0    0  501    0  0.00000000000E+00  0.00000000000E+00 -0.49205017756E+03  0.49205017756E+03  0.25500000920E-02 0. -1.
    10030    2    1    2    0    0  0.00000000000E+00  0.00000000000E+00  0.37730523871E+03  0.13614055938E+04  0.13080771949E+04 0.  0.
        1    1    3    3  502    0 -0.64190554336E+03 -0.93322125558E+02  0.27582120173E+03  0.70486103670E+03  0.50400001928E-02 0.  1.
       -1    1    3    3    0  502  0.64190554336E+03  0.93322125558E+02  0.10148403698E+03  0.65654455713E+03  0.50400001928E-02 0. -1.
</event>
<event>
 5   0  0.2312105E-03  0.1313225E+04  0.7818609E-02  0.9019143E-01
       -2   -1    0    0    0  501  0.00000000000E+00  0.00000000000E+00  0.45120213066E+03  0.45120213067E+03  0.25500000920E-02 0.  1.
        2   -1    0    0  501    0  0.00000000000E+00  0.00000000000E+00 -0.95553668787E+03  0.95553668787E+03  0.25500000920E-02 0. -1.
    10030    2    1    2    0    0  0.00000000000E+00  0.00000000000E+00 -0.50433455720E+03  0.14067388185E+04  0.13132253264E+04 0.  0.
        5    1    3    3  502    0 -0.50025194256E+03  0.28012709266E+03  0.90611081438E+02  0.58047881284E+03  0.46999998093E+01 0.  1.
       -5    1    3    3    0  502  0.50025194256E+03 -0.28012709266E+03 -0.59494563864E+03  0.82626000570E+03  0.46999998093E+01 0. -1.
</event>
<event>
 5   0  0.9131250E-04  0.1287871E+04  0.7818609E-02  0.9039239E-01
       -3   -1    0    0    0  501  0.00000000000E+00  0.00000000000E+00  0.40174989384E+03  0.40174990653E+03  0.10100000352E+00 0. -1.
        3   -1    0    0  501    0  0.00000000000E+00  0.00000000000E+00 -0.10321175820E+04  0.10321175869E+04  0.10100000352E+00 0.  1.
    10030    2    1    2    0    0  0.00000000000E+00  0.00000000000E+00 -0.63036768812E+03  0.14338674934E+04  0.12878713315E+04 0.  0.
        2    1    3    3  502    0  0.11964068844E+03  0.18766171180E+03 -0.98793699423E+03  0.10126945823E+04  0.25500000920E-02 0.  1.
       -2    1    3    3    0  502 -0.11964068844E+03 -0.18766171180E+03  0.35756930611E+03  0.42117291115E+03  0.25500000920E-02 0. -1.
</event>
<event>
 5   0  0.9131250E-04  0.1286738E+04  0.7818609E-02  0.9040149E-01
        4   -1    0    0  501    0  0.00000000000E+00  0.00000000000E+00  0.79135392464E+03  0.79135494372E+03  0.12699999809E+01 0. -1.
       -4   -1    0    0    0  501  0.00000000000E+00  0.00000000000E+00 -0.52305513711E+03  0.52305667891E+03  0.12699999809E+01 0.  1.
    10030    2    1    2    0    0  0.00000000000E+00  0.00000000000E+00  0.26829878753E+03  0.13144116226E+04  0.12867376090E+04 0.  0.
        2    1    3    3  502    0  0.16075664493E+03  0.45349142341E+03 -0.30215045214E+03  0.56814792592E+03  0.25500000920E-02 0.  1.
       -2    1    3    3    0  502 -0.16075664493E+03 -0.45349142341E+03  0.57044923967E+03  0.74626369672E+03  0.25500000920E-02 0. -1.
</event>
<event>
 5   0  0.2401211E-03  0.1314909E+04  0.7818609E-02  0.9017825E-01
       -2   -1    0    0    0  501  0.00000000000E+00  0.00000000000E+00  0.25266622402E+03  0.25266622403E+03  0.25500000920E-02 0. -1.
        2   -1    0    0  501    0  0.00000000000E+00  0.00000000000E+00 -0.17107418817E+04  0.17107418817E+04  0.25500000920E-02 0.  1.
    10030    2    1    2    0    0  0.00000000000E+00  0.00000000000E+00 -0.14580756577E+04  0.19634081057E+04  0.13149094137E+04 0.  0.
        4    1    3    3  502    0  0.18496780800E+03 -0.54154403380E+03 -0.12123377621E+04  0.13406145952E+04  0.12699999809E+01 0.  1.
       -4    1    3    3    0  502 -0.18496780800E+03  0.54154403380E+03 -0.24573789557E+03  0.62279351053E+03  0.12699999809E+01 0. -1.
</event>
<event>
 5   0  0.2334946E-03  0.1304609E+04  0.7818609E-02  0.9025918E-01
       -2   -1    0    0    0  501  0.00000000000E+00  0.00000000000E+00  0.19278090437E+03  0.19278090438E+03  0.25500000920E-02 0. -1.
        2   -1    0    0  501    0  0.00000000000E+00  0.00000000000E+00 -0.22071742269E+04  0.22071742269E+04  0.25500000920E-02 0.  1.
    10030    2    1    2    0    0  0.00000000000E+00  0.00000000000E+00 -0.20143933225E+04  0.23999551313E+04  0.13046088204E+04 0.  0.
        1    1    3    3  502    0 -0.14649928923E+03 -0.54670845275E+03 -0.41067651482E+03  0.69929062191E+03  0.50400001928E-02 0. -1.
       -1    1    3    3    0  502  0.14649928923E+03  0.54670845275E+03 -0.16037168077E+04  0.17006645094E+04  0.50400001928E-02 0.  1.
</event>
<event>
 5   0  0.1310461E-03  0.1208623E+04  0.7818609E-02  0.9105342E-01
       -1   -1    0    0    0  501  0.00000000000E+00  0.00000000000E+00  0.56930973043E+03  0.56930973045E+03  0.50400001928E-02 0.  1.
        1   -1    0    0  501    0  0.00000000000E+00  0.00000000000E+00 -0.64146489142E+03  0.64146489144E+03  0.50400001928E-02 0. -1.
    10030    2    1    2    0    0  0.00000000000E+00  0.00000000000E+00 -0.72155160988E+02  0.12107746219E+04  0.12086226945E+04 0.  0.
        4    1    3    3  502    0  0.56424903732E+03  0.96901060038E+01 -0.25260986985E+03  0.61829138237E+03  0.12699999809E+01 0.  1.
       -4    1    3    3    0  502 -0.56424903732E+03 -0.96901060038E+01  0.18045470886E+03  0.59248323952E+03  0.12699999809E+01 0. -1.
</event>
<event>
 5   0  0.1332630E-03  0.1294444E+04  0.7818609E-02  0.9033983E-01
       -1   -1    0    0    0  501  0.00000000000E+00  0.00000000000E+00  0.37996867933E+03  0.37996867936E+03  0.50400001928E-02 0.  1.
        1   -1    0    0  501    0  0.00000000000E+00  0.00000000000E+00 -0.11024496417E+04  0.11024496417E+04  0.50400001928E-02 0. -1.
    10030    2    1    2    0    0  0.00000000000E+00  0.00000000000E+00 -0.72248096238E+03  0.14824183211E+04  0.12944440265E+04 0.  0.
        5    1    3    3  502    0 -0.33773139632E+03 -0.51847689116E+03 -0.14397071018E+03  0.63531916241E+03  0.46999998093E+01 0. -1.
       -5    1    3    3    0  502  0.33773139632E+03  0.51847689116E+03 -0.57851025220E+03  0.84709915868E+03  0.46999998093E+01 0.  1.
</event>
<event>
 5   0  0.2312105E-03  0.1269244E+04  0.7818609E-02  0.9054317E-01
        2   -1    0    0  501    0  0.00000000000E+00  0.00000000000E+00  0.12537258698E+04  0.12537258698E+04  0.25500000920E-02 0. -1.
       -2   -1    0    0    0  501  0.00000000000E+00  0.00000000000E+00 -0.32123864455E+03  0.32123864456E+03  0.25500000920E-02 0.  1.
    10030    2    1    2    0    0  0.00000000000E+00  0.00000000000E+00  0.93248722530E+03  0.15749645144E+04  0.12692441831E+04 0.  0.
        5    1    3    3  502    0 -0.44596354994E+03  0.88445000875E+02  0.10156232706E+04  0.11127527685E+04  0.46999998093E+01 0. -1.
       -5    1    3    3    0  502  0.44596354994E+03 -0.88445000875E+02 -0.83136045267E+02  0.46221174593E+03  0.46999998093E+01 0.  1.
</event>
<event>
 5   0  0.2312105E-03  0.1309149E+04  0.7818609E-02  0.9022341E-01
       -2   -1    0    0    0  501  0.00000000000E+00  0.00000000000E+00  0.28908834536E+03  0.28908834537E+03  0.25500000920E-02 0. -1.
        2   -1    0    0  501    0  0.00000000000E+00  0.00000000000E+00 -0.14821343741E+04  0.14821343741E+04  0.25500000920E-02 0.  1.
    10030    2    1    2    0    0  0.00000000000E+00  0.00000000000E+00 -0.11930460288E+04  0.17712227195E+04  0.13091489966E+04 0.  0.
        5    1    3    3  502    0 -0.90087769509E+02  0.58819390107E+03 -0.22759010293E+03  0.63710848089E+03  0.46999998093E+01 0. -1.
       -5    1    3    3    0  502  0.90087769509E+02 -0.58819390107E+03 -0.96545592583E+03  0.11341142386E+04  0.46999998093E+01 0.  1.
</event>
<event>
 5   0  0.2312105E-03  0.1330451E+04  0.7818609E-02  0.9005760E-01
        2   -1    0    0  501    0  0.00000000000E+00  0.00000000000E+00  0.33310181672E+03  0.33310181673E+03  0.25500000920E-02 0. -1.
       -2   -1    0    0    0  501  0.00000000000E+00  0.00000000000E+00 -0.13284976148E+04  0.13284976148E+04  0.25500000920E-02 0.  1.
    10030    2    1    2    0    0  0.00000000000E+00  0.00000000000E+00 -0.99539579807E+03  0.16615994315E+04  0.13304510047E+04 0.  0.
        5    1    3    3  502    0 -0.33790359313E+02 -0.86053136608E+02  0.32501872328E+03  0.33794406517E+03  0.46999998093E+01 0. -1.
       -5    1    3    3    0  502  0.33790359313E+02  0.86053136608E+02 -0.13204145213E+04  0.13236553664E+04  0.46999998093E+01 0.  1.
</event>
<event>
 5   0  0.2401211E-03  0.1254516E+04  0.7818609E-02  0.9066433E-01
       -2   -1    0    0    0  501  0.00000000000E+00  0.00000000000E+00  0.48490074515E+03  0.48490074515E+03  0.25500000920E-02 0.  1.
        2   -1    0    0  501    0  0.00000000000E+00  0.00000000000E+00 -0.81140917031E+03  0.81140917032E+03  0.25500000920E-02 0. -1.
    10030    2    1    2    0    0  0.00000000000E+00  0.00000000000E+00 -0.32650842517E+03  0.12963099155E+04  0.12545164986E+04 0.  0.
        4    1    3    3  502    0  0.47782673823E+03 -0.59661805592E+02 -0.57860722528E+03  0.75277211483E+03  0.12699999809E+01 0. -1.
       -4    1    3    3    0  502 -0.47782673823E+03  0.59661805592E+02  0.25209880011E+03  0.54353780065E+03  0.12699999809E+01 0.  1.
</event>
<event>
 5   0  0.2401211E-03  0.1301661E+04  0.7818609E-02  0.9028249E-01
       -2   -1    0    0    0  501  0.00000000000E+00  0.00000000000E+00  0.59536096151E+03  0.59536096151E+03  0.25500000920E-02 0.  1.
        2   -1    0    0  501    0  0.00000000000E+00  0.00000000000E+00 -0.71146780771E+03  0.71146780772E+03  0.25500000920E-02 0. -1.
    10030    2    1    2    0    0  0.00000000000E+00  0.00000000000E+00 -0.11610684620E+03  0.13068287692E+04  0.13016607209E+04 0.  0.
        4    1    3    3  502    0 -0.35797924212E+02  0.70350288248E+02 -0.70664304982E+03  0.71103914603E+03  0.12699999809E+01 0. -1.
       -4    1    3    3    0  502  0.35797924212E+02 -0.70350288248E+02  0.59053620361E+03  0.59578962320E+03  0.12699999809E+01 0.  1.
</event>
<event>
 5   0  0.1332630E-03  0.1325892E+04  0.7818609E-02  0.9009281E-01
        1   -1    0    0  501    0  0.00000000000E+00  0.00000000000E+00  0.10106801351E+04  0.10106801351E+04  0.50400001928E-02 0.  1.
       -1   -1    0    0    0  501  0.00000000000E+00  0.00000000000E+00 -0.43485307410E+03  0.43485307413E+03  0.50400001928E-02 0. -1.
    10030    2    1    2    0    0  0.00000000000E+00  0.00000000000E+00  0.57582706103E+03  0.14455332093E+04  0.13258919469E+04 0.  0.
        5    1    3    3  502    0 -0.21673380230E+03 -0.11976215255E+03  0.95834906223E+03  0.98983409181E+03  0.46999998093E+01 0.  1.
       -5    1    3    3    0  502  0.21673380230E+03  0.11976215255E+03 -0.38252200120E+03  0.45569911745E+03  0.46999998093E+01 0. -1.
</event>
<event>
 5   0  0.2478236E-03  0.1346291E+04  0.7818609E-02  0.8993641E-01
        2   -1    0    0  501    0  0.00000000000E+00  0.00000000000E+00  0.23802816618E+04  0.23802816618E+04  0.25500000920E-02 0.  1.
       -2   -1    0    0    0  501  0.00000000000E+00  0.00000000000E+00 -0.19036597885E+03  0.19036597887E+03  0.25500000920E-02 0. -1.
    10030    2    1    2    0    0  0.00000000000E+00  0.00000000000E+00  0.21899156829E+04  0.25706476407E+04  0.13462906796E+04 0.  0.
        3    1    3    3  502    0  0.48348134865E+03 -0.45980454939E+03  0.12652100463E+04  0.14303604125E+04  0.10100000352E+00 0.  1.
       -3    1    3    3    0  502 -0.48348134865E+03  0.45980454939E+03  0.92470563667E+03  0.11402872282E+04  0.10100000352E+00 0. -1.
</event>
<event>
 5   0  0.2361043E-03  0.1299797E+04  0.7818609E-02  0.9029726E-01
       -2   -1    0    0    0  501  0.00000000000E+00  0.00000000000E+00  0.33634957750E+03  0.33634957751E+03  0.25500000920E-02 0.  1.
        2   -1    0    0  501    0  0.00000000000E+00  0.00000000000E+00 -0.12557422444E+04  0.12557422445E+04  0.25500000920E-02 0. -1.
    10030    2    1    2    0    0  0.00000000000E+00  0.00000000000E+00 -0.91939266695E+03  0.15920918220E+04  0.12997974817E+04 0.  0.
        2    1    3    3  502    0  0.75664036703E+02 -0.63900859533E+03 -0.57136414309E+03  0.86053124021E+03  0.25500000920E-02 0.  1.
       -2    1    3    3    0  502 -0.75664036703E+02  0.63900859533E+03 -0.34802852386E+03  0.73156058176E+03  0.25500000920E-02 0. -1.
</event>
<event>
 5   0  0.1324721E-03  0.1317635E+04  0.7818609E-02  0.9015696E-01
        1   -1    0    0  501    0  0.00000000000E+00  0.00000000000E+00  0.15592577588E+04  0.15592577588E+04  0.50400001928E-02 0.  1.
       -1   -1    0    0    0  501  0.00000000000E+00  0.00000000000E+00 -0.27836337099E+03  0.27836337104E+03  0.50400001928E-02 0. -1.
    10030    2    1    2    0    0  0.00000000000E+00  0.00000000000E+00  0.12808943878E+04  0.18376211298E+04  0.13176346171E+04 0.  0.
        1    1    3    3  502    0  0.38536128427E+03 -0.27333606251E+03  0.91408585605E-01  0.47245733232E+03  0.50400001928E-02 0. -1.
       -1    1    3    3    0  502 -0.38536128427E+03  0.27333606251E+03  0.12808029792E+04  0.13651637975E+04  0.50400001928E-02 0.  1.
</event>
<event>
 5   0  0.2312105E-03  0.1330839E+04  0.7818609E-02  0.9005461E-01
       -2   -1    0    0    0  501  0.00000000000E+00  0.00000000000E+00  0.35821576476E+03  0.35821576476E+03  0.25500000920E-02 0. -1.
        2   -1    0    0  501    0  0.00000000000E+00  0.00000000000E+00 -0.12360787059E+04  0.12360787059E+04  0.25500000920E-02 0.  1.
    10030    2    1    2    0    0  0.00000000000E+00  0.00000000000E+00 -0.87786294117E+03  0.15942944707E+04  0.13308386513E+04 0.  0.
        5    1    3    3  502    0  0.71022855605E+02  0.56234280992E+03 -0.85648122214E+03  0.10270617585E+04  0.46999998093E+01 0.  1.
       -5    1    3    3    0  502 -0.71022855605E+02 -0.56234280992E+03 -0.21381719030E+02  0.56723271220E+03  0.46999998093E+01 0. -1.
</event>
<event>
 5   0  0.2361043E-03  0.1276601E+04  0.7818609E-02  0.9048330E-01
        2   -1    0    0  501    0  0.00000000000E+00  0.00000000000E+00  0.77623266246E+03  0.77623266247E+03  0.25500000920E-02 0.  1.
       -2   -1    0    0    0  501  0.00000000000E+00  0.00000000000E+00 -0.52487770640E+03  0.52487770641E+03  0.25500000920E-02 0. -1.
    10030    2    1    2    0    0  0.00000000000E+00  0.00000000000E+00  0.25135495606E+03  0.13011103689E+04  0.12766005162E+04 0.  0.
        2    1    3    3  502    0 -0.27620297630E+03  0.21495335743E+03 -0.41836323865E+03  0.54545469972E+03  0.25500000920E-02 0. -1.
       -2    1    3    3    0  502  0.27620297630E+03 -0.21495335743E+03  0.66971819471E+03  0.75565566915E+03  0.25500000920E-02 0.  1.
</event>
<event>
 5   0  0.1324721E-03  0.1303311E+04  0.7818609E-02  0.9026943E-01
       -1   -1    0    0    0  501  0.00000000000E+00  0.00000000000E+00  0.66135459378E+03  0.66135459380E+03  0.50400001928E-02 0. -1.
        1   -1    0    0  501    0  0.00000000000E+00  0.00000000000E+00 -0.64209899743E+03  0.64209899745E+03  0.50400001928E-02 0.  1.
    10030    2    1    2    0    0  0.00000000000E+00  0.00000000000E+00  0.19255596348E+02  0.13034535913E+04  0.13033113544E+04 0.  0.
        1    1    3    3  502    0  0.37793465005E+03  0.38195969550E+03 -0.35909565292E+03  0.64627973561E+03  0.50400001928E-02 0.  1.
       -1    1    3    3    0  502 -0.37793465005E+03 -0.38195969550E+03  0.37835124927E+03  0.65717385564E+03  0.50400001928E-02 0. -1.
</event>
<event>
 5   0  0.2312105E-03  0.1303039E+04  0.7818609E-02  0.9027159E-01
        2   -1    0    0  501    0  0.00000000000E+00  0.00000000000E+00  0.92618219613E+03  0.92618219614E+03  0.25500000920E-02 0.  1.
       -2   -1    0    0    0  501  0.00000000000E+00  0.00000000000E+00 -0.45830904042E+03  0.45830904043E+03  0.25500000920E-02 0. -1.
    10030    2    1    2    0    0  0.00000000000E+00  0.00000000000E+00  0.46787315571E+03  0.13844912366E+04  0.13030390226E+04 0.  0.
        5    1    3    3  502    0  0.11117157729E+03 -0.34623463378E+03  0.80829937618E+03  0.88634503031E+03  0.46999998093E+01 0.  1.
       -5    1    3    3    0  502 -0.11117157729E+03  0.34623463378E+03 -0.34042622047E+03  0.49814620625E+03  0.46999998093E+01 0. -1.
</event>
<event>
 5   0  0.2312105E-03  0.1304838E+04  0.7818609E-02  0.9025737E-01
        2   -1    0    0  501    0  0.00000000000E+00  0.00000000000E+00  0.55893650982E+03  0.55893650982E+03  0.25500000920E-02 0. -1.
       -2   -1    0    0    0  501  0.00000000000E+00  0.00000000000E+00 -0.76153637884E+03  0.76153637885E+03  0.25500000920E-02 0.  1.
    10030    2    1    2    0    0  0.00000000000E+00  0.00000000000E+00 -0.20259986902E+03  0.13204728887E+04  0.13048378990E+04 0.  0.
        5    1    3    3  502    0 -0.56947065163E+03 -0.19007012085E+03  0.15711232638E+03  0.62058830717E+03  0.46999998093E+01 0.  1.
       -5    1    3    3    0  502  0.56947065163E+03  0.19007012085E+03 -0.35971219540E+03  0.69988458150E+03  0.46999998093E+01 0. -1.
</event>
<event>
 5   0  0.2478236E-03  0.1339911E+04  0.7818609E-02  0.8998500E-01
       -2   -1    0    0    0  501  0.00000000000E+00  0.00000000000E+00  0.79866335672E+03  0.79866335672E+03  0.25500000920E-02 0.  1.
        2   -1    0    0  501    0  0.00000000000E+00  0.00000000000E+00 -0.56198979282E+03  0.56198979283E+03  0.25500000920E-02 0. -1.
    10030    2    1    2    0    0  0.00000000000E+00  0.00000000000E+00  0.23667356389E+03  0.13606531496E+04  0.13399114215E+04 0.  0.
        3    1    3    3  502    0 -0.29073944968E+03  0.18478712434E+03 -0.46515778425E+03  0.57883286307E+03  0.10100000352E+00 0. -1.
       -3    1    3    3    0  502  0.29073944968E+03 -0.18478712434E+03  0.70183134814E+03  0.78182028648E+03  0.10100000352E+00 0.  1.
</event>
<event>
 5   0  0.9131250E-04  0.1322907E+04  0.7818609E-02  0.9011594E-01
       -4   -1    0    0    0  501  0.00000000000E+00  0.00000000000E+00  0.86416368418E+03  0.86416461739E+03  0.12699999809E+01 0.  1.
        4   -1    0    0  501    0  0.00000000000E+00  0.00000000000E+00 -0.50629171180E+03  0.50629330466E+03  0.12699999809E+01 0. -1.
    10030    2    1    2    0    0  0.00000000000E+00  0.00000000000E+00  0.35787197238E+03  0.13704579220E+04  0.13229068627E+04 0.  0.
        5    1    3    3  502    0 -0.34895293870E+03 -0.42019443820E+03  0.56539604865E+03  0.78614648835E+03  0.46999998093E+01 0.  1.
       -5    1    3    3    0  502  0.34895293870E+03  0.42019443820E+03 -0.20752407627E+03  0.58431143370E+03  0.46999998093E+01 0. -1.
</event>
<event>
 5   0  0.1332630E-03  0.1292242E+04  0.7818609E-02  0.9035740E-01
        1   -1    0    0  501    0  0.00000000000E+00  0.00000000000E+00  0.10717611019E+04  0.10717611020E+04  0.50400001928E-02 0. -1.
       -1   -1    0    0    0  501  0.00000000000E+00  0.00000000000E+00 -0.38952022581E+03  0.38952022585E+03  0.50400001928E-02 0.  1.
    10030    2    1    2    0    0  0.00000000000E+00  0.00000000000E+00  0.68224087613E+03  0.14612813278E+04  0.12922424331E+04 0.  0.
        5    1    3    3  502    0  0.93661966325E+02 -0.81836883727E+02 -0.37583545135E+03  0.39590935321E+03  0.46999998093E+01 0.  1.
       -5    1    3    3    0  502 -0.93661966325E+02  0.81836883727E+02  0.10580763275E+04  0.10653719746E+04  0.46999998093E+01 0. -1.
</event>
<event>
 5   0  0.2361043E-03  0.1304085E+04  0.7818609E-02  0.9026332E-01
        2   -1    0    0  501    0  0.00000000000E+00  0.00000000000E+00  0.82258835910E+03  0.82258835911E+03  0.25500000920E-02 0. -1.
       -2   -1    0    0    0  501  0.00000000000E+00  0.00000000000E+00 -0.51685523731E+03  0.51685523731E+03  0.25500000920E-02 0.  1.
    10030    2    1    2    0    0  0.00000000000E+00  0.00000000000E+00  0.30573312180E+03  0.13394435964E+04  0.13040845089E+04 0.  0.
        2    1    3    3  502    0 -0.28126659048E+03 -0.10675279815E+03  0.74704301417E+03  0.80534484530E+03  0.25500000920E-02 0. -1.
       -2    1    3    3    0  502  0.28126659048E+03  0.10675279815E+03 -0.44130989237E+03  0.53409875112E+03  0.25500000920E-02 0.  1.
</event>
<event>
 5   0  0.2334946E-03  0.1295529E+04  0.7818609E-02  0.9033118E-01
        2   -1    0    0  501    0  0.00000000000E+00  0.00000000000E+00  0.11912072779E+04  0.11912072779E+04  0.25500000920E-02 0.  1.
       -2   -1    0    0    0  501  0.00000000000E+00  0.00000000000E+00 -0.35224653550E+03  0.35224653551E+03  0.25500000920E-02 0. -1.
    10030    2    1    2    0    0  0.00000000000E+00  0.00000000000E+00  0.83896074238E+03  0.15434538134E+04  0.12955286746E+04 0.  0.
        1    1    3    3  502    0 -0.41751748727E+03 -0.53643206097E+02  0.10060412406E+04  0.10905583082E+04  0.50400001928E-02 0.  1.
       -1    1    3    3    0  502  0.41751748727E+03  0.53643206097E+02 -0.16708049822E+03  0.45289550522E+03  0.50400001928E-02 0. -1.
</event>
<event>
 5   0  0.1346593E-03  0.1045644E+04  0.7818609E-02  0.9259853E-01
       -1   -1    0    0    0  501  0.00000000000E+00  0.00000000000E+00  0.44024440914E+03  0.44024440917E+03  0.50400001928E-02 0. -1.
        1   -1    0    0  501    0  0.00000000000E+00  0.00000000000E+00 -0.62088917097E+03  0.62088917099E+03  0.50400001928E-02 0.  1.
    10030    2    1    2    0    0  0.00000000000E+00  0.00000000000E+00 -0.18064476183E+03  0.10611335802E+04  0.10456442727E+04 0.  0.
        2    1    3    3  502    0  0.41354961853E+03 -0.31011924394E+03 -0.10766246308E+02  0.51702335007E+03  0.25500000920E-02 0. -1.
       -2    1    3    3    0  502 -0.41354961853E+03  0.31011924394E+03 -0.16987851552E+03  0.54411023009E+03  0.25500000920E-02 0.  1.
</event>
<event>
 5   0  0.1387622E-03  0.1322180E+04  0.7818609E-02  0.9012159E-01
       -1   -1    0    0    0  501  0.00000000000E+00  0.00000000000E+00  0.39792830799E+03  0.39792830802E+03  0.50400001928E-02 0.  1.
        1   -1    0    0  501    0  0.00000000000E+00  0.00000000000E+00 -0.10982876773E+04  0.10982876773E+04  0.50400001928E-02 0. -1.
    10030    2    1    2    0    0  0.00000000000E+00  0.00000000000E+00 -0.70035936928E+03  0.14962159853E+04  0.13221796506E+04 0.  0.
        3    1    3    3  502    0  0.22678938475E+03  0.40175415823E+03  0.18564355589E+03  0.49729605743E+03  0.10100000352E+00 0.  1.
       -3    1    3    3    0  502 -0.22678938475E+03 -0.40175415823E+03 -0.88600292517E+03  0.99891992787E+03  0.10100000352E+00 0. -1.
</event>
<event>
 5   0  0.2361043E-03  0.1297463E+04  0.7818609E-02  0.9031580E-01
        2   -1    0    0  501    0  0.00000000000E+00  0.00000000000E+00  0.22065289077E+04  0.22065289077E+04  0.25500000920E-02 0.  1.
       -2   -1    0    0    0  501  0.00000000000E+00  0.00000000000E+00 -0.19073051437E+03  0.19073051439E+03  0.25500000920E-02 0. -1.
    10030    2    1    2    0    0  0.00000000000E+00  0.00000000000E+00  0.20157983934E+04  0.23972594221E+04  0.12974627449E+04 0.  0.
        2    1    3    3  502    0 -0.36492083360E+03  0.24533426525E+03  0.12663264926E+03  0.45759364546E+03  0.25500000920E-02 0. -1.
       -2    1    3    3    0  502  0.36492083360E+03 -0.24533426525E+03  0.18891657441E+04  0.19396657767E+04  0.25500000920E-02 0.  1.
</event>
<event>
 5   0  0.1324721E-03  0.1091653E+04  0.7818609E-02  0.9213366E-01
        1   -1    0    0  501    0  0.00000000000E+00  0.00000000000E+00  0.40841168567E+03  0.40841168571E+03  0.50400001928E-02 0.  1.
       -1   -1    0    0    0  501  0.00000000000E+00  0.00000000000E+00 -0.72947590375E+03  0.72947590376E+03  0.50400001928E-02 0. -1.
    10030    2    1    2    0    0  0.00000000000E+00  0.00000000000E+00 -0.32106421807E+03  0.11378875895E+04  0.10916528451E+04 0.  0.
        1    1    3    3  502    0 -0.14176415276E+03  0.40254989733E+03 -0.51521250743E+03  0.66901974761E+03  0.50400001928E-02 0. -1.
       -1    1    3    3    0  502  0.14176415276E+03 -0.40254989733E+03  0.19414828936E+03  0.46886784186E+03  0.50400001928E-02 0.  1.
</event>
<event>
 5   0  0.1324721E-03  0.1252164E+04  0.7818609E-02  0.9068384E-01
       -1   -1    0    0    0  501  0.00000000000E+00  0.00000000000E+00  0.45598703931E+03  0.45598703933E+03  0.50400001928E-02 0.  1.
        1   -1    0    0  501    0  0.00000000000E+00  0.00000000000E+00 -0.85962640613E+03  0.85962640614E+03  0.50400001928E-02 0. -1.
    10030    2    1    2    0    0  0.00000000000E+00  0.00000000000E+00 -0.40363936682E+03  0.13156134455E+04  0.12521637271E+04 0.  0.
        1    1    3    3  502    0 -0.30445268535E+03 -0.11749042561E+03 -0.76320022811E+03  0.83004218323E+03  0.50400001928E-02 0. -1.
       -1    1    3    3    0  502  0.30445268535E+03  0.11749042561E+03  0.35956086129E+03  0.48557126225E+03  0.50400001928E-02 0.  1.
</event>
<event>
 5   0  0.1346593E-03  0.1226664E+04  0.7818609E-02  0.9089832E-01
       -1   -1    0    0    0  501  0.00000000000E+00  0.00000000000E+00  0.50438731653E+03  0.50438731656E+03  0.50400001928E-02 0.  1.
        1   -1    0    0  501    0  0.00000000000E+00  0.00000000000E+00 -0.74580864775E+03  0.74580864777E+03  0.50400001928E-02 0. -1.
    10030    2    1    2    0    0  0.00000000000E+00  0.00000000000E+00 -0.24142133122E+03  0.12501959643E+04  0.12266644570E+04 0.  0.
        2    1    3    3  502    0  0.49072416216E+02 -0.54780667464E+03  0.15592987516E+03  0.57167681498E+03  0.25500000920E-02 0.  1.
       -2    1    3    3    0  502 -0.49072416216E+02  0.54780667464E+03 -0.39735120638E+03  0.67851914934E+03  0.25500000920E-02 0. -1.
</event>
<event>
 5   0  0.2401211E-03  0.1305908E+04  0.7818609E-02  0.9024893E-01
        2   -1    0    0  501    0  0.00000000000E+00  0.00000000000E+00  0.54871622866E+03  0.54871622867E+03  0.25500000920E-02 0.  1.
       -2   -1    0    0    0  501  0.00000000000E+00  0.00000000000E+00 -0.77699298917E+03  0.77699298918E+03  0.25500000920E-02 0. -1.
    10030    2    1    2    0    0  0.00000000000E+00  0.00000000000E+00 -0.22827676051E+03  0.13257092178E+04  0.13059075966E+04 0.  0.
        4    1    3    3  502    0  0.72545295406E+02  0.19809578818E+03 -0.74144206704E+03  0.77087139839E+03  0.12699999809E+01 0. -1.
       -4    1    3    3    0  502 -0.72545295406E+02 -0.19809578818E+03  0.51316530653E+03  0.55483781946E+03  0.12699999809E+01 0.  1.
</event>
<event>
 5   0  0.2312105E-03  0.1326863E+04  0.7818609E-02  0.9008530E-01
       -2   -1    0    0    0  501  0.00000000000E+00  0.00000000000E+00  0.86979444973E+03  0.86979444973E+03  0.25500000920E-02 0. -1.
        2   -1    0    0  501    0  0.00000000000E+00  0.00000000000E+00 -0.50602930815E+03  0.50602930815E+03  0.25500000920E-02 0.  1.
    10030    2    1    2    0    0  0.00000000000E+00  0.00000000000E+00  0.36376514158E+03  0.13758237579E+04  0.13268631936E+04 0.  0.
        5    1    3    3  502    0  0.41849072193E+03  0.51377981103E+02 -0.34921367187E+03  0.54749105920E+03  0.46999998093E+01 0.  1.
       -5    1    3    3    0  502 -0.41849072193E+03 -0.51377981103E+02  0.71297881345E+03  0.82833269869E+03  0.46999998093E+01 0. -1.
</event>
<event>
 5   0  0.2401211E-03  0.1337587E+04  0.7818609E-02  0.9000278E-01
       -2   -1    0    0    0  501  0.00000000000E+00  0.00000000000E+00  0.21005816146E+03  0.21005816147E+03  0.25500000920E-02 0. -1.
        2   -1    0    0  501    0  0.00000000000E+00  0.00000000000E+00 -0.21293368686E+04  0.21293368686E+04  0.25500000920E-02 0.  1.
    10030    2    1    2    0    0  0.00000000000E+00  0.00000000000E+00 -0.19192787071E+04  0.23393950301E+04  0.13375867639E+04 0.  0.
        4    1    3    3  502    0 -0.34931013212E+03 -0.25361907519E+03 -0.66222305290E+02  0.43672326515E+03  0.12699999809E+01 0. -1.
       -4    1    3    3    0  502  0.34931013212E+03  0.25361907519E+03 -0.18530564018E+04  0.19026717649E+04  0.12699999809E+01 0.  1.
</event>
<event>
 5   0  0.2334946E-03  0.1301174E+04  0.7818609E-02  0.9028634E-01
        2   -1    0    0  501    0  0.00000000000E+00  0.00000000000E+00  0.16986179091E+04  0.16986179091E+04  0.25500000920E-02 0. -1.
       -2   -1    0    0    0  501  0.00000000000E+00  0.00000000000E+00 -0.24918123515E+03  0.24918123516E+03  0.25500000920E-02 0.  1.
    10030    2    1    2    0    0  0.00000000000E+00  0.00000000000E+00  0.14494366740E+04  0.19477991443E+04  0.13011744059E+04 0.  0.
        1    1    3    3  502    0 -0.40166574246E+03  0.12986908693E+02  0.14905971125E+04  0.15438211620E+04  0.50400001928E-02 0. -1.
       -1    1    3    3    0  502  0.40166574246E+03 -0.12986908693E+02 -0.41160438493E+02  0.40397798230E+03  0.50400001928E-02 0.  1.
</event>
<event>
 5   0  0.2312105E-03  0.1257012E+04  0.7818609E-02  0.9064367E-01
       -2   -1    0    0    0  501  0.00000000000E+00  0.00000000000E+00  0.59514739491E+03  0.59514739491E+03  0.25500000920E-02 0. -1.
        2   -1    0    0  501    0  0.00000000000E+00  0.00000000000E+00 -0.66373485251E+03  0.66373485252E+03  0.25500000920E-02 0.  1.
    10030    2    1    2    0    0  0.00000000000E+00  0.00000000000E+00 -0.68587457606E+02  0.12588822474E+04  0.12570124397E+04 0.  0.
        5    1    3    3  502    0  0.49182827742E+03 -0.36572399255E+03 -0.17360091092E+03  0.63703097214E+03  0.46999998093E+01 0. -1.
       -5    1    3    3    0  502 -0.49182827742E+03  0.36572399255E+03  0.10501345331E+03  0.62185127529E+03  0.46999998093E+01 0.  1.
</event>
<event>
 5   0  0.2478236E-03  0.1280889E+04  0.7818609E-02  0.9044859E-01
       -2   -1    0    0    0  501  0.00000000000E+00  0.00000000000E+00  0.22789864713E+03  0.22789864714E+03  0.25500000920E-02 0. -1.
        2   -1    0    0  501    0  0.00000000000E+00  0.00000000000E+00 -0.17997876072E+04  0.17997876072E+04  0.25500000920E-02 0.  1.
    10030    2    1    2    0    0  0.00000000000E+00  0.00000000000E+00 -0.15718889601E+04  0.20276862544E+04  0.12808890051E+04 0.  0.
        3    1    3    3  502    0  0.42032196148E+03 -0.16819559544E+03 -0.15030569806E+04  0.15697581364E+04  0.10100000352E+00 0.  1.
       -3    1    3    3    0  502 -0.42032196148E+03  0.16819559544E+03 -0.68831979485E+02  0.45792811797E+03  0.10100000352E+00 0. -1.
</event>
<event>
 5   0  0.2401211E-03  0.1290106E+04  0.7818609E-02  0.9037448E-01
        2   -1    0    0  501    0  0.00000000000E+00  0.00000000000E+00  0.25288706494E+03  0.25288706495E+03  0.25500000920E-02 0. -1.
       -2   -1    0    0    0  501  0.00000000000E+00  0.00000000000E+00 -0.16453723745E+04  0.16453723745E+04  0.25500000920E-02 0.  1.
    10030    2    1    2    0    0  0.00000000000E+00  0.00000000000E+00 -0.13924853095E+04  0.18982594394E+04  0.12901060274E+04 0.  0.
        4    1    3    3  502    0  0.11544642961E+03  0.45560142156E+03 -0.13463129627E+04  0.14259946493E+04  0.12699999809E+01 0.  1.
       -4    1    3    3    0  502 -0.11544642961E+03 -0.45560142156E+03 -0.46172346813E+02  0.47226479008E+03  0.12699999809E+01 0. -1.
</event>
<event>
 5   0  0.1387622E-03  0.1313361E+04  0.7818609E-02  0.9019037E-01
        1   -1    0    0  501    0  0.00000000000E+00  0.00000000000E+00  0.90988507238E+03  0.90988507239E+03  0.50400001928E-02 0. -1.
       -1   -1    0    0    0  501  0.00000000000E+00  0.00000000000E+00 -0.47393793356E+03  0.47393793359E+03  0.50400001928E-02 0.  1.
    10030    2    1    2    0    0  0.00000000000E+00  0.00000000000E+00  0.43594713882E+03  0.13838230060E+04  0.13133606527E+04 0.  0.
        3    1    3    3  502    0  0.11996408298E+03 -0.63967385491E+03  0.12578656976E+03  0.66286974074E+03  0.10100000352E+00 0.  1.
       -3    1    3    3    0  502 -0.11996408298E+03  0.63967385491E+03  0.31016056906E+03  0.72095326524E+03  0.10100000352E+00 0. -1.
</event>
<event>
 5   0  0.1346593E-03  0.1320531E+04  0.7818609E-02  0.9013441E-01
       -1   -1    0    0    0  501  0.00000000000E+00  0.00000000000E+00  0.60992948984E+03  0.60992948986E+03  0.50400001928E-02 0. -1.
        1   -1    0    0  501    0  0.00000000000E+00  0.00000000000E+00 -0.71475534431E+03  0.71475534433E+03  0.50400001928E-02 0.  1.
    10030    2    1    2    0    0  0.00000000000E+00  0.00000000000E+00 -0.10482585447E+03  0.13246848342E+04  0.13205307456E+04 0.  0.
        2    1    3    3  502    0 -0.53850259819E+03  0.12227311214E+03 -0.41551095935E+03  0.69107533566E+03  0.25500000920E-02 0.  1.
       -2    1    3    3    0  502  0.53850259819E+03 -0.12227311214E+03  0.31068510489E+03  0.63360949852E+03  0.25500000920E-02 0. -1.
</event>
<event>
 5   0  0.1387622E-03  0.1294442E+04  0.7818609E-02  0.9033984E-01
       -1   -1    0    0    0  501  0.00000000000E+00  0.00000000000E+00  0.63992615353E+03  0.63992615355E+03  0.50400001928E-02 0.  1.
        1   -1    0    0  501    0  0.00000000000E+00  0.00000000000E+00 -0.65459882857E+03  0.65459882859E+03  0.50400001928E-02 0. -1.
    10030    2    1    2    0    0  0.00000000000E+00  0.00000000000E+00 -0.14672675046E+02  0.12945249821E+04  0.12944418264E+04 0.  0.
        3    1    3    3  502    0  0.26369006105E+03  0.58652952550E+03 -0.80454423806E+02  0.64809124133E+03  0.10100000352E+00 0.  1.
       -3    1    3    3    0  502 -0.26369006105E+03 -0.58652952550E+03  0.65781748760E+02  0.64643374081E+03  0.10100000352E+00 0. -1.
</event>
<event>
 5   0  0.2401211E-03  0.1329144E+04  0.7818609E-02  0.9006767E-01
       -2   -1    0    0    0  501  0.00000000000E+00  0.00000000000E+00  0.62704578131E+03  0.62704578132E+03  0.25500000920E-02 0. -1.
        2   -1    0    0  501    0  0.00000000000E+00  0.00000000000E+00 -0.70434437580E+03  0.70434437580E+03  0.25500000920E-02 0.  1.
    10030    2    1    2    0    0  0.00000000000E+00  0.00000000000E+00 -0.77298594483E+02  0.13313901571E+04  0.13291443405E+04 0.  0.
        4    1    3    3  502    0 -0.45303536958E+03  0.48298224251E+03 -0.94794551744E+02  0.66895479115E+03  0.12699999809E+01 0.  1.
       -4    1    3    3    0  502  0.45303536958E+03 -0.48298224251E+03  0.17495957261E+02  0.66243536597E+03  0.12699999809E+01 0. -1.
</event>
<event>
 5   0  0.1324721E-03  0.1289300E+04  0.7818609E-02  0.9038094E-01
       -1   -1    0    0    0  501  0.00000000000E+00  0.00000000000E+00  0.32650281774E+03  0.32650281778E+03  0.50400001928E-02 0. -1.
        1   -1    0    0  501    0  0.00000000000E+00  0.00000000000E+00 -0.12728022337E+04  0.12728022337E+04  0.50400001928E-02 0.  1.
    10030    2    1    2    0    0  0.00000000000E+00  0.00000000000E+00 -0.94629941593E+03  0.15993050515E+04  0.12892998344E+04 0.  0.
        1    1    3    3  502    0  0.19218275249E+03 -0.38195590988E+03 -0.10715906295E+04  0.11537465080E+04  0.50400001928E-02 0.  1.
       -1    1    3    3    0  502 -0.19218275249E+03  0.38195590988E+03  0.12529121356E+03  0.44555854348E+03  0.50400001928E-02 0. -1.
</event>
<event>
 5   0  0.1332630E-03  0.1311096E+04  0.7818609E-02  0.9020812E-01
       -1   -1    0    0    0  501  0.00000000000E+00  0.00000000000E+00  0.39537005686E+03  0.39537005690E+03  0.50400001928E-02 0.  1.
        1   -1    0    0  501    0  0.00000000000E+00  0.00000000000E+00 -0.10869393918E+04  0.10869393918E+04  0.50400001928E-02 0. -1.
    10030    2    1    2    0    0  0.00000000000E+00  0.00000000000E+00 -0.69156933495E+03  0.14823094487E+04  0.13110961661E+04 0.  0.
        5    1    3    3  502    0 -0.17817539045E+03 -0.30744920713E+03 -0.96858336566E+03  0.10317205586E+04  0.46999998093E+01 0. -1.
       -5    1    3    3    0  502  0.17817539045E+03  0.30744920713E+03  0.27701403071E+03  0.45058889016E+03  0.46999998093E+01 0.  1.
</event>
<event>
 5   0  0.1324721E-03  0.1297327E+04  0.7818609E-02  0.9031687E-01
        1   -1    0    0  501    0  0.00000000000E+00  0.00000000000E+00  0.11442992285E+04  0.11442992285E+04  0.50400001928E-02 0.  1.
       -1   -1    0    0    0  501  0.00000000000E+00  0.00000000000E+00 -0.36770486212E+03  0.36770486215E+03  0.50400001928E-02 0. -1.
    10030    2    1    2    0    0  0.00000000000E+00  0.00000000000E+00  0.77659436638E+03  0.15120040907E+04  0.12973270830E+04 0.  0.
        1    1    3    3  502    0  0.46164075523E+03  0.45367359747E+03  0.33840621506E+03  0.73037708504E+03  0.50400001928E-02 0.  1.
       -1    1    3    3    0  502 -0.46164075523E+03 -0.45367359747E+03  0.43818815132E+03  0.78162700562E+03  0.50400001928E-02 0. -1.
</event>
<event>
 5   0  0.1346593E-03  0.1302392E+04  0.7818609E-02  0.9027671E-01
        1   -1    0    0  501    0  0.00000000000E+00  0.00000000000E+00  0.14469547022E+04  0.14469547022E+04  0.50400001928E-02 0.  1.
       -1   -1    0    0    0  501  0.00000000000E+00  0.00000000000E+00 -0.29306789449E+03  0.29306789453E+03  0.50400001928E-02 0. -1.
    10030    2    1    2    0    0  0.00000000000E+00  0.00000000000E+00  0.11538868077E+04  0.17400225968E+04  0.13023915971E+04 0.  0.
        2    1    3    3  502    0 -0.52364017740E+03  0.33328462567E+03  0.84003539942E+03  0.10444793676E+04  0.25500000920E-02 0.  1.
       -2    1    3    3    0  502  0.52364017740E+03 -0.33328462567E+03  0.31385140832E+03  0.69554322915E+03  0.25500000920E-02 0. -1.
</event>
<event>
 5   0  0.2312105E-03  0.1290730E+04  0.7818609E-02  0.9036949E-01
       -2   -1    0    0    0  501  0.00000000000E+00  0.00000000000E+00  0.35141500067E+03  0.35141500068E+03  0.25500000920E-02 0. -1.
        2   -1    0    0  501    0  0.00000000000E+00  0.00000000000E+00 -0.11851964304E+04  0.11851964304E+04  0.25500000920E-02 0.  1.
    10030    2    1    2    0    0  0.00000000000E+00  0.00000000000E+00 -0.83378142968E+03  0.15366114310E+04  0.12907297229E+04 0.  0.
        5    1    3    3  502    0 -0.44934050973E+03  0.45711279175E+03 -0.32768500413E+03  0.71990176413E+03  0.46999998093E+01 0. -1.
       -5    1    3    3    0  502  0.44934050973E+03 -0.45711279175E+03 -0.50609642554E+03  0.81670966690E+03  0.46999998093E+01 0.  1.
</event>
<event>
 5   0  0.2401211E-03  0.1267674E+04  0.7818609E-02  0.9055600E-01
       -2   -1    0    0    0  501  0.00000000000E+00  0.00000000000E+00  0.16694561560E+03  0.16694561562E+03  0.25500000920E-02 0.  1.
        2   -1    0    0  501    0  0.00000000000E+00  0.00000000000E+00 -0.24064683712E+04  0.24064683713E+04  0.25500000920E-02 0. -1.
    10030    2    1    2    0    0  0.00000000000E+00  0.00000000000E+00 -0.22395227557E+04  0.25734139869E+04  0.12676740018E+04 0.  0.
        4    1    3    3  502    0  0.30712277005E+03  0.55130216855E+03 -0.99984780125E+03  0.11823517732E+04  0.12699999809E+01 0. -1.
       -4    1    3    3    0  502 -0.30712277005E+03 -0.55130216855E+03 -0.12396749544E+04  0.13910622137E+04  0.12699999809E+01 0.  1.
</event>
<event>
 5   0  0.1387622E-03  0.1282528E+04  0.7818609E-02  0.9043537E-01
        1   -1    0    0  501    0  0.00000000000E+00  0.00000000000E+00  0.42922729120E+03  0.42922729123E+03  0.50400001928E-02 0. -1.
       -1   -1    0    0    0  501  0.00000000000E+00  0.00000000000E+00 -0.95804565818E+03  0.95804565820E+03  0.50400001928E-02 0.  1.
    10030    2    1    2    0    0  0.00000000000E+00  0.00000000000E+00 -0.52881836698E+03  0.13872729494E+04  0.12825277272E+04 0.  0.
        3    1    3    3  502    0  0.47637975336E+03  0.84501486494E+02 -0.71966436719E+03  0.86717644239E+03  0.10100000352E+00 0.  1.
       -3    1    3    3    0  502 -0.47637975336E+03 -0.84501486494E+02  0.19084600021E+03  0.52009650704E+03  0.10100000352E+00 0. -1.
</event>
<event>
 5   0  0.1346593E-03  0.1307108E+04  0.7818609E-02  0.9023947E-01
        1   -1    0    0  501    0  0.00000000000E+00  0.00000000000E+00  0.60411071520E+03  0.60411071522E+03  0.50400001928E-02 0.  1.
       -1   -1    0    0    0  501  0.00000000000E+00  0.00000000000E+00 -0.70704429113E+03  0.70704429115E+03  0.50400001928E-02 0. -1.
    10030    2    1    2    0    0  0.00000000000E+00  0.00000000000E+00 -0.10293357593E+03  0.13111550064E+04  0.13071083083E+04 0.  0.
        2    1    3    3  502    0  0.54124857865E+03  0.20254480096E+03 -0.35763067802E+03  0.67961321511E+03  0.25500000920E-02 0. -1.
       -2    1    3    3    0  502 -0.54124857865E+03 -0.20254480096E+03  0.25469710209E+03  0.63154179126E+03  0.25500000920E-02 0.  1.
</event>
<event>
 5   0  0.2401211E-03  0.1319548E+04  0.7818609E-02  0.9014206E-01
        2   -1    0    0  501    0  0.00000000000E+00  0.00000000000E+00  0.81983823999E+03  0.81983823999E+03  0.25500000920E-02 0.  1.
       -2   -1    0    0    0  501  0.00000000000E+00  0.00000000000E+00 -0.53096011344E+03  0.53096011344E+03  0.25500000920E-02 0. -1.
    10030    2    1    2    0    0  0.00000000000E+00  0.00000000000E+00  0.28887812655E+03  0.13507983534E+04  0.13195475056E+04 0.  0.
        4    1    3    3  502    0  0.13992771569E+03  0.25863179043E+03  0.74904467251E+03  0.80469851681E+03  0.12699999809E+01 0.  1.
       -4    1    3    3    0  502 -0.13992771569E+03 -0.25863179043E+03 -0.46016654596E+03  0.54609983662E+03  0.12699999809E+01 0. -1.
</event>
<event>
 5   0  0.1324721E-03  0.1316376E+04  0.7818609E-02  0.9016679E-01
        1   -1    0    0  501    0  0.00000000000E+00  0.00000000000E+00  0.68841034433E+03  0.68841034435E+03  0.50400001928E-02 0.  1.
       -1   -1    0    0    0  501  0.00000000000E+00  0.00000000000E+00 -0.62929235675E+03  0.62929235677E+03  0.50400001928E-02 0. -1.
    10030    2    1    2    0    0  0.00000000000E+00  0.00000000000E+00  0.59117987584E+02  0.13177027011E+04  0.13163758856E+04 0.  0.
        1    1    3    3  502    0  0.36133008755E+03 -0.26457837120E+03 -0.45326545489E+03  0.63718970432E+03  0.50400001928E-02 0. -1.
       -1    1    3    3    0  502 -0.36133008755E+03  0.26457837120E+03  0.51238344247E+03  0.68051299680E+03  0.50400001928E-02 0.  1.
</event>
<event>
 5   0  0.2334946E-03  0.1366232E+04  0.7818609E-02  0.8978631E-01
       -2   -1    0    0    0  501  0.00000000000E+00  0.00000000000E+00  0.30152862208E+03  0.30152862209E+03  0.25500000920E-02 0.  1.
        2   -1    0    0  501    0  0.00000000000E+00  0.00000000000E+00 -0.15476048718E+04  0.15476048718E+04  0.25500000920E-02 0. -1.
    10030    2    1    2    0    0  0.00000000000E+00  0.00000000000E+00 -0.12460762497E+04  0.18491334939E+04  0.13662315536E+04 0.  0.
        1    1    3    3  502    0 -0.37544150897E+02 -0.95389088217E+01  0.30004090331E+03  0.30253115168E+03  0.50400001928E-02 0.  1.
       -1    1    3    3    0  502  0.37544150897E+02  0.95389088217E+01 -0.15461171530E+04  0.15466023422E+04  0.50400001928E-02 0. -1.
</event>
<event>
 5   0  0.1310461E-03  0.1299513E+04  0.7818609E-02  0.9029951E-01
       -1   -1    0    0    0  501  0.00000000000E+00  0.00000000000E+00  0.29579438995E+03  0.29579438999E+03  0.50400001928E-02 0.  1.
        1   -1    0    0  501    0  0.00000000000E+00  0.00000000000E+00 -0.14272878504E+04  0.14272878504E+04  0.50400001928E-02 0. -1.
    10030    2    1    2    0    0  0.00000000000E+00  0.00000000000E+00 -0.11314934605E+04  0.17230822404E+04  0.12995133536E+04 0.  0.
        4    1    3    3  502    0 -0.48006173796E+03 -0.28343111808E+03 -0.10082817962E+04  0.11521398633E+04  0.12699999809E+01 0. -1.
       -4    1    3    3    0  502  0.48006173796E+03  0.28343111808E+03 -0.12321166423E+03  0.57094237717E+03  0.12699999809E+01 0.  1.
</event>
<event>
 5   0  0.1324721E-03  0.1156177E+04  0.7818609E-02  0.9152104E-01
        1   -1    0    0  501    0  0.00000000000E+00  0.00000000000E+00  0.12812210015E+04  0.12812210015E+04  0.50400001928E-02 0.  1.
       -1   -1    0    0    0  501  0.00000000000E+00  0.00000000000E+00 -0.26083403371E+03  0.26083403376E+03  0.50400001928E-02 0. -1.
    10030    2    1    2    0    0  0.00000000000E+00  0.00000000000E+00  0.10203869678E+04  0.15420550352E+04  0.11561765297E+04 0.  0.
        1    1    3    3  502    0  0.35047522902E+03 -0.37565486162E+03  0.86366742746E+03  0.10049233237E+04  0.50400001928E-02 0.  1.
       -1    1    3    3    0  502 -0.35047522902E+03  0.37565486162E+03  0.15671954029E+03  0.53713171155E+03  0.50400001928E-02 0. -1.
</event>
<event>
 5   0  0.2478236E-03  0.1299403E+04  0.7818609E-02  0.9030039E-01
       -2   -1    0    0    0  501  0.00000000000E+00  0.00000000000E+00  0.27326132750E+03  0.27326132752E+03  0.25500000920E-02 0.  1.
        2   -1    0    0  501    0  0.00000000000E+00  0.00000000000E+00 -0.15447197386E+04  0.15447197386E+04  0.25500000920E-02 0. -1.
    10030    2    1    2    0    0  0.00000000000E+00  0.00000000000E+00 -0.12714584111E+04  0.18179810661E+04  0.12994031959E+04 0.  0.
        3    1    3    3  502    0  0.11249984138E+03 -0.32212897153E+03 -0.14092735883E+04  0.14499914984E+04  0.10100000352E+00 0. -1.
       -3    1    3    3    0  502 -0.11249984138E+03  0.32212897153E+03  0.13781517726E+03  0.36798956764E+03  0.10100000352E+00 0.  1.
</event>
<event>
 5   0  0.1332630E-03  0.1309928E+04  0.7818609E-02  0.9021729E-01
       -1   -1    0    0    0  501  0.00000000000E+00  0.00000000000E+00  0.51495260415E+03  0.51495260418E+03  0.50400001928E-02 0. -1.
        1   -1    0    0  501    0  0.00000000000E+00  0.00000000000E+00 -0.83304295875E+03  0.83304295876E+03  0.50400001928E-02 0.  1.
    10030    2    1    2    0    0  0.00000000000E+00  0.00000000000E+00 -0.31809035460E+03  0.13479955629E+04  0.13099276942E+04 0.  0.
        5    1    3    3  502    0 -0.36915083626E+03 -0.36602365180E+01 -0.71575656406E+03  0.80536655396E+03  0.46999998093E+01 0.  1.
       -5    1    3    3    0  502  0.36915083626E+03  0.36602365180E+01  0.39766620946E+03  0.54262900898E+03  0.46999998093E+01 0. -1.
</event>
<event>
 5   0  0.2478236E-03  0.1255278E+04  0.7818609E-02  0.9065802E-01
       -2   -1    0    0    0  501  0.00000000000E+00  0.00000000000E+00  0.45564680721E+03  0.45564680722E+03  0.25500000920E-02 0.  1.
        2   -1    0    0  501    0  0.00000000000E+00  0.00000000000E+00 -0.86455252143E+03  0.86455252144E+03  0.25500000920E-02 0. -1.
    10030    2    1    2    0    0  0.00000000000E+00  0.00000000000E+00 -0.40890571422E+03  0.13201993287E+04  0.12552778116E+04 0.  0.
        3    1    3    3  502    0  0.27538882569E+03 -0.33794605074E+03  0.27043523359E+03  0.51301244069E+03  0.10100000352E+00 0.  1.
       -3    1    3    3    0  502 -0.27538882569E+03  0.33794605074E+03 -0.67934094782E+03  0.80718688797E+03  0.10100000352E+00 0. -1.
</event>
<event>
 5   0  0.2401211E-03  0.1288125E+04  0.7818609E-02  0.9039036E-01
        2   -1    0    0  501    0  0.00000000000E+00  0.00000000000E+00  0.15323975194E+04  0.15323975194E+04  0.25500000920E-02 0.  1.
       -2   -1    0    0    0  501  0.00000000000E+00  0.00000000000E+00 -0.27069759720E+03  0.27069759722E+03  0.25500000920E-02 0. -1.
    10030    2    1    2    0    0  0.00000000000E+00  0.00000000000E+00  0.12616999222E+04  0.18030951167E+04  0.12881247245E+04 0.  0.
        4    1    3    3  502    0 -0.44272538019E+03  0.33543092885E+03  0.17447981436E+03  0.58220656885E+03  0.12699999809E+01 0.  1.
       -4    1    3    3    0  502  0.44272538019E+03 -0.33543092885E+03  0.10872201079E+04  0.12208885478E+04  0.12699999809E+01 0. -1.
</event>
<event>
 5   0  0.2478236E-03  0.1299615E+04  0.7818609E-02  0.9029871E-01
        2   -1    0    0  501    0  0.00000000000E+00  0.00000000000E+00  0.98645672978E+03  0.98645672978E+03  0.25500000920E-02 0. -1.
       -2   -1    0    0    0  501  0.00000000000E+00  0.00000000000E+00 -0.42804664062E+03  0.42804664063E+03  0.25500000920E-02 0.  1.
    10030    2    1    2    0    0  0.00000000000E+00  0.00000000000E+00  0.55841008916E+03  0.14145033704E+04  0.12996145418E+04 0.  0.
        3    1    3    3  502    0  0.52807721574E+03 -0.11455488145E+03 -0.11361787205E+03  0.55217515129E+03  0.10100000352E+00 0.  1.
       -3    1    3    3    0  502 -0.52807721574E+03  0.11455488145E+03  0.67202796121E+03  0.86232821912E+03  0.10100000352E+00 0. -1.
</event>
<event>
 5   0  0.2334946E-03  0.1294845E+04  0.7818609E-02  0.9033663E-01
        2   -1    0    0  501    0  0.00000000000E+00  0.00000000000E+00  0.29442704539E+03  0.29442704541E+03  0.25500000920E-02 0.  1.
       -2   -1    0    0    0  501  0.00000000000E+00  0.00000000000E+00 -0.14236333646E+04  0.14236333646E+04  0.25500000920E-02 0. -1.
    10030    2    1    2    0    0  0.00000000000E+00  0.00000000000E+00 -0.11292063192E+04  0.17180604100E+04  0.12948454198E+04 0.  0.
        1    1    3    3  502    0  0.45238044605E+03 -0.35377425606E+03 -0.16798523668E+03  0.59835050931E+03  0.50400001928E-02 0.  1.
       -1    1    3    3    0  502 -0.45238044605E+03  0.35377425606E+03 -0.96122108254E+03  0.11197099007E+04  0.50400001928E-02 0. -1.
</event>
<event>
 5   0  0.1346593E-03  0.1313343E+04  0.7818609E-02  0.9019051E-01
        1   -1    0    0  501    0  0.00000000000E+00  0.00000000000E+00  0.38337043707E+03  0.38337043710E+03  0.50400001928E-02 0.  1.
       -1   -1    0    0    0  501  0.00000000000E+00  0.00000000000E+00 -0.11248059826E+04  0.11248059826E+04  0.50400001928E-02 0. -1.
    10030    2    1    2    0    0  0.00000000000E+00  0.00000000000E+00 -0.74143554551E+03  0.15081764197E+04  0.13133428512E+04 0.  0.
        2    1    3    3  502    0 -0.60579024907E+03 -0.10974492738E+03 -0.10837187355E+03  0.62511617955E+03  0.25500000920E-02 0. -1.
       -2    1    3    3    0  502  0.60579024907E+03  0.10974492738E+03 -0.63306367196E+03  0.88306024014E+03  0.25500000920E-02 0.  1.
</event>
<event>
 5   0  0.1310461E-03  0.1292257E+04  0.7818609E-02  0.9035728E-01
        1   -1    0    0  501    0  0.00000000000E+00  0.00000000000E+00  0.55399682840E+03  0.55399682842E+03  0.50400001928E-02 0.  1.
       -1   -1    0    0    0  501  0.00000000000E+00  0.00000000000E+00 -0.75358193160E+03  0.75358193161E+03  0.50400001928E-02 0. -1.
    10030    2    1    2    0    0  0.00000000000E+00  0.00000000000E+00 -0.19958510320E+03  0.13075787600E+04  0.12922569405E+04 0.  0.
        4    1    3    3  502    0 -0.51234082754E+03 -0.27947714348E+03  0.18076701234E+03  0.61096556608E+03  0.12699999809E+01 0.  1.
       -4    1    3    3    0  502  0.51234082754E+03  0.27947714348E+03 -0.38035211554E+03  0.69661319395E+03  0.12699999809E+01 0. -1.
</event>
<event>
 5   0  0.2312105E-03  0.1295353E+04  0.7818609E-02  0.9033258E-01
        2   -1    0    0  501    0  0.00000000000E+00  0.00000000000E+00  0.37950657766E+03  0.37950657767E+03  0.25500000920E-02 0. -1.
       -2   -1    0    0    0  501  0.00000000000E+00  0.00000000000E+00 -0.11053433798E+04  0.11053433798E+04  0.25500000920E-02 0.  1.
    10030    2    1    2    0    0  0.00000000000E+00  0.00000000000E+00 -0.72583680216E+03  0.14848499575E+04  0.12953533622E+04 0.  0.
        5    1    3    3  502    0 -0.25811289834E+03  0.52590628069E+03 -0.67947555768E+03  0.89716710140E+03  0.46999998093E+01 0.  1.
       -5    1    3    3    0  502  0.25811289834E+03 -0.52590628069E+03 -0.46361244486E+02  0.58768285609E+03  0.46999998093E+01 0. -1.
</event>
<event>
 5   0  0.1324721E-03  0.1302793E+04  0.7818609E-02  0.9027353E-01
       -1   -1    0    0    0  501  0.00000000000E+00  0.00000000000E+00  0.29914690243E+03  0.29914690248E+03  0.50400001928E-02 0.  1.
        1   -1    0    0  501    0  0.00000000000E+00  0.00000000000E+00 -0.14184258641E+04  0.14184258641E+04  0.50400001928E-02 0. -1.
    10030    2    1    2    0    0  0.00000000000E+00  0.00000000000E+00 -0.11192789617E+04  0.17175727666E+04  0.13027934658E+04 0.  0.
        1    1    3    3  502    0 -0.11287891259E+03 -0.27955207298E+03 -0.13209113053E+04  0.13548792149E+04  0.50400001928E-02 0. -1.
       -1    1    3    3    0  502  0.11287891259E+03  0.27955207298E+03  0.20163234364E+03  0.36269355170E+03  0.50400001928E-02 0.  1.
</event>
<event>
 5   0  0.1310461E-03  0.1296950E+04  0.7818609E-02  0.9031987E-01
       -1   -1    0    0    0  501  0.00000000000E+00  0.00000000000E+00  0.21125844619E+03  0.21125844625E+03  0.50400001928E-02 0.  1.
        1   -1    0    0  501    0  0.00000000000E+00  0.00000000000E+00 -0.19905476224E+04  0.19905476224E+04  0.50400001928E-02 0. -1.
    10030    2    1    2    0    0  0.00000000000E+00  0.00000000000E+00 -0.17792891762E+04  0.22018060687E+04  0.12969502656E+04 0.  0.
        4    1    3    3  502    0  0.17272169276E+02 -0.63976351607E+03 -0.10670720163E+04  0.12442829201E+04  0.12699999809E+01 0. -1.
       -4    1    3    3    0  502 -0.17272169276E+02  0.63976351607E+03 -0.71221715996E+03  0.95752314863E+03  0.12699999809E+01 0.  1.
</event>
<event>
 5   0  0.1332630E-03  0.1301108E+04  0.7818609E-02  0.9028687E-01
        1   -1    0    0  501    0  0.00000000000E+00  0.00000000000E+00  0.57909412551E+03  0.57909412553E+03  0.50400001928E-02 0. -1.
       -1   -1    0    0    0  501  0.00000000000E+00  0.00000000000E+00 -0.73083231791E+03  0.73083231793E+03  0.50400001928E-02 0.  1.
    10030    2    1    2    0    0  0.00000000000E+00  0.00000000000E+00 -0.15173819240E+03  0.13099264435E+04  0.13011083000E+04 0.  0.
        5    1    3    3  502    0 -0.29601409757E+03 -0.35280421757E+03  0.38670480689E+03  0.60137996272E+03  0.46999998093E+01 0. -1.
       -5    1    3    3    0  502  0.29601409757E+03  0.35280421757E+03 -0.53844299929E+03  0.70854648074E+03  0.46999998093E+01 0.  1.
</event>
<event>
 5   0  0.2401211E-03  0.1297683E+04  0.7818609E-02  0.9031405E-01
        2   -1    0    0  501    0  0.00000000000E+00  0.00000000000E+00  0.14465977762E+04  0.14465977762E+04  0.25500000920E-02 0.  1.
       -2   -1    0    0    0  501  0.00000000000E+00  0.00000000000E+00 -0.29102428845E+03  0.29102428846E+03  0.25500000920E-02 0. -1.
    10030    2    1    2    0    0  0.00000000000E+00  0.00000000000E+00  0.11555734877E+04  0.17376220646E+04  0.12976826862E+04 0.  0.
        4    1    3    3  502    0 -0.34253025278E+03  0.82278584919E+01  0.13155836683E+04  0.13594692615E+04  0.12699999809E+01 0.  1.
       -4    1    3    3    0  502  0.34253025278E+03 -0.82278584919E+01 -0.16001018059E+03  0.37815280313E+03  0.12699999809E+01 0. -1.
</event>
<event>
 5   0  0.1324721E-03  0.1316159E+04  0.7818609E-02  0.9016848E-01
        1   -1    0    0  501    0  0.00000000000E+00  0.00000000000E+00  0.17901596772E+04  0.17901596772E+04  0.50400001928E-02 0.  1.
       -1   -1    0    0    0  501  0.00000000000E+00  0.00000000000E+00 -0.24191608452E+03  0.24191608457E+03  0.50400001928E-02 0. -1.
    10030    2    1    2    0    0  0.00000000000E+00  0.00000000000E+00  0.15482435927E+04  0.20320757618E+04  0.13161586832E+04 0.  0.
        1    1    3    3  502    0 -0.51758068670E+03  0.11632356356E+03  0.17287989033E+03  0.55795017268E+03  0.50400001928E-02 0. -1.
       -1    1    3    3    0  502  0.51758068670E+03 -0.11632356356E+03  0.13753637023E+04  0.14741255891E+04  0.50400001928E-02 0.  1.
</event>
<event>
 5   0  0.2361043E-03  0.1290532E+04  0.7818609E-02  0.9037107E-01
       -2   -1    0    0    0  501  0.00000000000E+00  0.00000000000E+00  0.31362731579E+03  0.31362731580E+03  0.25500000920E-02 0. -1.
        2   -1    0    0  501    0  0.00000000000E+00  0.00000000000E+00 -0.13275900933E+04  0.13275900933E+04  0.25500000920E-02 0.  1.
    10030    2    1    2    0    0  0.00000000000E+00  0.00000000000E+00 -0.10139627775E+04  0.16412174091E+04  0.12905324753E+04 0.  0.
        2    1    3    3  502    0  0.12799406644E+03  0.27249716763E+02 -0.13105372970E+04  0.13170546818E+04  0.25500000920E-02 0.  1.
       -2    1    3    3    0  502 -0.12799406644E+03 -0.27249716763E+02  0.29657451951E+03  0.32416272725E+03  0.25500000920E-02 0. -1.
</event>
<event>
 5   0  0.2312105E-03  0.1318278E+04  0.7818609E-02  0.9015195E-01
       -2   -1    0    0    0  501  0.00000000000E+00  0.00000000000E+00  0.80714257527E+03  0.80714257527E+03  0.25500000920E-02 0. -1.
        2   -1    0    0  501    0  0.00000000000E+00  0.00000000000E+00 -0.53827437375E+03  0.53827437375E+03  0.25500000920E-02 0.  1.
    10030    2    1    2    0    0  0.00000000000E+00  0.00000000000E+00  0.26886820152E+03  0.13454169490E+04  0.13182779134E+04 0.  0.
        5    1    3    3  502    0 -0.12517469958E+03 -0.60029898137E+03 -0.11223244778E+03  0.62341461707E+03  0.46999998093E+01 0.  1.
       -5    1    3    3    0  502  0.12517469958E+03  0.60029898137E+03  0.38110064930E+03  0.72200233195E+03  0.46999998093E+01 0. -1.
</event>
<event>
 5   0  0.1387622E-03  0.1301836E+04  0.7818609E-02  0.9028111E-01
        1   -1    0    0  501    0  0.00000000000E+00  0.00000000000E+00  0.33980443463E+03  0.33980443467E+03  0.50400001928E-02 0.  1.
       -1   -1    0    0    0  501  0.00000000000E+00  0.00000000000E+00 -0.12468762548E+04  0.12468762548E+04  0.50400001928E-02 0. -1.
    10030    2    1    2    0    0  0.00000000000E+00  0.00000000000E+00 -0.90707182018E+03  0.15866806895E+04  0.13018357513E+04 0.  0.
        3    1    3    3  502    0 -0.15650888444E+03  0.91794906926E+02 -0.12154315168E+04  0.12288999626E+04  0.10100000352E+00 0. -1.
       -3    1    3    3    0  502  0.15650888444E+03 -0.91794906926E+02  0.30835969661E+03  0.35778072690E+03  0.10100000352E+00 0.  1.
</event>
<event>
 5   0  0.9131250E-04  0.1302377E+04  0.7818609E-02  0.9027682E-01
        3   -1    0    0  501    0  0.00000000000E+00  0.00000000000E+00  0.50536522090E+03  0.50536523099E+03  0.10100000352E+00 0.  1.
       -3   -1    0    0    0  501  0.00000000000E+00  0.00000000000E+00 -0.83908951499E+03  0.83908952107E+03  0.10100000352E+00 0. -1.
    10030    2    1    2    0    0  0.00000000000E+00  0.00000000000E+00 -0.33372429409E+03  0.13444547521E+04  0.13023773170E+04 0.  0.
        1    1    3    3  502    0  0.21179656718E+00  0.39798274639E+03 -0.69893300615E+03  0.80429948302E+03  0.50400001928E-02 0. -1.
       -1    1    3    3    0  502 -0.21179656718E+00 -0.39798274639E+03  0.36520871206E+03  0.54015526904E+03  0.50400001928E-02 0.  1.
</event>
<event>
 5   0  0.1332630E-03  0.1284531E+04  0.7818609E-02  0.9041923E-01
       -1   -1    0    0    0  501  0.00000000000E+00  0.00000000000E+00  0.96032265769E+03  0.96032265771E+03  0.50400001928E-02 0.  1.
        1   -1    0    0  501    0  0.00000000000E+00  0.00000000000E+00 -0.42954857126E+03  0.42954857129E+03  0.50400001928E-02 0. -1.
    10030    2    1    2    0    0  0.00000000000E+00  0.00000000000E+00  0.53077408643E+03  0.13898712290E+04  0.12845313941E+04 0.  0.
        5    1    3    3  502    0 -0.48573597588E+03  0.27569106248E+03  0.60846692772E+03  0.82595344440E+03  0.46999998093E+01 0.  1.
       -5    1    3    3    0  502  0.48573597588E+03 -0.27569106248E+03 -0.77692841285E+02  0.56391778459E+03  0.46999998093E+01 0. -1.
</event>
<event>
 5   0  0.2361043E-03  0.1287649E+04  0.7818609E-02  0.9039417E-01
       -2   -1    0    0    0  501  0.00000000000E+00  0.00000000000E+00  0.42663521126E+03  0.42663521127E+03  0.25500000920E-02 0.  1.
        2   -1    0    0  501    0  0.00000000000E+00  0.00000000000E+00 -0.97157975466E+03  0.97157975466E+03  0.25500000920E-02 0. -1.
    10030    2    1    2    0    0  0.00000000000E+00  0.00000000000E+00 -0.54494454340E+03  0.13982149659E+04  0.12876492285E+04 0.  0.
        2    1    3    3  502    0  0.54221677847E+03 -0.26064185138E+03 -0.23486825148E+02  0.60206713953E+03  0.25500000920E-02 0.  1.
       -2    1    3    3    0  502 -0.54221677847E+03  0.26064185138E+03 -0.52145771825E+03  0.79614782639E+03  0.25500000920E-02 0. -1.
</event>
<event>
 5   0  0.1310461E-03  0.1300331E+04  0.7818609E-02  0.9029303E-01
        1   -1    0    0  501    0  0.00000000000E+00  0.00000000000E+00  0.12802980383E+04  0.12802980383E+04  0.50400001928E-02 0.  1.
       -1   -1    0    0    0  501  0.00000000000E+00  0.00000000000E+00 -0.33016936247E+03  0.33016936251E+03  0.50400001928E-02 0. -1.
    10030    2    1    2    0    0  0.00000000000E+00  0.00000000000E+00  0.95012867578E+03  0.16104674008E+04  0.13003310149E+04 0.  0.
        4    1    3    3  502    0 -0.19850206085E+03  0.31388440027E+03  0.11359984472E+04  0.11951654989E+04  0.12699999809E+01 0.  1.
       -4    1    3    3    0  502  0.19850206085E+03 -0.31388440027E+03 -0.18586977137E+03  0.41530190188E+03  0.12699999809E+01 0. -1.
</event>
<event>
 5   0  0.2478236E-03  0.1303574E+04  0.7818609E-02  0.9026736E-01
       -2   -1    0    0    0  501  0.00000000000E+00  0.00000000000E+00  0.46573182622E+03  0.46573182622E+03  0.25500000920E-02 0.  1.
        2   -1    0    0  501    0  0.00000000000E+00  0.00000000000E+00 -0.91216969543E+03  0.91216969544E+03  0.25500000920E-02 0. -1.
    10030    2    1    2    0    0  0.00000000000E+00  0.00000000000E+00 -0.44643786922E+03  0.13779015217E+04  0.13035742527E+04 0.  0.
        3    1    3    3  502    0  0.42637289311E+03  0.19604708701E+03  0.25489703533E+03  0.53404195820E+03  0.10100000352E+00 0.  1.
       -3    1    3    3    0  502 -0.42637289311E+03 -0.19604708701E+03 -0.70133490454E+03  0.84385956345E+03  0.10100000352E+00 0. -1.
</event>
<event>
 5   0  0.2312105E-03  0.1281792E+04  0.7818609E-02  0.9044130E-01
       -2   -1    0    0    0  501  0.00000000000E+00  0.00000000000E+00  0.12759289566E+04  0.12759289566E+04  0.25500000920E-02 0. -1.
        2   -1    0    0  501    0  0.00000000000E+00  0.00000000000E+00 -0.32192074006E+03  0.32192074007E+03  0.25500000920E-02 0.  1.
    10030    2    1    2    0    0  0.00000000000E+00  0.00000000000E+00  0.95400821653E+03  0.15978496967E+04  0.12817924855E+04 0.  0.
        5    1    3    3  502    0  0.10020603631E+03 -0.62838145109E+03  0.57211541658E+03  0.85571177254E+03  0.46999998093E+01 0.  1.
       -5    1    3    3    0  502 -0.10020603631E+03  0.62838145109E+03  0.38189279996E+03  0.74213792413E+03  0.46999998093E+01 0. -1.
</event>
<event>
 5   0  0.2334946E-03  0.1288752E+04  0.7818609E-02  0.9038533E-01
        2   -1    0    0  501    0  0.00000000000E+00  0.00000000000E+00  0.25810903213E+04  0.25810903213E+04  0.25500000920E-02 0. -1.
       -2   -1    0    0    0  501  0.00000000000E+00  0.00000000000E+00 -0.16087022621E+03  0.16087022623E+03  0.25500000920E-02 0.  1.
    10030    2    1    2    0    0  0.00000000000E+00  0.00000000000E+00  0.24202200951E+04  0.27419605475E+04  0.12887522398E+04 0.  0.
        1    1    3    3  502    0  0.53186442240E+03 -0.13708826272E+03  0.19270467307E+04  0.20037919198E+04  0.50400001928E-02 0. -1.
       -1    1    3    3    0  502 -0.53186442240E+03  0.13708826272E+03  0.49317336444E+03  0.73816862776E+03  0.50400001928E-02 0.  1.
</event>
<event>
 5   0  0.1310461E-03  0.1320375E+04  0.7818609E-02  0.9013562E-01
       -1   -1    0    0    0  501  0.00000000000E+00  0.00000000000E+00  0.44553393892E+03  0.44553393895E+03  0.50400001928E-02 0. -1.
        1   -1    0    0  501    0  0.00000000000E+00  0.00000000000E+00 -0.97825837481E+03  0.97825837482E+03  0.50400001928E-02 0.  1.
    10030    2    1    2    0    0  0.00000000000E+00  0.00000000000E+00 -0.53272443588E+03  0.14237923138E+04  0.13203746545E+04 0.  0.
        4    1    3    3  502    0 -0.41685333875E+03  0.28714373328E+03 -0.72338287976E+03  0.88289446324E+03  0.12699999809E+01 0. -1.
       -4    1    3    3    0  502  0.41685333875E+03 -0.28714373328E+03  0.19065844387E+03  0.54089785053E+03  0.12699999809E+01 0.  1.
</event>
<event>
 5   0  0.2334946E-03  0.1306715E+04  0.7818609E-02  0.9024257E-01
       -2   -1    0    0    0  501  0.00000000000E+00  0.00000000000E+00  0.29392528157E+03  0.29392528158E+03  0.25500000920E-02 0. -1.
        2   -1    0    0  501    0  0.00000000000E+00  0.00000000000E+00 -0.14523287116E+04  0.14523287116E+04  0.25500000920E-02 0.  1.
    10030    2    1    2    0    0  0.00000000000E+00  0.00000000000E+00 -0.11584034300E+04  0.17462539932E+04  0.13067151572E+04 0.  0.
        1    1    3    3  502    0 -0.86546393435E+02  0.62793503541E+03 -0.36755086391E+03  0.73272527218E+03  0.50400001928E-02 0. -1.
       -1    1    3    3    0  502  0.86546393435E+02 -0.62793503541E+03 -0.79085256611E+03  0.10135287210E+04  0.50400001928E-02 0.  1.
</event>
<event>
 5   0  0.1310461E-03  0.1280569E+04  0.7818609E-02  0.9045118E-01
       -1   -1    0    0    0  501  0.00000000000E+00  0.00000000000E+00  0.26604334929E+03  0.26604334933E+03  0.50400001928E-02 0.  1.
        1   -1    0    0  501    0  0.00000000000E+00  0.00000000000E+00 -0.15409673026E+04  0.15409673026E+04  0.50400001928E-02 0. -1.
    10030    2    1    2    0    0  0.00000000000E+00  0.00000000000E+00 -0.12749239533E+04  0.18070106520E+04  0.12805687836E+04 0.  0.
        4    1    3    3  502    0  0.54111960049E+03  0.21818040119E+03 -0.10096003314E+04  0.11660649860E+04  0.12699999809E+01 0. -1.
       -4    1    3    3    0  502 -0.54111960049E+03 -0.21818040119E+03 -0.26532362197E+03  0.64094566601E+03  0.12699999809E+01 0.  1.
</event>
<event>
 5   0  0.2401211E-03  0.9732026E+03  0.7818609E-02  0.9338434E-01
        2   -1    0    0  501    0  0.00000000000E+00  0.00000000000E+00  0.10480847981E+04  0.10480847981E+04  0.25500000920E-02 0. -1.
       -2   -1    0    0    0  501  0.00000000000E+00  0.00000000000E+00 -0.22591761836E+03  0.22591761838E+03  0.25500000920E-02 0.  1.
    10030    2    1    2    0    0  0.00000000000E+00  0.00000000000E+00  0.82216717970E+03  0.12740024164E+04  0.97320259233E+03 0.  0.
        4    1    3    3  502    0 -0.36471948569E+03  0.25926981512E+03  0.66131382614E+03  0.79848527214E+03  0.12699999809E+01 0. -1.
       -4    1    3    3    0  502  0.36471948569E+03 -0.25926981512E+03  0.16085335355E+03  0.47551714430E+03  0.12699999809E+01 0.  1.
</event>
<event>
 5   0  0.1324721E-03  0.1319043E+04  0.7818609E-02  0.9014599E-01
        1   -1    0    0  501    0  0.00000000000E+00  0.00000000000E+00  0.43951707207E+03  0.43951707210E+03  0.50400001928E-02 0. -1.
       -1   -1    0    0    0  501  0.00000000000E+00  0.00000000000E+00 -0.98965077713E+03  0.98965077714E+03  0.50400001928E-02 0.  1.
    10030    2    1    2    0    0  0.00000000000E+00  0.00000000000E+00 -0.55013370506E+03  0.14291678492E+04  0.13190427013E+04 0.  0.
        1    1    3    3  502    0 -0.27405161067E+03  0.39233334222E+03 -0.76675907626E+03  0.90385243142E+03  0.50400001928E-02 0.  1.
       -1    1    3    3    0  502  0.27405161067E+03 -0.39233334222E+03  0.21662537120E+03  0.52531541782E+03  0.50400001928E-02 0. -1.
</event>
<event>
 5   0  0.2312105E-03  0.1296322E+04  0.7818609E-02  0.9032487E-01
       -2   -1    0    0    0  501  0.00000000000E+00  0.00000000000E+00  0.17866932642E+03  0.17866932644E+03  0.25500000920E-02 0. -1.
        2   -1    0    0  501    0  0.00000000000E+00  0.00000000000E+00 -0.23513428774E+04  0.23513428774E+04  0.25500000920E-02 0.  1.
    10030    2    1    2    0    0  0.00000000000E+00  0.00000000000E+00 -0.21726735510E+04  0.25300122038E+04  0.12963222564E+04 0.  0.
        5    1    3    3  502    0 -0.30074692751E+03 -0.15334980751E+03 -0.21661774003E+04  0.21923301524E+04  0.46999998093E+01 0.  1.
       -5    1    3    3    0  502  0.30074692751E+03  0.15334980751E+03 -0.64961507157E+01  0.33768205141E+03  0.46999998093E+01 0. -1.
</event>
<event>
 5   0  0.2312105E-03  0.1299767E+04  0.7818609E-02  0.9029750E-01
       -2   -1    0    0    0  501  0.00000000000E+00  0.00000000000E+00  0.10701952105E+04  0.10701952105E+04  0.25500000920E-02 0.  1.
        2   -1    0    0  501    0  0.00000000000E+00  0.00000000000E+00 -0.39464627445E+03  0.39464627446E+03  0.25500000920E-02 0. -1.
    10030    2    1    2    0    0  0.00000000000E+00  0.00000000000E+00  0.67554893608E+03  0.14648414850E+04  0.12997669834E+04 0.  0.
        5    1    3    3  502    0 -0.29048422394E+03  0.25156766532E+03  0.92841346383E+03  0.10048089492E+04  0.46999998093E+01 0.  1.
       -5    1    3    3    0  502  0.29048422394E+03 -0.25156766532E+03 -0.25286452775E+03  0.46003253579E+03  0.46999998093E+01 0. -1.
</event>
<event>
 5   0  0.2361043E-03  0.1329652E+04  0.7818609E-02  0.9006376E-01
       -2   -1    0    0    0  501  0.00000000000E+00  0.00000000000E+00  0.13171183858E+04  0.13171183858E+04  0.25500000920E-02 0.  1.
        2   -1    0    0  501    0  0.00000000000E+00  0.00000000000E+00 -0.33557607600E+03  0.33557607601E+03  0.25500000920E-02 0. -1.
    10030    2    1    2    0    0  0.00000000000E+00  0.00000000000E+00  0.98154230976E+03  0.16526944618E+04  0.13296517131E+04 0.  0.
        2    1    3    3  502    0 -0.48648401552E+02  0.42785400932E+02 -0.33164313783E+03  0.33791186482E+03  0.25500000920E-02 0. -1.
       -2    1    3    3    0  502  0.48648401552E+02 -0.42785400932E+02  0.13131854476E+04  0.13147825970E+04  0.25500000920E-02 0.  1.
</event>
<event>
 5   0  0.2361043E-03  0.1285973E+04  0.7818609E-02  0.9040764E-01
       -2   -1    0    0    0  501  0.00000000000E+00  0.00000000000E+00  0.42875165947E+03  0.42875165948E+03  0.25500000920E-02 0.  1.
        2   -1    0    0  501    0  0.00000000000E+00  0.00000000000E+00 -0.96426769139E+03  0.96426769139E+03  0.25500000920E-02 0. -1.
    10030    2    1    2    0    0  0.00000000000E+00  0.00000000000E+00 -0.53551603192E+03  0.13930193509E+04  0.12859725858E+04 0.  0.
        2    1    3    3  502    0  0.18715652569E+03  0.39567359687E+02 -0.93272934035E+03  0.95214345737E+03  0.25500000920E-02 0. -1.
       -2    1    3    3    0  502 -0.18715652569E+03 -0.39567359687E+02  0.39721330843E+03  0.44087589349E+03  0.25500000920E-02 0.  1.
</event>
<event>
 5   0  0.2334946E-03  0.1305033E+04  0.7818609E-02  0.9025584E-01
       -2   -1    0    0    0  501  0.00000000000E+00  0.00000000000E+00  0.46653701530E+03  0.46653701530E+03  0.25500000920E-02 0. -1.
        2   -1    0    0  501    0  0.00000000000E+00  0.00000000000E+00 -0.91263420072E+03  0.91263420072E+03  0.25500000920E-02 0.  1.
    10030    2    1    2    0    0  0.00000000000E+00  0.00000000000E+00 -0.44609718542E+03  0.13791712160E+04  0.13050327752E+04 0.  0.
        1    1    3    3  502    0 -0.53639963722E+03 -0.36288710279E+03 -0.13872858767E+03  0.66231204220E+03  0.50400001928E-02 0. -1.
       -1    1    3    3    0  502  0.53639963722E+03  0.36288710279E+03 -0.30736859776E+03  0.71685917383E+03  0.50400001928E-02 0.  1.
</event>
<event>
 5   0  0.1387622E-03  0.1298692E+04  0.7818609E-02  0.9030603E-01
       -1   -1    0    0    0  501  0.00000000000E+00  0.00000000000E+00  0.68820268466E+03  0.68820268468E+03  0.50400001928E-02 0. -1.
        1   -1    0    0  501    0  0.00000000000E+00  0.00000000000E+00 -0.61268327617E+03  0.61268327619E+03  0.50400001928E-02 0.  1.
    10030    2    1    2    0    0  0.00000000000E+00  0.00000000000E+00  0.75519408494E+02  0.13008859609E+04  0.12986920736E+04 0.  0.
        3    1    3    3  502    0 -0.25403716884E+03 -0.33729595676E+03 -0.45637558924E+03  0.62175729529E+03  0.10100000352E+00 0. -1.
       -3    1    3    3    0  502  0.25403716884E+03  0.33729595676E+03  0.53189499773E+03  0.67912866558E+03  0.10100000352E+00 0.  1.
</event>
<event>
 5   0  0.1387622E-03  0.1257605E+04  0.7818609E-02  0.9063877E-01
       -1   -1    0    0    0  501  0.00000000000E+00  0.00000000000E+00  0.73310164603E+03  0.73310164605E+03  0.50400001928E-02 0.  1.
        1   -1    0    0  501    0  0.00000000000E+00  0.00000000000E+00 -0.53934213269E+03  0.53934213271E+03  0.50400001928E-02 0. -1.
    10030    2    1    2    0    0  0.00000000000E+00  0.00000000000E+00  0.19375951334E+03  0.12724437788E+04  0.12576050338E+04 0.  0.
        3    1    3    3  502    0 -0.14160343593E+03  0.59011826737E+03  0.26344751463E+03  0.66158575084E+03  0.10100000352E+00 0.  1.
       -3    1    3    3    0  502  0.14160343593E+03 -0.59011826737E+03 -0.69688001289E+02  0.61085802792E+03  0.10100000352E+00 0. -1.
</event>
<event>
 5   0  0.9131250E-04  0.1269294E+04  0.7818609E-02  0.9054276E-01
       -3   -1    0    0    0  501  0.00000000000E+00  0.00000000000E+00  0.21128459430E+04  0.21128459455E+04  0.10100000352E+00 0. -1.
        3   -1    0    0  501    0  0.00000000000E+00  0.00000000000E+00 -0.19063246034E+03  0.19063248709E+03  0.10100000352E+00 0.  1.
    10030    2    1    2    0    0  0.00000000000E+00  0.00000000000E+00  0.19222134827E+04  0.23034784325E+04  0.12692943773E+04 0.  0.
        4    1    3    3  502    0  0.48364309060E+03  0.35005271275E+03  0.57049697023E+03  0.82578202131E+03  0.12699999809E+01 0.  1.
       -4    1    3    3    0  502 -0.48364309060E+03 -0.35005271275E+03  0.13517165125E+04  0.14776964112E+04  0.12699999809E+01 0. -1.
</event>
<event>
 5   0  0.2478236E-03  0.1338410E+04  0.7818609E-02  0.8999648E-01
       -2   -1    0    0    0  501  0.00000000000E+00  0.00000000000E+00  0.25860026606E+03  0.25860026608E+03  0.25500000920E-02 0.  1.
        2   -1    0    0  501    0  0.00000000000E+00  0.00000000000E+00 -0.17317672814E+04  0.17317672814E+04  0.25500000920E-02 0. -1.
    10030    2    1    2    0    0  0.00000000000E+00  0.00000000000E+00 -0.14731670154E+04  0.19903675475E+04  0.13384102207E+04 0.  0.
        3    1    3    3  502    0 -0.68206333713E+02  0.66141671347E+03 -0.62419771847E+03  0.91200163090E+03  0.10100000352E+00 0.  1.
       -3    1    3    3    0  502  0.68206333713E+02 -0.66141671347E+03 -0.84896929689E+03  0.10783659166E+04  0.10100000352E+00 0. -1.
</event>
<event>
 5   0  0.1324721E-03  0.1270243E+04  0.7818609E-02  0.9053501E-01
       -1   -1    0    0    0  501  0.00000000000E+00  0.00000000000E+00  0.68595514466E+03  0.68595514467E+03  0.50400001928E-02 0.  1.
        1   -1    0    0  501    0  0.00000000000E+00  0.00000000000E+00 -0.58805529410E+03  0.58805529412E+03  0.50400001928E-02 0. -1.
    10030    2    1    2    0    0  0.00000000000E+00  0.00000000000E+00  0.97899850555E+02  0.12740104388E+04  0.12702433694E+04 0.  0.
        1    1    3    3  502    0  0.15800060245E+03 -0.46182609686E+03  0.45651944433E+03  0.66832442511E+03  0.50400001928E-02 0.  1.
       -1    1    3    3    0  502 -0.15800060245E+03  0.46182609686E+03 -0.35861959377E+03  0.60568601369E+03  0.50400001928E-02 0. -1.
</event>
<event>
 5   0  0.2361043E-03  0.1291389E+04  0.7818609E-02  0.9036422E-01
        2   -1    0    0  501    0  0.00000000000E+00  0.00000000000E+00  0.14818227344E+04  0.14818227344E+04  0.25500000920E-02 0. -1.
       -2   -1    0    0    0  501  0.00000000000E+00  0.00000000000E+00 -0.28135718265E+03  0.28135718266E+03  0.25500000920E-02 0.  1.
    10030    2    1    2    0    0  0.00000000000E+00  0.00000000000E+00  0.12004655517E+04  0.17631799170E+04  0.12913891276E+04 0.  0.
        2    1    3    3  502    0 -0.29340419160E+03 -0.48706475391E+03  0.18251278465E+03  0.59718423515E+03  0.25500000920E-02 0.  1.
       -2    1    3    3    0  502  0.29340419160E+03  0.48706475391E+03  0.10179527671E+04  0.11659956819E+04  0.25500000920E-02 0. -1.
</event>
<event>
 5   0  0.1310461E-03  0.1298556E+04  0.7818609E-02  0.9030711E-01
        1   -1    0    0  501    0  0.00000000000E+00  0.00000000000E+00  0.93891542359E+03  0.93891542361E+03  0.50400001928E-02 0. -1.
       -1   -1    0    0    0  501  0.00000000000E+00  0.00000000000E+00 -0.44898804475E+03  0.44898804477E+03  0.50400001928E-02 0.  1.
    10030    2    1    2    0    0  0.00000000000E+00  0.00000000000E+00  0.48992737885E+03  0.13879034684E+04  0.12985558136E+04 0.  0.
        4    1    3    3  502    0 -0.28593418653E+03 -0.48189737307E+03  0.59552004907E+03  0.81769748621E+03  0.12699999809E+01 0. -1.
       -4    1    3    3    0  502  0.28593418653E+03  0.48189737307E+03 -0.10559267023E+03  0.57020598217E+03  0.12699999809E+01 0.  1.
</event>
<event>
 5   0  0.1324721E-03  0.1221556E+04  0.7818609E-02  0.9094195E-01
        1   -1    0    0  501    0  0.00000000000E+00  0.00000000000E+00  0.12463196280E+04  0.12463196280E+04  0.50400001928E-02 0. -1.
       -1   -1    0    0    0  501  0.00000000000E+00  0.00000000000E+00 -0.29932127505E+03  0.29932127509E+03  0.50400001928E-02 0.  1.
    10030    2    1    2    0    0  0.00000000000E+00  0.00000000000E+00  0.94699835299E+03  0.15456409031E+04  0.12215563519E+04 0.  0.
        1    1    3    3  502    0  0.27302308348E+02  0.39913614520E+03  0.10574546050E+04  0.11306039625E+04  0.50400001928E-02 0. -1.
       -1    1    3    3    0  502 -0.27302308348E+02 -0.39913614520E+03 -0.11045625199E+03  0.41503694062E+03  0.50400001928E-02 0.  1.
</event>
<event>
 5   0  0.1346593E-03  0.1249536E+04  0.7818609E-02  0.9070569E-01
        1   -1    0    0  501    0  0.00000000000E+00  0.00000000000E+00  0.91812626846E+03  0.91812626848E+03  0.50400001928E-02 0.  1.
       -1   -1    0    0    0  501  0.00000000000E+00  0.00000000000E+00 -0.42514343546E+03  0.42514343549E+03  0.50400001928E-02 0. -1.
    10030    2    1    2    0    0  0.00000000000E+00  0.00000000000E+00  0.49298283300E+03  0.13432697040E+04  0.12495364836E+04 0.  0.
        2    1    3    3  502    0 -0.10109517570E+03  0.30842749336E+03  0.82037957388E+03  0.88225302406E+03  0.25500000920E-02 0.  1.
       -2    1    3    3    0  502  0.10109517570E+03 -0.30842749336E+03 -0.32739674088E+03  0.46101667991E+03  0.25500000920E-02 0. -1.
</event>
<event>
 5   0  0.1387622E-03  0.1280725E+04  0.7818609E-02  0.9044992E-01
        1   -1    0    0  501    0  0.00000000000E+00  0.00000000000E+00  0.71901142898E+03  0.71901142900E+03  0.50400001928E-02 0. -1.
       -1   -1    0    0    0  501  0.00000000000E+00  0.00000000000E+00 -0.57031620371E+03  0.57031620374E+03  0.50400001928E-02 0.  1.
    10030    2    1    2    0    0  0.00000000000E+00  0.00000000000E+00  0.14869522527E+03  0.12893276327E+04  0.12807245896E+04 0.  0.
        3    1    3    3  502    0 -0.55687413841E+02 -0.30651145921E+03  0.63758188568E+03  0.70962034486E+03  0.10100000352E+00 0. -1.
       -3    1    3    3    0  502  0.55687413841E+02  0.30651145921E+03 -0.48888666041E+03  0.57970728788E+03  0.10100000352E+00 0.  1.
</event>
<event>
 5   0  0.2401211E-03  0.1211630E+04  0.7818609E-02  0.9102737E-01
       -2   -1    0    0    0  501  0.00000000000E+00  0.00000000000E+00  0.36156468136E+03  0.36156468137E+03  0.25500000920E-02 0. -1.
        2   -1    0    0  501    0  0.00000000000E+00  0.00000000000E+00 -0.10150657671E+04  0.10150657671E+04  0.25500000920E-02 0.  1.
    10030    2    1    2    0    0  0.00000000000E+00  0.00000000000E+00 -0.65350108571E+03  0.13766304484E+04  0.12116301922E+04 0.  0.
        4    1    3    3  502    0 -0.21780544270E+03  0.44698378637E+02  0.31352834331E+03  0.38436804092E+03  0.12699999809E+01 0. -1.
       -4    1    3    3    0  502  0.21780544270E+03 -0.44698378637E+02 -0.96702942902E+03  0.99226240753E+03  0.12699999809E+01 0.  1.
</event>
<event>
 5   0  0.2401211E-03  0.1282870E+04  0.7818609E-02  0.9043260E-01
       -2   -1    0    0    0  501  0.00000000000E+00  0.00000000000E+00  0.68437771278E+03  0.68437771278E+03  0.25500000920E-02 0. -1.
        2   -1    0    0  501    0  0.00000000000E+00  0.00000000000E+00 -0.60118722285E+03  0.60118722286E+03  0.25500000920E-02 0.  1.
    10030    2    1    2    0    0  0.00000000000E+00  0.00000000000E+00  0.83190489927E+02  0.12855649356E+04  0.12828704323E+04 0.  0.
        4    1    3    3  502    0  0.34121048239E+03  0.27466541608E+03  0.51116438010E+03  0.67316886474E+03  0.12699999809E+01 0. -1.
       -4    1    3    3    0  502 -0.34121048239E+03 -0.27466541608E+03 -0.42797389017E+03  0.61239607089E+03  0.12699999809E+01 0.  1.
</event>
<event>
 5   0  0.1346593E-03  0.1293348E+04  0.7818609E-02  0.9034857E-01
        1   -1    0    0  501    0  0.00000000000E+00  0.00000000000E+00  0.11543626302E+04  0.11543626302E+04  0.50400001928E-02 0.  1.
       -1   -1    0    0    0  501  0.00000000000E+00  0.00000000000E+00 -0.36226685698E+03  0.36226685701E+03  0.50400001928E-02 0. -1.
    10030    2    1    2    0    0  0.00000000000E+00  0.00000000000E+00  0.79209577318E+03  0.15166294872E+04  0.12933480922E+04 0.  0.
        2    1    3    3  502    0 -0.36035174054E+03 -0.40484560813E+03 -0.17602621666E+02  0.54227594049E+03  0.25500000920E-02 0. -1.
       -2    1    3    3    0  502  0.36035174054E+03  0.40484560813E+03  0.80969839485E+03  0.97435354670E+03  0.25500000920E-02 0.  1.
</event>
<event>
 5   0  0.2401211E-03  0.1280468E+04  0.7818609E-02  0.9045199E-01
        2   -1    0    0  501    0  0.00000000000E+00  0.00000000000E+00  0.92197490365E+03  0.92197490365E+03  0.25500000920E-02 0. -1.
       -2   -1    0    0    0  501  0.00000000000E+00  0.00000000000E+00 -0.44458862506E+03  0.44458862507E+03  0.25500000920E-02 0.  1.
    10030    2    1    2    0    0  0.00000000000E+00  0.00000000000E+00  0.47738627859E+03  0.13665635287E+04  0.12804679688E+04 0.  0.
        4    1    3    3  502    0  0.33609033370E+03 -0.42668033343E+03  0.60043019789E+03  0.80964859957E+03  0.12699999809E+01 0. -1.
       -4    1    3    3    0  502 -0.33609033370E+03  0.42668033343E+03 -0.12304391930E+03  0.55691492916E+03  0.12699999809E+01 0.  1.
</event>
<event>
 5   0  0.2334946E-03  0.1251213E+04  0.7818609E-02  0.9069174E-01
        2   -1    0    0  501    0  0.00000000000E+00  0.00000000000E+00  0.93028260215E+03  0.93028260216E+03  0.25500000920E-02 0. -1.
       -2   -1    0    0    0  501  0.00000000000E+00  0.00000000000E+00 -0.42071494524E+03  0.42071494525E+03  0.25500000920E-02 0.  1.
    10030    2    1    2    0    0  0.00000000000E+00  0.00000000000E+00  0.50956765691E+03  0.13509975474E+04  0.12512134814E+04 0.  0.
        1    1    3    3  502    0 -0.25384898747E+03  0.55302996671E+03  0.97932403389E+02  0.61633773873E+03  0.50400001928E-02 0.  1.
       -1    1    3    3    0  502  0.25384898747E+03 -0.55302996671E+03  0.41163525352E+03  0.73465980868E+03  0.50400001928E-02 0. -1.
</event>
<event>
 5   0  0.2401211E-03  0.1299967E+04  0.7818609E-02  0.9029592E-01
        2   -1    0    0  501    0  0.00000000000E+00  0.00000000000E+00  0.46260531083E+03  0.46260531084E+03  0.25500000920E-02 0. -1.
       -2   -1    0    0    0  501  0.00000000000E+00  0.00000000000E+00 -0.91325863218E+03  0.91325863218E+03  0.25500000920E-02 0.  1.
    10030    2    1    2    0    0  0.00000000000E+00  0.00000000000E+00 -0.45065332134E+03  0.13758639430E+04  0.12999666048E+04 0.  0.
        4    1    3    3  502    0  0.11639105566E+03  0.19828087890E+03 -0.86878108476E+03  0.89869036431E+03  0.12699999809E+01 0.  1.
       -4    1    3    3    0  502 -0.11639105566E+03 -0.19828087890E+03  0.41812776342E+03  0.47717357871E+03  0.12699999809E+01 0. -1.
</event>
<event>
 5   0  0.1387622E-03  0.1303414E+04  0.7818609E-02  0.9026862E-01
       -1   -1    0    0    0  501  0.00000000000E+00  0.00000000000E+00  0.83965730006E+03  0.83965730008E+03  0.50400001928E-02 0.  1.
        1   -1    0    0  501    0  0.00000000000E+00  0.00000000000E+00 -0.50582811505E+03  0.50582811507E+03  0.50400001928E-02 0. -1.
    10030    2    1    2    0    0  0.00000000000E+00  0.00000000000E+00  0.33382918501E+03  0.13454854151E+04  0.13034143921E+04 0.  0.
        3    1    3    3  502    0 -0.13924177242E+03 -0.33203443204E+03 -0.39383841577E+03  0.53361394584E+03  0.10100000352E+00 0. -1.
       -3    1    3    3    0  502  0.13924177242E+03  0.33203443204E+03  0.72766760079E+03  0.81187146931E+03  0.10100000352E+00 0.  1.
</event>
<event>
 5   0  0.2312105E-03  0.1330105E+04  0.7818609E-02  0.9006026E-01
        2   -1    0    0  501    0  0.00000000000E+00  0.00000000000E+00  0.62277213040E+03  0.62277213040E+03  0.25500000920E-02 0. -1.
       -2   -1    0    0    0  501  0.00000000000E+00  0.00000000000E+00 -0.71020369351E+03  0.71020369351E+03  0.25500000920E-02 0.  1.
    10030    2    1    2    0    0  0.00000000000E+00  0.00000000000E+00 -0.87431563107E+02  0.13329758239E+04  0.13301053601E+04 0.  0.
        5    1    3    3  502    0 -0.18558835427E+03 -0.23884236907E+02  0.59583028476E+03  0.62453927999E+03  0.46999998093E+01 0. -1.
       -5    1    3    3    0  502  0.18558835427E+03  0.23884236907E+02 -0.68326184787E+03  0.70843654392E+03  0.46999998093E+01 0.  1.
</event>
<event>
 5   0  0.1387622E-03  0.1321664E+04  0.7818609E-02  0.9012559E-01
       -1   -1    0    0    0  501  0.00000000000E+00  0.00000000000E+00  0.55944857682E+03  0.55944857684E+03  0.50400001928E-02 0.  1.
        1   -1    0    0  501    0  0.00000000000E+00  0.00000000000E+00 -0.78058842733E+03  0.78058842734E+03  0.50400001928E-02 0. -1.
    10030    2    1    2    0    0  0.00000000000E+00  0.00000000000E+00 -0.22113985051E+03  0.13400370042E+04  0.13216642308E+04 0.  0.
        3    1    3    3  502    0 -0.76796924818E+02 -0.60023339247E+02  0.55212022739E+03  0.56065793904E+03  0.10100000352E+00 0.  1.
       -3    1    3    3    0  502  0.76796924818E+02  0.60023339247E+02 -0.77326007789E+03  0.77937906514E+03  0.10100000352E+00 0. -1.
</event>
<event>
 5   0  0.1387622E-03  0.1285659E+04  0.7818609E-02  0.9041015E-01
       -1   -1    0    0    0  501  0.00000000000E+00  0.00000000000E+00  0.89441112530E+03  0.89441112531E+03  0.50400001928E-02 0. -1.
        1   -1    0    0  501    0  0.00000000000E+00  0.00000000000E+00 -0.46201352372E+03  0.46201352375E+03  0.50400001928E-02 0.  1.
    10030    2    1    2    0    0  0.00000000000E+00  0.00000000000E+00  0.43239760157E+03  0.13564246491E+04  0.12856594194E+04 0.  0.
        3    1    3    3  502    0  0.36869879778E+03 -0.34100973606E+03 -0.20713944534E+03  0.54326163456E+03  0.10100000352E+00 0.  1.
       -3    1    3    3    0  502 -0.36869879778E+03  0.34100973606E+03  0.63953704691E+03  0.81316301450E+03  0.10100000352E+00 0. -1.
</event>
<event>
 5   0  0.2478236E-03  0.1289672E+04  0.7818609E-02  0.9037796E-01
       -2   -1    0    0    0  501  0.00000000000E+00  0.00000000000E+00  0.20625942712E+03  0.20625942713E+03  0.25500000920E-02 0. -1.
        2   -1    0    0  501    0  0.00000000000E+00  0.00000000000E+00 -0.20159732679E+04  0.20159732680E+04  0.25500000920E-02 0.  1.
    10030    2    1    2    0    0  0.00000000000E+00  0.00000000000E+00 -0.18097138408E+04  0.22222326951E+04  0.12896720379E+04 0.  0.
        3    1    3    3  502    0 -0.49456435282E+02 -0.30708756122E+03  0.68449699613E+02  0.31848717529E+03  0.10100000352E+00 0. -1.
       -3    1    3    3    0  502  0.49456435282E+02  0.30708756122E+03 -0.18781635404E+04  0.19037455198E+04  0.10100000352E+00 0.  1.
</event>
<event>
 5   0  0.1324721E-03  0.1056263E+04  0.7818609E-02  0.9248902E-01
        1   -1    0    0  501    0  0.00000000000E+00  0.00000000000E+00  0.10084933625E+04  0.10084933625E+04  0.50400001928E-02 0. -1.
       -1   -1    0    0    0  501  0.00000000000E+00  0.00000000000E+00 -0.27657388691E+03  0.27657388696E+03  0.50400001928E-02 0.  1.
    10030    2    1    2    0    0  0.00000000000E+00  0.00000000000E+00  0.73191947560E+03  0.12850672495E+04  0.10562630908E+04 0.  0.
        1    1    3    3  502    0 -0.16948610082E+02  0.51000428247E+03  0.20034203321E+03  0.54820484658E+03  0.50400001928E-02 0. -1.
       -1    1    3    3    0  502  0.16948610082E+02 -0.51000428247E+03  0.53157744238E+03  0.73686240289E+03  0.50400001928E-02 0.  1.
</event>
<event>
 5   0  0.1310461E-03  0.1325012E+04  0.7818609E-02  0.9009962E-01
        1   -1    0    0  501    0  0.00000000000E+00  0.00000000000E+00  0.51449319941E+03  0.51449319944E+03  0.50400001928E-02 0. -1.
       -1   -1    0    0    0  501  0.00000000000E+00  0.00000000000E+00 -0.85309977580E+03  0.85309977582E+03  0.50400001928E-02 0.  1.
    10030    2    1    2    0    0  0.00000000000E+00  0.00000000000E+00 -0.33860657639E+03  0.13675929753E+04  0.13250117480E+04 0.  0.
        4    1    3    3  502    0 -0.31298326616E+03 -0.48016420576E+03  0.17363364153E+03  0.59888767207E+03  0.12699999809E+01 0.  1.
       -4    1    3    3    0  502  0.31298326616E+03  0.48016420576E+03 -0.51224021793E+03  0.76870530319E+03  0.12699999809E+01 0. -1.
</event>
<event>
 5   0  0.1332630E-03  0.1278062E+04  0.7818609E-02  0.9047145E-01
        1   -1    0    0  501    0  0.00000000000E+00  0.00000000000E+00  0.17199520166E+04  0.17199520166E+04  0.50400001928E-02 0. -1.
       -1   -1    0    0    0  501  0.00000000000E+00  0.00000000000E+00 -0.23742572948E+03  0.23742572953E+03  0.50400001928E-02 0.  1.
    10030    2    1    2    0    0  0.00000000000E+00  0.00000000000E+00  0.14825262871E+04  0.19573777462E+04  0.12780623808E+04 0.  0.
        5    1    3    3  502    0 -0.60090759936E+03 -0.13661855823E+03  0.48233121448E+03  0.78257272115E+03  0.46999998093E+01 0.  1.
       -5    1    3    3    0  502  0.60090759936E+03  0.13661855823E+03  0.10001950727E+04  0.11748050250E+04  0.46999998093E+01 0. -1.
</event>
<event>
 5   0  0.1310461E-03  0.1304156E+04  0.7818609E-02  0.9026276E-01
       -1   -1    0    0    0  501  0.00000000000E+00  0.00000000000E+00  0.41134475189E+03  0.41134475192E+03  0.50400001928E-02 0. -1.
        1   -1    0    0  501    0  0.00000000000E+00  0.00000000000E+00 -0.10336966965E+04  0.10336966965E+04  0.50400001928E-02 0.  1.
    10030    2    1    2    0    0  0.00000000000E+00  0.00000000000E+00 -0.62235194460E+03  0.14450414484E+04  0.13041559894E+04 0.  0.
        4    1    3    3  502    0  0.56200773907E+03 -0.48108196936E+02 -0.67368408477E+03  0.87864609278E+03  0.12699999809E+01 0.  1.
       -4    1    3    3    0  502 -0.56200773907E+03  0.48108196936E+02  0.51332140172E+02  0.56639535565E+03  0.12699999809E+01 0. -1.
</event>
<event>
 5   0  0.1324721E-03  0.1272296E+04  0.7818609E-02  0.9051828E-01
       -1   -1    0    0    0  501  0.00000000000E+00  0.00000000000E+00  0.37357820560E+03  0.37357820563E+03  0.50400001928E-02 0.  1.
        1   -1    0    0  501    0  0.00000000000E+00  0.00000000000E+00 -0.10832650033E+04  0.10832650034E+04  0.50400001928E-02 0. -1.
    10030    2    1    2    0    0  0.00000000000E+00  0.00000000000E+00 -0.70968679775E+03  0.14568432090E+04  0.12722958715E+04 0.  0.
        1    1    3    3  502    0  0.22822380879E+03 -0.97337969969E+02  0.31588990343E+03  0.40168049294E+03  0.50400001928E-02 0.  1.
       -1    1    3    3    0  502 -0.22822380879E+03  0.97337969969E+02 -0.10255767012E+04  0.10551627160E+04  0.50400001928E-02 0. -1.
</event>
<event>
 5   0  0.2401211E-03  0.1279282E+04  0.7818609E-02  0.9046158E-01
       -2   -1    0    0    0  501  0.00000000000E+00  0.00000000000E+00  0.90904423066E+03  0.90904423066E+03  0.25500000920E-02 0.  1.
        2   -1    0    0  501    0  0.00000000000E+00  0.00000000000E+00 -0.45007802928E+03  0.45007802929E+03  0.25500000920E-02 0. -1.
    10030    2    1    2    0    0  0.00000000000E+00  0.00000000000E+00  0.45896620137E+03  0.13591222600E+04  0.12792823549E+04 0.  0.
        4    1    3    3  502    0 -0.48857068672E+03 -0.51612317693E+01  0.66805547371E+03  0.82766399166E+03  0.12699999809E+01 0.  1.
       -4    1    3    3    0  502  0.48857068672E+03  0.51612317693E+01 -0.20908927233E+03  0.53145826830E+03  0.12699999809E+01 0. -1.
</event>
<event>
 5   0  0.1310461E-03  0.1276228E+04  0.7818609E-02  0.9048632E-01
        1   -1    0    0  501    0  0.00000000000E+00  0.00000000000E+00  0.26158901699E+03  0.26158901704E+03  0.50400001928E-02 0.  1.
       -1   -1    0    0    0  501  0.00000000000E+00  0.00000000000E+00 -0.15566000337E+04  0.15566000337E+04  0.50400001928E-02 0. -1.
    10030    2    1    2    0    0  0.00000000000E+00  0.00000000000E+00 -0.12950110167E+04  0.18181890508E+04  0.12762279933E+04 0.  0.
        4    1    3    3  502    0  0.23813898580E+03  0.15554654911E+03 -0.14612872933E+04  0.14887132269E+04  0.12699999809E+01 0. -1.
       -4    1    3    3    0  502 -0.23813898580E+03 -0.15554654911E+03  0.16627627653E+03  0.32947582390E+03  0.12699999809E+01 0.  1.
</event>
<event>
 5   0  0.1310461E-03  0.1287824E+04  0.7818609E-02  0.9039277E-01
        1   -1    0    0  501    0  0.00000000000E+00  0.00000000000E+00  0.13363228569E+04  0.13363228569E+04  0.50400001928E-02 0. -1.
       -1   -1    0    0    0  501  0.00000000000E+00  0.00000000000E+00 -0.31027152208E+03  0.31027152212E+03  0.50400001928E-02 0.  1.
    10030    2    1    2    0    0  0.00000000000E+00  0.00000000000E+00  0.10260513349E+04  0.16465943791E+04  0.12878244086E+04 0.  0.
        4    1    3    3  502    0 -0.54107952469E+02  0.43546455673E+03  0.11155426785E+04  0.11987469004E+04  0.12699999809E+01 0. -1.
       -4    1    3    3    0  502  0.54107952469E+02 -0.43546455673E+03 -0.89491343635E+02  0.44784747870E+03  0.12699999809E+01 0.  1.
</event>
<event>
 5   0  0.1387622E-03  0.1209704E+04  0.7818609E-02  0.9104405E-01
       -1   -1    0    0    0  501  0.00000000000E+00  0.00000000000E+00  0.26398358608E+03  0.26398358613E+03  0.50400001928E-02 0. -1.
        1   -1    0    0  501    0  0.00000000000E+00  0.00000000000E+00 -0.13858659169E+04  0.13858659169E+04  0.50400001928E-02 0.  1.
    10030    2    1    2    0    0  0.00000000000E+00  0.00000000000E+00 -0.11218823308E+04  0.16498495030E+04  0.12097038557E+04 0.  0.
        3    1    3    3  502    0  0.42254886421E+03  0.18726507514E+03 -0.10930684433E+04  0.11867663557E+04  0.10100000352E+00 0.  1.
       -3    1    3    3    0  502 -0.42254886421E+03 -0.18726507514E+03 -0.28813887456E+02  0.46308314731E+03  0.10100000352E+00 0. -1.
</event>
<event>
 5   0  0.1387622E-03  0.1298561E+04  0.7818609E-02  0.9030707E-01
        1   -1    0    0  501    0  0.00000000000E+00  0.00000000000E+00  0.11924199847E+04  0.11924199847E+04  0.50400001928E-02 0.  1.
       -1   -1    0    0    0  501  0.00000000000E+00  0.00000000000E+00 -0.35353765538E+03  0.35353765542E+03  0.50400001928E-02 0. -1.
    10030    2    1    2    0    0  0.00000000000E+00  0.00000000000E+00  0.83888232936E+03  0.15459576402E+04  0.12985613049E+04 0.  0.
        3    1    3    3  502    0  0.23312299859E+03 -0.19395069474E+03  0.11029279954E+04  0.11438589851E+04  0.10100000352E+00 0.  1.
       -3    1    3    3    0  502 -0.23312299859E+03  0.19395069474E+03 -0.26404566606E+03  0.40209865509E+03  0.10100000352E+00 0. -1.
</event>
<event>
 5   0  0.2401211E-03  0.1295076E+04  0.7818609E-02  0.9033479E-01
        2   -1    0    0  501    0  0.00000000000E+00  0.00000000000E+00  0.10379044959E+04  0.10379044959E+04  0.25500000920E-02 0.  1.
       -2   -1    0    0    0  501  0.00000000000E+00  0.00000000000E+00 -0.40399205190E+03  0.40399205191E+03  0.25500000920E-02 0. -1.
    10030    2    1    2    0    0  0.00000000000E+00  0.00000000000E+00  0.63391244398E+03  0.14418965478E+04  0.12950755452E+04 0.  0.
        4    1    3    3  502    0  0.33822554077E+03  0.49706331051E+03  0.49202968947E+02  0.60323378232E+03  0.12699999809E+01 0. -1.
       -4    1    3    3    0  502 -0.33822554077E+03 -0.49706331051E+03  0.58470947503E+03  0.83866276546E+03  0.12699999809E+01 0.  1.
</event>
<event>
 5   0  0.1346593E-03  0.1287657E+04  0.7818609E-02  0.9039411E-01
       -1   -1    0    0    0  501  0.00000000000E+00  0.00000000000E+00  0.41844393898E+03  0.41844393901E+03  0.50400001928E-02 0. -1.
        1   -1    0    0  501    0  0.00000000000E+00  0.00000000000E+00 -0.99061103211E+03  0.99061103212E+03  0.50400001928E-02 0.  1.
    10030    2    1    2    0    0  0.00000000000E+00  0.00000000000E+00 -0.57216709313E+03  0.14090549711E+04  0.12876570697E+04 0.  0.
        2    1    3    3  502    0 -0.26458809603E+03  0.49644375064E+03  0.56570433141E+02  0.56538789518E+03  0.25500000920E-02 0. -1.
       -2    1    3    3    0  502  0.26458809603E+03 -0.49644375064E+03 -0.62873752627E+03  0.84366707596E+03  0.25500000920E-02 0.  1.
</event>
<event>
 5   0  0.1310461E-03  0.1312354E+04  0.7818609E-02  0.9019826E-01
        1   -1    0    0  501    0  0.00000000000E+00  0.00000000000E+00  0.55854012763E+03  0.55854012765E+03  0.50400001928E-02 0. -1.
       -1   -1    0    0    0  501  0.00000000000E+00  0.00000000000E+00 -0.77088109477E+03  0.77088109479E+03  0.50400001928E-02 0.  1.
    10030    2    1    2    0    0  0.00000000000E+00  0.00000000000E+00 -0.21234096714E+03  0.13294212224E+04  0.13123536491E+04 0.  0.
        4    1    3    3  502    0  0.64324992139E+03 -0.10720902860E+03 -0.17993351450E+03  0.67649236486E+03  0.12699999809E+01 0. -1.
       -4    1    3    3    0  502 -0.64324992139E+03  0.10720902860E+03 -0.32407452641E+02  0.65292885758E+03  0.12699999809E+01 0.  1.
</event>
<event>
 5   0  0.2401211E-03  0.1299474E+04  0.7818609E-02  0.9029983E-01
        2   -1    0    0  501    0  0.00000000000E+00  0.00000000000E+00  0.47935998096E+03  0.47935998097E+03  0.25500000920E-02 0.  1.
       -2   -1    0    0    0  501  0.00000000000E+00  0.00000000000E+00 -0.88066991703E+03  0.88066991704E+03  0.25500000920E-02 0. -1.
    10030    2    1    2    0    0  0.00000000000E+00  0.00000000000E+00 -0.40130993607E+03  0.13600298980E+04  0.12994736083E+04 0.  0.
        4    1    3    3  502    0  0.15126346958E+03  0.62471607616E+03 -0.10133544260E+03  0.65070830475E+03  0.12699999809E+01 0. -1.
       -4    1    3    3    0  502 -0.15126346958E+03 -0.62471607616E+03 -0.29997449347E+03  0.70932159326E+03  0.12699999809E+01 0.  1.
</event>
<event>
 5   0  0.2312105E-03  0.1293454E+04  0.7818609E-02  0.9034772E-01
       -2   -1    0    0    0  501  0.00000000000E+00  0.00000000000E+00  0.33942870723E+03  0.33942870724E+03  0.25500000920E-02 0. -1.
        2   -1    0    0  501    0  0.00000000000E+00  0.00000000000E+00 -0.12322349782E+04  0.12322349782E+04  0.25500000920E-02 0.  1.
    10030    2    1    2    0    0  0.00000000000E+00  0.00000000000E+00 -0.89280627100E+03  0.15716636855E+04  0.12934541749E+04 0.  0.
        5    1    3    3  502    0 -0.65460675066E+02  0.61634775167E+03 -0.67066610638E+03  0.91322766450E+03  0.46999998093E+01 0.  1.
       -5    1    3    3    0  502  0.65460675066E+02 -0.61634775167E+03 -0.22214016462E+03  0.65843602096E+03  0.46999998093E+01 0. -1.
</event>
<event>
 5   0  0.1310461E-03  0.1067283E+04  0.7818609E-02  0.9237680E-01
        1   -1    0    0  501    0  0.00000000000E+00  0.00000000000E+00  0.10350282859E+04  0.10350282859E+04  0.50400001928E-02 0. -1.
       -1   -1    0    0    0  501  0.00000000000E+00  0.00000000000E+00 -0.27513569960E+03  0.27513569964E+03  0.50400001928E-02 0.  1.
    10030    2    1    2    0    0  0.00000000000E+00  0.00000000000E+00  0.75989258629E+03  0.13101639855E+04  0.10672829645E+04 0.  0.
        4    1    3    3  502    0  0.19272858388E+03 -0.72121968697E+02  0.98436157814E+03  0.10056416931E+04  0.12699999809E+01 0. -1.
       -4    1    3    3    0  502 -0.19272858388E+03  0.72121968697E+02 -0.22446899185E+03  0.30452229248E+03  0.12699999809E+01 0.  1.
</event>
<event>
 5   0  0.2401211E-03  0.9302331E+03  0.7818609E-02  0.9388558E-01
       -2   -1    0    0    0  501  0.00000000000E+00  0.00000000000E+00  0.25362340768E+03  0.25362340769E+03  0.25500000920E-02 0. -1.
        2   -1    0    0  501    0  0.00000000000E+00  0.00000000000E+00 -0.85297095563E+03  0.85297095563E+03  0.25500000920E-02 0.  1.
    10030    2    1    2    0    0  0.00000000000E+00  0.00000000000E+00 -0.59934754795E+03  0.11065943633E+04  0.93023308999E+03 0.  0.
        4    1    3    3  502    0 -0.11088224324E+02  0.45118209822E+03 -0.16591224103E+03  0.48084999646E+03  0.12699999809E+01 0. -1.
       -4    1    3    3    0  502  0.11088224324E+02 -0.45118209822E+03 -0.43343530692E+03  0.62574436686E+03  0.12699999809E+01 0.  1.
</event>
<event>
 5   0  0.2478236E-03  0.1332881E+04  0.7818609E-02  0.9003889E-01
       -2   -1    0    0    0  501  0.00000000000E+00  0.00000000000E+00  0.51139861669E+03  0.51139861669E+03  0.25500000920E-02 0.  1.
        2   -1    0    0  501    0  0.00000000000E+00  0.00000000000E+00 -0.86848735864E+03  0.86848735865E+03  0.25500000920E-02 0. -1.
    10030    2    1    2    0    0  0.00000000000E+00  0.00000000000E+00 -0.35708874196E+03  0.13798859753E+04  0.13328814408E+04 0.  0.
        3    1    3    3  502    0  0.92371395885E+02  0.47611970808E+03  0.29465318322E+03  0.56748829044E+03  0.10100000352E+00 0.  1.
       -3    1    3    3    0  502 -0.92371395885E+02 -0.47611970808E+03 -0.65174192518E+03  0.81239768490E+03  0.10100000352E+00 0. -1.
</event>
<event>
 5   0  0.1332630E-03  0.1295727E+04  0.7818609E-02  0.9032960E-01
       -1   -1    0    0    0  501  0.00000000000E+00  0.00000000000E+00  0.11276679910E+04  0.11276679910E+04  0.50400001928E-02 0.  1.
        1   -1    0    0  501    0  0.00000000000E+00  0.00000000000E+00 -0.37220815179E+03  0.37220815182E+03  0.50400001928E-02 0. -1.
    10030    2    1    2    0    0  0.00000000000E+00  0.00000000000E+00  0.75545983916E+03  0.14998761428E+04  0.12957271607E+04 0.  0.
        5    1    3    3  502    0  0.24060962985E+03 -0.50197207250E+03  0.76136165947E+03  0.94316627487E+03  0.46999998093E+01 0.  1.
       -5    1    3    3    0  502 -0.24060962985E+03  0.50197207250E+03 -0.59018203011E+01  0.55670986791E+03  0.46999998093E+01 0. -1.
</event>
<event>
 5   0  0.2361043E-03  0.1324231E+04  0.7818609E-02  0.9010567E-01
       -2   -1    0    0    0  501  0.00000000000E+00  0.00000000000E+00  0.44434358994E+03  0.44434358995E+03  0.25500000920E-02 0.  1.
        2   -1    0    0  501    0  0.00000000000E+00  0.00000000000E+00 -0.98661715636E+03  0.98661715636E+03  0.25500000920E-02 0. -1.
    10030    2    1    2    0    0  0.00000000000E+00  0.00000000000E+00 -0.54227356642E+03  0.14309607463E+04  0.13242311115E+04 0.  0.
        2    1    3    3  502    0 -0.35344516857E+03 -0.26206798864E+03 -0.80578019743E+03  0.91808760172E+03  0.25500000920E-02 0. -1.
       -2    1    3    3    0  502  0.35344516857E+03  0.26206798864E+03  0.26350663101E+03  0.51287314459E+03  0.25500000920E-02 0.  1.
</event>
<event>
 5   0  0.1332630E-03  0.1253610E+04  0.7818609E-02  0.9067184E-01
       -1   -1    0    0    0  501  0.00000000000E+00  0.00000000000E+00  0.95131807470E+03  0.95131807472E+03  0.50400001928E-02 0. -1.
        1   -1    0    0  501    0  0.00000000000E+00  0.00000000000E+00 -0.41298953366E+03  0.41298953369E+03  0.50400001928E-02 0.  1.
    10030    2    1    2    0    0  0.00000000000E+00  0.00000000000E+00  0.53832854104E+03  0.13643076084E+04  0.12536098405E+04 0.  0.
        5    1    3    3  502    0  0.61404767180E+03  0.12571526753E+03  0.26714391133E+03  0.68135661081E+03  0.46999998093E+01 0. -1.
       -5    1    3    3    0  502 -0.61404767180E+03 -0.12571526753E+03  0.27118462971E+03  0.68295099760E+03  0.46999998093E+01 0.  1.
</event>
<event>
 5   0  0.2361043E-03  0.1299417E+04  0.7818609E-02  0.9030028E-01
        2   -1    0    0  501    0  0.00000000000E+00  0.00000000000E+00  0.44872790256E+03  0.44872790256E+03  0.25500000920E-02 0.  1.
       -2   -1    0    0    0  501  0.00000000000E+00  0.00000000000E+00 -0.94070621399E+03  0.94070621400E+03  0.25500000920E-02 0. -1.
    10030    2    1    2    0    0  0.00000000000E+00  0.00000000000E+00 -0.49197831144E+03  0.13894341166E+04  0.12994169867E+04 0.  0.
        2    1    3    3  502    0  0.41045370540E+03  0.19420587023E+03 -0.74286615072E+03  0.87065393940E+03  0.25500000920E-02 0. -1.
       -2    1    3    3    0  502 -0.41045370540E+03 -0.19420587023E+03  0.25088783928E+03  0.51878017716E+03  0.25500000920E-02 0.  1.
</event>
<event>
 5   0  0.1387622E-03  0.1295516E+04  0.7818609E-02  0.9033128E-01
       -1   -1    0    0    0  501  0.00000000000E+00  0.00000000000E+00  0.26721628946E+03  0.26721628950E+03  0.50400001928E-02 0.  1.
        1   -1    0    0  501    0  0.00000000000E+00  0.00000000000E+00 -0.15702287264E+04  0.15702287264E+04  0.50400001928E-02 0. -1.
    10030    2    1    2    0    0  0.00000000000E+00  0.00000000000E+00 -0.13030124369E+04  0.18374450159E+04  0.12955164127E+04 0.  0.
        3    1    3    3  502    0  0.79926067954E+02  0.54909540624E+03 -0.17749165399E+03  0.58257809685E+03  0.10100000352E+00 0.  1.
       -3    1    3    3    0  502 -0.79926067954E+02 -0.54909540624E+03 -0.11255207829E+04  0.12548669190E+04  0.10100000352E+00 0. -1.
</event>
<event>
 5   0  0.2478236E-03  0.1305355E+04  0.7818609E-02  0.9025329E-01
       -2   -1    0    0    0  501  0.00000000000E+00  0.00000000000E+00  0.19626083754E+03  0.19626083755E+03  0.25500000920E-02 0. -1.
        2   -1    0    0  501    0  0.00000000000E+00  0.00000000000E+00 -0.21705198687E+04  0.21705198687E+04  0.25500000920E-02 0.  1.
    10030    2    1    2    0    0  0.00000000000E+00  0.00000000000E+00 -0.19742590312E+04  0.23667807063E+04  0.13053551966E+04 0.  0.
        3    1    3    3  502    0 -0.24736898912E+03  0.33411213736E+03 -0.74841960519E+02  0.42240225658E+03  0.10100000352E+00 0. -1.
       -3    1    3    3    0  502  0.24736898912E+03 -0.33411213736E+03 -0.18994170707E+04  0.19443784497E+04  0.10100000352E+00 0.  1.
</event>
<event>
 5   0  0.1346593E-03  0.1091271E+04  0.7818609E-02  0.9213742E-01
       -1   -1    0    0    0  501  0.00000000000E+00  0.00000000000E+00  0.26155072819E+03  0.26155072823E+03  0.50400001928E-02 0.  1.
        1   -1    0    0  501    0  0.00000000000E+00  0.00000000000E+00 -0.11382805419E+04  0.11382805420E+04  0.50400001928E-02 0. -1.
    10030    2    1    2    0    0  0.00000000000E+00  0.00000000000E+00 -0.87672981375E+03  0.13998312702E+04  0.10912710106E+04 0.  0.
        2    1    3    3  502    0  0.40784849392E+03 -0.34808357576E+03 -0.56801523772E+03  0.78111707189E+03  0.25500000920E-02 0.  1.
       -2    1    3    3    0  502 -0.40784849392E+03  0.34808357576E+03 -0.30871457603E+03  0.61871419830E+03  0.25500000920E-02 0. -1.
</event>
<event>
 5   0  0.1324721E-03  0.1302661E+04  0.7818609E-02  0.9027457E-01
       -1   -1    0    0    0  501  0.00000000000E+00  0.00000000000E+00  0.40190691879E+03  0.40190691882E+03  0.50400001928E-02 0.  1.
        1   -1    0    0  501    0  0.00000000000E+00  0.00000000000E+00 -0.10555467055E+04  0.10555467055E+04  0.50400001928E-02 0. -1.
    10030    2    1    2    0    0  0.00000000000E+00  0.00000000000E+00 -0.65363978671E+03  0.14574536243E+04  0.13026611594E+04 0.  0.
        1    1    3    3  502    0  0.97937604073E+02 -0.40247521572E+03 -0.88919475220E+03  0.98094106904E+03  0.50400001928E-02 0. -1.
       -1    1    3    3    0  502 -0.97937604073E+02  0.40247521572E+03  0.23555496550E+03  0.47651255529E+03  0.50400001928E-02 0.  1.
</event>
<event>
 5   0  0.2361043E-03  0.1295032E+04  0.7818609E-02  0.9033514E-01
       -2   -1    0    0    0  501  0.00000000000E+00  0.00000000000E+00  0.59247054542E+03  0.59247054542E+03  0.25500000920E-02 0.  1.
        2   -1    0    0  501    0  0.00000000000E+00  0.00000000000E+00 -0.70767563005E+03  0.70767563006E+03  0.25500000920E-02 0. -1.
    10030    2    1    2    0    0  0.00000000000E+00  0.00000000000E+00 -0.11520508464E+03  0.13001461755E+04  0.12950319942E+04 0.  0.
        2    1    3    3  502    0  0.57376184731E+03 -0.29113917094E+03  0.15570761450E+02  0.64358925015E+03  0.25500000920E-02 0.  1.
       -2    1    3    3    0  502 -0.57376184731E+03  0.29113917094E+03 -0.13077584609E+03  0.65655692534E+03  0.25500000920E-02 0. -1.
</event>
<event>
 5   0  0.1387622E-03  0.1277730E+04  0.7818609E-02  0.9047414E-01
       -1   -1    0    0    0  501  0.00000000000E+00  0.00000000000E+00  0.52464167901E+03  0.52464167903E+03  0.50400001928E-02 0. -1.
        1   -1    0    0  501    0  0.00000000000E+00  0.00000000000E+00 -0.77795716034E+03  0.77795716035E+03  0.50400001928E-02 0.  1.
    10030    2    1    2    0    0  0.00000000000E+00  0.00000000000E+00 -0.25331548133E+03  0.13025988394E+04  0.12777304110E+04 0.  0.
        3    1    3    3  502    0  0.61806243073E+03  0.14116600491E+03 -0.46257514483E+02  0.63566404418E+03  0.10100000352E+00 0. -1.
       -3    1    3    3    0  502 -0.61806243073E+03 -0.14116600491E+03 -0.20705796685E+03  0.66693479520E+03  0.10100000352E+00 0.  1.
</event>
<event>
 5   0  0.2401211E-03  0.1257270E+04  0.7818609E-02  0.9064154E-01
        2   -1    0    0  501    0  0.00000000000E+00  0.00000000000E+00  0.13679761263E+04  0.13679761263E+04  0.25500000920E-02 0.  1.
       -2   -1    0    0    0  501  0.00000000000E+00  0.00000000000E+00 -0.28888086428E+03  0.28888086429E+03  0.25500000920E-02 0. -1.
    10030    2    1    2    0    0  0.00000000000E+00  0.00000000000E+00  0.10790952620E+04  0.16568569906E+04  0.12572702584E+04 0.  0.
        4    1    3    3  502    0  0.17487044858E+03  0.59852743184E+03  0.64469084576E+03  0.89690727500E+03  0.12699999809E+01 0.  1.
       -4    1    3    3    0  502 -0.17487044858E+03 -0.59852743184E+03  0.43440441627E+03  0.75994971559E+03  0.12699999809E+01 0. -1.
</event>
<event>
 5   0  0.2478236E-03  0.1526579E+04  0.7818609E-02  0.8866968E-01
       -2   -1    0    0    0  501  0.00000000000E+00  0.00000000000E+00  0.74100327751E+03  0.74100327751E+03  0.25500000920E-02 0.  1.
        2   -1    0    0  501    0  0.00000000000E+00  0.00000000000E+00 -0.78624616639E+03  0.78624616639E+03  0.25500000920E-02 0. -1.
    10030    2    1    2    0    0  0.00000000000E+00  0.00000000000E+00 -0.45242888875E+02  0.15272494439E+04  0.15265791643E+04 0.  0.
        3    1    3    3  502    0 -0.24272210680E+03  0.61387997728E+03  0.36075475586E+03  0.75226767291E+03  0.10100000352E+00 0.  1.
       -3    1    3    3    0  502  0.24272210680E+03 -0.61387997728E+03 -0.40599764473E+03  0.77498177099E+03  0.10100000352E+00 0. -1.
</event>
<event>
 5   0  0.2312105E-03  0.1299727E+04  0.7818609E-02  0.9029782E-01
        2   -1    0    0  501    0  0.00000000000E+00  0.00000000000E+00  0.65876809922E+03  0.65876809923E+03  0.25500000920E-02 0.  1.
       -2   -1    0    0    0  501  0.00000000000E+00  0.00000000000E+00 -0.64107924925E+03  0.64107924925E+03  0.25500000920E-02 0. -1.
    10030    2    1    2    0    0  0.00000000000E+00  0.00000000000E+00  0.17688849974E+02  0.12998473485E+04  0.12997269844E+04 0.  0.
        5    1    3    3  502    0  0.88197324655E+02 -0.59556127837E+03 -0.23577680410E+03  0.64659476933E+03  0.46999998093E+01 0. -1.
       -5    1    3    3    0  502 -0.88197324655E+02  0.59556127837E+03  0.25346565407E+03  0.65325257915E+03  0.46999998093E+01 0.  1.
</event>
<event>
 5   0  0.1310461E-03  0.1283667E+04  0.7818609E-02  0.9042618E-01
       -1   -1    0    0    0  501  0.00000000000E+00  0.00000000000E+00  0.54793806888E+03  0.54793806890E+03  0.50400001928E-02 0. -1.
        1   -1    0    0  501    0  0.00000000000E+00  0.00000000000E+00 -0.75181950553E+03  0.75181950555E+03  0.50400001928E-02 0.  1.
    10030    2    1    2    0    0  0.00000000000E+00  0.00000000000E+00 -0.20388143665E+03  0.12997575745E+04  0.12836674461E+04 0.  0.
        4    1    3    3  502    0 -0.13498670157E+03  0.20300891955E+03 -0.70311246082E+03  0.74417926367E+03  0.12699999809E+01 0.  1.
       -4    1    3    3    0  502  0.13498670157E+03 -0.20300891955E+03  0.49923102417E+03  0.55557831078E+03  0.12699999809E+01 0. -1.
</event>
<event>
 5   0  0.1324721E-03  0.1314770E+04  0.7818609E-02  0.9017934E-01
        1   -1    0    0  501    0  0.00000000000E+00  0.00000000000E+00  0.40889303761E+03  0.40889303765E+03  0.50400001928E-02 0.  1.
       -1   -1    0    0    0  501  0.00000000000E+00  0.00000000000E+00 -0.10568906007E+04  0.10568906007E+04  0.50400001928E-02 0. -1.
    10030    2    1    2    0    0  0.00000000000E+00  0.00000000000E+00 -0.64799756306E+03  0.14657836383E+04  0.13147702585E+04 0.  0.
        1    1    3    3  502    0 -0.12026125476E+03  0.16696090807E+03 -0.10200642736E+04  0.10406103192E+04  0.50400001928E-02 0. -1.
       -1    1    3    3    0  502  0.12026125476E+03 -0.16696090807E+03  0.37206671049E+03  0.42517331913E+03  0.50400001928E-02 0.  1.
</event>
<event>
 5   0  0.1332630E-03  0.1299857E+04  0.7818609E-02  0.9029678E-01
        1   -1    0    0  501    0  0.00000000000E+00  0.00000000000E+00  0.69268066210E+03  0.69268066212E+03  0.50400001928E-02 0.  1.
       -1   -1    0    0    0  501  0.00000000000E+00  0.00000000000E+00 -0.60981523499E+03  0.60981523501E+03  0.50400001928E-02 0. -1.
    10030    2    1    2    0    0  0.00000000000E+00  0.00000000000E+00  0.82865427111E+02  0.13024958971E+04  0.12998572549E+04 0.  0.
        5    1    3    3  502    0  0.63897038997E+03 -0.11848269220E+03  0.49437869649E+02  0.65175724051E+03  0.46999998093E+01 0.  1.
       -5    1    3    3    0  502 -0.63897038997E+03  0.11848269220E+03  0.33427557462E+02  0.65073865661E+03  0.46999998093E+01 0. -1.
</event>
<event>
 5   0  0.2401211E-03  0.1273741E+04  0.7818609E-02  0.9050652E-01
       -2   -1    0    0    0  501  0.00000000000E+00  0.00000000000E+00  0.26035019953E+03  0.26035019954E+03  0.25500000920E-02 0.  1.
        2   -1    0    0  501    0  0.00000000000E+00  0.00000000000E+00 -0.15579172179E+04  0.15579172179E+04  0.25500000920E-02 0. -1.
    10030    2    1    2    0    0  0.00000000000E+00  0.00000000000E+00 -0.12975670183E+04  0.18182674174E+04  0.12737410389E+04 0.  0.
        4    1    3    3  502    0 -0.30753733022E+03  0.35582609923E+02  0.14570433988E+03  0.34216472520E+03  0.12699999809E+01 0.  1.
       -4    1    3    3    0  502  0.30753733022E+03 -0.35582609923E+02 -0.14432713582E+04  0.14761026922E+04  0.12699999809E+01 0. -1.
</event>
<event>
 5   0  0.2334946E-03  0.1292404E+04  0.7818609E-02  0.9035611E-01
        2   -1    0    0  501    0  0.00000000000E+00  0.00000000000E+00  0.23697557659E+04  0.23697557659E+04  0.25500000920E-02 0. -1.
       -2   -1    0    0    0  501  0.00000000000E+00  0.00000000000E+00 -0.17621098393E+03  0.17621098395E+03  0.25500000920E-02 0.  1.
    10030    2    1    2    0    0  0.00000000000E+00  0.00000000000E+00  0.21935447819E+04  0.25459667498E+04  0.12924039542E+04 0.  0.
        1    1    3    3  502    0  0.62395976708E+03 -0.13694295542E+03  0.90478766747E+03  0.11075738744E+04  0.50400001928E-02 0.  1.
       -1    1    3    3    0  502 -0.62395976708E+03  0.13694295542E+03  0.12887571144E+04  0.14383928754E+04  0.50400001928E-02 0. -1.
</event>
<event>
 5   0  0.2312105E-03  0.1281597E+04  0.7818609E-02  0.9044287E-01
        2   -1    0    0  501    0  0.00000000000E+00  0.00000000000E+00  0.85151565629E+03  0.85151565629E+03  0.25500000920E-02 0. -1.
       -2   -1    0    0    0  501  0.00000000000E+00  0.00000000000E+00 -0.48222575277E+03  0.48222575278E+03  0.25500000920E-02 0.  1.
    10030    2    1    2    0    0  0.00000000000E+00  0.00000000000E+00  0.36928990351E+03  0.13337414091E+04  0.12815970948E+04 0.  0.
        5    1    3    3  502    0 -0.68823624000E+02  0.55385307688E+03 -0.14298269161E+03  0.57615628269E+03  0.46999998093E+01 0.  1.
       -5    1    3    3    0  502  0.68823624000E+02 -0.55385307688E+03  0.51227259512E+03  0.75758512637E+03  0.46999998093E+01 0. -1.
</event>
<event>
 5   0  0.2401211E-03  0.1301260E+04  0.7818609E-02  0.9028567E-01
        2   -1    0    0  501    0  0.00000000000E+00  0.00000000000E+00  0.21478142890E+04  0.21478142890E+04  0.25500000920E-02 0.  1.
       -2   -1    0    0    0  501  0.00000000000E+00  0.00000000000E+00 -0.19709301663E+03  0.19709301665E+03  0.25500000920E-02 0. -1.
    10030    2    1    2    0    0  0.00000000000E+00  0.00000000000E+00  0.19507212724E+04  0.23449073057E+04  0.13012596934E+04 0.  0.
        4    1    3    3  502    0 -0.32394692307E+03 -0.42514648397E+03  0.16438779267E+04  0.17285911583E+04  0.12699999809E+01 0.  1.
       -4    1    3    3    0  502  0.32394692307E+03  0.42514648397E+03  0.30684334570E+03  0.61631614736E+03  0.12699999809E+01 0. -1.
</event>
<event>
 5   0  0.2361043E-03  0.1299617E+04  0.7818609E-02  0.9029869E-01
        2   -1    0    0  501    0  0.00000000000E+00  0.00000000000E+00  0.21047672689E+04  0.21047672689E+04  0.25500000920E-02 0.  1.
       -2   -1    0    0    0  501  0.00000000000E+00  0.00000000000E+00 -0.20061641365E+03  0.20061641366E+03  0.25500000920E-02 0. -1.
    10030    2    1    2    0    0  0.00000000000E+00  0.00000000000E+00  0.19041508553E+04  0.23053836826E+04  0.12996166528E+04 0.  0.
        2    1    3    3  502    0 -0.30475154010E+03 -0.27529345573E+03  0.18453701266E+04  0.18905160386E+04  0.25500000920E-02 0.  1.
       -2    1    3    3    0  502  0.30475154010E+03  0.27529345573E+03  0.58780728651E+02  0.41486764399E+03  0.25500000920E-02 0. -1.
</event>
<event>
 5   0  0.2312105E-03  0.1320571E+04  0.7818609E-02  0.9013410E-01
       -2   -1    0    0    0  501  0.00000000000E+00  0.00000000000E+00  0.14483965900E+04  0.14483965900E+04  0.25500000920E-02 0.  1.
        2   -1    0    0  501    0  0.00000000000E+00  0.00000000000E+00 -0.30100648764E+03  0.30100648765E+03  0.25500000920E-02 0. -1.
    10030    2    1    2    0    0  0.00000000000E+00  0.00000000000E+00  0.11473901024E+04  0.17494030777E+04  0.13205707407E+04 0.  0.
        5    1    3    3  502    0 -0.43223537769E+03  0.49912271472E+03  0.57626864923E+03  0.87638949798E+03  0.46999998093E+01 0. -1.
       -5    1    3    3    0  502  0.43223537769E+03 -0.49912271472E+03  0.57112145315E+03  0.87301357969E+03  0.46999998093E+01 0.  1.
</event>
<event>
 5   0  0.2312105E-03  0.1302462E+04  0.7818609E-02  0.9027615E-01
       -2   -1    0    0    0  501  0.00000000000E+00  0.00000000000E+00  0.90697356877E+03  0.90697356878E+03  0.25500000920E-02 0. -1.
        2   -1    0    0  501    0  0.00000000000E+00  0.00000000000E+00 -0.46760078677E+03  0.46760078678E+03  0.25500000920E-02 0.  1.
    10030    2    1    2    0    0  0.00000000000E+00  0.00000000000E+00  0.43937278200E+03  0.13745743556E+04  0.13024615992E+04 0.  0.
        5    1    3    3  502    0 -0.42571914600E+02 -0.42398423640E+03  0.73939890963E+03  0.85340953720E+03  0.46999998093E+01 0. -1.
       -5    1    3    3    0  502  0.42571914600E+02  0.42398423640E+03 -0.30002612763E+03  0.52116481835E+03  0.46999998093E+01 0.  1.
</event>
<event>
 5   0  0.1346593E-03  0.1306467E+04  0.7818609E-02  0.9024452E-01
        1   -1    0    0  501    0  0.00000000000E+00  0.00000000000E+00  0.63768673559E+03  0.63768673561E+03  0.50400001928E-02 0. -1.
       -1   -1    0    0    0  501  0.00000000000E+00  0.00000000000E+00 -0.66915957190E+03  0.66915957192E+03  0.50400001928E-02 0.  1.
    10030    2    1    2    0    0  0.00000000000E+00  0.00000000000E+00 -0.31472836315E+02  0.13068463075E+04  0.13064672717E+04 0.  0.
        2    1    3    3  502    0  0.16187814393E+03  0.63244325999E+03 -0.38659707689E+02  0.65397521634E+03  0.25500000920E-02 0. -1.
       -2    1    3    3    0  502 -0.16187814393E+03 -0.63244325999E+03  0.71868713747E+01  0.65287109119E+03  0.25500000920E-02 0.  1.
</event>
<event>
 5   0  0.1346593E-03  0.1302097E+04  0.7818609E-02  0.9027904E-01
       -1   -1    0    0    0  501  0.00000000000E+00  0.00000000000E+00  0.21230107013E+03  0.21230107019E+03  0.50400001928E-02 0. -1.
        1   -1    0    0  501    0  0.00000000000E+00  0.00000000000E+00 -0.19965225364E+04  0.19965225364E+04  0.50400001928E-02 0.  1.
    10030    2    1    2    0    0  0.00000000000E+00  0.00000000000E+00 -0.17842214663E+04  0.22088236066E+04  0.13020965726E+04 0.  0.
        2    1    3    3  502    0 -0.23861743219E+03 -0.65225335898E+02  0.12947402003E+03  0.27920627725E+03  0.25500000920E-02 0. -1.
       -2    1    3    3    0  502  0.23861743219E+03  0.65225335898E+02 -0.19136954863E+04  0.19296173293E+04  0.25500000920E-02 0.  1.
</event>
<event>
 5   0  0.9131250E-04  0.1307492E+04  0.7818609E-02  0.9023645E-01
        4   -1    0    0  501    0  0.00000000000E+00  0.00000000000E+00  0.42240041792E+03  0.42240232712E+03  0.12699999809E+01 0. -1.
       -4   -1    0    0    0  501  0.00000000000E+00  0.00000000000E+00 -0.10117927170E+04  0.10117935141E+04  0.12699999809E+01 0.  1.
    10030    2    1    2    0    0  0.00000000000E+00  0.00000000000E+00 -0.58939229909E+03  0.14341958412E+04  0.13074916553E+04 0.  0.
        4    1    3    3  502    0 -0.26037406448E+02 -0.16106518972E+03  0.39970883412E+03  0.43172758408E+03  0.12699999809E+01 0. -1.
       -4    1    3    3    0  502  0.26037406448E+02  0.16106518972E+03 -0.98910113322E+03  0.10024682571E+04  0.12699999809E+01 0.  1.
</event>
<event>
 5   0  0.1332630E-03  0.1381396E+04  0.7818609E-02  0.8967396E-01
       -1   -1    0    0    0  501  0.00000000000E+00  0.00000000000E+00  0.59369328999E+03  0.59369329001E+03  0.50400001928E-02 0.  1.
        1   -1    0    0  501    0  0.00000000000E+00  0.00000000000E+00 -0.80355287498E+03  0.80355287499E+03  0.50400001928E-02 0. -1.
    10030    2    1    2    0    0  0.00000000000E+00  0.00000000000E+00 -0.20985958499E+03  0.13972461650E+04  0.13813963226E+04 0.  0.
        5    1    3    3  502    0 -0.63325255448E+03 -0.20761156934E+03 -0.28847953677E+03  0.72619136225E+03  0.46999998093E+01 0.  1.
       -5    1    3    3    0  502  0.63325255448E+03  0.20761156934E+03  0.78619951780E+02  0.67105480275E+03  0.46999998093E+01 0. -1.
</event>
<event>
 5   0  0.2478236E-03  0.1303424E+04  0.7818609E-02  0.9026855E-01
       -2   -1    0    0    0  501  0.00000000000E+00  0.00000000000E+00  0.79763606941E+03  0.79763606941E+03  0.25500000920E-02 0. -1.
        2   -1    0    0  501    0  0.00000000000E+00  0.00000000000E+00 -0.53248385432E+03  0.53248385433E+03  0.25500000920E-02 0.  1.
    10030    2    1    2    0    0  0.00000000000E+00  0.00000000000E+00  0.26515221509E+03  0.13301199237E+04  0.13034236895E+04 0.  0.
        3    1    3    3  502    0  0.63865935751E+03 -0.10976243904E+03  0.20323847641E+03  0.67914612305E+03  0.10100000352E+00 0. -1.
       -3    1    3    3    0  502 -0.63865935751E+03  0.10976243904E+03  0.61913738677E+02  0.65097380069E+03  0.10100000352E+00 0.  1.
</event>
<event>
 5   0  0.1324721E-03  0.1290706E+04  0.7818609E-02  0.9036968E-01
        1   -1    0    0  501    0  0.00000000000E+00  0.00000000000E+00  0.12901703530E+04  0.12901703530E+04  0.50400001928E-02 0.  1.
       -1   -1    0    0    0  501  0.00000000000E+00  0.00000000000E+00 -0.32281038594E+03  0.32281038598E+03  0.50400001928E-02 0. -1.
    10030    2    1    2    0    0  0.00000000000E+00  0.00000000000E+00  0.96735996707E+03  0.16129807390E+04  0.12907058373E+04 0.  0.
        1    1    3    3  502    0  0.83350625211E+02  0.18598238912E+03 -0.28153750623E+03  0.34756314998E+03  0.50400001928E-02 0. -1.
       -1    1    3    3    0  502 -0.83350625211E+02 -0.18598238912E+03  0.12488974733E+04  0.12654175890E+04  0.50400001928E-02 0.  1.
</event>
<event>
 5   0  0.1346593E-03  0.1290009E+04  0.7818609E-02  0.9037526E-01
       -1   -1    0    0    0  501  0.00000000000E+00  0.00000000000E+00  0.33271420229E+03  0.33271420232E+03  0.50400001928E-02 0. -1.
        1   -1    0    0  501    0  0.00000000000E+00  0.00000000000E+00 -0.12504156082E+04  0.12504156082E+04  0.50400001928E-02 0.  1.
    10030    2    1    2    0    0  0.00000000000E+00  0.00000000000E+00 -0.91770140589E+03  0.15831298105E+04  0.12900093513E+04 0.  0.
        2    1    3    3  502    0  0.81845419560E+02  0.52910014492E+03 -0.90028522846E+03  0.10474536403E+04  0.25500000920E-02 0.  1.
       -2    1    3    3    0  502 -0.81845419560E+02 -0.52910014492E+03 -0.17416177430E+02  0.53567617018E+03  0.25500000920E-02 0. -1.
</event>
<event>
 5   0  0.1332630E-03  0.1306904E+04  0.7818609E-02  0.9024108E-01
        1   -1    0    0  501    0  0.00000000000E+00  0.00000000000E+00  0.12923306721E+04  0.12923306721E+04  0.50400001928E-02 0. -1.
       -1   -1    0    0    0  501  0.00000000000E+00  0.00000000000E+00 -0.33041063044E+03  0.33041063048E+03  0.50400001928E-02 0.  1.
    10030    2    1    2    0    0  0.00000000000E+00  0.00000000000E+00  0.96192004168E+03  0.16227413026E+04  0.13069044221E+04 0.  0.
        5    1    3    3  502    0 -0.59402550193E+03  0.26666839100E+03  0.54896188317E+03  0.85168043706E+03  0.46999998093E+01 0. -1.
       -5    1    3    3    0  502  0.59402550193E+03 -0.26666839100E+03  0.41295815851E+03  0.77106086555E+03  0.46999998093E+01 0.  1.
</event>
<event>
 5   0  0.2361043E-03  0.1301664E+04  0.7818609E-02  0.9028247E-01
       -2   -1    0    0    0  501  0.00000000000E+00  0.00000000000E+00  0.44419168835E+03  0.44419168835E+03  0.25500000920E-02 0.  1.
        2   -1    0    0  501    0  0.00000000000E+00  0.00000000000E+00 -0.95360247669E+03  0.95360247670E+03  0.25500000920E-02 0. -1.
    10030    2    1    2    0    0  0.00000000000E+00  0.00000000000E+00 -0.50941078835E+03  0.13977941651E+04  0.13016640029E+04 0.  0.
        2    1    3    3  502    0 -0.46165549968E+03 -0.25650528764E+03  0.15372763676E+03  0.55004813361E+03  0.25500000920E-02 0.  1.
       -2    1    3    3    0  502  0.46165549968E+03  0.25650528764E+03 -0.66313842511E+03  0.84774603145E+03  0.25500000920E-02 0. -1.
</event>
<event>
 5   0  0.2401211E-03  0.1306120E+04  0.7818609E-02  0.9024726E-01
        2   -1    0    0  501    0  0.00000000000E+00  0.00000000000E+00  0.25407609471E+03  0.25407609472E+03  0.25500000920E-02 0.  1.
       -2   -1    0    0    0  501  0.00000000000E+00  0.00000000000E+00 -0.16785824243E+04  0.16785824243E+04  0.25500000920E-02 0. -1.
    10030    2    1    2    0    0  0.00000000000E+00  0.00000000000E+00 -0.14245063296E+04  0.19326585191E+04  0.13061204646E+04 0.  0.
        4    1    3    3  502    0  0.23075674444E+03 -0.18739998169E+03 -0.15726651255E+04  0.16005138669E+04  0.12699999809E+01 0. -1.
       -4    1    3    3    0  502 -0.23075674444E+03  0.18739998169E+03  0.14815879590E+03  0.33214465214E+03  0.12699999809E+01 0.  1.
</event>
<event>
 5   0  0.1387622E-03  0.1168889E+04  0.7818609E-02  0.9140533E-01
        1   -1    0    0  501    0  0.00000000000E+00  0.00000000000E+00  0.63820731382E+03  0.63820731384E+03  0.50400001928E-02 0. -1.
       -1   -1    0    0    0  501  0.00000000000E+00  0.00000000000E+00 -0.53521035438E+03  0.53521035441E+03  0.50400001928E-02 0.  1.
    10030    2    1    2    0    0  0.00000000000E+00  0.00000000000E+00  0.10299695944E+03  0.11734176682E+04  0.11688886391E+04 0.  0.
        3    1    3    3  502    0 -0.22565850837E+01 -0.21248421984E+03  0.59805315730E+03  0.63468277510E+03  0.10100000352E+00 0. -1.
       -3    1    3    3    0  502  0.22565850837E+01  0.21248421984E+03 -0.49505619786E+03  0.53873489315E+03  0.10100000352E+00 0.  1.
</event>
<event>
 5   0  0.2361043E-03  0.1297693E+04  0.7818609E-02  0.9031396E-01
       -2   -1    0    0    0  501  0.00000000000E+00  0.00000000000E+00  0.31750635864E+03  0.31750635865E+03  0.25500000920E-02 0. -1.
        2   -1    0    0  501    0  0.00000000000E+00  0.00000000000E+00 -0.13259640721E+04  0.13259640721E+04  0.25500000920E-02 0.  1.
    10030    2    1    2    0    0  0.00000000000E+00  0.00000000000E+00 -0.10084577135E+04  0.16434704308E+04  0.12976933756E+04 0.  0.
        2    1    3    3  502    0 -0.51635482041E+03 -0.36668791734E+03 -0.32548499006E+03  0.71205534058E+03  0.25500000920E-02 0. -1.
       -2    1    3    3    0  502  0.51635482041E+03  0.36668791734E+03 -0.68297272344E+03  0.93141509021E+03  0.25500000920E-02 0.  1.
</event>
<event>
 5   0  0.1332630E-03  0.1296784E+04  0.7818609E-02  0.9032120E-01
        1   -1    0    0  501    0  0.00000000000E+00  0.00000000000E+00  0.13562446699E+04  0.13562446699E+04  0.50400001928E-02 0. -1.
       -1   -1    0    0    0  501  0.00000000000E+00  0.00000000000E+00 -0.30998245514E+03  0.30998245518E+03  0.50400001928E-02 0.  1.
    10030    2    1    2    0    0  0.00000000000E+00  0.00000000000E+00  0.10462622147E+04  0.16662271251E+04  0.12967837947E+04 0.  0.
        5    1    3    3  502    0  0.25293074989E+03 -0.34923971883E+03  0.11452731303E+04  0.12237708031E+04  0.46999998093E+01 0. -1.
       -5    1    3    3    0  502 -0.25293074989E+03  0.34923971883E+03 -0.99010915593E+02  0.44245632197E+03  0.46999998093E+01 0.  1.
</event>
<event>
 5   0  0.9131250E-04  0.1330578E+04  0.7818609E-02  0.9005662E-01
       -3   -1    0    0    0  501  0.00000000000E+00  0.00000000000E+00  0.30036785681E+03  0.30036787379E+03  0.10100000352E+00 0. -1.
        3   -1    0    0  501    0  0.00000000000E+00  0.00000000000E+00 -0.14735575008E+04  0.14735575042E+04  0.10100000352E+00 0.  1.
    10030    2    1    2    0    0  0.00000000000E+00  0.00000000000E+00 -0.11731896439E+04  0.17739253780E+04  0.13305778091E+04 0.  0.
        4    1    3    3  502    0  0.65033443446E+03 -0.38819373580E+02 -0.76628463183E+03  0.10058009596E+04  0.12699999809E+01 0.  1.
       -4    1    3    3    0  502 -0.65033443446E+03  0.38819373580E+02 -0.40690501211E+03  0.76812441843E+03  0.12699999809E+01 0. -1.
</event>
<event>
 5   0  0.1310461E-03  0.1305145E+04  0.7818609E-02  0.9025495E-01
       -1   -1    0    0    0  501  0.00000000000E+00  0.00000000000E+00  0.40898486045E+03  0.40898486048E+03  0.50400001928E-02 0. -1.
        1   -1    0    0  501    0  0.00000000000E+00  0.00000000000E+00 -0.10412379171E+04  0.10412379171E+04  0.50400001928E-02 0.  1.
    10030    2    1    2    0    0  0.00000000000E+00  0.00000000000E+00 -0.63225305665E+03  0.14502227776E+04  0.13051445043E+04 0.  0.
        4    1    3    3  502    0  0.60393325438E+03  0.24665835226E+03 -0.29776001589E+03  0.71710414756E+03  0.12699999809E+01 0.  1.
       -4    1    3    3    0  502 -0.60393325438E+03 -0.24665835226E+03 -0.33449304077E+03  0.73311863004E+03  0.12699999809E+01 0. -1.
</event>
<event>
 5   0  0.1346593E-03  0.1267997E+04  0.7818609E-02  0.9055336E-01
       -1   -1    0    0    0  501  0.00000000000E+00  0.00000000000E+00  0.13180447125E+04  0.13180447125E+04  0.50400001928E-02 0.  1.
        1   -1    0    0  501    0  0.00000000000E+00  0.00000000000E+00 -0.30496253294E+03  0.30496253298E+03  0.50400001928E-02 0. -1.
    10030    2    1    2    0    0  0.00000000000E+00  0.00000000000E+00  0.10130821796E+04  0.16230072455E+04  0.12679972462E+04 0.  0.
        2    1    3    3  502    0 -0.22209015691E+03 -0.50753025817E+03  0.90114628181E+03  0.10578164406E+04  0.25500000920E-02 0.  1.
       -2    1    3    3    0  502  0.22209015691E+03  0.50753025817E+03  0.11193589777E+03  0.56519080492E+03  0.25500000920E-02 0. -1.
</event>
<event>
 5   0  0.1332630E-03  0.1301351E+04  0.7818609E-02  0.9028495E-01
        1   -1    0    0  501    0  0.00000000000E+00  0.00000000000E+00  0.13856205602E+04  0.13856205602E+04  0.50400001928E-02 0. -1.
       -1   -1    0    0    0  501  0.00000000000E+00  0.00000000000E+00 -0.30555155568E+03  0.30555155572E+03  0.50400001928E-02 0.  1.
    10030    2    1    2    0    0  0.00000000000E+00  0.00000000000E+00  0.10800690045E+04  0.16911721159E+04  0.13013508640E+04 0.  0.
        5    1    3    3  502    0 -0.37427901349E+02 -0.43555851614E+03  0.11663108233E+04  0.12455581461E+04  0.46999998093E+01 0. -1.
       -5    1    3    3    0  502  0.37427901349E+02  0.43555851614E+03 -0.86241818798E+02  0.44561396981E+03  0.46999998093E+01 0.  1.
</event>
<event>
 5   0  0.1324721E-03  0.1300761E+04  0.7818609E-02  0.9028962E-01
        1   -1    0    0  501    0  0.00000000000E+00  0.00000000000E+00  0.29753162993E+03  0.29753162997E+03  0.50400001928E-02 0. -1.
       -1   -1    0    0    0  501  0.00000000000E+00  0.00000000000E+00 -0.14216807685E+04  0.14216807685E+04  0.50400001928E-02 0.  1.
    10030    2    1    2    0    0  0.00000000000E+00  0.00000000000E+00 -0.11241491386E+04  0.17192123985E+04  0.13007613099E+04 0.  0.
        1    1    3    3  502    0  0.16418814223E+03 -0.41880709204E+03  0.58754368492E+02  0.45366199117E+03  0.50400001928E-02 0. -1.
       -1    1    3    3    0  502 -0.16418814223E+03  0.41880709204E+03 -0.11829035071E+04  0.12655504073E+04  0.50400001928E-02 0.  1.
</event>
<event>
 5   0  0.2478236E-03  0.1314141E+04  0.7818609E-02  0.9018426E-01
       -2   -1    0    0    0  501  0.00000000000E+00  0.00000000000E+00  0.28866118607E+03  0.28866118608E+03  0.25500000920E-02 0.  1.
        2   -1    0    0  501    0  0.00000000000E+00  0.00000000000E+00 -0.14956698239E+04  0.14956698239E+04  0.25500000920E-02 0. -1.
    10030    2    1    2    0    0  0.00000000000E+00  0.00000000000E+00 -0.12070086378E+04  0.17843310099E+04  0.13141412791E+04 0.  0.
        3    1    3    3  502    0  0.51503923822E+03  0.68693797899E+02 -0.11495961247E+04  0.12615686723E+04  0.10100000352E+00 0. -1.
       -3    1    3    3    0  502 -0.51503923822E+03 -0.68693797899E+02 -0.57412513058E+02  0.52276233762E+03  0.10100000352E+00 0.  1.
</event>
<event>
 5   0  0.2478236E-03  0.1290035E+04  0.7818609E-02  0.9037505E-01
        2   -1    0    0  501    0  0.00000000000E+00  0.00000000000E+00  0.70871485566E+03  0.70871485567E+03  0.25500000920E-02 0.  1.
       -2   -1    0    0    0  501  0.00000000000E+00  0.00000000000E+00 -0.58704493433E+03  0.58704493433E+03  0.25500000920E-02 0. -1.
    10030    2    1    2    0    0  0.00000000000E+00  0.00000000000E+00  0.12166992134E+03  0.12957597900E+04  0.12900348304E+04 0.  0.
        3    1    3    3  502    0  0.87557344141E+02  0.62820824573E+03  0.17855390569E+03  0.65893352924E+03  0.10100000352E+00 0.  1.
       -3    1    3    3    0  502 -0.87557344141E+02 -0.62820824573E+03 -0.56883984356E+02  0.63682626076E+03  0.10100000352E+00 0. -1.
</event>
<event>
 5   0  0.1332630E-03  0.1297876E+04  0.7818609E-02  0.9031251E-01
        1   -1    0    0  501    0  0.00000000000E+00  0.00000000000E+00  0.47668745077E+03  0.47668745080E+03  0.50400001928E-02 0. -1.
       -1   -1    0    0    0  501  0.00000000000E+00  0.00000000000E+00 -0.88343076748E+03  0.88343076750E+03  0.50400001928E-02 0.  1.
    10030    2    1    2    0    0  0.00000000000E+00  0.00000000000E+00 -0.40674331671E+03  0.13601182183E+04  0.12978757421E+04 0.  0.
        5    1    3    3  502    0  0.26528324328E+03  0.30425580253E+03 -0.73582413375E+03  0.83928900764E+03  0.46999998093E+01 0.  1.
       -5    1    3    3    0  502 -0.26528324328E+03 -0.30425580253E+03  0.32908081704E+03  0.52082921066E+03  0.46999998093E+01 0. -1.
</event>
<event>
 5   0  0.1387622E-03  0.1284409E+04  0.7818609E-02  0.9042021E-01
        1   -1    0    0  501    0  0.00000000000E+00  0.00000000000E+00  0.62896237280E+03  0.62896237282E+03  0.50400001928E-02 0. -1.
       -1   -1    0    0    0  501  0.00000000000E+00  0.00000000000E+00 -0.65572522164E+03  0.65572522165E+03  0.50400001928E-02 0.  1.
    10030    2    1    2    0    0  0.00000000000E+00  0.00000000000E+00 -0.26762848831E+02  0.12846875945E+04  0.12844087999E+04 0.  0.
        3    1    3    3  502    0  0.32470826347E+03 -0.63646008018E+02 -0.56390094040E+03  0.65381232130E+03  0.10100000352E+00 0.  1.
       -3    1    3    3    0  502 -0.32470826347E+03  0.63646008018E+02  0.53713809156E+03  0.63087527318E+03  0.10100000352E+00 0. -1.
</event>
<event>
 5   0  0.1387622E-03  0.1284597E+04  0.7818609E-02  0.9041870E-01
        1   -1    0    0  501    0  0.00000000000E+00  0.00000000000E+00  0.22083530621E+03  0.22083530627E+03  0.50400001928E-02 0.  1.
       -1   -1    0    0    0  501  0.00000000000E+00  0.00000000000E+00 -0.18681234804E+04  0.18681234804E+04  0.50400001928E-02 0. -1.
    10030    2    1    2    0    0  0.00000000000E+00  0.00000000000E+00 -0.16472881742E+04  0.20889587867E+04  0.12845974014E+04 0.  0.
        3    1    3    3  502    0  0.38996884933E+03 -0.37222516104E+03 -0.25583686853E+03  0.59672421390E+03  0.10100000352E+00 0.  1.
       -3    1    3    3    0  502 -0.38996884933E+03  0.37222516104E+03 -0.13914513057E+04  0.14922345728E+04  0.10100000352E+00 0. -1.
</event>
<event>
 5   0  0.2361043E-03  0.1291399E+04  0.7818609E-02  0.9036414E-01
        2   -1    0    0  501    0  0.00000000000E+00  0.00000000000E+00  0.50573916675E+03  0.50573916675E+03  0.25500000920E-02 0.  1.
       -2   -1    0    0    0  501  0.00000000000E+00  0.00000000000E+00 -0.82439282978E+03  0.82439282978E+03  0.25500000920E-02 0. -1.
    10030    2    1    2    0    0  0.00000000000E+00  0.00000000000E+00 -0.31865366303E+03  0.13301319965E+04  0.12913988428E+04 0.  0.
        2    1    3    3  502    0 -0.36546370733E+03  0.53222861777E+03 -0.16945642867E+03  0.66749269971E+03  0.25500000920E-02 0.  1.
       -2    1    3    3    0  502  0.36546370733E+03 -0.53222861777E+03 -0.14919723436E+03  0.66263929682E+03  0.25500000920E-02 0. -1.
</event>
<event>
 5   0  0.2361043E-03  0.1311346E+04  0.7818609E-02  0.9020616E-01
       -2   -1    0    0    0  501  0.00000000000E+00  0.00000000000E+00  0.46976286302E+03  0.46976286302E+03  0.25500000920E-02 0.  1.
        2   -1    0    0  501    0  0.00000000000E+00  0.00000000000E+00 -0.91515746490E+03  0.91515746490E+03  0.25500000920E-02 0. -1.
    10030    2    1    2    0    0  0.00000000000E+00  0.00000000000E+00 -0.44539460189E+03  0.13849203279E+04  0.13113458595E+04 0.  0.
        2    1    3    3  502    0  0.58508120980E+03 -0.27948518498E+03 -0.11989634502E+03  0.65939906296E+03  0.25500000920E-02 0.  1.
       -2    1    3    3    0  502 -0.58508120980E+03  0.27948518498E+03 -0.32549825687E+03  0.72552126496E+03  0.25500000920E-02 0. -1.
</event>
<event>
 5   0  0.1310461E-03  0.1302337E+04  0.7818609E-02  0.9027714E-01
        1   -1    0    0  501    0  0.00000000000E+00  0.00000000000E+00  0.79826816915E+03  0.79826816917E+03  0.50400001928E-02 0.  1.
       -1   -1    0    0    0  501  0.00000000000E+00  0.00000000000E+00 -0.53117570715E+03  0.53117570717E+03  0.50400001928E-02 0. -1.
    10030    2    1    2    0    0  0.00000000000E+00  0.00000000000E+00  0.26709246200E+03  0.13294438763E+04  0.13023373745E+04 0.  0.
        4    1    3    3  502    0 -0.27653074482E+03  0.73674437771E+02  0.73063227850E+03  0.78467975308E+03  0.12699999809E+01 0.  1.
       -4    1    3    3    0  502  0.27653074482E+03 -0.73674437771E+02 -0.46353981649E+03  0.54476412326E+03  0.12699999809E+01 0. -1.
</event>
<event>
 5   0  0.2334946E-03  0.1386828E+04  0.7818609E-02  0.8963409E-01
        2   -1    0    0  501    0  0.00000000000E+00  0.00000000000E+00  0.10551737087E+04  0.10551737088E+04  0.25500000920E-02 0. -1.
       -2   -1    0    0    0  501  0.00000000000E+00  0.00000000000E+00 -0.45568111154E+03  0.45568111155E+03  0.25500000920E-02 0.  1.
    10030    2    1    2    0    0  0.00000000000E+00  0.00000000000E+00  0.59949259721E+03  0.15108548203E+04  0.13868276439E+04 0.  0.
        1    1    3    3  502    0 -0.14959451259E+03 -0.20732752471E+02  0.10370387600E+04  0.10479779363E+04  0.50400001928E-02 0. -1.
       -1    1    3    3    0  502  0.14959451259E+03  0.20732752471E+02 -0.43754616274E+03  0.46287688404E+03  0.50400001928E-02 0.  1.
</event>
<event>
 5   0  0.9131250E-04  0.1308170E+04  0.7818609E-02  0.9023112E-01
       -3   -1    0    0    0  501  0.00000000000E+00  0.00000000000E+00  0.10133880413E+04  0.10133880463E+04  0.10100000352E+00 0. -1.
        3   -1    0    0  501    0  0.00000000000E+00  0.00000000000E+00 -0.42217483956E+03  0.42217485164E+03  0.10100000352E+00 0.  1.
    10030    2    1    2    0    0  0.00000000000E+00  0.00000000000E+00  0.59121320172E+03  0.14355628980E+04  0.13081696312E+04 0.  0.
        4    1    3    3  502    0 -0.38435504016E+02  0.37426249417E+03  0.88275834135E+03  0.95959033167E+03  0.12699999809E+01 0. -1.
       -4    1    3    3    0  502  0.38435504016E+02 -0.37426249417E+03 -0.29154513963E+03  0.47597256628E+03  0.12699999809E+01 0.  1.
</event>
<event>
 5   0  0.2312105E-03  0.1290189E+04  0.7818609E-02  0.9037382E-01
       -2   -1    0    0    0  501  0.00000000000E+00  0.00000000000E+00  0.67208200856E+03  0.67208200857E+03  0.25500000920E-02 0.  1.
        2   -1    0    0  501    0  0.00000000000E+00  0.00000000000E+00 -0.61919072728E+03  0.61919072728E+03  0.25500000920E-02 0. -1.
    10030    2    1    2    0    0  0.00000000000E+00  0.00000000000E+00  0.52891281290E+02  0.12912727359E+04  0.12901890523E+04 0.  0.
        5    1    3    3  502    0  0.16302597168E+03  0.61710286095E+03 -0.67075069452E+02  0.64180570532E+03  0.46999998093E+01 0. -1.
       -5    1    3    3    0  502 -0.16302597168E+03 -0.61710286095E+03  0.11996635074E+03  0.64946703053E+03  0.46999998093E+01 0.  1.
</event>
<event>
 5   0  0.2312105E-03  0.1297400E+04  0.7818609E-02  0.9031630E-01
       -2   -1    0    0    0  501  0.00000000000E+00  0.00000000000E+00  0.41833131089E+03  0.41833131090E+03  0.25500000920E-02 0. -1.
        2   -1    0    0  501    0  0.00000000000E+00  0.00000000000E+00 -0.10059286830E+04  0.10059286830E+04  0.25500000920E-02 0.  1.
    10030    2    1    2    0    0  0.00000000000E+00  0.00000000000E+00 -0.58759737210E+03  0.14242599939E+04  0.12973996526E+04 0.  0.
        5    1    3    3  502    0 -0.46792287677E+03 -0.10708501562E+03  0.18517886442E+03  0.51452144853E+03  0.46999998093E+01 0. -1.
       -5    1    3    3    0  502  0.46792287677E+03  0.10708501562E+03 -0.77277623652E+03  0.90973854536E+03  0.46999998093E+01 0.  1.
</event>
<event>
 5   0  0.2361043E-03  0.1295956E+04  0.7818609E-02  0.9032778E-01
       -2   -1    0    0    0  501  0.00000000000E+00  0.00000000000E+00  0.61621674916E+03  0.61621674917E+03  0.25500000920E-02 0.  1.
        2   -1    0    0  501    0  0.00000000000E+00  0.00000000000E+00 -0.68137621001E+03  0.68137621001E+03  0.25500000920E-02 0. -1.
    10030    2    1    2    0    0  0.00000000000E+00  0.00000000000E+00 -0.65159460846E+02  0.12975929592E+04  0.12959559145E+04 0.  0.
        2    1    3    3  502    0  0.37702959779E+03  0.16885794234E+03  0.46726135708E+03  0.62369663951E+03  0.25500000920E-02 0.  1.
       -2    1    3    3    0  502 -0.37702959779E+03 -0.16885794234E+03 -0.53242081793E+03  0.67389631968E+03  0.25500000920E-02 0. -1.
</event>
<event>
 5   0  0.1332630E-03  0.1301205E+04  0.7818609E-02  0.9028610E-01
       -1   -1    0    0    0  501  0.00000000000E+00  0.00000000000E+00  0.47245230628E+03  0.47245230631E+03  0.50400001928E-02 0.  1.
        1   -1    0    0  501    0  0.00000000000E+00  0.00000000000E+00 -0.89592834338E+03  0.89592834339E+03  0.50400001928E-02 0. -1.
    10030    2    1    2    0    0  0.00000000000E+00  0.00000000000E+00 -0.42347603710E+03  0.13683806497E+04  0.13012046912E+04 0.  0.
        5    1    3    3  502    0  0.59717877905E+03 -0.25159970053E+03 -0.27248176511E+03  0.70298883759E+03  0.46999998093E+01 0. -1.
       -5    1    3    3    0  502 -0.59717877905E+03  0.25159970053E+03 -0.15099427199E+03  0.66539181211E+03  0.46999998093E+01 0.  1.
</event>
<event>
 5   0  0.2478236E-03  0.1132692E+04  0.7818609E-02  0.9173901E-01
       -2   -1    0    0    0  501  0.00000000000E+00  0.00000000000E+00  0.54589914745E+03  0.54589914746E+03  0.25500000920E-02 0. -1.
        2   -1    0    0  501    0  0.00000000000E+00  0.00000000000E+00 -0.58755879472E+03  0.58755879473E+03  0.25500000920E-02 0.  1.
    10030    2    1    2    0    0  0.00000000000E+00  0.00000000000E+00 -0.41659647272E+02  0.11334579422E+04  0.11326920943E+04 0.  0.
        3    1    3    3  502    0  0.17062770664E+03  0.51671569373E+03  0.13624417808E+03  0.56095579922E+03  0.10100000352E+00 0. -1.
       -3    1    3    3    0  502 -0.17062770664E+03 -0.51671569373E+03 -0.17790382535E+03  0.57250214296E+03  0.10100000352E+00 0.  1.
</event>
<event>
 5   0  0.1387622E-03  0.1307823E+04  0.7818609E-02  0.9023385E-01
        1   -1    0    0  501    0  0.00000000000E+00  0.00000000000E+00  0.53832630888E+03  0.53832630890E+03  0.50400001928E-02 0.  1.
       -1   -1    0    0    0  501  0.00000000000E+00  0.00000000000E+00 -0.79431379127E+03  0.79431379128E+03  0.50400001928E-02 0. -1.
    10030    2    1    2    0    0  0.00000000000E+00  0.00000000000E+00 -0.25598748239E+03  0.13326401002E+04  0.13078226353E+04 0.  0.
        3    1    3    3  502    0 -0.14226947283E+03  0.30855124383E+03 -0.69730469901E+03  0.77567926776E+03  0.10100000352E+00 0. -1.
       -3    1    3    3    0  502  0.14226947283E+03 -0.30855124383E+03  0.44131721662E+03  0.55696083243E+03  0.10100000352E+00 0.  1.
</event>
<event>
 5   0  0.2401211E-03  0.1300483E+04  0.7818609E-02  0.9029182E-01
        2   -1    0    0  501    0  0.00000000000E+00  0.00000000000E+00  0.11756992289E+04  0.11756992289E+04  0.25500000920E-02 0. -1.
       -2   -1    0    0    0  501  0.00000000000E+00  0.00000000000E+00 -0.35962786586E+03  0.35962786587E+03  0.25500000920E-02 0.  1.
    10030    2    1    2    0    0  0.00000000000E+00  0.00000000000E+00  0.81607136307E+03  0.15353270948E+04  0.13004833018E+04 0.  0.
        4    1    3    3  502    0  0.42908741833E+03 -0.48840602921E+03  0.42278727672E+03  0.77550445272E+03  0.12699999809E+01 0. -1.
       -4    1    3    3    0  502 -0.42908741833E+03  0.48840602921E+03  0.39328408635E+03  0.75982264207E+03  0.12699999809E+01 0.  1.
</event>
<event>
 5   0  0.1346593E-03  0.1280761E+04  0.7818609E-02  0.9044962E-01
        1   -1    0    0  501    0  0.00000000000E+00  0.00000000000E+00  0.73860332165E+03  0.73860332167E+03  0.50400001928E-02 0. -1.
       -1   -1    0    0    0  501  0.00000000000E+00  0.00000000000E+00 -0.55522003817E+03  0.55522003819E+03  0.50400001928E-02 0.  1.
    10030    2    1    2    0    0  0.00000000000E+00  0.00000000000E+00  0.18338328348E+03  0.12938233599E+04  0.12807612806E+04 0.  0.
        2    1    3    3  502    0 -0.35763101971E+03 -0.79391607477E+02  0.62229545042E+03  0.72211813522E+03  0.25500000920E-02 0. -1.
       -2    1    3    3    0  502  0.35763101971E+03  0.79391607477E+02 -0.43891216693E+03  0.57170522465E+03  0.25500000920E-02 0.  1.
</event>
<event>
 5   0  0.1324721E-03  0.1337339E+04  0.7818609E-02  0.9000468E-01
        1   -1    0    0  501    0  0.00000000000E+00  0.00000000000E+00  0.15799952726E+04  0.15799952726E+04  0.50400001928E-02 0.  1.
       -1   -1    0    0    0  501  0.00000000000E+00  0.00000000000E+00 -0.28298765265E+03  0.28298765270E+03  0.50400001928E-02 0. -1.
    10030    2    1    2    0    0  0.00000000000E+00  0.00000000000E+00  0.12970076199E+04  0.18629829253E+04  0.13373393787E+04 0.  0.
        1    1    3    3  502    0  0.31990879552E+03 -0.46755999403E+03  0.11433121109E+04  0.12759767115E+04  0.50400001928E-02 0. -1.
       -1    1    3    3    0  502 -0.31990879552E+03  0.46755999403E+03  0.15369550907E+03  0.58700621377E+03  0.50400001928E-02 0.  1.
</event>
<event>
 5   0  0.2312105E-03  0.1356721E+04  0.7818609E-02  0.8985756E-01
        2   -1    0    0  501    0  0.00000000000E+00  0.00000000000E+00  0.56538039685E+03  0.56538039686E+03  0.25500000920E-02 0.  1.
       -2   -1    0    0    0  501  0.00000000000E+00  0.00000000000E+00 -0.81391684819E+03  0.81391684819E+03  0.25500000920E-02 0. -1.
    10030    2    1    2    0    0  0.00000000000E+00  0.00000000000E+00 -0.24853645134E+03  0.13792972451E+04  0.13567205027E+04 0.  0.
        5    1    3    3  502    0 -0.20509687080E+02 -0.19505755665E+03  0.53590854705E+03  0.57069094829E+03  0.46999998093E+01 0.  1.
       -5    1    3    3    0  502  0.20509687080E+02  0.19505755665E+03 -0.78444499838E+03  0.80860629676E+03  0.46999998093E+01 0. -1.
</event>
<event>
 5   0  0.1332630E-03  0.1288167E+04  0.7818609E-02  0.9039002E-01
        1   -1    0    0  501    0  0.00000000000E+00  0.00000000000E+00  0.49580740966E+03  0.49580740969E+03  0.50400001928E-02 0.  1.
       -1   -1    0    0    0  501  0.00000000000E+00  0.00000000000E+00 -0.83670257399E+03  0.83670257401E+03  0.50400001928E-02 0. -1.
    10030    2    1    2    0    0  0.00000000000E+00  0.00000000000E+00 -0.34089516433E+03  0.13325099837E+04  0.12881666599E+04 0.  0.
        5    1    3    3  502    0 -0.14246054198E+03  0.33733328875E+03 -0.71852859559E+03  0.80647020181E+03  0.46999998093E+01 0. -1.
       -5    1    3    3    0  502  0.14246054198E+03 -0.33733328875E+03  0.37763343126E+03  0.52603978189E+03  0.46999998093E+01 0.  1.
</event>
<event>
 5   0  0.2478236E-03  0.1300099E+04  0.7818609E-02  0.9029487E-01
        2   -1    0    0  501    0  0.00000000000E+00  0.00000000000E+00  0.74952776863E+03  0.74952776863E+03  0.25500000920E-02 0.  1.
       -2   -1    0    0    0  501  0.00000000000E+00  0.00000000000E+00 -0.56377387786E+03  0.56377387787E+03  0.25500000920E-02 0. -1.
    10030    2    1    2    0    0  0.00000000000E+00  0.00000000000E+00  0.18575389077E+03  0.13133016465E+04  0.13000987296E+04 0.  0.
        3    1    3    3  502    0 -0.30152660323E+03  0.26430664500E+03 -0.42397114474E+03  0.58354763029E+03  0.10100000352E+00 0. -1.
       -3    1    3    3    0  502  0.30152660323E+03 -0.26430664500E+03  0.60972503551E+03  0.72975401621E+03  0.10100000352E+00 0.  1.
</event>
<event>
 5   0  0.2334946E-03  0.1334072E+04  0.7818609E-02  0.9002974E-01
        2   -1    0    0  501    0  0.00000000000E+00  0.00000000000E+00  0.85242649534E+03  0.85242649534E+03  0.25500000920E-02 0.  1.
       -2   -1    0    0    0  501  0.00000000000E+00  0.00000000000E+00 -0.52196535640E+03  0.52196535640E+03  0.25500000920E-02 0. -1.
    10030    2    1    2    0    0  0.00000000000E+00  0.00000000000E+00  0.33046113894E+03  0.13743918517E+04  0.13340721112E+04 0.  0.
        1    1    3    3  502    0 -0.37156677664E+03  0.87811923849E+02  0.72872048342E+03  0.82268240923E+03  0.50400001928E-02 0.  1.
       -1    1    3    3    0  502  0.37156677664E+03 -0.87811923849E+02 -0.39825934448E+03  0.55170944252E+03  0.50400001928E-02 0. -1.
</event>
<event>
 5   0  0.1346593E-03  0.1170633E+04  0.7818609E-02  0.9138957E-01
        1   -1    0    0  501    0  0.00000000000E+00  0.00000000000E+00  0.45703866868E+03  0.45703866870E+03  0.50400001928E-02 0. -1.
       -1   -1    0    0    0  501  0.00000000000E+00  0.00000000000E+00 -0.74959827996E+03  0.74959827997E+03  0.50400001928E-02 0.  1.
    10030    2    1    2    0    0  0.00000000000E+00  0.00000000000E+00 -0.29255961128E+03  0.12066369487E+04  0.11706329911E+04 0.  0.
        2    1    3    3  502    0 -0.41240518497E+01  0.21780099885E+03  0.41369787675E+03  0.46754702024E+03  0.25500000920E-02 0. -1.
       -2    1    3    3    0  502  0.41240518497E+01 -0.21780099885E+03 -0.70625748803E+03  0.73908992843E+03  0.25500000920E-02 0.  1.
</event>
<event>
 5   0  0.1346593E-03  0.1291368E+04  0.7818609E-02  0.9036438E-01
       -1   -1    0    0    0  501  0.00000000000E+00  0.00000000000E+00  0.12397275545E+04  0.12397275545E+04  0.50400001928E-02 0. -1.
        1   -1    0    0  501    0  0.00000000000E+00  0.00000000000E+00 -0.33628994702E+03  0.33628994706E+03  0.50400001928E-02 0.  1.
    10030    2    1    2    0    0  0.00000000000E+00  0.00000000000E+00  0.90343760744E+03  0.15760175015E+04  0.12913681329E+04 0.  0.
        2    1    3    3  502    0 -0.17187238416E+03  0.13360359627E+03  0.11935903210E+04  0.12132798077E+04  0.25500000920E-02 0. -1.
       -2    1    3    3    0  502  0.17187238416E+03 -0.13360359627E+03 -0.29015271353E+03  0.36273769386E+03  0.25500000920E-02 0.  1.
</event>
<event>
 5   0  0.2478236E-03  0.1318600E+04  0.7818609E-02  0.9014944E-01
       -2   -1    0    0    0  501  0.00000000000E+00  0.00000000000E+00  0.69272039310E+03  0.69272039311E+03  0.25500000920E-02 0.  1.
        2   -1    0    0  501    0  0.00000000000E+00  0.00000000000E+00 -0.62749232735E+03  0.62749232735E+03  0.25500000920E-02 0. -1.
    10030    2    1    2    0    0  0.00000000000E+00  0.00000000000E+00  0.65228065757E+02  0.13202127205E+04  0.13186003666E+04 0.  0.
        3    1    3    3  502    0  0.60526953176E+02  0.65650231839E+03  0.28376203385E+02  0.65989698078E+03  0.10100000352E+00 0. -1.
       -3    1    3    3    0  502 -0.60526953176E+02 -0.65650231839E+03  0.36851862372E+02  0.66031573969E+03  0.10100000352E+00 0.  1.
</event>
<event>
 5   0  0.2478236E-03  0.1294205E+04  0.7818609E-02  0.9034173E-01
       -2   -1    0    0    0  501  0.00000000000E+00  0.00000000000E+00  0.60828340886E+03  0.60828340886E+03  0.25500000920E-02 0. -1.
        2   -1    0    0  501    0  0.00000000000E+00  0.00000000000E+00 -0.68839884508E+03  0.68839884509E+03  0.25500000920E-02 0.  1.
    10030    2    1    2    0    0  0.00000000000E+00  0.00000000000E+00 -0.80115436229E+02  0.12966822540E+04  0.12942049237E+04 0.  0.
        3    1    3    3  502    0 -0.11674479478E+03  0.53592527808E+03  0.30395989008E+03  0.62708601944E+03  0.10100000352E+00 0. -1.
       -3    1    3    3    0  502  0.11674479478E+03 -0.53592527808E+03 -0.38407532631E+03  0.66959623451E+03  0.10100000352E+00 0.  1.
</event>
<event>
 5   0  0.1310461E-03  0.1307077E+04  0.7818609E-02  0.9023972E-01
        1   -1    0    0  501    0  0.00000000000E+00  0.00000000000E+00  0.15984853671E+04  0.15984853671E+04  0.50400001928E-02 0. -1.
       -1   -1    0    0    0  501  0.00000000000E+00  0.00000000000E+00 -0.26719824989E+03  0.26719824994E+03  0.50400001928E-02 0.  1.
    10030    2    1    2    0    0  0.00000000000E+00  0.00000000000E+00  0.13312871172E+04  0.18656836171E+04  0.13070768801E+04 0.  0.
        4    1    3    3  502    0 -0.63144918096E+03 -0.23049878407E+02  0.90385426375E+03  0.11028207053E+04  0.12699999809E+01 0. -1.
       -4    1    3    3    0  502  0.63144918096E+03  0.23049878407E+02  0.42743285350E+03  0.76286291179E+03  0.12699999809E+01 0.  1.
</event>
<event>
 5   0  0.1310461E-03  0.1304099E+04  0.7818609E-02  0.9026321E-01
        1   -1    0    0  501    0  0.00000000000E+00  0.00000000000E+00  0.79784857108E+03  0.79784857109E+03  0.50400001928E-02 0. -1.
       -1   -1    0    0    0  501  0.00000000000E+00  0.00000000000E+00 -0.53289398183E+03  0.53289398185E+03  0.50400001928E-02 0.  1.
    10030    2    1    2    0    0  0.00000000000E+00  0.00000000000E+00  0.26495458925E+03  0.13307425529E+04  0.13040992324E+04 0.  0.
        4    1    3    3  502    0 -0.10051915457E+03 -0.64417312961E+03  0.14288206905E+03  0.66744289636E+03  0.12699999809E+01 0. -1.
       -4    1    3    3    0  502  0.10051915457E+03  0.64417312961E+03  0.12207252020E+03  0.66329965659E+03  0.12699999809E+01 0.  1.
</event>
<event>
 5   0  0.1324721E-03  0.1326075E+04  0.7818609E-02  0.9009139E-01
        1   -1    0    0  501    0  0.00000000000E+00  0.00000000000E+00  0.55568942660E+03  0.55568942662E+03  0.50400001928E-02 0.  1.
       -1   -1    0    0    0  501  0.00000000000E+00  0.00000000000E+00 -0.79112316259E+03  0.79112316261E+03  0.50400001928E-02 0. -1.
    10030    2    1    2    0    0  0.00000000000E+00  0.00000000000E+00 -0.23543373600E+03  0.13468125892E+04  0.13260750757E+04 0.  0.
        1    1    3    3  502    0 -0.62834661192E+03  0.21127946085E+03 -0.10485785666E+03  0.67115843540E+03  0.50400001928E-02 0. -1.
       -1    1    3    3    0  502  0.62834661192E+03 -0.21127946085E+03 -0.13057587933E+03  0.67565415382E+03  0.50400001928E-02 0.  1.
</event>
<event>
 5   0  0.1324721E-03  0.1344766E+04  0.7818609E-02  0.8994800E-01
        1   -1    0    0  501    0  0.00000000000E+00  0.00000000000E+00  0.10037874666E+04  0.10037874666E+04  0.50400001928E-02 0.  1.
       -1   -1    0    0    0  501  0.00000000000E+00  0.00000000000E+00 -0.45039317798E+03  0.45039317801E+03  0.50400001928E-02 0. -1.
    10030    2    1    2    0    0  0.00000000000E+00  0.00000000000E+00  0.55339428864E+03  0.14541806446E+04  0.13447661910E+04 0.  0.
        1    1    3    3  502    0  0.40538140348E+03 -0.17620940113E+03 -0.27119788813E+03  0.51858666574E+03  0.50400001928E-02 0. -1.
       -1    1    3    3    0  502 -0.40538140348E+03  0.17620940113E+03  0.82459217677E+03  0.93559397890E+03  0.50400001928E-02 0.  1.
</event>
<event>
 5   0  0.1346593E-03  0.1252067E+04  0.7818609E-02  0.9068465E-01
        1   -1    0    0  501    0  0.00000000000E+00  0.00000000000E+00  0.82400245599E+03  0.82400245601E+03  0.50400001928E-02 0.  1.
       -1   -1    0    0    0  501  0.00000000000E+00  0.00000000000E+00 -0.47562714977E+03  0.47562714980E+03  0.50400001928E-02 0. -1.
    10030    2    1    2    0    0  0.00000000000E+00  0.00000000000E+00  0.34837530622E+03  0.12996296058E+04  0.12520669943E+04 0.  0.
        2    1    3    3  502    0 -0.35785299116E+03  0.23043237268E+03  0.65071323970E+03  0.77755100283E+03  0.25500000920E-02 0.  1.
       -2    1    3    3    0  502  0.35785299116E+03 -0.23043237268E+03 -0.30233793349E+03  0.52207860298E+03  0.25500000920E-02 0. -1.
</event>
<event>
 5   0  0.1332630E-03  0.1305311E+04  0.7818609E-02  0.9025364E-01
       -1   -1    0    0    0  501  0.00000000000E+00  0.00000000000E+00  0.47558858262E+03  0.47558858265E+03  0.50400001928E-02 0.  1.
        1   -1    0    0  501    0  0.00000000000E+00  0.00000000000E+00 -0.89564691503E+03  0.89564691505E+03  0.50400001928E-02 0. -1.
    10030    2    1    2    0    0  0.00000000000E+00  0.00000000000E+00 -0.42005833241E+03  0.13712354977E+04  0.13053113757E+04 0.  0.
        5    1    3    3  502    0 -0.17154228420E+03  0.23699231801E+03  0.40282588072E+03  0.49787839302E+03  0.46999998093E+01 0.  1.
       -5    1    3    3    0  502  0.17154228420E+03 -0.23699231801E+03 -0.82288421313E+03  0.87335710467E+03  0.46999998093E+01 0. -1.
</event>
<event>
 5   0  0.1346593E-03  0.1296983E+04  0.7818609E-02  0.9031961E-01
        1   -1    0    0  501    0  0.00000000000E+00  0.00000000000E+00  0.67296283587E+03  0.67296283589E+03  0.50400001928E-02 0.  1.
       -1   -1    0    0    0  501  0.00000000000E+00  0.00000000000E+00 -0.62490980845E+03  0.62490980847E+03  0.50400001928E-02 0. -1.
    10030    2    1    2    0    0  0.00000000000E+00  0.00000000000E+00  0.48053027415E+02  0.12978726444E+04  0.12969827707E+04 0.  0.
        2    1    3    3  502    0  0.78697357489E+02 -0.18999481553E+02  0.66788604722E+03  0.67277487055E+03  0.25500000920E-02 0.  1.
       -2    1    3    3    0  502 -0.78697357489E+02  0.18999481553E+02 -0.61983301980E+03  0.62509777381E+03  0.25500000920E-02 0. -1.
</event>
<event>
 5   0  0.2334946E-03  0.1204420E+04  0.7818609E-02  0.9108997E-01
        2   -1    0    0  501    0  0.00000000000E+00  0.00000000000E+00  0.25493735381E+04  0.25493735381E+04  0.25500000920E-02 0.  1.
       -2   -1    0    0    0  501  0.00000000000E+00  0.00000000000E+00 -0.14225333062E+03  0.14225333064E+03  0.25500000920E-02 0. -1.
    10030    2    1    2    0    0  0.00000000000E+00  0.00000000000E+00  0.24071202075E+04  0.26916268688E+04  0.12044199879E+04 0.  0.
        1    1    3    3  502    0  0.25530388918E+03 -0.54354535913E+03  0.11027404752E+04  0.12556505043E+04  0.50400001928E-02 0. -1.
       -1    1    3    3    0  502 -0.25530388918E+03  0.54354535913E+03  0.13043797323E+04  0.14359763645E+04  0.50400001928E-02 0.  1.
</event>
<event>
 5   0  0.2334946E-03  0.1294510E+04  0.7818609E-02  0.9033930E-01
       -2   -1    0    0    0  501  0.00000000000E+00  0.00000000000E+00  0.40386669552E+03  0.40386669553E+03  0.25500000920E-02 0. -1.
        2   -1    0    0  501    0  0.00000000000E+00  0.00000000000E+00 -0.10373196773E+04  0.10373196773E+04  0.25500000920E-02 0.  1.
    10030    2    1    2    0    0  0.00000000000E+00  0.00000000000E+00 -0.63345298178E+03  0.14411863728E+04  0.12945097455E+04 0.  0.
        1    1    3    3  502    0 -0.62798165057E+03  0.11573849276E+03 -0.43445580869E+03  0.77233943437E+03  0.50400001928E-02 0.  1.
       -1    1    3    3    0  502  0.62798165057E+03 -0.11573849276E+03 -0.19899717310E+03  0.66884693846E+03  0.50400001928E-02 0. -1.
</event>
<event>
 5   0  0.2361043E-03  0.1271706E+04  0.7818609E-02  0.9052308E-01
       -2   -1    0    0    0  501  0.00000000000E+00  0.00000000000E+00  0.48477284120E+03  0.48477284121E+03  0.25500000920E-02 0.  1.
        2   -1    0    0  501    0  0.00000000000E+00  0.00000000000E+00 -0.83401765160E+03  0.83401765160E+03  0.25500000920E-02 0. -1.
    10030    2    1    2    0    0  0.00000000000E+00  0.00000000000E+00 -0.34924481039E+03  0.13187904928E+04  0.12717061085E+04 0.  0.
        2    1    3    3  502    0  0.55292838498E+02 -0.38579793221E+02  0.48105553103E+03  0.48575726693E+03  0.25500000920E-02 0.  1.
       -2    1    3    3    0  502 -0.55292838498E+02  0.38579793221E+02 -0.83030034143E+03  0.83303322588E+03  0.25500000920E-02 0. -1.
</event>
<event>
 5   0  0.1310461E-03  0.1306796E+04  0.7818609E-02  0.9024193E-01
        1   -1    0    0  501    0  0.00000000000E+00  0.00000000000E+00  0.84284425501E+03  0.84284425503E+03  0.50400001928E-02 0. -1.
       -1   -1    0    0    0  501  0.00000000000E+00  0.00000000000E+00 -0.50653398990E+03  0.50653398992E+03  0.50400001928E-02 0.  1.
    10030    2    1    2    0    0  0.00000000000E+00  0.00000000000E+00  0.33631026511E+03  0.13493782450E+04  0.13067964851E+04 0.  0.
        4    1    3    3  502    0 -0.67472266353E+00  0.22195911032E+03  0.80272145000E+03  0.83284430784E+03  0.12699999809E+01 0. -1.
       -4    1    3    3    0  502  0.67472266353E+00 -0.22195911032E+03 -0.46641118489E+03  0.51653393711E+03  0.12699999809E+01 0.  1.
</event>
<event>
 5   0  0.1310461E-03  0.9859297E+03  0.7818609E-02  0.9324113E-01
        1   -1    0    0  501    0  0.00000000000E+00  0.00000000000E+00  0.68986546114E+03  0.68986546116E+03  0.50400001928E-02 0. -1.
       -1   -1    0    0    0  501  0.00000000000E+00  0.00000000000E+00 -0.35226335448E+03  0.35226335451E+03  0.50400001928E-02 0.  1.
    10030    2    1    2    0    0  0.00000000000E+00  0.00000000000E+00  0.33760210666E+03  0.10421288157E+04  0.98592965572E+03 0.  0.
        4    1    3    3  502    0 -0.17675232369E+03  0.31341502999E+03  0.52496864681E+03  0.63644642979E+03  0.12699999809E+01 0. -1.
       -4    1    3    3    0  502  0.17675232369E+03 -0.31341502999E+03 -0.18736654015E+03  0.40568238589E+03  0.12699999809E+01 0.  1.
</event>
<event>
 5   0  0.1324721E-03  0.1167332E+04  0.7818609E-02  0.9141941E-01
       -1   -1    0    0    0  501  0.00000000000E+00  0.00000000000E+00  0.23818611328E+03  0.23818611334E+03  0.50400001928E-02 0. -1.
        1   -1    0    0  501    0  0.00000000000E+00  0.00000000000E+00 -0.14302525045E+04  0.14302525045E+04  0.50400001928E-02 0.  1.
    10030    2    1    2    0    0  0.00000000000E+00  0.00000000000E+00 -0.11920663912E+04  0.16684386179E+04  0.11673324893E+04 0.  0.
        1    1    3    3  502    0  0.33333443236E+03 -0.47146733457E+03 -0.71792437163E+03  0.92130814322E+03  0.50400001928E-02 0.  1.
       -1    1    3    3    0  502 -0.33333443236E+03  0.47146733457E+03 -0.47414201961E+03  0.74713047465E+03  0.50400001928E-02 0. -1.
</event>
<event>
 5   0  0.1346593E-03  0.1266448E+04  0.7818609E-02  0.9056603E-01
       -1   -1    0    0    0  501  0.00000000000E+00  0.00000000000E+00  0.76781537817E+03  0.76781537818E+03  0.50400001928E-02 0.  1.
        1   -1    0    0  501    0  0.00000000000E+00  0.00000000000E+00 -0.52222549262E+03  0.52222549265E+03  0.50400001928E-02 0. -1.
    10030    2    1    2    0    0  0.00000000000E+00  0.00000000000E+00  0.24558988554E+03  0.12900408708E+04  0.12664482052E+04 0.  0.
        2    1    3    3  502    0  0.14782299551E+03 -0.30230214738E+03 -0.42360674778E+03  0.54099991043E+03  0.25500000920E-02 0. -1.
       -2    1    3    3    0  502 -0.14782299551E+03  0.30230214738E+03  0.66919663332E+03  0.74904096041E+03  0.25500000920E-02 0.  1.
</event>
<event>
 5   0  0.9131250E-04  0.1303165E+04  0.7818609E-02  0.9027059E-01
        4   -1    0    0  501    0  0.00000000000E+00  0.00000000000E+00  0.77834651815E+03  0.77834755425E+03  0.12699999809E+01 0.  1.
       -4   -1    0    0    0  501  0.00000000000E+00  0.00000000000E+00 -0.54546130626E+03  0.54546278473E+03  0.12699999809E+01 0. -1.
    10030    2    1    2    0    0  0.00000000000E+00  0.00000000000E+00  0.23288521188E+03  0.13238103390E+04  0.13031647216E+04 0.  0.
        5    1    3    3  502    0  0.39077843441E+03 -0.46775903645E+03 -0.11749072646E+03  0.62075152982E+03  0.46999998093E+01 0. -1.
       -5    1    3    3    0  502 -0.39077843441E+03  0.46775903645E+03  0.35037593834E+03  0.70305880916E+03  0.46999998093E+01 0.  1.
</event>
<event>
 5   0  0.2478236E-03  0.1316160E+04  0.7818609E-02  0.9016847E-01
       -2   -1    0    0    0  501  0.00000000000E+00  0.00000000000E+00  0.24554061500E+03  0.24554061501E+03  0.25500000920E-02 0. -1.
        2   -1    0    0  501    0  0.00000000000E+00  0.00000000000E+00 -0.17637380225E+04  0.17637380225E+04  0.25500000920E-02 0.  1.
    10030    2    1    2    0    0  0.00000000000E+00  0.00000000000E+00 -0.15181974075E+04  0.20092786375E+04  0.13161600492E+04 0.  0.
        3    1    3    3  502    0  0.44129239217E+03 -0.17993873735E+02 -0.14322279398E+02  0.44189126803E+03  0.10100000352E+00 0. -1.
       -3    1    3    3    0  502 -0.44129239217E+03  0.17993873735E+02 -0.15038751281E+04  0.15673873695E+04  0.10100000352E+00 0.  1.
</event>
<event>
 5   0  0.2334946E-03  0.1298881E+04  0.7818609E-02  0.9030453E-01
        2   -1    0    0  501    0  0.00000000000E+00  0.00000000000E+00  0.93240474423E+03  0.93240474423E+03  0.25500000920E-02 0. -1.
       -2   -1    0    0    0  501  0.00000000000E+00  0.00000000000E+00 -0.45234948562E+03  0.45234948563E+03  0.25500000920E-02 0.  1.
    10030    2    1    2    0    0  0.00000000000E+00  0.00000000000E+00  0.48005525861E+03  0.13847542299E+04  0.12988807589E+04 0.  0.
        1    1    3    3  502    0 -0.55929301966E+03  0.52736473935E+02  0.58742848994E+03  0.81281120092E+03  0.50400001928E-02 0. -1.
       -1    1    3    3    0  502  0.55929301966E+03 -0.52736473935E+02 -0.10737323133E+03  0.57194302894E+03  0.50400001928E-02 0.  1.
</event>
<event>
 5   0  0.2478236E-03  0.1327864E+04  0.7818609E-02  0.9007756E-01
       -2   -1    0    0    0  501  0.00000000000E+00  0.00000000000E+00  0.81873197004E+03  0.81873197004E+03  0.25500000920E-02 0.  1.
        2   -1    0    0  501    0  0.00000000000E+00  0.00000000000E+00 -0.53840035750E+03  0.53840035750E+03  0.25500000920E-02 0. -1.
    10030    2    1    2    0    0  0.00000000000E+00  0.00000000000E+00  0.28033161254E+03  0.13571323275E+04  0.13278638264E+04 0.  0.
        3    1    3    3  502    0 -0.13536646362E+03  0.50582590653E+03  0.55735626601E+03  0.76474175029E+03  0.10100000352E+00 0.  1.
       -3    1    3    3    0  502  0.13536646362E+03 -0.50582590653E+03 -0.27702465347E+03  0.59239057725E+03  0.10100000352E+00 0. -1.
</event>
<event>
 5   0  0.1310461E-03  0.1093728E+04  0.7818609E-02  0.9211327E-01
       -1   -1    0    0    0  501  0.00000000000E+00  0.00000000000E+00  0.17564654321E+03  0.17564654328E+03  0.50400001928E-02 0.  1.
        1   -1    0    0  501    0  0.00000000000E+00  0.00000000000E+00 -0.17026248367E+04  0.17026248367E+04  0.50400001928E-02 0. -1.
    10030    2    1    2    0    0  0.00000000000E+00  0.00000000000E+00 -0.15269782935E+04  0.18782713800E+04  0.10937278766E+04 0.  0.
        4    1    3    3  502    0  0.22495071913E+03  0.30927574155E+03 -0.14347893328E+04  0.14848826057E+04  0.12699999809E+01 0. -1.
       -4    1    3    3    0  502 -0.22495071913E+03 -0.30927574155E+03 -0.92188960694E+02  0.39338877427E+03  0.12699999809E+01 0.  1.
</event>
<event>
 5   0  0.2361043E-03  0.1295575E+04  0.7818609E-02  0.9033081E-01
        2   -1    0    0  501    0  0.00000000000E+00  0.00000000000E+00  0.21570175965E+04  0.21570175965E+04  0.25500000920E-02 0.  1.
       -2   -1    0    0    0  501  0.00000000000E+00  0.00000000000E+00 -0.19454124678E+03  0.19454124680E+03  0.25500000920E-02 0. -1.
    10030    2    1    2    0    0  0.00000000000E+00  0.00000000000E+00  0.19624763497E+04  0.23515588433E+04  0.12955753819E+04 0.  0.
        2    1    3    3  502    0 -0.52999955437E+03  0.21140978445E+03  0.15378322087E+04  0.16402809292E+04  0.25500000920E-02 0.  1.
       -2    1    3    3    0  502  0.52999955437E+03 -0.21140978445E+03  0.42464414107E+03  0.71127791414E+03  0.25500000920E-02 0. -1.
</event>
<event>
 5   0  0.2361043E-03  0.1312263E+04  0.7818609E-02  0.9019897E-01
        2   -1    0    0  501    0  0.00000000000E+00  0.00000000000E+00  0.77820198938E+03  0.77820198939E+03  0.25500000920E-02 0.  1.
       -2   -1    0    0    0  501  0.00000000000E+00  0.00000000000E+00 -0.55320926023E+03  0.55320926023E+03  0.25500000920E-02 0. -1.
    10030    2    1    2    0    0  0.00000000000E+00  0.00000000000E+00  0.22499272916E+03  0.13314112496E+04  0.13122630024E+04 0.  0.
        2    1    3    3  502    0  0.37401671012E+03 -0.53445606731E+03  0.40920819230E+02  0.65361020554E+03  0.25500000920E-02 0.  1.
       -2    1    3    3    0  502 -0.37401671012E+03  0.53445606731E+03  0.18407190993E+03  0.67780104408E+03  0.25500000920E-02 0. -1.
</event>
<event>
 5   0  0.1310461E-03  0.1281808E+04  0.7818609E-02  0.9044117E-01
       -1   -1    0    0    0  501  0.00000000000E+00  0.00000000000E+00  0.25865784793E+03  0.25865784798E+03  0.50400001928E-02 0. -1.
        1   -1    0    0  501    0  0.00000000000E+00  0.00000000000E+00 -0.15880361883E+04  0.15880361883E+04  0.50400001928E-02 0.  1.
    10030    2    1    2    0    0  0.00000000000E+00  0.00000000000E+00 -0.13293783404E+04  0.18466940363E+04  0.12818081338E+04 0.  0.
        4    1    3    3  502    0 -0.55730503924E+03  0.31507859462E+03 -0.70774117693E+03  0.95433883604E+03  0.12699999809E+01 0.  1.
       -4    1    3    3    0  502  0.55730503924E+03 -0.31507859462E+03 -0.62163716347E+03  0.89235520028E+03  0.12699999809E+01 0. -1.
</event>
<event>
 5   0  0.1346593E-03  0.1280347E+04  0.7818609E-02  0.9045297E-01
        1   -1    0    0  501    0  0.00000000000E+00  0.00000000000E+00  0.58999786196E+03  0.58999786198E+03  0.50400001928E-02 0. -1.
       -1   -1    0    0    0  501  0.00000000000E+00  0.00000000000E+00 -0.69461596359E+03  0.69461596361E+03  0.50400001928E-02 0.  1.
    10030    2    1    2    0    0  0.00000000000E+00  0.00000000000E+00 -0.10461810163E+03  0.12846138256E+04  0.12803467240E+04 0.  0.
        2    1    3    3  502    0  0.37193301284E+03 -0.51627502684E+03  0.18266434914E+02  0.63655929185E+03  0.25500000920E-02 0. -1.
       -2    1    3    3    0  502 -0.37193301284E+03  0.51627502684E+03 -0.12288453654E+03  0.64805453375E+03  0.25500000920E-02 0.  1.
</event>
<event>
 5   0  0.1332630E-03  0.1310168E+04  0.7818609E-02  0.9021540E-01
       -1   -1    0    0    0  501  0.00000000000E+00  0.00000000000E+00  0.35257689225E+03  0.35257689229E+03  0.50400001928E-02 0. -1.
        1   -1    0    0  501    0  0.00000000000E+00  0.00000000000E+00 -0.12171393284E+04  0.12171393284E+04  0.50400001928E-02 0.  1.
    10030    2    1    2    0    0  0.00000000000E+00  0.00000000000E+00 -0.86456243616E+03  0.15697162207E+04  0.13101682364E+04 0.  0.
        5    1    3    3  502    0  0.52537186931E+03  0.38811901065E+03 -0.37284343168E+03  0.75212118840E+03  0.46999998093E+01 0. -1.
       -5    1    3    3    0  502 -0.52537186931E+03 -0.38811901065E+03 -0.49171900448E+03  0.81759503231E+03  0.46999998093E+01 0.  1.
</event>
<event>
 5   0  0.2401211E-03  0.1258763E+04  0.7818609E-02  0.9062921E-01
       -2   -1    0    0    0  501  0.00000000000E+00  0.00000000000E+00  0.48719659246E+03  0.48719659247E+03  0.25500000920E-02 0. -1.
        2   -1    0    0  501    0  0.00000000000E+00  0.00000000000E+00 -0.81306220975E+03  0.81306220975E+03  0.25500000920E-02 0.  1.
    10030    2    1    2    0    0  0.00000000000E+00  0.00000000000E+00 -0.32586561728E+03  0.13002588022E+04  0.12587631041E+04 0.  0.
        4    1    3    3  502    0  0.49424233762E+03  0.37748996081E+03 -0.26279106146E+03  0.67515547372E+03  0.12699999809E+01 0. -1.
       -4    1    3    3    0  502 -0.49424233762E+03 -0.37748996081E+03 -0.63074555823E+02  0.62510332850E+03  0.12699999809E+01 0.  1.
</event>
<event>
 5   0  0.1332630E-03  0.1285489E+04  0.7818609E-02  0.9041152E-01
       -1   -1    0    0    0  501  0.00000000000E+00  0.00000000000E+00  0.59581845347E+03  0.59581845349E+03  0.50400001928E-02 0.  1.
        1   -1    0    0  501    0  0.00000000000E+00  0.00000000000E+00 -0.69336677823E+03  0.69336677825E+03  0.50400001928E-02 0. -1.
    10030    2    1    2    0    0  0.00000000000E+00  0.00000000000E+00 -0.97548324762E+02  0.12891852317E+04  0.12854893567E+04 0.  0.
        5    1    3    3  502    0 -0.49869730095E+03 -0.12955571631E+03  0.33653737064E+03  0.61543738384E+03  0.46999998093E+01 0.  1.
       -5    1    3    3    0  502  0.49869730095E+03  0.12955571631E+03 -0.43408569540E+03  0.67374784790E+03  0.46999998093E+01 0. -1.
</event>
<event>
 5   0  0.2334946E-03  0.1294688E+04  0.7818609E-02  0.9033789E-01
        2   -1    0    0  501    0  0.00000000000E+00  0.00000000000E+00  0.87182480421E+03  0.87182480421E+03  0.25500000920E-02 0.  1.
       -2   -1    0    0    0  501  0.00000000000E+00  0.00000000000E+00 -0.48066302985E+03  0.48066302986E+03  0.25500000920E-02 0. -1.
    10030    2    1    2    0    0  0.00000000000E+00  0.00000000000E+00  0.39116177436E+03  0.13524878341E+04  0.12946875328E+04 0.  0.
        1    1    3    3  502    0  0.58026789007E+03  0.26064036568E+03  0.32098052547E+03  0.71251155936E+03  0.50400001928E-02 0. -1.
       -1    1    3    3    0  502 -0.58026789007E+03 -0.26064036568E+03  0.70181248894E+02  0.63997627471E+03  0.50400001928E-02 0.  1.
</event>
<event>
 5   0  0.1332630E-03  0.1311424E+04  0.7818609E-02  0.9020555E-01
        1   -1    0    0  501    0  0.00000000000E+00  0.00000000000E+00  0.75616974502E+03  0.75616974503E+03  0.50400001928E-02 0.  1.
       -1   -1    0    0    0  501  0.00000000000E+00  0.00000000000E+00 -0.56859973518E+03  0.56859973520E+03  0.50400001928E-02 0. -1.
    10030    2    1    2    0    0  0.00000000000E+00  0.00000000000E+00  0.18757000984E+03  0.13247694802E+04  0.13114235270E+04 0.  0.
        5    1    3    3  502    0  0.32717117861E+03 -0.46444702276E+03  0.42450613133E+03  0.70921052065E+03  0.46999998093E+01 0.  1.
       -5    1    3    3    0  502 -0.32717117861E+03  0.46444702276E+03 -0.23693612149E+03  0.61555895959E+03  0.46999998093E+01 0. -1.
</event>
<event>
 5   0  0.1324721E-03  0.1274665E+04  0.7818609E-02  0.9049901E-01
        1   -1    0    0  501    0  0.00000000000E+00  0.00000000000E+00  0.36012257823E+03  0.36012257827E+03  0.50400001928E-02 0.  1.
       -1   -1    0    0    0  501  0.00000000000E+00  0.00000000000E+00 -0.11279294013E+04  0.11279294013E+04  0.50400001928E-02 0. -1.
    10030    2    1    2    0    0  0.00000000000E+00  0.00000000000E+00 -0.76780682307E+03  0.14880519796E+04  0.12746652017E+04 0.  0.
        1    1    3    3  502    0  0.34282765580E+02 -0.54898634625E+03 -0.80937661171E+01  0.55011528379E+03  0.50400001928E-02 0.  1.
       -1    1    3    3    0  502 -0.34282765580E+02  0.54898634625E+03 -0.75971305696E+03  0.93793669579E+03  0.50400001928E-02 0. -1.
</event>
<event>
 5   0  0.1387622E-03  0.1301560E+04  0.7818609E-02  0.9028329E-01
       -1   -1    0    0    0  501  0.00000000000E+00  0.00000000000E+00  0.61756670168E+03  0.61756670170E+03  0.50400001928E-02 0. -1.
        1   -1    0    0  501    0  0.00000000000E+00  0.00000000000E+00 -0.68577978097E+03  0.68577978098E+03  0.50400001928E-02 0.  1.
    10030    2    1    2    0    0  0.00000000000E+00  0.00000000000E+00 -0.68213079287E+02  0.13033464827E+04  0.13015602290E+04 0.  0.
        3    1    3    3  502    0  0.50801595037E+03 -0.15215479439E+03 -0.41182901173E+03  0.67144205438E+03  0.10100000352E+00 0.  1.
       -3    1    3    3    0  502 -0.50801595037E+03  0.15215479439E+03  0.34361593244E+03  0.63190442831E+03  0.10100000352E+00 0. -1.
</event>
<event>
 5   0  0.1332630E-03  0.1197074E+04  0.7818609E-02  0.9115422E-01
        1   -1    0    0  501    0  0.00000000000E+00  0.00000000000E+00  0.13168680071E+04  0.13168680071E+04  0.50400001928E-02 0. -1.
       -1   -1    0    0    0  501  0.00000000000E+00  0.00000000000E+00 -0.27204420678E+03  0.27204420683E+03  0.50400001928E-02 0.  1.
    10030    2    1    2    0    0  0.00000000000E+00  0.00000000000E+00  0.10448238003E+04  0.15889122139E+04  0.11970736192E+04 0.  0.
        5    1    3    3  502    0 -0.16787678039E+03  0.10191748797E+03 -0.22803403647E+03  0.30098405196E+03  0.46999998093E+01 0.  1.
       -5    1    3    3    0  502  0.16787678039E+03 -0.10191748797E+03  0.12728578368E+04  0.12879281620E+04  0.46999998093E+01 0. -1.
</event>
<event>
 5   0  0.2401211E-03  0.1286918E+04  0.7818609E-02  0.9040004E-01
       -2   -1    0    0    0  501  0.00000000000E+00  0.00000000000E+00  0.27218096222E+03  0.27218096224E+03  0.25500000920E-02 0. -1.
        2   -1    0    0  501    0  0.00000000000E+00  0.00000000000E+00 -0.15211915809E+04  0.15211915810E+04  0.25500000920E-02 0.  1.
    10030    2    1    2    0    0  0.00000000000E+00  0.00000000000E+00 -0.12490106187E+04  0.17933725432E+04  0.12869178501E+04 0.  0.
        4    1    3    3  502    0 -0.24854353904E+03 -0.49799255235E+03 -0.10744858781E+04  0.12100793313E+04  0.12699999809E+01 0.  1.
       -4    1    3    3    0  502  0.24854353904E+03  0.49799255235E+03 -0.17452474062E+03  0.58329321185E+03  0.12699999809E+01 0. -1.
</event>
<event>
 5   0  0.2478236E-03  0.1253042E+04  0.7818609E-02  0.9067655E-01
        2   -1    0    0  501    0  0.00000000000E+00  0.00000000000E+00  0.82611493101E+03  0.82611493101E+03  0.25500000920E-02 0. -1.
       -2   -1    0    0    0  501  0.00000000000E+00  0.00000000000E+00 -0.47514987001E+03  0.47514987001E+03  0.25500000920E-02 0.  1.
    10030    2    1    2    0    0  0.00000000000E+00  0.00000000000E+00  0.35096506100E+03  0.13012648010E+04  0.12530417425E+04 0.  0.
        3    1    3    3  502    0 -0.78680449076E+02  0.23721383836E+03 -0.42114246254E+03  0.48971624654E+03  0.10100000352E+00 0.  1.
       -3    1    3    3    0  502  0.78680449076E+02 -0.23721383836E+03  0.77210752354E+03  0.81154855448E+03  0.10100000352E+00 0. -1.
</event>
<event>
 5   0  0.2361043E-03  0.1286342E+04  0.7818609E-02  0.9040467E-01
       -2   -1    0    0    0  501  0.00000000000E+00  0.00000000000E+00  0.21200067645E+03  0.21200067647E+03  0.25500000920E-02 0. -1.
        2   -1    0    0  501    0  0.00000000000E+00  0.00000000000E+00 -0.19512631037E+04  0.19512631037E+04  0.25500000920E-02 0.  1.
    10030    2    1    2    0    0  0.00000000000E+00  0.00000000000E+00 -0.17392624273E+04  0.21632637802E+04  0.12863422530E+04 0.  0.
        2    1    3    3  502    0 -0.63909883497E+03 -0.56026280794E+02 -0.79288089945E+03  0.10199246961E+04  0.25500000920E-02 0. -1.
       -2    1    3    3    0  502  0.63909883497E+03  0.56026280794E+02 -0.94638152784E+03  0.11433390841E+04  0.25500000920E-02 0.  1.
</event>
<event>
 5   0  0.2334946E-03  0.1290527E+04  0.7818609E-02  0.9037111E-01
        2   -1    0    0  501    0  0.00000000000E+00  0.00000000000E+00  0.50377546991E+03  0.50377546991E+03  0.25500000920E-02 0. -1.
       -2   -1    0    0    0  501  0.00000000000E+00  0.00000000000E+00 -0.82648938948E+03  0.82648938949E+03  0.25500000920E-02 0.  1.
    10030    2    1    2    0    0  0.00000000000E+00  0.00000000000E+00 -0.32271391957E+03  0.13302648594E+04  0.12905271490E+04 0.  0.
        1    1    3    3  502    0 -0.60738856868E+03  0.10090015778E+03 -0.36033814380E+03  0.71340401814E+03  0.50400001928E-02 0.  1.
       -1    1    3    3    0  502  0.60738856868E+03 -0.10090015778E+03  0.37624224229E+02  0.61686084125E+03  0.50400001928E-02 0. -1.
</event>
<event>
 5   0  0.2312105E-03  0.1309198E+04  0.7818609E-02  0.9022303E-01
        2   -1    0    0  501    0  0.00000000000E+00  0.00000000000E+00  0.88671787116E+03  0.88671787116E+03  0.25500000920E-02 0.  1.
       -2   -1    0    0    0  501  0.00000000000E+00  0.00000000000E+00 -0.48324248048E+03  0.48324248049E+03  0.25500000920E-02 0. -1.
    10030    2    1    2    0    0  0.00000000000E+00  0.00000000000E+00  0.40347539068E+03  0.13699603516E+04  0.13091978362E+04 0.  0.
        5    1    3    3  502    0 -0.67328063683E+02  0.20086273771E+03 -0.44636124126E+03  0.49410459951E+03  0.46999998093E+01 0. -1.
       -5    1    3    3    0  502  0.67328063683E+02 -0.20086273771E+03  0.84983663194E+03  0.87585575214E+03  0.46999998093E+01 0.  1.
</event>
<event>
 5   0  0.2478236E-03  0.1301333E+04  0.7818609E-02  0.9028508E-01
        2   -1    0    0  501    0  0.00000000000E+00  0.00000000000E+00  0.79084163070E+03  0.79084163070E+03  0.25500000920E-02 0.  1.
       -2   -1    0    0    0  501  0.00000000000E+00  0.00000000000E+00 -0.53533744949E+03  0.53533744950E+03  0.25500000920E-02 0. -1.
    10030    2    1    2    0    0  0.00000000000E+00  0.00000000000E+00  0.25550418120E+03  0.13261790802E+04  0.13013333801E+04 0.  0.
        3    1    3    3  502    0 -0.14182270790E+03 -0.61315888642E+03 -0.40597643022E+02  0.63065496057E+03  0.10100000352E+00 0.  1.
       -3    1    3    3    0  502  0.14182270790E+03  0.61315888642E+03  0.29610182423E+03  0.69552411963E+03  0.10100000352E+00 0. -1.
</event>
<event>
 5   0  0.1324721E-03  0.1257994E+04  0.7818609E-02  0.9063556E-01
       -1   -1    0    0    0  501  0.00000000000E+00  0.00000000000E+00  0.72261860984E+03  0.72261860986E+03  0.50400001928E-02 0.  1.
        1   -1    0    0  501    0  0.00000000000E+00  0.00000000000E+00 -0.54750448302E+03  0.54750448305E+03  0.50400001928E-02 0. -1.
    10030    2    1    2    0    0  0.00000000000E+00  0.00000000000E+00  0.17511412682E+03  0.12701230929E+04  0.12579935269E+04 0.  0.
        1    1    3    3  502    0 -0.10989661261E+03 -0.28593799258E+03  0.64221648661E+03  0.71153342632E+03  0.50400001928E-02 0.  1.
       -1    1    3    3    0  502  0.10989661261E+03  0.28593799258E+03 -0.46710235980E+03  0.55858966659E+03  0.50400001928E-02 0. -1.
</event>
<event>
 5   0  0.1387622E-03  0.1282983E+04  0.7818609E-02  0.9043170E-01
        1   -1    0    0  501    0  0.00000000000E+00  0.00000000000E+00  0.15376246405E+04  0.15376246405E+04  0.50400001928E-02 0. -1.
       -1   -1    0    0    0  501  0.00000000000E+00  0.00000000000E+00 -0.26762805256E+03  0.26762805261E+03  0.50400001928E-02 0.  1.
    10030    2    1    2    0    0  0.00000000000E+00  0.00000000000E+00  0.12699965879E+04  0.18052526931E+04  0.12829832238E+04 0.  0.
        3    1    3    3  502    0  0.68028263116E+02  0.47625099931E+03  0.37913459007E+02  0.48257672913E+03  0.10100000352E+00 0. -1.
       -3    1    3    3    0  502 -0.68028263116E+02 -0.47625099931E+03  0.12320831289E+04  0.13226759640E+04  0.10100000352E+00 0.  1.
</event>
<event>
 5   0  0.1332630E-03  0.1294238E+04  0.7818609E-02  0.9034147E-01
       -1   -1    0    0    0  501  0.00000000000E+00  0.00000000000E+00  0.26487991022E+03  0.26487991027E+03  0.50400001928E-02 0. -1.
        1   -1    0    0  501    0  0.00000000000E+00  0.00000000000E+00 -0.15809530407E+04  0.15809530407E+04  0.50400001928E-02 0.  1.
    10030    2    1    2    0    0  0.00000000000E+00  0.00000000000E+00 -0.13160731305E+04  0.18458329510E+04  0.12942375355E+04 0.  0.
        5    1    3    3  502    0  0.36132191676E+02  0.54935402733E+03 -0.11430371473E+04  0.12687203761E+04  0.46999998093E+01 0.  1.
       -5    1    3    3    0  502 -0.36132191676E+02 -0.54935402733E+03 -0.17303598318E+03  0.57711257489E+03  0.46999998093E+01 0. -1.
</event>
<event>
 5   0  0.1387622E-03  0.1311969E+04  0.7818609E-02  0.9020127E-01
        1   -1    0    0  501    0  0.00000000000E+00  0.00000000000E+00  0.95032721009E+03  0.95032721011E+03  0.50400001928E-02 0.  1.
       -1   -1    0    0    0  501  0.00000000000E+00  0.00000000000E+00 -0.45280823137E+03  0.45280823140E+03  0.50400001928E-02 0. -1.
    10030    2    1    2    0    0  0.00000000000E+00  0.00000000000E+00  0.49751897872E+03  0.14031354415E+04  0.13119694863E+04 0.  0.
        3    1    3    3  502    0 -0.32261397560E+03 -0.27659037768E+03  0.78321881698E+03  0.89107448609E+03  0.10100000352E+00 0.  1.
       -3    1    3    3    0  502  0.32261397560E+03  0.27659037768E+03 -0.28569983826E+03  0.51206095542E+03  0.10100000352E+00 0. -1.
</event>
<event>
 5   0  0.2361043E-03  0.1319712E+04  0.7818609E-02  0.9014078E-01
       -2   -1    0    0    0  501  0.00000000000E+00  0.00000000000E+00  0.23753179611E+03  0.23753179612E+03  0.25500000920E-02 0.  1.
        2   -1    0    0  501    0  0.00000000000E+00  0.00000000000E+00 -0.18330604245E+04  0.18330604245E+04  0.25500000920E-02 0. -1.
    10030    2    1    2    0    0  0.00000000000E+00  0.00000000000E+00 -0.15955286284E+04  0.20705922206E+04  0.13197122944E+04 0.  0.
        2    1    3    3  502    0  0.48326154853E+02  0.18197118691E+03  0.19449286412E+03  0.27069614757E+03  0.25500000920E-02 0.  1.
       -2    1    3    3    0  502 -0.48326154853E+02 -0.18197118691E+03 -0.17900214925E+04  0.17998960731E+04  0.25500000920E-02 0. -1.
</event>
<event>
 5   0  0.2478236E-03  0.1280284E+04  0.7818609E-02  0.9045348E-01
       -2   -1    0    0    0  501  0.00000000000E+00  0.00000000000E+00  0.48818366652E+03  0.48818366653E+03  0.25500000920E-02 0. -1.
        2   -1    0    0  501    0  0.00000000000E+00  0.00000000000E+00 -0.83940019703E+03  0.83940019703E+03  0.25500000920E-02 0.  1.
    10030    2    1    2    0    0  0.00000000000E+00  0.00000000000E+00 -0.35121653051E+03  0.13275838636E+04  0.12802835090E+04 0.  0.
        3    1    3    3  502    0  0.44538567742E+03 -0.37245979206E+03 -0.45517369117E+03  0.73775185374E+03  0.10100000352E+00 0.  1.
       -3    1    3    3    0  502 -0.44538567742E+03  0.37245979206E+03  0.10395716066E+03  0.58983200982E+03  0.10100000352E+00 0. -1.
</event>
<event>
 5   0  0.1387622E-03  0.1312568E+04  0.7818609E-02  0.9019657E-01
        1   -1    0    0  501    0  0.00000000000E+00  0.00000000000E+00  0.99781242558E+03  0.99781242559E+03  0.50400001928E-02 0.  1.
       -1   -1    0    0    0  501  0.00000000000E+00  0.00000000000E+00 -0.43165327836E+03  0.43165327839E+03  0.50400001928E-02 0. -1.
    10030    2    1    2    0    0  0.00000000000E+00  0.00000000000E+00  0.56615914721E+03  0.14294657040E+04  0.13125684816E+04 0.  0.
        3    1    3    3  502    0 -0.56428224320E+03  0.31800765155E+03  0.39815810741E+03  0.76031125543E+03  0.10100000352E+00 0. -1.
       -3    1    3    3    0  502  0.56428224320E+03 -0.31800765155E+03  0.16800103980E+03  0.66915444855E+03  0.10100000352E+00 0.  1.
</event>
<event>
 5   0  0.1346593E-03  0.1289959E+04  0.7818609E-02  0.9037566E-01
        1   -1    0    0  501    0  0.00000000000E+00  0.00000000000E+00  0.12390791703E+04  0.12390791704E+04  0.50400001928E-02 0. -1.
       -1   -1    0    0    0  501  0.00000000000E+00  0.00000000000E+00 -0.33573200215E+03  0.33573200219E+03  0.50400001928E-02 0.  1.
    10030    2    1    2    0    0  0.00000000000E+00  0.00000000000E+00  0.90334716820E+03  0.15748111725E+04  0.12899589617E+04 0.  0.
        2    1    3    3  502    0  0.33074064866E+03  0.74735437265E+02  0.11214856820E+04  0.11716248961E+04  0.25500000920E-02 0. -1.
       -2    1    3    3    0  502 -0.33074064866E+03 -0.74735437265E+02 -0.21813851382E+03  0.40318627640E+03  0.25500000920E-02 0.  1.
</event>
<event>
 5   0  0.2361043E-03  0.1302309E+04  0.7818609E-02  0.9027736E-01
       -2   -1    0    0    0  501  0.00000000000E+00  0.00000000000E+00  0.45075533011E+03  0.45075533012E+03  0.25500000920E-02 0.  1.
        2   -1    0    0  501    0  0.00000000000E+00  0.00000000000E+00 -0.94064882230E+03  0.94064882230E+03  0.25500000920E-02 0. -1.
    10030    2    1    2    0    0  0.00000000000E+00  0.00000000000E+00 -0.48989349219E+03  0.13914041524E+04  0.13023094416E+04 0.  0.
        2    1    3    3  502    0  0.36347145310E+03 -0.52805176299E+03 -0.36700939095E+03  0.73867858685E+03  0.25500000920E-02 0.  1.
       -2    1    3    3    0  502 -0.36347145310E+03  0.52805176299E+03 -0.12288410124E+03  0.65272556558E+03  0.25500000920E-02 0. -1.
</event>
<event>
 5   0  0.1310461E-03  0.1316749E+04  0.7818609E-02  0.9016387E-01
        1   -1    0    0  501    0  0.00000000000E+00  0.00000000000E+00  0.15888731138E+04  0.15888731138E+04  0.50400001928E-02 0.  1.
       -1   -1    0    0    0  501  0.00000000000E+00  0.00000000000E+00 -0.27280800114E+03  0.27280800119E+03  0.50400001928E-02 0. -1.
    10030    2    1    2    0    0  0.00000000000E+00  0.00000000000E+00  0.13160651127E+04  0.18616811150E+04  0.13167494800E+04 0.  0.
        4    1    3    3  502    0  0.14102752790E+03  0.24751485859E+03 -0.18115783685E+03  0.33759760604E+03  0.12699999809E+01 0. -1.
       -4    1    3    3    0  502 -0.14102752790E+03 -0.24751485859E+03  0.14972229495E+04  0.15240835090E+04  0.12699999809E+01 0.  1.
</event>
<event>
 5   0  0.9131250E-04  0.1301200E+04  0.7818609E-02  0.9028614E-01
        3   -1    0    0  501    0  0.00000000000E+00  0.00000000000E+00  0.36959910712E+03  0.36959912092E+03  0.10100000352E+00 0. -1.
       -3   -1    0    0    0  501  0.00000000000E+00  0.00000000000E+00 -0.11452410124E+04  0.11452410169E+04  0.10100000352E+00 0.  1.
    10030    2    1    2    0    0  0.00000000000E+00  0.00000000000E+00 -0.77564190531E+03  0.15148401378E+04  0.13011995534E+04 0.  0.
        4    1    3    3  502    0  0.53226220215E+03  0.34114667563E+03 -0.20899649732E+03  0.66585678259E+03  0.12699999809E+01 0. -1.
       -4    1    3    3    0  502 -0.53226220215E+03 -0.34114667563E+03 -0.56664540799E+03  0.84898335521E+03  0.12699999809E+01 0.  1.
</event>
<event>
 5   0  0.2334946E-03  0.1301572E+04  0.7818609E-02  0.9028319E-01
        2   -1    0    0  501    0  0.00000000000E+00  0.00000000000E+00  0.74821016295E+03  0.74821016296E+03  0.25500000920E-02 0. -1.
       -2   -1    0    0    0  501  0.00000000000E+00  0.00000000000E+00 -0.56604764261E+03  0.56604764262E+03  0.25500000920E-02 0.  1.
    10030    2    1    2    0    0  0.00000000000E+00  0.00000000000E+00  0.18216252034E+03  0.13142578056E+04  0.13015722783E+04 0.  0.
        1    1    3    3  502    0 -0.35476289399E+03 -0.54410545091E+03  0.13166183549E+03  0.66275356778E+03  0.50400001928E-02 0. -1.
       -1    1    3    3    0  502  0.35476289399E+03  0.54410545091E+03  0.50500684853E+02  0.65150423779E+03  0.50400001928E-02 0.  1.
</event>
<event>
 5   0  0.1310461E-03  0.1302696E+04  0.7818609E-02  0.9027430E-01
        1   -1    0    0  501    0  0.00000000000E+00  0.00000000000E+00  0.49445998807E+03  0.49445998809E+03  0.50400001928E-02 0.  1.
       -1   -1    0    0    0  501  0.00000000000E+00  0.00000000000E+00 -0.85801460747E+03  0.85801460748E+03  0.50400001928E-02 0. -1.
    10030    2    1    2    0    0  0.00000000000E+00  0.00000000000E+00 -0.36355461940E+03  0.13524745956E+04  0.13026955018E+04 0.  0.
        4    1    3    3  502    0 -0.54495952718E+03  0.28317831504E+03 -0.40705129896E+03  0.73679251982E+03  0.12699999809E+01 0. -1.
       -4    1    3    3    0  502  0.54495952718E+03 -0.28317831504E+03  0.43496679563E+02  0.61568207575E+03  0.12699999809E+01 0.  1.
</event>
<event>
 5   0  0.1324721E-03  0.1320585E+04  0.7818609E-02  0.9013398E-01
       -1   -1    0    0    0  501  0.00000000000E+00  0.00000000000E+00  0.45996199403E+03  0.45996199405E+03  0.50400001928E-02 0. -1.
        1   -1    0    0  501    0  0.00000000000E+00  0.00000000000E+00 -0.94787457713E+03  0.94787457715E+03  0.50400001928E-02 0.  1.
    10030    2    1    2    0    0  0.00000000000E+00  0.00000000000E+00 -0.48791258311E+03  0.14078365712E+04  0.13205851440E+04 0.  0.
        1    1    3    3  502    0 -0.41101025064E+03 -0.36772723453E+03  0.14312197257E+03  0.56976893931E+03  0.50400001928E-02 0. -1.
       -1    1    3    3    0  502  0.41101025064E+03  0.36772723453E+03 -0.63103455568E+03  0.83806763189E+03  0.50400001928E-02 0.  1.
</event>
<event>
 5   0  0.1346593E-03  0.1286902E+04  0.7818609E-02  0.9040017E-01
        1   -1    0    0  501    0  0.00000000000E+00  0.00000000000E+00  0.17059730118E+04  0.17059730118E+04  0.50400001928E-02 0. -1.
       -1   -1    0    0    0  501  0.00000000000E+00  0.00000000000E+00 -0.24269372688E+03  0.24269372694E+03  0.50400001928E-02 0.  1.
    10030    2    1    2    0    0  0.00000000000E+00  0.00000000000E+00  0.14632792849E+04  0.19486667387E+04  0.12869016252E+04 0.  0.
        2    1    3    3  502    0 -0.30705266992E+03  0.23823706361E+01  0.15878727557E+04  0.16172899882E+04  0.25500000920E-02 0. -1.
       -2    1    3    3    0  502  0.30705266992E+03 -0.23823706361E+01 -0.12459347079E+03  0.33137675049E+03  0.25500000920E-02 0.  1.
</event>
<event>
 5   0  0.2334946E-03  0.1292864E+04  0.7818609E-02  0.9035243E-01
        2   -1    0    0  501    0  0.00000000000E+00  0.00000000000E+00  0.24725545281E+04  0.24725545281E+04  0.25500000920E-02 0. -1.
       -2   -1    0    0    0  501  0.00000000000E+00  0.00000000000E+00 -0.16900506163E+03  0.16900506165E+03  0.25500000920E-02 0.  1.
    10030    2    1    2    0    0  0.00000000000E+00  0.00000000000E+00  0.23035494665E+04  0.26415595898E+04  0.12928638450E+04 0.  0.
        1    1    3    3  502    0  0.49442562861E+02  0.10462401172E+03 -0.14767060604E+03  0.18760959134E+03  0.50400001928E-02 0.  1.
       -1    1    3    3    0  502 -0.49442562861E+02 -0.10462401172E+03  0.24512200725E+04  0.24539499984E+04  0.50400001928E-02 0. -1.
</event>
<event>
 5   0  0.2312105E-03  0.1241947E+04  0.7818609E-02  0.9076912E-01
        2   -1    0    0  501    0  0.00000000000E+00  0.00000000000E+00  0.86859914398E+03  0.86859914399E+03  0.25500000920E-02 0.  1.
       -2   -1    0    0    0  501  0.00000000000E+00  0.00000000000E+00 -0.44394280076E+03  0.44394280077E+03  0.25500000920E-02 0. -1.
    10030    2    1    2    0    0  0.00000000000E+00  0.00000000000E+00  0.42465634322E+03  0.13125419448E+04  0.12419474010E+04 0.  0.
        5    1    3    3  502    0  0.46414141370E+03 -0.96884109043E+02 -0.21142779109E+03  0.51917009095E+03  0.46999998093E+01 0. -1.
       -5    1    3    3    0  502 -0.46414141370E+03  0.96884109043E+02  0.63608413431E+03  0.79337185380E+03  0.46999998093E+01 0.  1.
</event>
<event>
 5   0  0.1387622E-03  0.1291302E+04  0.7818609E-02  0.9036491E-01
       -1   -1    0    0    0  501  0.00000000000E+00  0.00000000000E+00  0.24426271046E+03  0.24426271051E+03  0.50400001928E-02 0.  1.
        1   -1    0    0  501    0  0.00000000000E+00  0.00000000000E+00 -0.17066260183E+04  0.17066260183E+04  0.50400001928E-02 0. -1.
    10030    2    1    2    0    0  0.00000000000E+00  0.00000000000E+00 -0.14623633078E+04  0.19508887288E+04  0.12913018191E+04 0.  0.
        3    1    3    3  502    0 -0.45305372750E+03  0.28999866873E+03 -0.19170362952E+03  0.57105796522E+03  0.10100000352E+00 0.  1.
       -3    1    3    3    0  502  0.45305372750E+03 -0.28999866873E+03 -0.12706596783E+04  0.13798307636E+04  0.10100000352E+00 0. -1.
</event>
<event>
 5   0  0.2401211E-03  0.1227719E+04  0.7818609E-02  0.9088935E-01
        2   -1    0    0  501    0  0.00000000000E+00  0.00000000000E+00  0.72995622185E+03  0.72995622186E+03  0.25500000920E-02 0.  1.
       -2   -1    0    0    0  501  0.00000000000E+00  0.00000000000E+00 -0.51622723480E+03  0.51622723481E+03  0.25500000920E-02 0. -1.
    10030    2    1    2    0    0  0.00000000000E+00  0.00000000000E+00  0.21372898705E+03  0.12461834567E+04  0.12277186680E+04 0.  0.
        4    1    3    3  502    0 -0.10392516854E+03 -0.72093010829E+02 -0.50285590638E+03  0.51852050909E+03  0.12699999809E+01 0. -1.
       -4    1    3    3    0  502  0.10392516854E+03  0.72093010829E+02  0.71658489344E+03  0.72766294757E+03  0.12699999809E+01 0.  1.
</event>
<event>
 5   0  0.1310461E-03  0.1331807E+04  0.7818609E-02  0.9004716E-01
       -1   -1    0    0    0  501  0.00000000000E+00  0.00000000000E+00  0.44537288276E+03  0.44537288279E+03  0.50400001928E-02 0.  1.
        1   -1    0    0  501    0  0.00000000000E+00  0.00000000000E+00 -0.99563147822E+03  0.99563147823E+03  0.50400001928E-02 0. -1.
    10030    2    1    2    0    0  0.00000000000E+00  0.00000000000E+00 -0.55025859546E+03  0.14410043610E+04  0.13318066852E+04 0.  0.
        4    1    3    3  502    0  0.36970461454E-01  0.32267051562E+03 -0.90539262970E+03  0.96117308006E+03  0.12699999809E+01 0. -1.
       -4    1    3    3    0  502 -0.36970461454E-01 -0.32267051562E+03  0.35513403424E+03  0.47983128097E+03  0.12699999809E+01 0.  1.
</event>
<event>
 5   0  0.1332630E-03  0.1293982E+04  0.7818609E-02  0.9034351E-01
       -1   -1    0    0    0  501  0.00000000000E+00  0.00000000000E+00  0.10490310222E+04  0.10490310222E+04  0.50400001928E-02 0.  1.
        1   -1    0    0  501    0  0.00000000000E+00  0.00000000000E+00 -0.39903218732E+03  0.39903218735E+03  0.50400001928E-02 0. -1.
    10030    2    1    2    0    0  0.00000000000E+00  0.00000000000E+00  0.64999883485E+03  0.14480632095E+04  0.12939816743E+04 0.  0.
        5    1    3    3  502    0 -0.35400444055E+03 -0.26853656416E+02  0.93026803315E+03  0.99572132963E+03  0.46999998093E+01 0.  1.
       -5    1    3    3    0  502  0.35400444055E+03  0.26853656416E+02 -0.28026919830E+03  0.45234187989E+03  0.46999998093E+01 0. -1.
</event>
<event>
 5   0  0.1346593E-03  0.1321044E+04  0.7818609E-02  0.9013042E-01
       -1   -1    0    0    0  501  0.00000000000E+00  0.00000000000E+00  0.30043255236E+03  0.30043255240E+03  0.50400001928E-02 0. -1.
        1   -1    0    0  501    0  0.00000000000E+00  0.00000000000E+00 -0.14522029007E+04  0.14522029007E+04  0.50400001928E-02 0.  1.
    10030    2    1    2    0    0  0.00000000000E+00  0.00000000000E+00 -0.11517703483E+04  0.17526354531E+04  0.13210435633E+04 0.  0.
        2    1    3    3  502    0  0.30510716055E+03  0.38433456763E+01 -0.13530942957E+04  0.13870722129E+04  0.25500000920E-02 0.  1.
       -2    1    3    3    0  502 -0.30510716055E+03 -0.38433456763E+01  0.20132394743E+03  0.36556324014E+03  0.25500000920E-02 0. -1.
</event>
<event>
 5   0  0.1346593E-03  0.1300981E+04  0.7818609E-02  0.9028788E-01
        1   -1    0    0  501    0  0.00000000000E+00  0.00000000000E+00  0.93561715572E+03  0.93561715574E+03  0.50400001928E-02 0. -1.
       -1   -1    0    0    0  501  0.00000000000E+00  0.00000000000E+00 -0.45225538556E+03  0.45225538558E+03  0.50400001928E-02 0.  1.
    10030    2    1    2    0    0  0.00000000000E+00  0.00000000000E+00  0.48336177017E+03  0.13878725413E+04  0.13009810107E+04 0.  0.
        2    1    3    3  502    0 -0.64803155015E+03 -0.28324398867E+02  0.29384170779E+03  0.71210259851E+03  0.25500000920E-02 0. -1.
       -2    1    3    3    0  502  0.64803155015E+03  0.28324398867E+02  0.18952006238E+03  0.67576994281E+03  0.25500000920E-02 0.  1.
</event>
<event>
 5   0  0.1332630E-03  0.1315287E+04  0.7818609E-02  0.9017530E-01
        1   -1    0    0  501    0  0.00000000000E+00  0.00000000000E+00  0.13019222856E+04  0.13019222856E+04  0.50400001928E-02 0.  1.
       -1   -1    0    0    0  501  0.00000000000E+00  0.00000000000E+00 -0.33219714653E+03  0.33219714657E+03  0.50400001928E-02 0. -1.
    10030    2    1    2    0    0  0.00000000000E+00  0.00000000000E+00  0.96972513910E+03  0.16341194322E+04  0.13152868407E+04 0.  0.
        5    1    3    3  502    0 -0.56177405708E+03 -0.28859600032E+03  0.71258241117E+03  0.95219405864E+03  0.46999998093E+01 0.  1.
       -5    1    3    3    0  502  0.56177405708E+03  0.28859600032E+03  0.25714272793E+03  0.68192537358E+03  0.46999998093E+01 0. -1.
</event>
<event>
 5   0  0.1332630E-03  0.1286924E+04  0.7818609E-02  0.9039999E-01
        1   -1    0    0  501    0  0.00000000000E+00  0.00000000000E+00  0.83077489281E+03  0.83077489283E+03  0.50400001928E-02 0.  1.
       -1   -1    0    0    0  501  0.00000000000E+00  0.00000000000E+00 -0.49838215276E+03  0.49838215278E+03  0.50400001928E-02 0. -1.
    10030    2    1    2    0    0  0.00000000000E+00  0.00000000000E+00  0.33239274005E+03  0.13291570456E+04  0.12869240530E+04 0.  0.
        5    1    3    3  502    0  0.70426515621E+02  0.25080004982E+03  0.77385865029E+03  0.81654140110E+03  0.46999998093E+01 0.  1.
       -5    1    3    3    0  502 -0.70426515621E+02 -0.25080004982E+03 -0.44146591024E+03  0.51261564450E+03  0.46999998093E+01 0. -1.
</event>
<event>
 5   0  0.1346593E-03  0.1296276E+04  0.7818609E-02  0.9032524E-01
       -1   -1    0    0    0  501  0.00000000000E+00  0.00000000000E+00  0.27068521737E+03  0.27068521741E+03  0.50400001928E-02 0.  1.
        1   -1    0    0  501    0  0.00000000000E+00  0.00000000000E+00 -0.15519237645E+04  0.15519237645E+04  0.50400001928E-02 0. -1.
    10030    2    1    2    0    0  0.00000000000E+00  0.00000000000E+00 -0.12812385471E+04  0.18226089819E+04  0.12962759299E+04 0.  0.
        2    1    3    3  502    0  0.35592440766E+03 -0.39806586274E+03 -0.11571226577E+04  0.12743906230E+04  0.25500000920E-02 0. -1.
       -2    1    3    3    0  502 -0.35592440766E+03  0.39806586274E+03 -0.12411588945E+03  0.54821835893E+03  0.25500000920E-02 0.  1.
</event>
<event>
 5   0  0.1346593E-03  0.1290311E+04  0.7818609E-02  0.9037284E-01
       -1   -1    0    0    0  501  0.00000000000E+00  0.00000000000E+00  0.72879870433E+03  0.72879870435E+03  0.50400001928E-02 0. -1.
        1   -1    0    0  501    0  0.00000000000E+00  0.00000000000E+00 -0.57111188394E+03  0.57111188396E+03  0.50400001928E-02 0.  1.
    10030    2    1    2    0    0  0.00000000000E+00  0.00000000000E+00  0.15768682039E+03  0.12999105883E+04  0.12903109719E+04 0.  0.
        2    1    3    3  502    0  0.61383324100E+03 -0.12996003753E+02  0.27847277292E+03  0.67417151314E+03  0.25500000920E-02 0. -1.
       -2    1    3    3    0  502 -0.61383324100E+03  0.12996003753E+02 -0.12078595253E+03  0.62573907517E+03  0.25500000920E-02 0.  1.
</event>
<event>
 5   0  0.9131250E-04  0.1319397E+04  0.7818609E-02  0.9014323E-01
        4   -1    0    0  501    0  0.00000000000E+00  0.00000000000E+00  0.10597297025E+04  0.10597304635E+04  0.12699999809E+01 0.  1.
       -4   -1    0    0    0  501  0.00000000000E+00  0.00000000000E+00 -0.41067086450E+03  0.41067282823E+03  0.12699999809E+01 0. -1.
    10030    2    1    2    0    0  0.00000000000E+00  0.00000000000E+00  0.64905883798E+03  0.14704032917E+04  0.13193970082E+04 0.  0.
        4    1    3    3  502    0  0.94944066562E+02  0.64625275261E+03  0.22151949421E+03  0.68973146604E+03  0.12699999809E+01 0. -1.
       -4    1    3    3    0  502 -0.94944066562E+02 -0.64625275261E+03  0.42753934378E+03  0.78067182568E+03  0.12699999809E+01 0.  1.
</event>
<event>
 5   0  0.2334946E-03  0.1309252E+04  0.7818609E-02  0.9022260E-01
        2   -1    0    0  501    0  0.00000000000E+00  0.00000000000E+00  0.59889894524E+03  0.59889894525E+03  0.25500000920E-02 0. -1.
       -2   -1    0    0    0  501  0.00000000000E+00  0.00000000000E+00 -0.71553849797E+03  0.71553849798E+03  0.25500000920E-02 0.  1.
    10030    2    1    2    0    0  0.00000000000E+00  0.00000000000E+00 -0.11663955273E+03  0.13144374432E+04  0.13092520792E+04 0.  0.
        1    1    3    3  502    0 -0.28505751179E+02 -0.12508762975E+01 -0.71491390045E+03  0.71548307292E+03  0.50400001928E-02 0.  1.
       -1    1    3    3    0  502  0.28505751179E+02  0.12508762975E+01  0.59827434772E+03  0.59895437031E+03  0.50400001928E-02 0. -1.
</event>
<event>
 5   0  0.1332630E-03  0.1270558E+04  0.7818609E-02  0.9053244E-01
        1   -1    0    0  501    0  0.00000000000E+00  0.00000000000E+00  0.90320114447E+03  0.90320114449E+03  0.50400001928E-02 0. -1.
       -1   -1    0    0    0  501  0.00000000000E+00  0.00000000000E+00 -0.44683226486E+03  0.44683226489E+03  0.50400001928E-02 0.  1.
    10030    2    1    2    0    0  0.00000000000E+00  0.00000000000E+00  0.45636887961E+03  0.13500334094E+04  0.12705580082E+04 0.  0.
        5    1    3    3  502    0  0.62767774064E+03 -0.97457372910E+02  0.21867846790E+03  0.67180328070E+03  0.46999998093E+01 0. -1.
       -5    1    3    3    0  502 -0.62767774064E+03  0.97457372910E+02  0.23769041171E+03  0.67823012868E+03  0.46999998093E+01 0.  1.
</event>
<event>
 5   0  0.1346593E-03  0.1311027E+04  0.7818609E-02  0.9020866E-01
        1   -1    0    0  501    0  0.00000000000E+00  0.00000000000E+00  0.93439028156E+03  0.93439028157E+03  0.50400001928E-02 0. -1.
       -1   -1    0    0    0  501  0.00000000000E+00  0.00000000000E+00 -0.45986990159E+03  0.45986990161E+03  0.50400001928E-02 0.  1.
    10030    2    1    2    0    0  0.00000000000E+00  0.00000000000E+00  0.47452037997E+03  0.13942601832E+04  0.13110270277E+04 0.  0.
        2    1    3    3  502    0 -0.17826449674E+02 -0.37851974012E+03  0.80610444848E+03  0.89072967719E+03  0.25500000920E-02 0. -1.
       -2    1    3    3    0  502  0.17826449674E+02  0.37851974012E+03 -0.33158406851E+03  0.50353050599E+03  0.25500000920E-02 0.  1.
</event>
<event>
 5   0  0.1324721E-03  0.1230626E+04  0.7818609E-02  0.9086464E-01
        1   -1    0    0  501    0  0.00000000000E+00  0.00000000000E+00  0.77765113471E+03  0.77765113473E+03  0.50400001928E-02 0. -1.
       -1   -1    0    0    0  501  0.00000000000E+00  0.00000000000E+00 -0.48686385652E+03  0.48686385654E+03  0.50400001928E-02 0.  1.
    10030    2    1    2    0    0  0.00000000000E+00  0.00000000000E+00  0.29078727820E+03  0.12645149913E+04  0.12306262316E+04 0.  0.
        1    1    3    3  502    0 -0.13076488396E+03 -0.42850460010E+03  0.57878392879E+03  0.73191972472E+03  0.50400001928E-02 0. -1.
       -1    1    3    3    0  502  0.13076488396E+03  0.42850460010E+03 -0.28799665059E+03  0.53259526656E+03  0.50400001928E-02 0.  1.
</event>
<event>
 5   0  0.2312105E-03  0.1303066E+04  0.7818609E-02  0.9027137E-01
       -2   -1    0    0    0  501  0.00000000000E+00  0.00000000000E+00  0.36368027396E+03  0.36368027397E+03  0.25500000920E-02 0. -1.
        2   -1    0    0  501    0  0.00000000000E+00  0.00000000000E+00 -0.11672215105E+04  0.11672215105E+04  0.25500000920E-02 0.  1.
    10030    2    1    2    0    0  0.00000000000E+00  0.00000000000E+00 -0.80354123656E+03  0.15309017845E+04  0.13030662895E+04 0.  0.
        5    1    3    3  502    0 -0.49163514685E+03  0.40123915348E+03 -0.22840474191E+03  0.67445444029E+03  0.46999998093E+01 0. -1.
       -5    1    3    3    0  502  0.49163514685E+03 -0.40123915348E+03 -0.57513649465E+03  0.85644734420E+03  0.46999998093E+01 0.  1.
</event>
<event>
 5   0  0.2312105E-03  0.1292450E+04  0.7818609E-02  0.9035574E-01
       -2   -1    0    0    0  501  0.00000000000E+00  0.00000000000E+00  0.79742941741E+03  0.79742941742E+03  0.25500000920E-02 0.  1.
        2   -1    0    0  501    0  0.00000000000E+00  0.00000000000E+00 -0.52369133272E+03  0.52369133273E+03  0.25500000920E-02 0. -1.
    10030    2    1    2    0    0  0.00000000000E+00  0.00000000000E+00  0.27373808469E+03  0.13211207501E+04  0.12924501915E+04 0.  0.
        5    1    3    3  502    0  0.17581515192E+03  0.60940086862E+03  0.10413803871E+02  0.63435867112E+03  0.46999998093E+01 0.  1.
       -5    1    3    3    0  502 -0.17581515192E+03 -0.60940086862E+03  0.26332428082E+03  0.68676207902E+03  0.46999998093E+01 0. -1.
</event>
<event>
 5   0  0.2401211E-03  0.1292940E+04  0.7818609E-02  0.9035183E-01
        2   -1    0    0  501    0  0.00000000000E+00  0.00000000000E+00  0.23658586000E+04  0.23658586000E+04  0.25500000920E-02 0.  1.
       -2   -1    0    0    0  501  0.00000000000E+00  0.00000000000E+00 -0.17664757071E+03  0.17664757072E+03  0.25500000920E-02 0. -1.
    10030    2    1    2    0    0  0.00000000000E+00  0.00000000000E+00  0.21892110293E+04  0.25425061707E+04  0.12929395568E+04 0.  0.
        4    1    3    3  502    0  0.18813531587E+03 -0.46220033474E+03  0.19027619263E+04  0.19671117425E+04  0.12699999809E+01 0.  1.
       -4    1    3    3    0  502 -0.18813531587E+03  0.46220033474E+03  0.28644910302E+03  0.57539442822E+03  0.12699999809E+01 0. -1.
</event>
<event>
 5   0  0.1332630E-03  0.1302519E+04  0.7818609E-02  0.9027570E-01
       -1   -1    0    0    0  501  0.00000000000E+00  0.00000000000E+00  0.39108432282E+03  0.39108432286E+03  0.50400001928E-02 0.  1.
        1   -1    0    0  501    0  0.00000000000E+00  0.00000000000E+00 -0.10845205136E+04  0.10845205136E+04  0.50400001928E-02 0. -1.
    10030    2    1    2    0    0  0.00000000000E+00  0.00000000000E+00 -0.69343619081E+03  0.14756048365E+04  0.13025190528E+04 0.  0.
        5    1    3    3  502    0  0.55236380925E+03 -0.10861027447E+03  0.24230371429E+02  0.56348129551E+03  0.46999998093E+01 0.  1.
       -5    1    3    3    0  502 -0.55236380925E+03  0.10861027447E+03 -0.71766656224E+03  0.91212354100E+03  0.46999998093E+01 0. -1.
</event>
<event>
 5   0  0.2361043E-03  0.1297685E+04  0.7818609E-02  0.9031403E-01
        2   -1    0    0  501    0  0.00000000000E+00  0.00000000000E+00  0.69674704013E+03  0.69674704014E+03  0.25500000920E-02 0. -1.
       -2   -1    0    0    0  501  0.00000000000E+00  0.00000000000E+00 -0.60423180125E+03  0.60423180126E+03  0.25500000920E-02 0.  1.
    10030    2    1    2    0    0  0.00000000000E+00  0.00000000000E+00  0.92515238883E+02  0.13009788414E+04  0.12976851992E+04 0.  0.
        2    1    3    3  502    0  0.45150176178E+03  0.21118649141E+03  0.46269502852E+03  0.68010312782E+03  0.25500000920E-02 0. -1.
       -2    1    3    3    0  502 -0.45150176178E+03 -0.21118649141E+03 -0.37017978963E+03  0.62087571358E+03  0.25500000920E-02 0.  1.
</event>
<event>
 5   0  0.1346593E-03  0.1307036E+04  0.7818609E-02  0.9024004E-01
       -1   -1    0    0    0  501  0.00000000000E+00  0.00000000000E+00  0.79846758853E+03  0.79846758855E+03  0.50400001928E-02 0.  1.
        1   -1    0    0  501    0  0.00000000000E+00  0.00000000000E+00 -0.53488208912E+03  0.53488208914E+03  0.50400001928E-02 0. -1.
    10030    2    1    2    0    0  0.00000000000E+00  0.00000000000E+00  0.26358549941E+03  0.13333496777E+04  0.13070363604E+04 0.  0.
        2    1    3    3  502    0 -0.48977018125E+02  0.55082165291E+03  0.48706063018E+03  0.73690657420E+03  0.25500000920E-02 0.  1.
       -2    1    3    3    0  502  0.48977018125E+02 -0.55082165291E+03 -0.22347513077E+03  0.59644310349E+03  0.25500000920E-02 0. -1.
</event>
<event>
 5   0  0.2361043E-03  0.1297731E+04  0.7818609E-02  0.9031366E-01
        2   -1    0    0  501    0  0.00000000000E+00  0.00000000000E+00  0.17822558513E+04  0.17822558513E+04  0.25500000920E-02 0. -1.
       -2   -1    0    0    0  501  0.00000000000E+00  0.00000000000E+00 -0.23623232560E+03  0.23623232562E+03  0.25500000920E-02 0.  1.
    10030    2    1    2    0    0  0.00000000000E+00  0.00000000000E+00  0.15460235257E+04  0.20184881769E+04  0.12977310116E+04 0.  0.
        2    1    3    3  502    0 -0.13931885382E+03  0.35016208883E+03  0.15945847081E+04  0.16385126252E+04  0.25500000920E-02 0. -1.
       -2    1    3    3    0  502  0.13931885382E+03 -0.35016208883E+03 -0.48561182421E+02  0.37997555175E+03  0.25500000920E-02 0.  1.
</event>
<event>
 5   0  0.1332630E-03  0.1299395E+04  0.7818609E-02  0.9030045E-01
        1   -1    0    0  501    0  0.00000000000E+00  0.00000000000E+00  0.74597724350E+03  0.74597724351E+03  0.50400001928E-02 0.  1.
       -1   -1    0    0    0  501  0.00000000000E+00  0.00000000000E+00 -0.56584434072E+03  0.56584434075E+03  0.50400001928E-02 0. -1.
    10030    2    1    2    0    0  0.00000000000E+00  0.00000000000E+00  0.18013290277E+03  0.13118215843E+04  0.12993952464E+04 0.  0.
        5    1    3    3  502    0 -0.32655476960E+03 -0.50672300408E+03  0.33461985289E+03  0.68949166519E+03  0.46999998093E+01 0.  1.
       -5    1    3    3    0  502  0.32655476960E+03  0.50672300408E+03 -0.15448695012E+03  0.62232991907E+03  0.46999998093E+01 0. -1.
</event>
<event>
 5   0  0.2401211E-03  0.1411334E+04  0.7818609E-02  0.8945655E-01
        2   -1    0    0  501    0  0.00000000000E+00  0.00000000000E+00  0.10738615835E+04  0.10738615835E+04  0.25500000920E-02 0.  1.
       -2   -1    0    0    0  501  0.00000000000E+00  0.00000000000E+00 -0.46371514216E+03  0.46371514217E+03  0.25500000920E-02 0. -1.
    10030    2    1    2    0    0  0.00000000000E+00  0.00000000000E+00  0.61014644135E+03  0.15375767257E+04  0.14113339461E+04 0.  0.
        4    1    3    3  502    0  0.20388732099E+02 -0.13092507698E+03 -0.45003944916E+03  0.46914197732E+03  0.12699999809E+01 0. -1.
       -4    1    3    3    0  502 -0.20388732099E+02  0.13092507698E+03  0.10601858905E+04  0.10684347484E+04  0.12699999809E+01 0.  1.
</event>
<event>
 5   0  0.1324721E-03  0.1262200E+04  0.7818609E-02  0.9060090E-01
       -1   -1    0    0    0  501  0.00000000000E+00  0.00000000000E+00  0.86457026978E+03  0.86457026979E+03  0.50400001928E-02 0. -1.
        1   -1    0    0  501    0  0.00000000000E+00  0.00000000000E+00 -0.46067677756E+03  0.46067677758E+03  0.50400001928E-02 0.  1.
    10030    2    1    2    0    0  0.00000000000E+00  0.00000000000E+00  0.40389349222E+03  0.13252470474E+04  0.12622003738E+04 0.  0.
        1    1    3    3  502    0 -0.39933893794E+03  0.47613639452E+03  0.31748890405E+03  0.69783712840E+03  0.50400001928E-02 0. -1.
       -1    1    3    3    0  502  0.39933893794E+03 -0.47613639452E+03  0.86404588169E+02  0.62740991898E+03  0.50400001928E-02 0.  1.
</event>
<event>
 5   0  0.1332630E-03  0.1286531E+04  0.7818609E-02  0.9040315E-01
       -1   -1    0    0    0  501  0.00000000000E+00  0.00000000000E+00  0.35870509366E+03  0.35870509369E+03  0.50400001928E-02 0. -1.
        1   -1    0    0  501    0  0.00000000000E+00  0.00000000000E+00 -0.11535665791E+04  0.11535665791E+04  0.50400001928E-02 0.  1.
    10030    2    1    2    0    0  0.00000000000E+00  0.00000000000E+00 -0.79486148548E+03  0.15122716728E+04  0.12865305404E+04 0.  0.
        5    1    3    3  502    0  0.46322364253E+03 -0.36852045535E+02  0.12539874634E+03  0.48133268312E+03  0.46999998093E+01 0. -1.
       -5    1    3    3    0  502 -0.46322364253E+03  0.36852045535E+02 -0.92026023182E+03  0.10309389897E+04  0.46999998093E+01 0.  1.
</event>
<event>
 5   0  0.1310461E-03  0.1299591E+04  0.7818609E-02  0.9029890E-01
       -1   -1    0    0    0  501  0.00000000000E+00  0.00000000000E+00  0.10401180284E+04  0.10401180285E+04  0.50400001928E-02 0. -1.
        1   -1    0    0  501    0  0.00000000000E+00  0.00000000000E+00 -0.40594826106E+03  0.40594826109E+03  0.50400001928E-02 0.  1.
    10030    2    1    2    0    0  0.00000000000E+00  0.00000000000E+00  0.63416976739E+03  0.14460662895E+04  0.12995908663E+04 0.  0.
        4    1    3    3  502    0  0.12466558638E+03 -0.62490426808E+03  0.45864681587E+03  0.78511487522E+03  0.12699999809E+01 0. -1.
       -4    1    3    3    0  502 -0.12466558638E+03  0.62490426808E+03  0.17552295152E+03  0.66095141432E+03  0.12699999809E+01 0.  1.
</event>
<event>
 5   0  0.2361043E-03  0.1294815E+04  0.7818609E-02  0.9033687E-01
        2   -1    0    0  501    0  0.00000000000E+00  0.00000000000E+00  0.88385979559E+03  0.88385979559E+03  0.25500000920E-02 0.  1.
       -2   -1    0    0    0  501  0.00000000000E+00  0.00000000000E+00 -0.47421174741E+03  0.47421174742E+03  0.25500000920E-02 0. -1.
    10030    2    1    2    0    0  0.00000000000E+00  0.00000000000E+00  0.40964804818E+03  0.13580715430E+04  0.12948153508E+04 0.  0.
        2    1    3    3  502    0 -0.55836248275E+02  0.60606818748E+02  0.87833644659E+03  0.88219373525E+03  0.25500000920E-02 0.  1.
       -2    1    3    3    0  502  0.55836248275E+02 -0.60606818748E+02 -0.46868839841E+03  0.47587780775E+03  0.25500000920E-02 0. -1.
</event>
<event>
 5   0  0.2478236E-03  0.1360245E+04  0.7818609E-02  0.8983109E-01
       -2   -1    0    0    0  501  0.00000000000E+00  0.00000000000E+00  0.38450073170E+03  0.38450073171E+03  0.25500000920E-02 0.  1.
        2   -1    0    0  501    0  0.00000000000E+00  0.00000000000E+00 -0.12030319962E+04  0.12030319962E+04  0.25500000920E-02 0. -1.
    10030    2    1    2    0    0  0.00000000000E+00  0.00000000000E+00 -0.81853126447E+03  0.15875327279E+04  0.13602450997E+04 0.  0.
        3    1    3    3  502    0  0.34627561387E+01 -0.66077346263E+02 -0.11992665460E+04  0.12010905315E+04  0.10100000352E+00 0. -1.
       -3    1    3    3    0  502 -0.34627561387E+01  0.66077346263E+02  0.38073528150E+03  0.38644219639E+03  0.10100000352E+00 0.  1.
</event>
<event>
 5   0  0.1332630E-03  0.1331440E+04  0.7818609E-02  0.9004998E-01
       -1   -1    0    0    0  501  0.00000000000E+00  0.00000000000E+00  0.18613098339E+03  0.18613098346E+03  0.50400001928E-02 0.  1.
        1   -1    0    0  501    0  0.00000000000E+00  0.00000000000E+00 -0.23810273274E+04  0.23810273274E+04  0.50400001928E-02 0. -1.
    10030    2    1    2    0    0  0.00000000000E+00  0.00000000000E+00 -0.21948963440E+04  0.25671583109E+04  0.13314397591E+04 0.  0.
        5    1    3    3  502    0  0.20946206343E+03 -0.47108113728E+03 -0.19094744419E+04  0.19778540210E+04  0.46999998093E+01 0. -1.
       -5    1    3    3    0  502 -0.20946206343E+03  0.47108113728E+03 -0.28542190212E+03  0.58930428993E+03  0.46999998093E+01 0.  1.
</event>
<event>
 5   0  0.2312105E-03  0.1241210E+04  0.7818609E-02  0.9077531E-01
       -2   -1    0    0    0  501  0.00000000000E+00  0.00000000000E+00  0.28355132922E+03  0.28355132923E+03  0.25500000920E-02 0.  1.
        2   -1    0    0  501    0  0.00000000000E+00  0.00000000000E+00 -0.13583095424E+04  0.13583095424E+04  0.25500000920E-02 0. -1.
    10030    2    1    2    0    0  0.00000000000E+00  0.00000000000E+00 -0.10747582132E+04  0.16418608717E+04  0.12412098554E+04 0.  0.
        5    1    3    3  502    0  0.22276514927E+03  0.90488037044E+02 -0.12941679978E+04  0.13163226402E+04  0.46999998093E+01 0. -1.
       -5    1    3    3    0  502 -0.22276514927E+03 -0.90488037044E+02  0.21940978459E+03  0.32553823147E+03  0.46999998093E+01 0.  1.
</event>
<event>
 5   0  0.2312105E-03  0.1301801E+04  0.7818609E-02  0.9028138E-01
        2   -1    0    0  501    0  0.00000000000E+00  0.00000000000E+00  0.18014668688E+04  0.18014668688E+04  0.25500000920E-02 0.  1.
       -2   -1    0    0    0  501  0.00000000000E+00  0.00000000000E+00 -0.23518141142E+03  0.23518141143E+03  0.25500000920E-02 0. -1.
    10030    2    1    2    0    0  0.00000000000E+00  0.00000000000E+00  0.15662854574E+04  0.20366482803E+04  0.13018010921E+04 0.  0.
        5    1    3    3  502    0  0.23914697829E+03 -0.46868480267E+02 -0.16108780166E+03  0.29216314194E+03  0.46999998093E+01 0. -1.
       -5    1    3    3    0  502 -0.23914697829E+03  0.46868480267E+02  0.17273732591E+04  0.17444851383E+04  0.46999998093E+01 0.  1.
</event>
<event>
 5   0  0.2312105E-03  0.1291175E+04  0.7818609E-02  0.9036593E-01
       -2   -1    0    0    0  501  0.00000000000E+00  0.00000000000E+00  0.40337442040E+03  0.40337442041E+03  0.25500000920E-02 0.  1.
        2   -1    0    0  501    0  0.00000000000E+00  0.00000000000E+00 -0.10332422927E+04  0.10332422927E+04  0.25500000920E-02 0. -1.
    10030    2    1    2    0    0  0.00000000000E+00  0.00000000000E+00 -0.62986787230E+03  0.14366167131E+04  0.12911754505E+04 0.  0.
        5    1    3    3  502    0 -0.44301765787E+03 -0.46147026072E+02  0.20500146058E+03  0.49034873512E+03  0.46999998093E+01 0.  1.
       -5    1    3    3    0  502  0.44301765787E+03  0.46147026072E+02 -0.83486933288E+03  0.94626797800E+03  0.46999998093E+01 0. -1.
</event>
<event>
 5   0  0.1310461E-03  0.1124495E+04  0.7818609E-02  0.9181641E-01
        1   -1    0    0  501    0  0.00000000000E+00  0.00000000000E+00  0.36794071008E+03  0.36794071012E+03  0.50400001928E-02 0.  1.
       -1   -1    0    0    0  501  0.00000000000E+00  0.00000000000E+00 -0.85916552183E+03  0.85916552184E+03  0.50400001928E-02 0. -1.
    10030    2    1    2    0    0  0.00000000000E+00  0.00000000000E+00 -0.49122481174E+03  0.12271062320E+04  0.11244945037E+04 0.  0.
        4    1    3    3  502    0  0.36623153868E+03  0.37525503540E+03 -0.46705439245E+03  0.70219890339E+03  0.12699999809E+01 0.  1.
       -4    1    3    3    0  502 -0.36623153868E+03 -0.37525503540E+03 -0.24170419298E+02  0.52490732857E+03  0.12699999809E+01 0. -1.
</event>
<event>
 5   0  0.2401211E-03  0.1319690E+04  0.7818609E-02  0.9014095E-01
       -2   -1    0    0    0  501  0.00000000000E+00  0.00000000000E+00  0.33659497344E+03  0.33659497345E+03  0.25500000920E-02 0.  1.
        2   -1    0    0  501    0  0.00000000000E+00  0.00000000000E+00 -0.12935287674E+04  0.12935287674E+04  0.25500000920E-02 0. -1.
    10030    2    1    2    0    0  0.00000000000E+00  0.00000000000E+00 -0.95693379396E+03  0.16301237409E+04  0.13196897834E+04 0.  0.
        4    1    3    3  502    0  0.29503659117E+03 -0.10647574858E+03  0.23861722675E+03  0.39411098559E+03  0.12699999809E+01 0.  1.
       -4    1    3    3    0  502 -0.29503659117E+03  0.10647574858E+03 -0.11955510207E+04  0.12360127553E+04  0.12699999809E+01 0. -1.
</event>
<event>
 5   0  0.1324721E-03  0.1307620E+04  0.7818609E-02  0.9023544E-01
        1   -1    0    0  501    0  0.00000000000E+00  0.00000000000E+00  0.53437289899E+03  0.53437289901E+03  0.50400001928E-02 0.  1.
       -1   -1    0    0    0  501  0.00000000000E+00  0.00000000000E+00 -0.79994255988E+03  0.79994255989E+03  0.50400001928E-02 0. -1.
    10030    2    1    2    0    0  0.00000000000E+00  0.00000000000E+00 -0.26556966089E+03  0.13343154589E+04  0.13076201662E+04 0.  0.
        1    1    3    3  502    0  0.58819747756E+03  0.24254559073E+03 -0.28640049278E+03  0.69773195317E+03  0.50400001928E-02 0.  1.
       -1    1    3    3    0  502 -0.58819747756E+03 -0.24254559073E+03  0.20830831896E+02  0.63658350573E+03  0.50400001928E-02 0. -1.
</event>
<event>
 5   0  0.9131250E-04  0.1298416E+04  0.7818609E-02  0.9030822E-01
        3   -1    0    0  501    0  0.00000000000E+00  0.00000000000E+00  0.46178180118E+03  0.46178181222E+03  0.10100000352E+00 0.  1.
       -3   -1    0    0    0  501  0.00000000000E+00  0.00000000000E+00 -0.91270584032E+03  0.91270584591E+03  0.10100000352E+00 0. -1.
    10030    2    1    2    0    0  0.00000000000E+00  0.00000000000E+00 -0.45092403914E+03  0.13744876581E+04  0.12984158938E+04 0.  0.
        5    1    3    3  502    0 -0.63449412145E+03 -0.49360139045E+02 -0.36114995718E+03  0.73175856336E+03  0.46999998093E+01 0. -1.
       -5    1    3    3    0  502  0.63449412145E+03  0.49360139045E+02 -0.89774081961E+02  0.64272909477E+03  0.46999998093E+01 0.  1.
</event>
<event>
 5   0  0.1324721E-03  0.1312171E+04  0.7818609E-02  0.9019969E-01
       -1   -1    0    0    0  501  0.00000000000E+00  0.00000000000E+00  0.52644867454E+03  0.52644867456E+03  0.50400001928E-02 0.  1.
        1   -1    0    0  501    0  0.00000000000E+00  0.00000000000E+00 -0.81764524933E+03  0.81764524935E+03  0.50400001928E-02 0. -1.
    10030    2    1    2    0    0  0.00000000000E+00  0.00000000000E+00 -0.29119657479E+03  0.13440939239E+04  0.13121711135E+04 0.  0.
        1    1    3    3  502    0  0.18150671849E+03 -0.29891347066E+01  0.50021173425E+03  0.53213288086E+03  0.50400001928E-02 0.  1.
       -1    1    3    3    0  502 -0.18150671849E+03  0.29891347066E+01 -0.79140830905E+03  0.81196104305E+03  0.50400001928E-02 0. -1.
</event>
<event>
 5   0  0.1346593E-03  0.1276720E+04  0.7818609E-02  0.9048233E-01
        1   -1    0    0  501    0  0.00000000000E+00  0.00000000000E+00  0.82319343155E+03  0.82319343156E+03  0.50400001928E-02 0.  1.
       -1   -1    0    0    0  501  0.00000000000E+00  0.00000000000E+00 -0.49502781916E+03  0.49502781918E+03  0.50400001928E-02 0. -1.
    10030    2    1    2    0    0  0.00000000000E+00  0.00000000000E+00  0.32816561239E+03  0.13182212507E+04  0.12767202500E+04 0.  0.
        2    1    3    3  502    0 -0.33365620426E+03 -0.34553358393E+03 -0.27004110483E+03  0.55103731141E+03  0.25500000920E-02 0. -1.
       -2    1    3    3    0  502  0.33365620426E+03  0.34553358393E+03  0.59820671721E+03  0.76718393934E+03  0.25500000920E-02 0.  1.
</event>
<event>
 5   0  0.2401211E-03  0.1233132E+04  0.7818609E-02  0.9084340E-01
       -2   -1    0    0    0  501  0.00000000000E+00  0.00000000000E+00  0.17298131832E+03  0.17298131834E+03  0.25500000920E-02 0. -1.
        2   -1    0    0  501    0  0.00000000000E+00  0.00000000000E+00 -0.21976585524E+04  0.21976585524E+04  0.25500000920E-02 0.  1.
    10030    2    1    2    0    0  0.00000000000E+00  0.00000000000E+00 -0.20246772341E+04  0.23706398708E+04  0.12331323913E+04 0.  0.
        4    1    3    3  502    0  0.36313525806E+03  0.19186050389E+03 -0.18964052035E+04  0.19403690312E+04  0.12699999809E+01 0.  1.
       -4    1    3    3    0  502 -0.36313525806E+03 -0.19186050389E+03 -0.12827203057E+03  0.43027083950E+03  0.12699999809E+01 0. -1.
</event>
<event>
 5   0  0.1310461E-03  0.1402909E+04  0.7818609E-02  0.8951715E-01
        1   -1    0    0  501    0  0.00000000000E+00  0.00000000000E+00  0.44769161078E+03  0.44769161081E+03  0.50400001928E-02 0. -1.
       -1   -1    0    0    0  501  0.00000000000E+00  0.00000000000E+00 -0.10990573239E+04  0.10990573239E+04  0.50400001928E-02 0.  1.
    10030    2    1    2    0    0  0.00000000000E+00  0.00000000000E+00 -0.65136571307E+03  0.15467489347E+04  0.14029094678E+04 0.  0.
        4    1    3    3  502    0  0.34792165646E+03 -0.37699250635E+03  0.20176460672E+03  0.55125620024E+03  0.12699999809E+01 0. -1.
       -4    1    3    3    0  502 -0.34792165646E+03  0.37699250635E+03 -0.85313031979E+03  0.99549273444E+03  0.12699999809E+01 0.  1.
</event>
<event>
 5   0  0.1324721E-03  0.1315047E+04  0.7818609E-02  0.9017717E-01
       -1   -1    0    0    0  501  0.00000000000E+00  0.00000000000E+00  0.82572813487E+03  0.82572813489E+03  0.50400001928E-02 0. -1.
        1   -1    0    0  501    0  0.00000000000E+00  0.00000000000E+00 -0.52358257938E+03  0.52358257941E+03  0.50400001928E-02 0.  1.
    10030    2    1    2    0    0  0.00000000000E+00  0.00000000000E+00  0.30214555549E+03  0.13493107143E+04  0.13150465646E+04 0.  0.
        1    1    3    3  502    0 -0.45892507434E+01  0.20399111981E+03  0.79242181776E+03  0.81826998935E+03  0.50400001928E-02 0. -1.
       -1    1    3    3    0  502  0.45892507434E+01 -0.20399111981E+03 -0.49027626227E+03  0.53104072495E+03  0.50400001928E-02 0.  1.
</event>
<event>
 5   0  0.2334946E-03  0.1296314E+04  0.7818609E-02  0.9032493E-01
        2   -1    0    0  501    0  0.00000000000E+00  0.00000000000E+00  0.58045697460E+03  0.58045697460E+03  0.25500000920E-02 0.  1.
       -2   -1    0    0    0  501  0.00000000000E+00  0.00000000000E+00 -0.72375295071E+03  0.72375295072E+03  0.25500000920E-02 0. -1.
    10030    2    1    2    0    0  0.00000000000E+00  0.00000000000E+00 -0.14329597612E+03  0.13042099253E+04  0.12963139251E+04 0.  0.
        1    1    3    3  502    0 -0.55671874488E+03  0.16919995648E+03 -0.35894481022E+03  0.68367080016E+03  0.50400001928E-02 0. -1.
       -1    1    3    3    0  502  0.55671874488E+03 -0.16919995648E+03  0.21564883411E+03  0.62053912516E+03  0.50400001928E-02 0.  1.
</event>
<event>
 5   0  0.2312105E-03  0.1301564E+04  0.7818609E-02  0.9028326E-01
        2   -1    0    0  501    0  0.00000000000E+00  0.00000000000E+00  0.72739990195E+03  0.72739990195E+03  0.25500000920E-02 0. -1.
       -2   -1    0    0    0  501  0.00000000000E+00  0.00000000000E+00 -0.58223396099E+03  0.58223396100E+03  0.25500000920E-02 0.  1.
    10030    2    1    2    0    0  0.00000000000E+00  0.00000000000E+00  0.14516594095E+03  0.13096338629E+04  0.13015635615E+04 0.  0.
        5    1    3    3  502    0  0.16112446449E+03  0.23051477610E+02 -0.56140507001E+03  0.58454273267E+03  0.46999998093E+01 0.  1.
       -5    1    3    3    0  502 -0.16112446449E+03 -0.23051477610E+02  0.70657101097E+03  0.72509113028E+03  0.46999998093E+01 0. -1.
</event>
<event>
 5   0  0.1310461E-03  0.1275655E+04  0.7818609E-02  0.9049097E-01
        1   -1    0    0  501    0  0.00000000000E+00  0.00000000000E+00  0.15978962285E+04  0.15978962285E+04  0.50400001928E-02 0. -1.
       -1   -1    0    0    0  501  0.00000000000E+00  0.00000000000E+00 -0.25459970286E+03  0.25459970291E+03  0.50400001928E-02 0.  1.
    10030    2    1    2    0    0  0.00000000000E+00  0.00000000000E+00  0.13432965256E+04  0.18524959314E+04  0.12756549769E+04 0.  0.
        4    1    3    3  502    0 -0.14595768092E+03  0.62083050035E+03  0.65801486798E+03  0.91636201043E+03  0.12699999809E+01 0.  1.
       -4    1    3    3    0  502  0.14595768092E+03 -0.62083050035E+03  0.68528165767E+03  0.93613392099E+03  0.12699999809E+01 0. -1.
</event>
<event>
 5   0  0.2401211E-03  0.1302497E+04  0.7818609E-02  0.9027587E-01
        2   -1    0    0  501    0  0.00000000000E+00  0.00000000000E+00  0.83513158750E+03  0.83513158751E+03  0.25500000920E-02 0. -1.
       -2   -1    0    0    0  501  0.00000000000E+00  0.00000000000E+00 -0.50785361610E+03  0.50785361611E+03  0.25500000920E-02 0.  1.
    10030    2    1    2    0    0  0.00000000000E+00  0.00000000000E+00  0.32727797140E+03  0.13429852036E+04  0.13024969814E+04 0.  0.
        4    1    3    3  502    0 -0.28362648582E+03  0.46042729325E+03 -0.21052658575E+03  0.58031054793E+03  0.12699999809E+01 0.  1.
       -4    1    3    3    0  502  0.28362648582E+03 -0.46042729325E+03  0.53780455715E+03  0.76267465568E+03  0.12699999809E+01 0. -1.
</event>
<event>
 5   0  0.2361043E-03  0.1298636E+04  0.7818609E-02  0.9030647E-01
       -2   -1    0    0    0  501  0.00000000000E+00  0.00000000000E+00  0.26405414528E+03  0.26405414529E+03  0.25500000920E-02 0.  1.
        2   -1    0    0  501    0  0.00000000000E+00  0.00000000000E+00 -0.15966952107E+04  0.15966952107E+04  0.25500000920E-02 0. -1.
    10030    2    1    2    0    0  0.00000000000E+00  0.00000000000E+00 -0.13326410654E+04  0.18607493560E+04  0.12986361910E+04 0.  0.
        2    1    3    3  502    0  0.54171287007E+03  0.10051207393E+03 -0.17399884632E+03  0.57778119486E+03  0.25500000920E-02 0.  1.
       -2    1    3    3    0  502 -0.54171287007E+03 -0.10051207393E+03 -0.11586422191E+04  0.12829681612E+04  0.25500000920E-02 0. -1.
</event>
<event>
 5   0  0.1324721E-03  0.1335329E+04  0.7818609E-02  0.9002008E-01
       -1   -1    0    0    0  501  0.00000000000E+00  0.00000000000E+00  0.18366107639E+03  0.18366107646E+03  0.50400001928E-02 0.  1.
        1   -1    0    0  501    0  0.00000000000E+00  0.00000000000E+00 -0.24271672823E+04  0.24271672823E+04  0.50400001928E-02 0. -1.
    10030    2    1    2    0    0  0.00000000000E+00  0.00000000000E+00 -0.22435062059E+04  0.26108283587E+04  0.13353294062E+04 0.  0.
        1    1    3    3  502    0 -0.24992889223E+03 -0.35014391813E+03 -0.21200725635E+04  0.21632782736E+04  0.50400001928E-02 0. -1.
       -1    1    3    3    0  502  0.24992889223E+03  0.35014391813E+03 -0.12343364235E+03  0.44755008509E+03  0.50400001928E-02 0.  1.
</event>
<event>
 5   0  0.2361043E-03  0.1302717E+04  0.7818609E-02  0.9027413E-01
       -2   -1    0    0    0  501  0.00000000000E+00  0.00000000000E+00  0.50349341223E+03  0.50349341223E+03  0.25500000920E-02 0. -1.
        2   -1    0    0  501    0  0.00000000000E+00  0.00000000000E+00 -0.84264863219E+03  0.84264863219E+03  0.25500000920E-02 0.  1.
    10030    2    1    2    0    0  0.00000000000E+00  0.00000000000E+00 -0.33915521996E+03  0.13461420444E+04  0.13027172143E+04 0.  0.
        2    1    3    3  502    0  0.36017540704E+03  0.13689287821E+03 -0.71225219493E+03  0.80979576013E+03  0.25500000920E-02 0.  1.
       -2    1    3    3    0  502 -0.36017540704E+03 -0.13689287821E+03  0.37309697497E+03  0.53634628429E+03  0.25500000920E-02 0. -1.
</event>
<event>
 5   0  0.1346593E-03  0.1274963E+04  0.7818609E-02  0.9049659E-01
       -1   -1    0    0    0  501  0.00000000000E+00  0.00000000000E+00  0.49224987943E+03  0.49224987945E+03  0.50400001928E-02 0. -1.
        1   -1    0    0  501    0  0.00000000000E+00  0.00000000000E+00 -0.82556169238E+03  0.82556169239E+03  0.50400001928E-02 0.  1.
    10030    2    1    2    0    0  0.00000000000E+00  0.00000000000E+00 -0.33331181295E+03  0.13178115718E+04  0.12749629698E+04 0.  0.
        2    1    3    3  502    0  0.54064974654E+03 -0.27868820446E+02 -0.51457481266E+03  0.74690431610E+03  0.25500000920E-02 0.  1.
       -2    1    3    3    0  502 -0.54064974654E+03  0.27868820446E+02  0.18126299971E+03  0.57090725574E+03  0.25500000920E-02 0. -1.
</event>
<event>
 5   0  0.1310461E-03  0.1292315E+04  0.7818609E-02  0.9035681E-01
       -1   -1    0    0    0  501  0.00000000000E+00  0.00000000000E+00  0.24515415324E+03  0.24515415329E+03  0.50400001928E-02 0.  1.
        1   -1    0    0  501    0  0.00000000000E+00  0.00000000000E+00 -0.17030909756E+04  0.17030909756E+04  0.50400001928E-02 0. -1.
    10030    2    1    2    0    0  0.00000000000E+00  0.00000000000E+00 -0.14579368224E+04  0.19482451289E+04  0.12923154817E+04 0.  0.
        4    1    3    3  502    0  0.25001990037E+03 -0.88417149639E+02 -0.16172672105E+04  0.16388661891E+04  0.12699999809E+01 0. -1.
       -4    1    3    3    0  502 -0.25001990037E+03  0.88417149639E+02  0.15933038807E+03  0.30937893980E+03  0.12699999809E+01 0.  1.
</event>
<event>
 5   0  0.2334946E-03  0.1257122E+04  0.7818609E-02  0.9064276E-01
        2   -1    0    0  501    0  0.00000000000E+00  0.00000000000E+00  0.12853245646E+04  0.12853245647E+04  0.25500000920E-02 0.  1.
       -2   -1    0    0    0  501  0.00000000000E+00  0.00000000000E+00 -0.30738462486E+03  0.30738462487E+03  0.25500000920E-02 0. -1.
    10030    2    1    2    0    0  0.00000000000E+00  0.00000000000E+00  0.97793993979E+03  0.15927091895E+04  0.12571221247E+04 0.  0.
        1    1    3    3  502    0 -0.17797587214E+03  0.59262613820E+03  0.34898585455E+03  0.71040289797E+03  0.50400001928E-02 0. -1.
       -1    1    3    3    0  502  0.17797587214E+03 -0.59262613820E+03  0.62895408524E+03  0.88230629155E+03  0.50400001928E-02 0.  1.
</event>
<event>
 5   0  0.2361043E-03  0.1301723E+04  0.7818609E-02  0.9028200E-01
        2   -1    0    0  501    0  0.00000000000E+00  0.00000000000E+00  0.21445741584E+04  0.21445741585E+04  0.25500000920E-02 0. -1.
       -2   -1    0    0    0  501  0.00000000000E+00  0.00000000000E+00 -0.19753128842E+03  0.19753128843E+03  0.25500000920E-02 0.  1.
    10030    2    1    2    0    0  0.00000000000E+00  0.00000000000E+00  0.19470428700E+04  0.23421054469E+04  0.13017226996E+04 0.  0.
        2    1    3    3  502    0  0.47243043162E+03 -0.33338327323E+03  0.43589746838E+03  0.72411430212E+03  0.25500000920E-02 0.  1.
       -2    1    3    3    0  502 -0.47243043162E+03  0.33338327323E+03  0.15111454017E+04  0.16179911448E+04  0.25500000920E-02 0. -1.
</event>
<event>
 5   0  0.1324721E-03  0.1276235E+04  0.7818609E-02  0.9048626E-01
        1   -1    0    0  501    0  0.00000000000E+00  0.00000000000E+00  0.46777300328E+03  0.46777300331E+03  0.50400001928E-02 0. -1.
       -1   -1    0    0    0  501  0.00000000000E+00  0.00000000000E+00 -0.87049498853E+03  0.87049498854E+03  0.50400001928E-02 0.  1.
    10030    2    1    2    0    0  0.00000000000E+00  0.00000000000E+00 -0.40272198525E+03  0.13382679919E+04  0.12762351745E+04 0.  0.
        1    1    3    3  502    0  0.26301807918E+03  0.56591614091E+03 -0.61638541624E+02  0.62708763212E+03  0.50400001928E-02 0. -1.
       -1    1    3    3    0  502 -0.26301807918E+03 -0.56591614091E+03 -0.34108344363E+03  0.71118035973E+03  0.50400001928E-02 0.  1.
</event>
<event>
 5   0  0.1346593E-03  0.1328534E+04  0.7818609E-02  0.9007238E-01
        1   -1    0    0  501    0  0.00000000000E+00  0.00000000000E+00  0.96029446130E+03  0.96029446131E+03  0.50400001928E-02 0. -1.
       -1   -1    0    0    0  501  0.00000000000E+00  0.00000000000E+00 -0.45949531509E+03  0.45949531512E+03  0.50400001928E-02 0.  1.
    10030    2    1    2    0    0  0.00000000000E+00  0.00000000000E+00  0.50079914620E+03  0.14197897764E+04  0.13285342391E+04 0.  0.
        2    1    3    3  502    0  0.64739762219E+03  0.12117287244E+03  0.15819296300E+03  0.67737106506E+03  0.25500000920E-02 0.  1.
       -2    1    3    3    0  502 -0.64739762219E+03 -0.12117287244E+03  0.34260618321E+03  0.74241871138E+03  0.25500000920E-02 0. -1.
</event>
<event>
 5   0  0.2334946E-03  0.1297764E+04  0.7818609E-02  0.9031340E-01
       -2   -1    0    0    0  501  0.00000000000E+00  0.00000000000E+00  0.69782007494E+03  0.69782007495E+03  0.25500000920E-02 0.  1.
        2   -1    0    0  501    0  0.00000000000E+00  0.00000000000E+00 -0.60337565123E+03  0.60337565124E+03  0.25500000920E-02 0. -1.
    10030    2    1    2    0    0  0.00000000000E+00  0.00000000000E+00  0.94444423710E+02  0.13011957262E+04  0.12977636798E+04 0.  0.
        1    1    3    3  502    0 -0.16131581968E+03  0.60434472855E+03 -0.12583870928E+03  0.63803661759E+03  0.50400001928E-02 0. -1.
       -1    1    3    3    0  502  0.16131581968E+03 -0.60434472855E+03  0.22028313299E+03  0.66315910860E+03  0.50400001928E-02 0.  1.
</event>
<event>
 5   0  0.1346593E-03  0.1269456E+04  0.7818609E-02  0.9054144E-01
       -1   -1    0    0    0  501  0.00000000000E+00  0.00000000000E+00  0.52188620171E+03  0.52188620173E+03  0.50400001928E-02 0.  1.
        1   -1    0    0  501    0  0.00000000000E+00  0.00000000000E+00 -0.77196828479E+03  0.77196828481E+03  0.50400001928E-02 0. -1.
    10030    2    1    2    0    0  0.00000000000E+00  0.00000000000E+00 -0.25008208308E+03  0.12938544865E+04  0.12694559402E+04 0.  0.
        2    1    3    3  502    0 -0.50670554302E+02  0.63108598158E+03 -0.78977557066E+02  0.63802388337E+03  0.25500000920E-02 0. -1.
       -2    1    3    3    0  502  0.50670554302E+02 -0.63108598158E+03 -0.17110452602E+03  0.65583060317E+03  0.25500000920E-02 0.  1.
</event>
<event>
 5   0  0.1387622E-03  0.1296002E+04  0.7818609E-02  0.9032742E-01
       -1   -1    0    0    0  501  0.00000000000E+00  0.00000000000E+00  0.26961054600E+03  0.26961054605E+03  0.50400001928E-02 0. -1.
        1   -1    0    0  501    0  0.00000000000E+00  0.00000000000E+00 -0.15574501343E+04  0.15574501344E+04  0.50400001928E-02 0.  1.
    10030    2    1    2    0    0  0.00000000000E+00  0.00000000000E+00 -0.12878395883E+04  0.18270606804E+04  0.12960015141E+04 0.  0.
        3    1    3    3  502    0  0.30481419494E+03  0.76360841360E+02  0.15501206840E+03  0.35038753272E+03  0.10100000352E+00 0. -1.
       -3    1    3    3    0  502 -0.30481419494E+03 -0.76360841360E+02 -0.14428516567E+04  0.14766731477E+04  0.10100000352E+00 0.  1.
</event>
<event>
 5   0  0.2401211E-03  0.1251118E+04  0.7818609E-02  0.9069253E-01
        2   -1    0    0  501    0  0.00000000000E+00  0.00000000000E+00  0.15718649955E+04  0.15718649955E+04  0.25500000920E-02 0. -1.
       -2   -1    0    0    0  501  0.00000000000E+00  0.00000000000E+00 -0.24895542641E+03  0.24895542642E+03  0.25500000920E-02 0.  1.
    10030    2    1    2    0    0  0.00000000000E+00  0.00000000000E+00  0.13229095691E+04  0.18208204219E+04  0.12511184120E+04 0.  0.
        4    1    3    3  502    0 -0.34906923781E+02  0.58230802035E+03  0.99018957359E+03  0.11492511164E+04  0.12699999809E+01 0. -1.
       -4    1    3    3    0  502  0.34906923781E+02 -0.58230802035E+03  0.33271999553E+03  0.67156930560E+03  0.12699999809E+01 0.  1.
</event>
<event>
 5   0  0.2401211E-03  0.1284106E+04  0.7818609E-02  0.9042265E-01
       -2   -1    0    0    0  501  0.00000000000E+00  0.00000000000E+00  0.54824668179E+03  0.54824668179E+03  0.25500000920E-02 0. -1.
        2   -1    0    0  501    0  0.00000000000E+00  0.00000000000E+00 -0.75190947226E+03  0.75190947227E+03  0.25500000920E-02 0.  1.
    10030    2    1    2    0    0  0.00000000000E+00  0.00000000000E+00 -0.20366279048E+03  0.13001561541E+04  0.12841057171E+04 0.  0.
        4    1    3    3  502    0  0.13183334494E+03 -0.52564888198E+03 -0.45043636714E+03  0.70468525720E+03  0.12699999809E+01 0.  1.
       -4    1    3    3    0  502 -0.13183334494E+03  0.52564888198E+03  0.24677357667E+03  0.59547089686E+03  0.12699999809E+01 0. -1.
</event>
<event>
 5   0  0.2401211E-03  0.1305865E+04  0.7818609E-02  0.9024927E-01
       -2   -1    0    0    0  501  0.00000000000E+00  0.00000000000E+00  0.68717981643E+03  0.68717981644E+03  0.25500000920E-02 0. -1.
        2   -1    0    0  501    0  0.00000000000E+00  0.00000000000E+00 -0.62039232118E+03  0.62039232118E+03  0.25500000920E-02 0.  1.
    10030    2    1    2    0    0  0.00000000000E+00  0.00000000000E+00  0.66787495256E+02  0.13075721376E+04  0.13058653551E+04 0.  0.
        4    1    3    3  502    0  0.79344386247E+02 -0.68530504193E+02 -0.61190764937E+03  0.62082569687E+03  0.12699999809E+01 0.  1.
       -4    1    3    3    0  502 -0.79344386247E+02  0.68530504193E+02  0.67869514463E+03  0.68674644075E+03  0.12699999809E+01 0. -1.
</event>
<event>
 5   0  0.2478236E-03  0.1361108E+04  0.7818609E-02  0.8982462E-01
       -2   -1    0    0    0  501  0.00000000000E+00  0.00000000000E+00  0.42973973239E+03  0.42973973240E+03  0.25500000920E-02 0. -1.
        2   -1    0    0  501    0  0.00000000000E+00  0.00000000000E+00 -0.10777541346E+04  0.10777541346E+04  0.25500000920E-02 0.  1.
    10030    2    1    2    0    0  0.00000000000E+00  0.00000000000E+00 -0.64801440223E+03  0.15074938670E+04  0.13611080389E+04 0.  0.
        3    1    3    3  502    0 -0.45346318427E+03  0.47460470996E+03 -0.52298192796E+03  0.83927861726E+03  0.10100000352E+00 0.  1.
       -3    1    3    3    0  502  0.45346318427E+03 -0.47460470996E+03 -0.12503247427E+03  0.66821524977E+03  0.10100000352E+00 0. -1.
</event>
<event>
 5   0  0.1324721E-03  0.1196184E+04  0.7818609E-02  0.9116204E-01
       -1   -1    0    0    0  501  0.00000000000E+00  0.00000000000E+00  0.12188955386E+04  0.12188955386E+04  0.50400001928E-02 0.  1.
        1   -1    0    0  501    0  0.00000000000E+00  0.00000000000E+00 -0.29347371289E+03  0.29347371293E+03  0.50400001928E-02 0. -1.
    10030    2    1    2    0    0  0.00000000000E+00  0.00000000000E+00  0.92542182568E+03  0.15123692515E+04  0.11961835969E+04 0.  0.
        1    1    3    3  502    0  0.52287750767E+03 -0.22036116716E+03  0.22364287979E+03  0.60989840935E+03  0.50400001928E-02 0. -1.
       -1    1    3    3    0  502 -0.52287750767E+03  0.22036116716E+03  0.70177894588E+03  0.90247084215E+03  0.50400001928E-02 0.  1.
</event>
<event>
 5   0  0.2361043E-03  0.1253908E+04  0.7818609E-02  0.9066937E-01
        2   -1    0    0  501    0  0.00000000000E+00  0.00000000000E+00  0.10415879839E+04  0.10415879839E+04  0.25500000920E-02 0. -1.
       -2   -1    0    0    0  501  0.00000000000E+00  0.00000000000E+00 -0.37737708731E+03  0.37737708732E+03  0.25500000920E-02 0.  1.
    10030    2    1    2    0    0  0.00000000000E+00  0.00000000000E+00  0.66421089658E+03  0.14189650712E+04  0.12539081937E+04 0.  0.
        2    1    3    3  502    0 -0.24088020021E+03  0.56931596458E+03  0.21381044638E+03  0.65410919988E+03  0.25500000920E-02 0.  1.
       -2    1    3    3    0  502  0.24088020021E+03 -0.56931596458E+03  0.45040045020E+03  0.76485587134E+03  0.25500000920E-02 0. -1.
</event>
<event>
 5   0  0.2334946E-03  0.1306890E+04  0.7818609E-02  0.9024119E-01
       -2   -1    0    0    0  501  0.00000000000E+00  0.00000000000E+00  0.34038956647E+03  0.34038956648E+03  0.25500000920E-02 0.  1.
        2   -1    0    0  501    0  0.00000000000E+00  0.00000000000E+00 -0.12544171309E+04  0.12544171309E+04  0.25500000920E-02 0. -1.
    10030    2    1    2    0    0  0.00000000000E+00  0.00000000000E+00 -0.91402756443E+03  0.15948066974E+04  0.13068902071E+04 0.  0.
        1    1    3    3  502    0 -0.79787647624E+02  0.38580207174E+03 -0.10931917872E+04  0.11620144539E+04  0.50400001928E-02 0.  1.
       -1    1    3    3    0  502  0.79787647624E+02 -0.38580207174E+03  0.17916422282E+03  0.43279224351E+03  0.50400001928E-02 0. -1.
</event>
<event>
 5   0  0.1346593E-03  0.1307376E+04  0.7818609E-02  0.9023737E-01
        1   -1    0    0  501    0  0.00000000000E+00  0.00000000000E+00  0.87814866672E+03  0.87814866673E+03  0.50400001928E-02 0.  1.
       -1   -1    0    0    0  501  0.00000000000E+00  0.00000000000E+00 -0.48660062236E+03  0.48660062239E+03  0.50400001928E-02 0. -1.
    10030    2    1    2    0    0  0.00000000000E+00  0.00000000000E+00  0.39154804436E+03  0.13647492891E+04  0.13073755203E+04 0.  0.
        2    1    3    3  502    0 -0.24384572407E+03  0.55519896942E+03  0.45062100805E+03  0.75549051993E+03  0.25500000920E-02 0. -1.
       -2    1    3    3    0  502  0.24384572407E+03 -0.55519896942E+03 -0.59072963700E+02  0.60925876919E+03  0.25500000920E-02 0.  1.
</event>
<event>
 5   0  0.1346593E-03  0.1355975E+04  0.7818609E-02  0.8986317E-01
       -1   -1    0    0    0  501  0.00000000000E+00  0.00000000000E+00  0.13246155981E+04  0.13246155981E+04  0.50400001928E-02 0.  1.
        1   -1    0    0  501    0  0.00000000000E+00  0.00000000000E+00 -0.34701931200E+03  0.34701931204E+03  0.50400001928E-02 0. -1.
    10030    2    1    2    0    0  0.00000000000E+00  0.00000000000E+00  0.97759628605E+03  0.16716349101E+04  0.13559752115E+04 0.  0.
        2    1    3    3  502    0 -0.37459455830E+03 -0.15065754689E+03  0.11602435345E+04  0.12284884367E+04  0.25500000920E-02 0.  1.
       -2    1    3    3    0  502  0.37459455830E+03  0.15065754689E+03 -0.18264724849E+03  0.44314647345E+03  0.25500000920E-02 0. -1.
</event>
<event>
 5   0  0.2334946E-03  0.1323890E+04  0.7818609E-02  0.9010832E-01
       -2   -1    0    0    0  501  0.00000000000E+00  0.00000000000E+00  0.70211695266E+03  0.70211695267E+03  0.25500000920E-02 0.  1.
        2   -1    0    0  501    0  0.00000000000E+00  0.00000000000E+00 -0.62407151067E+03  0.62407151068E+03  0.25500000920E-02 0. -1.
    10030    2    1    2    0    0  0.00000000000E+00  0.00000000000E+00  0.78045441990E+02  0.13261884633E+04  0.13238900065E+04 0.  0.
        1    1    3    3  502    0 -0.59479386237E+03  0.11559040797E+03  0.30600054257E+03  0.67880572567E+03  0.50400001928E-02 0.  1.
       -1    1    3    3    0  502  0.59479386237E+03 -0.11559040797E+03 -0.22795510058E+03  0.64738273767E+03  0.50400001928E-02 0. -1.
</event>
<event>
 5   0  0.2401211E-03  0.1305206E+04  0.7818609E-02  0.9025447E-01
        2   -1    0    0  501    0  0.00000000000E+00  0.00000000000E+00  0.19767499658E+04  0.19767499658E+04  0.25500000920E-02 0.  1.
       -2   -1    0    0    0  501  0.00000000000E+00  0.00000000000E+00 -0.21544995737E+03  0.21544995739E+03  0.25500000920E-02 0. -1.
    10030    2    1    2    0    0  0.00000000000E+00  0.00000000000E+00  0.17613000084E+04  0.21921999232E+04  0.13052060311E+04 0.  0.
        4    1    3    3  502    0  0.22601471266E+02  0.14672310101E+03  0.19480112892E+04  0.19536601778E+04  0.12699999809E+01 0.  1.
       -4    1    3    3    0  502 -0.22601471266E+02 -0.14672310101E+03 -0.18671128072E+03  0.23853974537E+03  0.12699999809E+01 0. -1.
</event>
<event>
 5   0  0.2401211E-03  0.1318260E+04  0.7818609E-02  0.9015209E-01
       -2   -1    0    0    0  501  0.00000000000E+00  0.00000000000E+00  0.41118892662E+03  0.41118892663E+03  0.25500000920E-02 0.  1.
        2   -1    0    0  501    0  0.00000000000E+00  0.00000000000E+00 -0.10565764745E+04  0.10565764745E+04  0.25500000920E-02 0. -1.
    10030    2    1    2    0    0  0.00000000000E+00  0.00000000000E+00 -0.64538754785E+03  0.14677654011E+04  0.13182602876E+04 0.  0.
        4    1    3    3  502    0  0.49102005883E+03  0.17926161622E+03  0.12435909405E+03  0.53731017336E+03  0.12699999809E+01 0.  1.
       -4    1    3    3    0  502 -0.49102005883E+03 -0.17926161622E+03 -0.76974664191E+03  0.93045522775E+03  0.12699999809E+01 0. -1.
</event>
<event>
 5   0  0.1387622E-03  0.1309968E+04  0.7818609E-02  0.9021697E-01
        1   -1    0    0  501    0  0.00000000000E+00  0.00000000000E+00  0.19707365969E+04  0.19707365969E+04  0.50400001928E-02 0. -1.
       -1   -1    0    0    0  501  0.00000000000E+00  0.00000000000E+00 -0.21768725873E+03  0.21768725879E+03  0.50400001928E-02 0.  1.
    10030    2    1    2    0    0  0.00000000000E+00  0.00000000000E+00  0.17530493381E+04  0.21884238557E+04  0.13099683164E+04 0.  0.
        3    1    3    3  502    0  0.28971433561E+02 -0.53763225494E+03  0.14996277445E+04  0.15933521794E+04  0.10100000352E+00 0. -1.
       -3    1    3    3    0  502 -0.28971433561E+02  0.53763225494E+03  0.25342159368E+03  0.59507167624E+03  0.10100000352E+00 0.  1.
</event>
<event>
 5   0  0.9131250E-04  0.1333526E+04  0.7818609E-02  0.9003393E-01
       -3   -1    0    0    0  501  0.00000000000E+00  0.00000000000E+00  0.85565101753E+03  0.85565102349E+03  0.10100000352E+00 0. -1.
        3   -1    0    0  501    0  0.00000000000E+00  0.00000000000E+00 -0.51957240921E+03  0.51957241903E+03  0.10100000352E+00 0.  1.
    10030    2    1    2    0    0  0.00000000000E+00  0.00000000000E+00  0.33607860832E+03  0.13752234425E+04  0.13335256600E+04 0.  0.
        3    1    3    3  502    0  0.27371487338E+03  0.44319639019E+03  0.59726249452E+03  0.79250575376E+03  0.10100000352E+00 0. -1.
       -3    1    3    3    0  502 -0.27371487338E+03 -0.44319639019E+03 -0.26118388620E+03  0.58271768876E+03  0.10100000352E+00 0.  1.
</event>
<event>
 5   0  0.1387622E-03  0.1277385E+04  0.7818609E-02  0.9047694E-01
        1   -1    0    0  501    0  0.00000000000E+00  0.00000000000E+00  0.14921305797E+04  0.14921305797E+04  0.50400001928E-02 0.  1.
       -1   -1    0    0    0  501  0.00000000000E+00  0.00000000000E+00 -0.27338625710E+03  0.27338625715E+03  0.50400001928E-02 0. -1.
    10030    2    1    2    0    0  0.00000000000E+00  0.00000000000E+00  0.12187443226E+04  0.17655168368E+04  0.12773848196E+04 0.  0.
        3    1    3    3  502    0 -0.36283510286E+03 -0.48411169307E+03  0.32640732498E+03  0.68742650170E+03  0.10100000352E+00 0. -1.
       -3    1    3    3    0  502  0.36283510286E+03  0.48411169307E+03  0.89233699759E+03  0.10780903351E+04  0.10100000352E+00 0.  1.
</event>
<event>
 5   0  0.2361043E-03  0.1228876E+04  0.7818609E-02  0.9087951E-01
        2   -1    0    0  501    0  0.00000000000E+00  0.00000000000E+00  0.94327136870E+03  0.94327136871E+03  0.25500000920E-02 0. -1.
       -2   -1    0    0    0  501  0.00000000000E+00  0.00000000000E+00 -0.40023876590E+03  0.40023876591E+03  0.25500000920E-02 0.  1.
    10030    2    1    2    0    0  0.00000000000E+00  0.00000000000E+00  0.54303260281E+03  0.13435101346E+04  0.12288755324E+04 0.  0.
        2    1    3    3  502    0  0.29277815158E+03  0.19097112754E+03 -0.28093820038E+03  0.44845879413E+03  0.25500000920E-02 0.  1.
       -2    1    3    3    0  502 -0.29277815158E+03 -0.19097112754E+03  0.82397080318E+03  0.89505134048E+03  0.25500000920E-02 0. -1.
</event>
<event>
 5   0  0.1346593E-03  0.1313346E+04  0.7818609E-02  0.9019048E-01
        1   -1    0    0  501    0  0.00000000000E+00  0.00000000000E+00  0.45598875669E+03  0.45598875672E+03  0.50400001928E-02 0.  1.
       -1   -1    0    0    0  501  0.00000000000E+00  0.00000000000E+00 -0.94568014399E+03  0.94568014401E+03  0.50400001928E-02 0. -1.
    10030    2    1    2    0    0  0.00000000000E+00  0.00000000000E+00 -0.48969138730E+03  0.14016689007E+04  0.13133461282E+04 0.  0.
        2    1    3    3  502    0  0.41531056428E+03  0.25946603265E+03  0.22208574776E+03  0.53770583618E+03  0.25500000920E-02 0.  1.
       -2    1    3    3    0  502 -0.41531056428E+03 -0.25946603265E+03 -0.71177713506E+03  0.86396306454E+03  0.25500000920E-02 0. -1.
</event>
<event>
 5   0  0.1346593E-03  0.1283189E+04  0.7818609E-02  0.9043003E-01
        1   -1    0    0  501    0  0.00000000000E+00  0.00000000000E+00  0.25930437979E+03  0.25930437984E+03  0.50400001928E-02 0.  1.
       -1   -1    0    0    0  501  0.00000000000E+00  0.00000000000E+00 -0.15874924795E+04  0.15874924795E+04  0.50400001928E-02 0. -1.
    10030    2    1    2    0    0  0.00000000000E+00  0.00000000000E+00 -0.13281880997E+04  0.18467968593E+04  0.12831893903E+04 0.  0.
        2    1    3    3  502    0  0.53210305642E+03 -0.15969504864E+03 -0.20217809554E+03  0.59119552903E+03  0.25500000920E-02 0. -1.
       -2    1    3    3    0  502 -0.53210305642E+03  0.15969504864E+03 -0.11260100041E+04  0.12556013303E+04  0.25500000920E-02 0.  1.
</event>
<event>
 5   0  0.1324721E-03  0.1116800E+04  0.7818609E-02  0.9188970E-01
        1   -1    0    0  501    0  0.00000000000E+00  0.00000000000E+00  0.92490846765E+03  0.92490846766E+03  0.50400001928E-02 0.  1.
       -1   -1    0    0    0  501  0.00000000000E+00  0.00000000000E+00 -0.33712605850E+03  0.33712605854E+03  0.50400001928E-02 0. -1.
    10030    2    1    2    0    0  0.00000000000E+00  0.00000000000E+00  0.58778240915E+03  0.12620345262E+04  0.11168003335E+04 0.  0.
        1    1    3    3  502    0  0.45312796761E+03  0.79200372921E+02 -0.63840912411E+02  0.46440641277E+03  0.50400001928E-02 0. -1.
       -1    1    3    3    0  502 -0.45312796761E+03 -0.79200372921E+02  0.65162332156E+03  0.79762811342E+03  0.50400001928E-02 0.  1.
</event>
<event>
 5   0  0.2361043E-03  0.1358356E+04  0.7818609E-02  0.8984527E-01
        2   -1    0    0  501    0  0.00000000000E+00  0.00000000000E+00  0.10939440333E+04  0.10939440333E+04  0.25500000920E-02 0.  1.
       -2   -1    0    0    0  501  0.00000000000E+00  0.00000000000E+00 -0.42166918414E+03  0.42166918415E+03  0.25500000920E-02 0. -1.
    10030    2    1    2    0    0  0.00000000000E+00  0.00000000000E+00  0.67227484915E+03  0.15156132174E+04  0.13583556059E+04 0.  0.
        2    1    3    3  502    0 -0.23818270275E+03  0.47488560976E+03  0.80824835096E+03  0.96721907502E+03  0.25500000920E-02 0.  1.
       -2    1    3    3    0  502  0.23818270275E+03 -0.47488560976E+03 -0.13597350182E+03  0.54839414242E+03  0.25500000920E-02 0. -1.
</event>
<event>
 5   0  0.2401211E-03  0.1294508E+04  0.7818609E-02  0.9033932E-01
        2   -1    0    0  501    0  0.00000000000E+00  0.00000000000E+00  0.82586431626E+03  0.82586431626E+03  0.25500000920E-02 0. -1.
       -2   -1    0    0    0  501  0.00000000000E+00  0.00000000000E+00 -0.50727209598E+03  0.50727209598E+03  0.25500000920E-02 0.  1.
    10030    2    1    2    0    0  0.00000000000E+00  0.00000000000E+00  0.31859222028E+03  0.13331364122E+04  0.12945082815E+04 0.  0.
        4    1    3    3  502    0  0.17705172138E+03 -0.12702359209E+03  0.78695297032E+03  0.81656530381E+03  0.12699999809E+01 0. -1.
       -4    1    3    3    0  502 -0.17705172138E+03  0.12702359209E+03 -0.46836075004E+03  0.51657110844E+03  0.12699999809E+01 0.  1.
</event>
<event>
 5   0  0.1324721E-03  0.1310979E+04  0.7818609E-02  0.9020904E-01
        1   -1    0    0  501    0  0.00000000000E+00  0.00000000000E+00  0.12427836746E+04  0.12427836746E+04  0.50400001928E-02 0.  1.
       -1   -1    0    0    0  501  0.00000000000E+00  0.00000000000E+00 -0.34572915421E+03  0.34572915425E+03  0.50400001928E-02 0. -1.
    10030    2    1    2    0    0  0.00000000000E+00  0.00000000000E+00  0.89705452042E+03  0.15885128289E+04  0.13109790978E+04 0.  0.
        1    1    3    3  502    0  0.26238907998E+03  0.45288389299E+02 -0.27724688838E+03  0.38440200915E+03  0.50400001928E-02 0. -1.
       -1    1    3    3    0  502 -0.26238907998E+03 -0.45288389299E+02  0.11743014088E+04  0.12041108197E+04  0.50400001928E-02 0.  1.
</event>
<event>
 5   0  0.2334946E-03  0.1311284E+04  0.7818609E-02  0.9020664E-01
        2   -1    0    0  501    0  0.00000000000E+00  0.00000000000E+00  0.44032811641E+03  0.44032811642E+03  0.25500000920E-02 0.  1.
       -2   -1    0    0    0  501  0.00000000000E+00  0.00000000000E+00 -0.97624114896E+03  0.97624114897E+03  0.25500000920E-02 0. -1.
    10030    2    1    2    0    0  0.00000000000E+00  0.00000000000E+00 -0.53591303255E+03  0.14165692654E+04  0.13112839911E+04 0.  0.
        1    1    3    3  502    0 -0.14950483350E+03 -0.41218222776E+03 -0.79455917444E+03  0.90750766709E+03  0.50400001928E-02 0. -1.
       -1    1    3    3    0  502  0.14950483350E+03  0.41218222776E+03  0.25864614189E+03  0.50906159830E+03  0.50400001928E-02 0.  1.
</event>
<event>
 5   0  0.1346593E-03  0.1301383E+04  0.7818609E-02  0.9028469E-01
       -1   -1    0    0    0  501  0.00000000000E+00  0.00000000000E+00  0.35296362580E+03  0.35296362583E+03  0.50400001928E-02 0. -1.
        1   -1    0    0  501    0  0.00000000000E+00  0.00000000000E+00 -0.11995552108E+04  0.11995552108E+04  0.50400001928E-02 0.  1.
    10030    2    1    2    0    0  0.00000000000E+00  0.00000000000E+00 -0.84659158502E+03  0.15525188367E+04  0.13013828900E+04 0.  0.
        2    1    3    3  502    0 -0.17785132537E+03  0.37654242642E+03  0.17317330400E+03  0.45100364306E+03  0.25500000920E-02 0. -1.
       -2    1    3    3    0  502  0.17785132537E+03 -0.37654242642E+03 -0.10197648890E+04  0.11015151936E+04  0.25500000920E-02 0.  1.
</event>
<event>
 5   0  0.1310461E-03  0.1297826E+04  0.7818609E-02  0.9031291E-01
       -1   -1    0    0    0  501  0.00000000000E+00  0.00000000000E+00  0.76642938919E+03  0.76642938920E+03  0.50400001928E-02 0.  1.
        1   -1    0    0  501    0  0.00000000000E+00  0.00000000000E+00 -0.54941529048E+03  0.54941529050E+03  0.50400001928E-02 0. -1.
    10030    2    1    2    0    0  0.00000000000E+00  0.00000000000E+00  0.21701409871E+03  0.13158446797E+04  0.12978259136E+04 0.  0.
        4    1    3    3  502    0  0.47933562722E+03  0.11663877067E+02 -0.33481383195E+03  0.58480817754E+03  0.12699999809E+01 0. -1.
       -4    1    3    3    0  502 -0.47933562722E+03 -0.11663877067E+02  0.55182793066E+03  0.73103650217E+03  0.12699999809E+01 0.  1.
</event>
<event>
 5   0  0.1324721E-03  0.1275535E+04  0.7818609E-02  0.9049194E-01
       -1   -1    0    0    0  501  0.00000000000E+00  0.00000000000E+00  0.46372955732E+03  0.46372955735E+03  0.50400001928E-02 0.  1.
        1   -1    0    0  501    0  0.00000000000E+00  0.00000000000E+00 -0.87712217335E+03  0.87712217336E+03  0.50400001928E-02 0. -1.
    10030    2    1    2    0    0  0.00000000000E+00  0.00000000000E+00 -0.41339261602E+03  0.13408517307E+04  0.12755351460E+04 0.  0.
        1    1    3    3  502    0  0.61334576899E+03 -0.15941887749E+02 -0.23712863322E+02  0.61401097387E+03  0.50400001928E-02 0.  1.
       -1    1    3    3    0  502 -0.61334576899E+03  0.15941887749E+02 -0.38967975270E+03  0.72684075685E+03  0.50400001928E-02 0. -1.
</event>
<event>
 5   0  0.1324721E-03  0.1297235E+04  0.7818609E-02  0.9031760E-01
       -1   -1    0    0    0  501  0.00000000000E+00  0.00000000000E+00  0.24516811577E+03  0.24516811582E+03  0.50400001928E-02 0. -1.
        1   -1    0    0  501    0  0.00000000000E+00  0.00000000000E+00 -0.17159855232E+04  0.17159855232E+04  0.50400001928E-02 0.  1.
    10030    2    1    2    0    0  0.00000000000E+00  0.00000000000E+00 -0.14708174075E+04  0.19611536391E+04  0.12972354258E+04 0.  0.
        1    1    3    3  502    0  0.27392213083E+03 -0.40931227747E+03 -0.13734775256E+04  0.14591128769E+04  0.50400001928E-02 0.  1.
       -1    1    3    3    0  502 -0.27392213083E+03  0.40931227747E+03 -0.97339881897E+02  0.50204076216E+03  0.50400001928E-02 0. -1.
</event>
<event>
 5   0  0.1324721E-03  0.1328840E+04  0.7818609E-02  0.9007002E-01
       -1   -1    0    0    0  501  0.00000000000E+00  0.00000000000E+00  0.34884847632E+03  0.34884847636E+03  0.50400001928E-02 0.  1.
        1   -1    0    0  501    0  0.00000000000E+00  0.00000000000E+00 -0.12654602148E+04  0.12654602148E+04  0.50400001928E-02 0. -1.
    10030    2    1    2    0    0  0.00000000000E+00  0.00000000000E+00 -0.91661173851E+03  0.16143086912E+04  0.13288398968E+04 0.  0.
        1    1    3    3  502    0 -0.25889532905E+03  0.28887947979E+03 -0.11136090920E+04  0.11792384640E+04  0.50400001928E-02 0. -1.
       -1    1    3    3    0  502  0.25889532905E+03 -0.28887947979E+03  0.19699735349E+03  0.43507022716E+03  0.50400001928E-02 0.  1.
</event>
<event>
 5   0  0.1346593E-03  0.1291151E+04  0.7818609E-02  0.9036612E-01
       -1   -1    0    0    0  501  0.00000000000E+00  0.00000000000E+00  0.37778244421E+03  0.37778244424E+03  0.50400001928E-02 0.  1.
        1   -1    0    0  501    0  0.00000000000E+00  0.00000000000E+00 -0.11031959100E+04  0.11031959100E+04  0.50400001928E-02 0. -1.
    10030    2    1    2    0    0  0.00000000000E+00  0.00000000000E+00 -0.72541346583E+03  0.14809783543E+04  0.12911514975E+04 0.  0.
        2    1    3    3  502    0 -0.16237660557E+03  0.30632499918E+03  0.26193764000E+03  0.43452559696E+03  0.25500000920E-02 0.  1.
       -2    1    3    3    0  502  0.16237660557E+03 -0.30632499918E+03 -0.98735110582E+03  0.10464527573E+04  0.25500000920E-02 0. -1.
</event>
<event>
 5   0  0.1310461E-03  0.1302984E+04  0.7818609E-02  0.9027202E-01
        1   -1    0    0  501    0  0.00000000000E+00  0.00000000000E+00  0.19567248339E+04  0.19567248339E+04  0.50400001928E-02 0. -1.
       -1   -1    0    0    0  501  0.00000000000E+00  0.00000000000E+00 -0.21691444227E+03  0.21691444233E+03  0.50400001928E-02 0.  1.
    10030    2    1    2    0    0  0.00000000000E+00  0.00000000000E+00  0.17398103917E+04  0.21736392763E+04  0.13029840768E+04 0.  0.
        4    1    3    3  502    0  0.48658207109E+03  0.79273009823E+02  0.15941227848E+03  0.51813145960E+03  0.12699999809E+01 0.  1.
       -4    1    3    3    0  502 -0.48658207109E+03 -0.79273009823E+02  0.15803981132E+04  0.16555078167E+04  0.12699999809E+01 0. -1.
</event>
<event>
 5   0  0.2361043E-03  0.1257672E+04  0.7818609E-02  0.9063822E-01
        2   -1    0    0  501    0  0.00000000000E+00  0.00000000000E+00  0.58348972884E+03  0.58348972884E+03  0.25500000920E-02 0.  1.
       -2   -1    0    0    0  501  0.00000000000E+00  0.00000000000E+00 -0.67770679298E+03  0.67770679299E+03  0.25500000920E-02 0. -1.
    10030    2    1    2    0    0  0.00000000000E+00  0.00000000000E+00 -0.94217064147E+02  0.12611965218E+04  0.12576723784E+04 0.  0.
        2    1    3    3  502    0 -0.34406966524E+03  0.51292797313E+03  0.71357642208E+02  0.62174830379E+03  0.25500000920E-02 0.  1.
       -2    1    3    3    0  502  0.34406966524E+03 -0.51292797313E+03 -0.16557470635E+03  0.63944821804E+03  0.25500000920E-02 0. -1.
</event>
<event>
 5   0  0.1346593E-03  0.1264412E+04  0.7818609E-02  0.9058273E-01
       -1   -1    0    0    0  501  0.00000000000E+00  0.00000000000E+00  0.57859646179E+03  0.57859646181E+03  0.50400001928E-02 0.  1.
        1   -1    0    0  501    0  0.00000000000E+00  0.00000000000E+00 -0.69078257612E+03  0.69078257614E+03  0.50400001928E-02 0. -1.
    10030    2    1    2    0    0  0.00000000000E+00  0.00000000000E+00 -0.11218611433E+03  0.12693790379E+04  0.12644118861E+04 0.  0.
        2    1    3    3  502    0  0.62230095745E+03  0.65879943227E+02 -0.14636685669E+03  0.64266780323E+03  0.25500000920E-02 0.  1.
       -2    1    3    3    0  502 -0.62230095745E+03 -0.65879943227E+02  0.34180742365E+02  0.62671123472E+03  0.25500000920E-02 0. -1.
</event>
<event>
 5   0  0.1332630E-03  0.1012295E+04  0.7818609E-02  0.9295161E-01
       -1   -1    0    0    0  501  0.00000000000E+00  0.00000000000E+00  0.31379850310E+03  0.31379850314E+03  0.50400001928E-02 0. -1.
        1   -1    0    0  501    0  0.00000000000E+00  0.00000000000E+00 -0.81640136917E+03  0.81640136919E+03  0.50400001928E-02 0.  1.
    10030    2    1    2    0    0  0.00000000000E+00  0.00000000000E+00 -0.50260286608E+03  0.11301998723E+04  0.10122954660E+04 0.  0.
        5    1    3    3  502    0 -0.31375752146E+03 -0.68364224007E+01  0.19202794917E+03  0.36795018984E+03  0.46999998093E+01 0. -1.
       -5    1    3    3    0  502  0.31375752146E+03  0.68364224007E+01 -0.69463081525E+03  0.76224968248E+03  0.46999998093E+01 0.  1.
</event>
<event>
 5   0  0.2334946E-03  0.1328291E+04  0.7818609E-02  0.9007426E-01
       -2   -1    0    0    0  501  0.00000000000E+00  0.00000000000E+00  0.39564451893E+03  0.39564451894E+03  0.25500000920E-02 0.  1.
        2   -1    0    0  501    0  0.00000000000E+00  0.00000000000E+00 -0.11148626346E+04  0.11148626346E+04  0.25500000920E-02 0. -1.
    10030    2    1    2    0    0  0.00000000000E+00  0.00000000000E+00 -0.71921811567E+03  0.15105071536E+04  0.13282910686E+04 0.  0.
        1    1    3    3  502    0 -0.57578497909E+03 -0.19630011841E+03 -0.56539777221E+02  0.61094911823E+03  0.50400001928E-02 0.  1.
       -1    1    3    3    0  502  0.57578497909E+03  0.19630011841E+03 -0.66267833845E+03  0.89955803532E+03  0.50400001928E-02 0. -1.
</event>
<event>
 5   0  0.2334946E-03  0.1033164E+04  0.7818609E-02  0.9272901E-01
       -2   -1    0    0    0  501  0.00000000000E+00  0.00000000000E+00  0.28069731213E+03  0.28069731214E+03  0.25500000920E-02 0. -1.
        2   -1    0    0  501    0  0.00000000000E+00  0.00000000000E+00 -0.95069302225E+03  0.95069302225E+03  0.25500000920E-02 0.  1.
    10030    2    1    2    0    0  0.00000000000E+00  0.00000000000E+00 -0.66999571012E+03  0.12313903344E+04  0.10331640257E+04 0.  0.
        1    1    3    3  502    0  0.67006321327E+02  0.82865223930E+02  0.26745397463E+03  0.28790297151E+03  0.50400001928E-02 0. -1.
       -1    1    3    3    0  502 -0.67006321327E+02 -0.82865223930E+02 -0.93744968476E+03  0.94348736288E+03  0.50400001928E-02 0.  1.
</event>
<event>
 5   0  0.2361043E-03  0.1295345E+04  0.7818609E-02  0.9033265E-01
       -2   -1    0    0    0  501  0.00000000000E+00  0.00000000000E+00  0.20670173701E+03  0.20670173702E+03  0.25500000920E-02 0. -1.
        2   -1    0    0  501    0  0.00000000000E+00  0.00000000000E+00 -0.20293969811E+04  0.20293969811E+04  0.25500000920E-02 0.  1.
    10030    2    1    2    0    0  0.00000000000E+00  0.00000000000E+00 -0.18226952441E+04  0.22360987181E+04  0.12953453302E+04 0.  0.
        2    1    3    3  502    0 -0.14962122215E+03  0.18423728062E+03  0.12892802173E+03  0.27009687240E+03  0.25500000920E-02 0. -1.
       -2    1    3    3    0  502  0.14962122215E+03 -0.18423728062E+03 -0.19516232658E+04  0.19660018457E+04  0.25500000920E-02 0.  1.
</event>
<event>
 5   0  0.2312105E-03  0.1342816E+04  0.7818609E-02  0.8996284E-01
       -2   -1    0    0    0  501  0.00000000000E+00  0.00000000000E+00  0.74999966184E+03  0.74999966185E+03  0.25500000920E-02 0. -1.
        2   -1    0    0  501    0  0.00000000000E+00  0.00000000000E+00 -0.60105214848E+03  0.60105214849E+03  0.25500000920E-02 0.  1.
    10030    2    1    2    0    0  0.00000000000E+00  0.00000000000E+00  0.14894751336E+03  0.13510518103E+04  0.13428163063E+04 0.  0.
        5    1    3    3  502    0  0.66565934336E+03  0.20399050041E+02 -0.11185547080E+02  0.66608234409E+03  0.46999998093E+01 0. -1.
       -5    1    3    3    0  502 -0.66565934336E+03 -0.20399050041E+02  0.16013306044E+03  0.68496946625E+03  0.46999998093E+01 0.  1.
</event>
<event>
 5   0  0.1310461E-03  0.1422124E+04  0.7818609E-02  0.8937958E-01
        1   -1    0    0  501    0  0.00000000000E+00  0.00000000000E+00  0.52836787599E+03  0.52836787601E+03  0.50400001928E-02 0. -1.
       -1   -1    0    0    0  501  0.00000000000E+00  0.00000000000E+00 -0.95692662624E+03  0.95692662626E+03  0.50400001928E-02 0.  1.
    10030    2    1    2    0    0  0.00000000000E+00  0.00000000000E+00 -0.42855875026E+03  0.14852945023E+04  0.14221241704E+04 0.  0.
        4    1    3    3  502    0  0.60870931893E+03  0.20630859737E+02  0.16897428584E+03  0.63206533642E+03  0.12699999809E+01 0. -1.
       -4    1    3    3    0  502 -0.60870931893E+03 -0.20630859737E+02 -0.59753303610E+03  0.85322916585E+03  0.12699999809E+01 0.  1.
</event>
<event>
 5   0  0.2334946E-03  0.1318700E+04  0.7818609E-02  0.9014866E-01
       -2   -1    0    0    0  501  0.00000000000E+00  0.00000000000E+00  0.22032980956E+03  0.22032980958E+03  0.25500000920E-02 0.  1.
        2   -1    0    0  501    0  0.00000000000E+00  0.00000000000E+00 -0.19731444399E+04  0.19731444399E+04  0.25500000920E-02 0. -1.
    10030    2    1    2    0    0  0.00000000000E+00  0.00000000000E+00 -0.17528146303E+04  0.21934742494E+04  0.13187001762E+04 0.  0.
        1    1    3    3  502    0  0.32790527002E+03 -0.34779077268E+03 -0.16318410112E+04  0.17004074140E+04  0.50400001928E-02 0. -1.
       -1    1    3    3    0  502 -0.32790527002E+03  0.34779077268E+03 -0.12097361908E+03  0.49306683543E+03  0.50400001928E-02 0.  1.
</event>
<event>
 5   0  0.1324721E-03  0.1309938E+04  0.7818609E-02  0.9021721E-01
        1   -1    0    0  501    0  0.00000000000E+00  0.00000000000E+00  0.89931160551E+03  0.89931160553E+03  0.50400001928E-02 0.  1.
       -1   -1    0    0    0  501  0.00000000000E+00  0.00000000000E+00 -0.47701400396E+03  0.47701400399E+03  0.50400001928E-02 0. -1.
    10030    2    1    2    0    0  0.00000000000E+00  0.00000000000E+00  0.42229760155E+03  0.13763256095E+04  0.13099377539E+04 0.  0.
        1    1    3    3  502    0 -0.41858043777E+03  0.34833375684E+03 -0.17121540794E+03  0.57084210161E+03  0.50400001928E-02 0. -1.
       -1    1    3    3    0  502  0.41858043777E+03 -0.34833375684E+03  0.59351300949E+03  0.80548350790E+03  0.50400001928E-02 0.  1.
</event>
<event>
 5   0  0.9131250E-04  0.1305064E+04  0.7818609E-02  0.9025559E-01
       -4   -1    0    0    0  501  0.00000000000E+00  0.00000000000E+00  0.57804993271E+03  0.57805132783E+03  0.12699999809E+01 0. -1.
        4   -1    0    0  501    0  0.00000000000E+00  0.00000000000E+00 -0.73660786469E+03  0.73660895951E+03  0.12699999809E+01 0.  1.
    10030    2    1    2    0    0  0.00000000000E+00  0.00000000000E+00 -0.15855793198E+03  0.13146602873E+04  0.13050636204E+04 0.  0.
        3    1    3    3  502    0 -0.59925695014E+03  0.10985205497E+03  0.15615180345E+03  0.62893541973E+03  0.10100000352E+00 0. -1.
       -3    1    3    3    0  502  0.59925695014E+03 -0.10985205497E+03 -0.31470973544E+03  0.68572486761E+03  0.10100000352E+00 0.  1.
</event>
<event>
 5   0  0.1324721E-03  0.1303032E+04  0.7818609E-02  0.9027164E-01
       -1   -1    0    0    0  501  0.00000000000E+00  0.00000000000E+00  0.21043303185E+03  0.21043303191E+03  0.50400001928E-02 0. -1.
        1   -1    0    0  501    0  0.00000000000E+00  0.00000000000E+00 -0.20171416751E+04  0.20171416752E+04  0.50400001928E-02 0.  1.
    10030    2    1    2    0    0  0.00000000000E+00  0.00000000000E+00 -0.18067086433E+04  0.22275747071E+04  0.13030322152E+04 0.  0.
        1    1    3    3  502    0 -0.13017007136E+03  0.20426347456E+03 -0.19373106492E+04  0.19523934968E+04  0.50400001928E-02 0.  1.
       -1    1    3    3    0  502  0.13017007136E+03 -0.20426347456E+03  0.13060200594E+03  0.27518121029E+03  0.50400001928E-02 0. -1.
</event>
<event>
 5   0  0.1332630E-03  0.1291608E+04  0.7818609E-02  0.9036247E-01
       -1   -1    0    0    0  501  0.00000000000E+00  0.00000000000E+00  0.41477670545E+03  0.41477670548E+03  0.50400001928E-02 0.  1.
        1   -1    0    0  501    0  0.00000000000E+00  0.00000000000E+00 -0.10055117048E+04  0.10055117048E+04  0.50400001928E-02 0. -1.
    10030    2    1    2    0    0  0.00000000000E+00  0.00000000000E+00 -0.59073499934E+03  0.14202884103E+04  0.12916080400E+04 0.  0.
        5    1    3    3  502    0 -0.22526994119E+03  0.51725381039E+03 -0.64090746380E+03  0.85386328995E+03  0.46999998093E+01 0. -1.
       -5    1    3    3    0  502  0.22526994119E+03 -0.51725381039E+03  0.50172464459E+02  0.56642512034E+03  0.46999998093E+01 0.  1.
</event>
<event>
 5   0  0.9131250E-04  0.1292150E+04  0.7818609E-02  0.9035814E-01
       -4   -1    0    0    0  501  0.00000000000E+00  0.00000000000E+00  0.44658169072E+03  0.44658349655E+03  0.12699999809E+01 0. -1.
        4   -1    0    0  501    0  0.00000000000E+00  0.00000000000E+00 -0.93467968588E+03  0.93468054869E+03  0.12699999809E+01 0.  1.
    10030    2    1    2    0    0  0.00000000000E+00  0.00000000000E+00 -0.48809799516E+03  0.13812640452E+04  0.12921496468E+04 0.  0.
        5    1    3    3  502    0  0.28278427034E+03  0.14364153110E+03 -0.84570761724E+03  0.90324044245E+03  0.46999998093E+01 0.  1.
       -5    1    3    3    0  502 -0.28278427034E+03 -0.14364153110E+03  0.35760962209E+03  0.47802360278E+03  0.46999998093E+01 0. -1.
</event>
<event>
 5   0  0.2334946E-03  0.1283777E+04  0.7818609E-02  0.9042530E-01
       -2   -1    0    0    0  501  0.00000000000E+00  0.00000000000E+00  0.95282923626E+03  0.95282923626E+03  0.25500000920E-02 0. -1.
        2   -1    0    0  501    0  0.00000000000E+00  0.00000000000E+00 -0.43241826573E+03  0.43241826574E+03  0.25500000920E-02 0.  1.
    10030    2    1    2    0    0  0.00000000000E+00  0.00000000000E+00  0.52041097052E+03  0.13852475020E+04  0.12837768745E+04 0.  0.
        1    1    3    3  502    0  0.41787734892E+03 -0.29327547471E+03  0.68004631961E+03  0.85034991600E+03  0.50400001928E-02 0. -1.
       -1    1    3    3    0  502 -0.41787734892E+03  0.29327547471E+03 -0.15963534909E+03  0.53489758600E+03  0.50400001928E-02 0.  1.
</event>
<event>
 5   0  0.2478236E-03  0.1262972E+04  0.7818609E-02  0.9059456E-01
        2   -1    0    0  501    0  0.00000000000E+00  0.00000000000E+00  0.81322433989E+03  0.81322433989E+03  0.25500000920E-02 0.  1.
       -2   -1    0    0    0  501  0.00000000000E+00  0.00000000000E+00 -0.49036203023E+03  0.49036203024E+03  0.25500000920E-02 0. -1.
    10030    2    1    2    0    0  0.00000000000E+00  0.00000000000E+00  0.32286230966E+03  0.13035863701E+04  0.12629716360E+04 0.  0.
        3    1    3    3  502    0  0.36742757167E+03  0.28742181227E+03  0.60074751954E+03  0.76059970486E+03  0.10100000352E+00 0.  1.
       -3    1    3    3    0  502 -0.36742757167E+03 -0.28742181227E+03 -0.27788520988E+03  0.54298666527E+03  0.10100000352E+00 0. -1.
</event>
<event>
 5   0  0.1324721E-03  0.1260616E+04  0.7818609E-02  0.9061393E-01
       -1   -1    0    0    0  501  0.00000000000E+00  0.00000000000E+00  0.26970651577E+03  0.26970651582E+03  0.50400001928E-02 0. -1.
        1   -1    0    0  501    0  0.00000000000E+00  0.00000000000E+00 -0.14730400034E+04  0.14730400034E+04  0.50400001928E-02 0.  1.
    10030    2    1    2    0    0  0.00000000000E+00  0.00000000000E+00 -0.12033334876E+04  0.17427465192E+04  0.12606164951E+04 0.  0.
        1    1    3    3  502    0  0.22592810686E+03 -0.19189619719E+03 -0.13706661592E+04  0.14023528016E+04  0.50400001928E-02 0.  1.
       -1    1    3    3    0  502 -0.22592810686E+03  0.19189619719E+03  0.16733267165E+03  0.34039371762E+03  0.50400001928E-02 0. -1.
</event>
<event>
 5   0  0.1346593E-03  0.1290369E+04  0.7818609E-02  0.9037238E-01
       -1   -1    0    0    0  501  0.00000000000E+00  0.00000000000E+00  0.29941657182E+03  0.29941657187E+03  0.50400001928E-02 0. -1.
        1   -1    0    0  501    0  0.00000000000E+00  0.00000000000E+00 -0.13902473023E+04  0.13902473023E+04  0.50400001928E-02 0.  1.
    10030    2    1    2    0    0  0.00000000000E+00  0.00000000000E+00 -0.10908307305E+04  0.16896638742E+04  0.12903690655E+04 0.  0.
        2    1    3    3  502    0  0.28410125454E+02 -0.27773280069E+03 -0.13070566775E+04  0.13365402359E+04  0.25500000920E-02 0.  1.
       -2    1    3    3    0  502 -0.28410125454E+02  0.27773280069E+03  0.21622594700E+03  0.35312363836E+03  0.25500000920E-02 0. -1.
</event>
<event>
 5   0  0.9131250E-04  0.1310047E+04  0.7818609E-02  0.9021636E-01
       -3   -1    0    0    0  501  0.00000000000E+00  0.00000000000E+00  0.20987681756E+04  0.20987681780E+04  0.10100000352E+00 0. -1.
        3   -1    0    0  501    0  0.00000000000E+00  0.00000000000E+00 -0.20443219236E+03  0.20443221731E+03  0.10100000352E+00 0.  1.
    10030    2    1    2    0    0  0.00000000000E+00  0.00000000000E+00  0.18943359832E+04  0.23032003953E+04  0.13100470387E+04 0.  0.
        1    1    3    3  502    0  0.13503806287E+03  0.40299671073E+03  0.18234280801E+04  0.18723064895E+04  0.50400001928E-02 0. -1.
       -1    1    3    3    0  502 -0.13503806287E+03 -0.40299671073E+03  0.70907903066E+02  0.43089390577E+03  0.50400001928E-02 0.  1.
</event>
<event>
 5   0  0.1310461E-03  0.1260378E+04  0.7818609E-02  0.9061590E-01
        1   -1    0    0  501    0  0.00000000000E+00  0.00000000000E+00  0.47198485119E+03  0.47198485122E+03  0.50400001928E-02 0.  1.
       -1   -1    0    0    0  501  0.00000000000E+00  0.00000000000E+00 -0.84142163300E+03  0.84142163302E+03  0.50400001928E-02 0. -1.
    10030    2    1    2    0    0  0.00000000000E+00  0.00000000000E+00 -0.36943678181E+03  0.13134064842E+04  0.12603781405E+04 0.  0.
        4    1    3    3  502    0 -0.12638464848E+03 -0.24702159728E+03 -0.77433663216E+03  0.82255187174E+03  0.12699999809E+01 0. -1.
       -4    1    3    3    0  502  0.12638464848E+03  0.24702159728E+03  0.40489985035E+03  0.49085461250E+03  0.12699999809E+01 0.  1.
</event>
<event>
 5   0  0.1346593E-03  0.1289951E+04  0.7818609E-02  0.9037572E-01
       -1   -1    0    0    0  501  0.00000000000E+00  0.00000000000E+00  0.43469584794E+03  0.43469584797E+03  0.50400001928E-02 0.  1.
        1   -1    0    0  501    0  0.00000000000E+00  0.00000000000E+00 -0.95697540054E+03  0.95697540055E+03  0.50400001928E-02 0. -1.
    10030    2    1    2    0    0  0.00000000000E+00  0.00000000000E+00 -0.52227955259E+03  0.13916712485E+04  0.12899507483E+04 0.  0.
        2    1    3    3  502    0 -0.47638726465E+03  0.17500303018E+02  0.20756348058E+03  0.51993623167E+03  0.25500000920E-02 0.  1.
       -2    1    3    3    0  502  0.47638726465E+03 -0.17500303018E+02 -0.72984303317E+03  0.87173501685E+03  0.25500000920E-02 0. -1.
</event>
<event>
 5   0  0.1387622E-03  0.1342518E+04  0.7818609E-02  0.8996511E-01
       -1   -1    0    0    0  501  0.00000000000E+00  0.00000000000E+00  0.72748919594E+03  0.72748919596E+03  0.50400001928E-02 0.  1.
        1   -1    0    0  501    0  0.00000000000E+00  0.00000000000E+00 -0.61937525123E+03  0.61937525125E+03  0.50400001928E-02 0. -1.
    10030    2    1    2    0    0  0.00000000000E+00  0.00000000000E+00  0.10811394471E+03  0.13468644472E+04  0.13425182360E+04 0.  0.
        3    1    3    3  502    0 -0.61387400469E+03  0.98093002746E+02 -0.19999248609E+03  0.65303945939E+03  0.10100000352E+00 0. -1.
       -3    1    3    3    0  502  0.61387400469E+03 -0.98093002746E+02  0.30810643080E+03  0.69382498782E+03  0.10100000352E+00 0.  1.
</event>
<event>
 5   0  0.2334946E-03  0.1339598E+04  0.7818609E-02  0.8998740E-01
       -2   -1    0    0    0  501  0.00000000000E+00  0.00000000000E+00  0.28194184783E+03  0.28194184784E+03  0.25500000920E-02 0. -1.
        2   -1    0    0  501    0  0.00000000000E+00  0.00000000000E+00 -0.15912164646E+04  0.15912164646E+04  0.25500000920E-02 0.  1.
    10030    2    1    2    0    0  0.00000000000E+00  0.00000000000E+00 -0.13092746168E+04  0.18731583125E+04  0.13395977162E+04 0.  0.
        1    1    3    3  502    0 -0.50857586578E+03  0.40103026602E+03 -0.89339795775E+03  0.11034648143E+04  0.50400001928E-02 0. -1.
       -1    1    3    3    0  502  0.50857586578E+03 -0.40103026602E+03 -0.41587665904E+03  0.76969349814E+03  0.50400001928E-02 0.  1.
</event>
<event>
 5   0  0.1332630E-03  0.1314745E+04  0.7818609E-02  0.9017953E-01
        1   -1    0    0  501    0  0.00000000000E+00  0.00000000000E+00  0.21553777270E+04  0.21553777270E+04  0.50400001928E-02 0.  1.
       -1   -1    0    0    0  501  0.00000000000E+00  0.00000000000E+00 -0.20049336408E+03  0.20049336414E+03  0.50400001928E-02 0. -1.
    10030    2    1    2    0    0  0.00000000000E+00  0.00000000000E+00  0.19548843629E+04  0.23558710912E+04  0.13147454985E+04 0.  0.
        5    1    3    3  502    0  0.18837030757E+03 -0.13100920318E+03 -0.12637865270E+03  0.26199320210E+03  0.46999998093E+01 0. -1.
       -5    1    3    3    0  502 -0.18837030757E+03  0.13100920318E+03  0.20812630156E+04  0.20938778891E+04  0.46999998093E+01 0.  1.
</event>
<event>
 5   0  0.2361043E-03  0.1339393E+04  0.7818609E-02  0.8998896E-01
        2   -1    0    0  501    0  0.00000000000E+00  0.00000000000E+00  0.18374140666E+04  0.18374140667E+04  0.25500000920E-02 0.  1.
       -2   -1    0    0    0  501  0.00000000000E+00  0.00000000000E+00 -0.24408961902E+03  0.24408961903E+03  0.25500000920E-02 0. -1.
    10030    2    1    2    0    0  0.00000000000E+00  0.00000000000E+00  0.15933244476E+04  0.20815036857E+04  0.13393934441E+04 0.  0.
        2    1    3    3  502    0  0.60635769045E+03  0.28327186499E+03  0.75919988213E+03  0.10120756194E+04  0.25500000920E-02 0. -1.
       -2    1    3    3    0  502 -0.60635769045E+03 -0.28327186499E+03  0.83412456550E+03  0.10694280663E+04  0.25500000920E-02 0.  1.
</event>
<event>
 5   0  0.1346593E-03  0.1307692E+04  0.7818609E-02  0.9023487E-01
       -1   -1    0    0    0  501  0.00000000000E+00  0.00000000000E+00  0.40587839626E+03  0.40587839629E+03  0.50400001928E-02 0.  1.
        1   -1    0    0  501    0  0.00000000000E+00  0.00000000000E+00 -0.10533075897E+04  0.10533075897E+04  0.50400001928E-02 0. -1.
    10030    2    1    2    0    0  0.00000000000E+00  0.00000000000E+00 -0.64742919347E+03  0.14591859860E+04  0.13076923114E+04 0.  0.
        2    1    3    3  502    0  0.20510907074E+03  0.24677140074E+03 -0.95940430073E+03  0.10116434487E+04  0.25500000920E-02 0. -1.
       -2    1    3    3    0  502 -0.20510907074E+03 -0.24677140074E+03  0.31197510726E+03  0.44754253728E+03  0.25500000920E-02 0.  1.
</event>
<event>
 5   0  0.2478236E-03  0.1311454E+04  0.7818609E-02  0.9020531E-01
       -2   -1    0    0    0  501  0.00000000000E+00  0.00000000000E+00  0.45549668613E+03  0.45549668614E+03  0.25500000920E-02 0.  1.
        2   -1    0    0  501    0  0.00000000000E+00  0.00000000000E+00 -0.94397568309E+03  0.94397568310E+03  0.25500000920E-02 0. -1.
    10030    2    1    2    0    0  0.00000000000E+00  0.00000000000E+00 -0.48847899696E+03  0.13994723692E+04  0.13114538428E+04 0.  0.
        3    1    3    3  502    0  0.22460198837E+03 -0.55373860825E+03  0.43892058935E+02  0.59916527143E+03  0.10100000352E+00 0.  1.
       -3    1    3    3    0  502 -0.22460198837E+03  0.55373860825E+03 -0.53237105589E+03  0.80030709781E+03  0.10100000352E+00 0. -1.
</event>
<event>
 5   0  0.1324721E-03  0.1259623E+04  0.7818609E-02  0.9062212E-01
       -1   -1    0    0    0  501  0.00000000000E+00  0.00000000000E+00  0.51234934913E+03  0.51234934915E+03  0.50400001928E-02 0.  1.
        1   -1    0    0  501    0  0.00000000000E+00  0.00000000000E+00 -0.77420379183E+03  0.77420379185E+03  0.50400001928E-02 0. -1.
    10030    2    1    2    0    0  0.00000000000E+00  0.00000000000E+00 -0.26185444270E+03  0.12865531410E+04  0.12596234499E+04 0.  0.
        1    1    3    3  502    0 -0.13664781227E+03 -0.19747963897E+03 -0.72560498814E+03  0.76431239114E+03  0.50400001928E-02 0. -1.
       -1    1    3    3    0  502  0.13664781227E+03  0.19747963897E+03  0.46375054543E+03  0.52224074987E+03  0.50400001928E-02 0.  1.
</event>
<event>
 5   0  0.2478236E-03  0.1303710E+04  0.7818609E-02  0.9026628E-01
       -2   -1    0    0    0  501  0.00000000000E+00  0.00000000000E+00  0.13290268003E+04  0.13290268003E+04  0.25500000920E-02 0.  1.
        2   -1    0    0  501    0  0.00000000000E+00  0.00000000000E+00 -0.31971890421E+03  0.31971890422E+03  0.25500000920E-02 0. -1.
    10030    2    1    2    0    0  0.00000000000E+00  0.00000000000E+00  0.10093078961E+04  0.16487457046E+04  0.13037100786E+04 0.  0.
        3    1    3    3  502    0 -0.76281045905E+02  0.70284963824E+01 -0.31400669132E+03  0.32321573309E+03  0.10100000352E+00 0. -1.
       -3    1    3    3    0  502  0.76281045905E+02 -0.70284963824E+01  0.13233145874E+04  0.13255299715E+04  0.10100000352E+00 0.  1.
</event>
<event>
 5   0  0.1387622E-03  0.1323199E+04  0.7818609E-02  0.9011367E-01
        1   -1    0    0  501    0  0.00000000000E+00  0.00000000000E+00  0.30942834807E+03  0.30942834811E+03  0.50400001928E-02 0.  1.
       -1   -1    0    0    0  501  0.00000000000E+00  0.00000000000E+00 -0.14145898251E+04  0.14145898251E+04  0.50400001928E-02 0. -1.
    10030    2    1    2    0    0  0.00000000000E+00  0.00000000000E+00 -0.11051614771E+04  0.17240181733E+04  0.13231994450E+04 0.  0.
        3    1    3    3  502    0 -0.61425914247E+02  0.52051576556E+03 -0.10786175822E+04  0.11992187890E+04  0.10100000352E+00 0. -1.
       -3    1    3    3    0  502  0.61425914247E+02 -0.52051576556E+03 -0.26543894883E+02  0.52479938424E+03  0.10100000352E+00 0.  1.
</event>
<event>
 5   0  0.1332630E-03  0.1286988E+04  0.7818609E-02  0.9039948E-01
        1   -1    0    0  501    0  0.00000000000E+00  0.00000000000E+00  0.45823266366E+03  0.45823266368E+03  0.50400001928E-02 0. -1.
       -1   -1    0    0    0  501  0.00000000000E+00  0.00000000000E+00 -0.90365518695E+03  0.90365518697E+03  0.50400001928E-02 0.  1.
    10030    2    1    2    0    0  0.00000000000E+00  0.00000000000E+00 -0.44542252330E+03  0.13618878506E+04  0.12869876819E+04 0.  0.
        5    1    3    3  502    0 -0.32729531975E+03 -0.49513768637E+03  0.40307217817E+02  0.59492042879E+03  0.46999998093E+01 0. -1.
       -5    1    3    3    0  502  0.32729531975E+03  0.49513768637E+03 -0.48572974111E+03  0.76696742186E+03  0.46999998093E+01 0.  1.
</event>
<event>
 5   0  0.1387622E-03  0.1306299E+04  0.7818609E-02  0.9024585E-01
       -1   -1    0    0    0  501  0.00000000000E+00  0.00000000000E+00  0.18871965528E+04  0.18871965528E+04  0.50400001928E-02 0. -1.
        1   -1    0    0  501    0  0.00000000000E+00  0.00000000000E+00 -0.22605192644E+03  0.22605192649E+03  0.50400001928E-02 0.  1.
    10030    2    1    2    0    0  0.00000000000E+00  0.00000000000E+00  0.16611446263E+04  0.21132484793E+04  0.13062992251E+04 0.  0.
        3    1    3    3  502    0 -0.69774905069E+02 -0.45298577061E+01 -0.21997979852E+03  0.23082499637E+03  0.10100000352E+00 0.  1.
       -3    1    3    3    0  502  0.69774905069E+02  0.45298577061E+01  0.18811244249E+04  0.18824234829E+04  0.10100000352E+00 0. -1.
</event>
<event>
 5   0  0.2312105E-03  0.1301134E+04  0.7818609E-02  0.9028666E-01
       -2   -1    0    0    0  501  0.00000000000E+00  0.00000000000E+00  0.46766540944E+03  0.46766540945E+03  0.25500000920E-02 0.  1.
        2   -1    0    0  501    0  0.00000000000E+00  0.00000000000E+00 -0.90500080369E+03  0.90500080370E+03  0.25500000920E-02 0. -1.
    10030    2    1    2    0    0  0.00000000000E+00  0.00000000000E+00 -0.43733539425E+03  0.13726662131E+04  0.13011342304E+04 0.  0.
        5    1    3    3  502    0  0.41465332253E+03  0.22059621824E+03 -0.69354244950E+03  0.83762956529E+03  0.46999998093E+01 0. -1.
       -5    1    3    3    0  502 -0.41465332253E+03 -0.22059621824E+03  0.25620705525E+03  0.53503664786E+03  0.46999998093E+01 0.  1.
</event>
<event>
 5   0  0.2334946E-03  0.1295534E+04  0.7818609E-02  0.9033114E-01
       -2   -1    0    0    0  501  0.00000000000E+00  0.00000000000E+00  0.36646549885E+03  0.36646549886E+03  0.25500000920E-02 0. -1.
        2   -1    0    0  501    0  0.00000000000E+00  0.00000000000E+00 -0.11449983687E+04  0.11449983687E+04  0.25500000920E-02 0.  1.
    10030    2    1    2    0    0  0.00000000000E+00  0.00000000000E+00 -0.77853286981E+03  0.15114638675E+04  0.12955344818E+04 0.  0.
        1    1    3    3  502    0 -0.50234348648E+03  0.32174880126E+03 -0.94739784408E+02  0.60402557586E+03  0.50400001928E-02 0. -1.
       -1    1    3    3    0  502  0.50234348648E+03 -0.32174880126E+03 -0.68379308540E+03  0.90743829167E+03  0.50400001928E-02 0.  1.
</event>
<event>
 5   0  0.2334946E-03  0.1283423E+04  0.7818609E-02  0.9042815E-01
       -2   -1    0    0    0  501  0.00000000000E+00  0.00000000000E+00  0.45884755749E+03  0.45884755749E+03  0.25500000920E-02 0.  1.
        2   -1    0    0  501    0  0.00000000000E+00  0.00000000000E+00 -0.89745212515E+03  0.89745212515E+03  0.25500000920E-02 0. -1.
    10030    2    1    2    0    0  0.00000000000E+00  0.00000000000E+00 -0.43860456766E+03  0.13562996826E+04  0.12834231034E+04 0.  0.
        1    1    3    3  502    0  0.61748848765E+03 -0.13441372836E+03 -0.10145969092E+03  0.64004152339E+03  0.50400001928E-02 0.  1.
       -1    1    3    3    0  502 -0.61748848765E+03  0.13441372836E+03 -0.33714487674E+03  0.71625815925E+03  0.50400001928E-02 0. -1.
</event>
<event>
 5   0  0.1346593E-03  0.1156315E+04  0.7818609E-02  0.9151977E-01
        1   -1    0    0  501    0  0.00000000000E+00  0.00000000000E+00  0.46929531298E+03  0.46929531301E+03  0.50400001928E-02 0.  1.
       -1   -1    0    0    0  501  0.00000000000E+00  0.00000000000E+00 -0.71227270234E+03  0.71227270236E+03  0.50400001928E-02 0. -1.
    10030    2    1    2    0    0  0.00000000000E+00  0.00000000000E+00 -0.24297738936E+03  0.11815680154E+04  0.11563152525E+04 0.  0.
        2    1    3    3  502    0 -0.39045837107E+03 -0.36607659735E+03 -0.34488715941E+03  0.63672361932E+03  0.25500000920E-02 0. -1.
       -2    1    3    3    0  502  0.39045837107E+03  0.36607659735E+03  0.10190977005E+03  0.54484439605E+03  0.25500000920E-02 0.  1.
</event>
<event>
 5   0  0.9131250E-04  0.1298835E+04  0.7818609E-02  0.9030489E-01
       -4   -1    0    0    0  501  0.00000000000E+00  0.00000000000E+00  0.56773933901E+03  0.56774075947E+03  0.12699999809E+01 0. -1.
        4   -1    0    0  501    0  0.00000000000E+00  0.00000000000E+00 -0.74284379491E+03  0.74284488053E+03  0.12699999809E+01 0.  1.
    10030    2    1    2    0    0  0.00000000000E+00  0.00000000000E+00 -0.17510445590E+03  0.13105856400E+04  0.12988353049E+04 0.  0.
        2    1    3    3  502    0  0.29075750411E+02 -0.40400726606E+03 -0.59976254213E+03  0.72372811002E+03  0.25500000920E-02 0.  1.
       -2    1    3    3    0  502 -0.29075750411E+02  0.40400726606E+03  0.42465808623E+03  0.58685752998E+03  0.25500000920E-02 0. -1.
</event>
<event>
 5   0  0.2361043E-03  0.1302713E+04  0.7818609E-02  0.9027416E-01
       -2   -1    0    0    0  501  0.00000000000E+00  0.00000000000E+00  0.12983075832E+03  0.12983075834E+03  0.25500000920E-02 0.  1.
        2   -1    0    0  501    0  0.00000000000E+00  0.00000000000E+00 -0.32678341105E+04  0.32678341105E+04  0.25500000920E-02 0. -1.
    10030    2    1    2    0    0  0.00000000000E+00  0.00000000000E+00 -0.31380033522E+04  0.33976648689E+04  0.13027131391E+04 0.  0.
        2    1    3    3  502    0  0.13506791890E+03  0.45675518244E+03 -0.41021968883E+03  0.62860864814E+03  0.25500000920E-02 0.  1.
       -2    1    3    3    0  502 -0.13506791890E+03 -0.45675518244E+03 -0.27277836634E+04  0.27690562207E+04  0.25500000920E-02 0. -1.
</event>
<event>
 5   0  0.1332630E-03  0.1295844E+04  0.7818609E-02  0.9032867E-01
        1   -1    0    0  501    0  0.00000000000E+00  0.00000000000E+00  0.11304645989E+04  0.11304645990E+04  0.50400001928E-02 0.  1.
       -1   -1    0    0    0  501  0.00000000000E+00  0.00000000000E+00 -0.37135437571E+03  0.37135437574E+03  0.50400001928E-02 0. -1.
    10030    2    1    2    0    0  0.00000000000E+00  0.00000000000E+00  0.75911022324E+03  0.15018189747E+04  0.12958440885E+04 0.  0.
        5    1    3    3  502    0 -0.36381805734E+02  0.12433266849E+03  0.11152819926E+04  0.11227903906E+04  0.46999998093E+01 0.  1.
       -5    1    3    3    0  502  0.36381805734E+02 -0.12433266849E+03 -0.35617176938E+03  0.37902858407E+03  0.46999998093E+01 0. -1.
</event>
<event>
 5   0  0.1310461E-03  0.1316490E+04  0.7818609E-02  0.9016590E-01
       -1   -1    0    0    0  501  0.00000000000E+00  0.00000000000E+00  0.47672833195E+03  0.47672833197E+03  0.50400001928E-02 0.  1.
        1   -1    0    0  501    0  0.00000000000E+00  0.00000000000E+00 -0.90887482852E+03  0.90887482853E+03  0.50400001928E-02 0. -1.
    10030    2    1    2    0    0  0.00000000000E+00  0.00000000000E+00 -0.43214649657E+03  0.13856031605E+04  0.13164898495E+04 0.  0.
        4    1    3    3  502    0 -0.16903220674E+03  0.37062111631E+03  0.32813331485E+03  0.52307263738E+03  0.12699999809E+01 0.  1.
       -4    1    3    3    0  502  0.16903220674E+03 -0.37062111631E+03 -0.76027981142E+03  0.86253052312E+03  0.12699999809E+01 0. -1.
</event>
<event>
 5   0  0.1387622E-03  0.1302562E+04  0.7818609E-02  0.9027536E-01
       -1   -1    0    0    0  501  0.00000000000E+00  0.00000000000E+00  0.67428876481E+03  0.67428876482E+03  0.50400001928E-02 0. -1.
        1   -1    0    0  501    0  0.00000000000E+00  0.00000000000E+00 -0.62905804702E+03  0.62905804704E+03  0.50400001928E-02 0.  1.
    10030    2    1    2    0    0  0.00000000000E+00  0.00000000000E+00  0.45230717782E+02  0.13033468119E+04  0.13025617429E+04 0.  0.
        3    1    3    3  502    0 -0.43797860788E+03 -0.12066365083E+03 -0.44433686997E+03  0.63546852149E+03  0.10100000352E+00 0.  1.
       -3    1    3    3    0  502  0.43797860788E+03  0.12066365083E+03  0.48956758775E+03  0.66787829038E+03  0.10100000352E+00 0. -1.
</event>
<event>
 5   0  0.1387622E-03  0.1302193E+04  0.7818609E-02  0.9027828E-01
       -1   -1    0    0    0  501  0.00000000000E+00  0.00000000000E+00  0.98663779247E+03  0.98663779249E+03  0.50400001928E-02 0. -1.
        1   -1    0    0  501    0  0.00000000000E+00  0.00000000000E+00 -0.42966784165E+03  0.42966784168E+03  0.50400001928E-02 0.  1.
    10030    2    1    2    0    0  0.00000000000E+00  0.00000000000E+00  0.55696995082E+03  0.14163056342E+04  0.13021928134E+04 0.  0.
        3    1    3    3  502    0  0.55677978152E+03 -0.27499508866E+03  0.49133999281E+03  0.79185921895E+03  0.10100000352E+00 0. -1.
       -3    1    3    3    0  502 -0.55677978152E+03  0.27499508866E+03  0.65629958015E+02  0.62444641522E+03  0.10100000352E+00 0.  1.
</event>
<event>
 5   0  0.2361043E-03  0.1306674E+04  0.7818609E-02  0.9024290E-01
        2   -1    0    0  501    0  0.00000000000E+00  0.00000000000E+00  0.13643705246E+04  0.13643705246E+04  0.25500000920E-02 0.  1.
       -2   -1    0    0    0  501  0.00000000000E+00  0.00000000000E+00 -0.31285421540E+03  0.31285421541E+03  0.25500000920E-02 0. -1.
    10030    2    1    2    0    0  0.00000000000E+00  0.00000000000E+00  0.10515163092E+04  0.16772247400E+04  0.13066737466E+04 0.  0.
        2    1    3    3  502    0 -0.61861969411E+03  0.17192791556E+03  0.68085166267E+03  0.93584641937E+03  0.25500000920E-02 0.  1.
       -2    1    3    3    0  502  0.61861969411E+03 -0.17192791556E+03  0.37066464649E+03  0.74137832060E+03  0.25500000920E-02 0. -1.
</event>
<event>
 5   0  0.2361043E-03  0.1262739E+04  0.7818609E-02  0.9059647E-01
       -2   -1    0    0    0  501  0.00000000000E+00  0.00000000000E+00  0.79457550947E+03  0.79457550947E+03  0.25500000920E-02 0.  1.
        2   -1    0    0  501    0  0.00000000000E+00  0.00000000000E+00 -0.50168605956E+03  0.50168605957E+03  0.25500000920E-02 0. -1.
    10030    2    1    2    0    0  0.00000000000E+00  0.00000000000E+00  0.29288944990E+03  0.12962615690E+04  0.12627390172E+04 0.  0.
        2    1    3    3  502    0 -0.43461636922E+03 -0.45308316108E+03  0.77952255383E+02  0.63265495602E+03  0.25500000920E-02 0. -1.
       -2    1    3    3    0  502  0.43461636922E+03  0.45308316108E+03  0.21493719452E+03  0.66360661302E+03  0.25500000920E-02 0.  1.
</event>
<event>
 5   0  0.1310461E-03  0.1309891E+04  0.7818609E-02  0.9021758E-01
        1   -1    0    0  501    0  0.00000000000E+00  0.00000000000E+00  0.12095747060E+04  0.12095747060E+04  0.50400001928E-02 0. -1.
       -1   -1    0    0    0  501  0.00000000000E+00  0.00000000000E+00 -0.35463151328E+03  0.35463151332E+03  0.50400001928E-02 0.  1.
    10030    2    1    2    0    0  0.00000000000E+00  0.00000000000E+00  0.85494319273E+03  0.15642062193E+04  0.13098905427E+04 0.  0.
        4    1    3    3  502    0 -0.42588825343E+03 -0.22115504321E+03  0.95972160828E+03  0.10730132971E+04  0.12699999809E+01 0.  1.
       -4    1    3    3    0  502  0.42588825343E+03  0.22115504321E+03 -0.10477841555E+03  0.49119292219E+03  0.12699999809E+01 0. -1.
</event>
<event>
 5   0  0.1324721E-03  0.1304832E+04  0.7818609E-02  0.9025742E-01
        1   -1    0    0  501    0  0.00000000000E+00  0.00000000000E+00  0.45079017100E+03  0.45079017103E+03  0.50400001928E-02 0. -1.
       -1   -1    0    0    0  501  0.00000000000E+00  0.00000000000E+00 -0.94422386272E+03  0.94422386274E+03  0.50400001928E-02 0.  1.
    10030    2    1    2    0    0  0.00000000000E+00  0.00000000000E+00 -0.49343369172E+03  0.13950140338E+04  0.13048323058E+04 0.  0.
        1    1    3    3  502    0 -0.52267076142E+03  0.23245880656E+03  0.88693628348E+02  0.57886818994E+03  0.50400001928E-02 0. -1.
       -1    1    3    3    0  502  0.52267076142E+03 -0.23245880656E+03 -0.58212732007E+03  0.81614584382E+03  0.50400001928E-02 0.  1.
</event>
<event>
 5   0  0.1324721E-03  0.1307956E+04  0.7818609E-02  0.9023280E-01
       -1   -1    0    0    0  501  0.00000000000E+00  0.00000000000E+00  0.29862751021E+03  0.29862751026E+03  0.50400001928E-02 0.  1.
        1   -1    0    0  501    0  0.00000000000E+00  0.00000000000E+00 -0.14321752168E+04  0.14321752168E+04  0.50400001928E-02 0. -1.
    10030    2    1    2    0    0  0.00000000000E+00  0.00000000000E+00 -0.11335477066E+04  0.17308027271E+04  0.13079555332E+04 0.  0.
        1    1    3    3  502    0  0.14075046546E+03  0.12910465204E+03  0.26089873886E+03  0.32333706356E+03  0.50400001928E-02 0.  1.
       -1    1    3    3    0  502 -0.14075046546E+03 -0.12910465204E+03 -0.13944464455E+04  0.14074656635E+04  0.50400001928E-02 0. -1.
</event>
<event>
 5   0  0.9131250E-04  0.1304687E+04  0.7818609E-02  0.9025857E-01
       -3   -1    0    0    0  501  0.00000000000E+00  0.00000000000E+00  0.26105135519E+03  0.26105137473E+03  0.10100000352E+00 0. -1.
        3   -1    0    0  501    0  0.00000000000E+00  0.00000000000E+00 -0.16301462703E+04  0.16301462734E+04  0.10100000352E+00 0.  1.
    10030    2    1    2    0    0  0.00000000000E+00  0.00000000000E+00 -0.13690949151E+04  0.18911976481E+04  0.13046868045E+04 0.  0.
        1    1    3    3  502    0 -0.34003709361E+03  0.49877487559E+03 -0.10429986181E+04  0.12050924109E+04  0.50400001928E-02 0.  1.
       -1    1    3    3    0  502  0.34003709361E+03 -0.49877487559E+03 -0.32609629698E+03  0.68610523718E+03  0.50400001928E-02 0. -1.
</event>
<event>
 5   0  0.1332630E-03  0.1272429E+04  0.7818609E-02  0.9051720E-01
        1   -1    0    0  501    0  0.00000000000E+00  0.00000000000E+00  0.66763969483E+03  0.66763969485E+03  0.50400001928E-02 0.  1.
       -1   -1    0    0    0  501  0.00000000000E+00  0.00000000000E+00 -0.60626831683E+03  0.60626831686E+03  0.50400001928E-02 0. -1.
    10030    2    1    2    0    0  0.00000000000E+00  0.00000000000E+00  0.61371377999E+02  0.12739080117E+04  0.12724288492E+04 0.  0.
        5    1    3    3  502    0 -0.32719760562E+03 -0.23878152013E+03 -0.46046773933E+03  0.61329235805E+03  0.46999998093E+01 0. -1.
       -5    1    3    3    0  502  0.32719760562E+03  0.23878152013E+03  0.52183911733E+03  0.66061565366E+03  0.46999998093E+01 0.  1.
</event>
<event>
 5   0  0.2401211E-03  0.1171959E+04  0.7818609E-02  0.9137761E-01
       -2   -1    0    0    0  501  0.00000000000E+00  0.00000000000E+00  0.31250158877E+03  0.31250158878E+03  0.25500000920E-02 0.  1.
        2   -1    0    0  501    0  0.00000000000E+00  0.00000000000E+00 -0.10987855500E+04  0.10987855500E+04  0.25500000920E-02 0. -1.
    10030    2    1    2    0    0  0.00000000000E+00  0.00000000000E+00 -0.78628396126E+03  0.14112871388E+04  0.11719594363E+04 0.  0.
        4    1    3    3  502    0  0.41939733819E+03  0.24840670828E+03 -0.78478039343E+03  0.92384084063E+03  0.12699999809E+01 0. -1.
       -4    1    3    3    0  502 -0.41939733819E+03 -0.24840670828E+03 -0.15035678239E+01  0.48744629818E+03  0.12699999809E+01 0.  1.
</event>
<event>
 5   0  0.2478236E-03  0.9921423E+03  0.7818609E-02  0.9317205E-01
       -2   -1    0    0    0  501  0.00000000000E+00  0.00000000000E+00  0.83360141978E+03  0.83360141979E+03  0.25500000920E-02 0. -1.
        2   -1    0    0  501    0  0.00000000000E+00  0.00000000000E+00 -0.29520895541E+03  0.29520895542E+03  0.25500000920E-02 0.  1.
    10030    2    1    2    0    0  0.00000000000E+00  0.00000000000E+00  0.53839246437E+03  0.11288103752E+04  0.99214233732E+03 0.  0.
        3    1    3    3  502    0  0.27809660912E+03  0.30671360843E+02  0.73526877537E+03  0.78670111136E+03  0.10100000352E+00 0. -1.
       -3    1    3    3    0  502 -0.27809660912E+03 -0.30671360843E+02 -0.19687631100E+03  0.34210926385E+03  0.10100000352E+00 0.  1.
</event>
<event>
 5   0  0.2334946E-03  0.1310180E+04  0.7818609E-02  0.9021531E-01
        2   -1    0    0  501    0  0.00000000000E+00  0.00000000000E+00  0.10184840007E+04  0.10184840007E+04  0.25500000920E-02 0.  1.
       -2   -1    0    0    0  501  0.00000000000E+00  0.00000000000E+00 -0.42135440729E+03  0.42135440729E+03  0.25500000920E-02 0. -1.
    10030    2    1    2    0    0  0.00000000000E+00  0.00000000000E+00  0.59712959344E+03  0.14398384080E+04  0.13101797166E+04 0.  0.
        1    1    3    3  502    0  0.18065762689E+03  0.36329779980E+03 -0.26664847025E+03  0.48551403297E+03  0.50400001928E-02 0. -1.
       -1    1    3    3    0  502 -0.18065762689E+03 -0.36329779980E+03  0.86377806369E+03  0.95432437506E+03  0.50400001928E-02 0.  1.
</event>
<event>
 5   0  0.2478236E-03  0.1307658E+04  0.7818609E-02  0.9023514E-01
       -2   -1    0    0    0  501  0.00000000000E+00  0.00000000000E+00  0.13661174557E+04  0.13661174557E+04  0.25500000920E-02 0.  1.
        2   -1    0    0  501    0  0.00000000000E+00  0.00000000000E+00 -0.31292509070E+03  0.31292509071E+03  0.25500000920E-02 0. -1.
    10030    2    1    2    0    0  0.00000000000E+00  0.00000000000E+00  0.10531923650E+04  0.16790425464E+04  0.13076581032E+04 0.  0.
        3    1    3    3  502    0  0.19862093686E+03  0.32421591711E+03  0.12095700089E+04  0.12679218643E+04  0.10100000352E+00 0.  1.
       -3    1    3    3    0  502 -0.19862093686E+03 -0.32421591711E+03 -0.15637764393E+03  0.41112068203E+03  0.10100000352E+00 0. -1.
</event>
<event>
 5   0  0.2312105E-03  0.1317855E+04  0.7818609E-02  0.9015525E-01
       -2   -1    0    0    0  501  0.00000000000E+00  0.00000000000E+00  0.33565488019E+03  0.33565488020E+03  0.25500000920E-02 0. -1.
        2   -1    0    0  501    0  0.00000000000E+00  0.00000000000E+00 -0.12935468755E+04  0.12935468755E+04  0.25500000920E-02 0.  1.
    10030    2    1    2    0    0  0.00000000000E+00  0.00000000000E+00 -0.95789199530E+03  0.16292017557E+04  0.13178548046E+04 0.  0.
        5    1    3    3  502    0  0.44320672116E+03  0.32684983387E+03 -0.31668042984E+02  0.55162302937E+03  0.46999998093E+01 0. -1.
       -5    1    3    3    0  502 -0.44320672116E+03 -0.32684983387E+03 -0.92622395231E+03  0.10775787263E+04  0.46999998093E+01 0.  1.
</event>
<event>
 5   0  0.2312105E-03  0.1343893E+04  0.7818609E-02  0.8995464E-01
       -2   -1    0    0    0  501  0.00000000000E+00  0.00000000000E+00  0.53570426068E+03  0.53570426069E+03  0.25500000920E-02 0. -1.
        2   -1    0    0  501    0  0.00000000000E+00  0.00000000000E+00 -0.84283804032E+03  0.84283804032E+03  0.25500000920E-02 0.  1.
    10030    2    1    2    0    0  0.00000000000E+00  0.00000000000E+00 -0.30713377963E+03  0.13785423010E+04  0.13438927476E+04 0.  0.
        5    1    3    3  502    0  0.18477820493E+03 -0.64058836842E+03 -0.67784219164E+02  0.67015911031E+03  0.46999998093E+01 0. -1.
       -5    1    3    3    0  502 -0.18477820493E+03  0.64058836842E+03 -0.23934956047E+03  0.70838319070E+03  0.46999998093E+01 0.  1.
</event>
<event>
 5   0  0.1324721E-03  0.1249377E+04  0.7818609E-02  0.9070702E-01
       -1   -1    0    0    0  501  0.00000000000E+00  0.00000000000E+00  0.52686974116E+03  0.52686974119E+03  0.50400001928E-02 0.  1.
        1   -1    0    0  501    0  0.00000000000E+00  0.00000000000E+00 -0.74066821195E+03  0.74066821197E+03  0.50400001928E-02 0. -1.
    10030    2    1    2    0    0  0.00000000000E+00  0.00000000000E+00 -0.21379847079E+03  0.12675379532E+04  0.12493769153E+04 0.  0.
        1    1    3    3  502    0  0.54528771771E+03  0.30082882662E+03 -0.57207768936E+02  0.62538740543E+03  0.50400001928E-02 0. -1.
       -1    1    3    3    0  502 -0.54528771771E+03 -0.30082882662E+03 -0.15659070185E+03  0.64215054773E+03  0.50400001928E-02 0.  1.
</event>
<event>
 5   0  0.2334946E-03  0.1377609E+04  0.7818609E-02  0.8970188E-01
        2   -1    0    0  501    0  0.00000000000E+00  0.00000000000E+00  0.11062321793E+04  0.11062321793E+04  0.25500000920E-02 0. -1.
       -2   -1    0    0    0  501  0.00000000000E+00  0.00000000000E+00 -0.42888951082E+03  0.42888951083E+03  0.25500000920E-02 0.  1.
    10030    2    1    2    0    0  0.00000000000E+00  0.00000000000E+00  0.67734266848E+03  0.15351216901E+04  0.13776086211E+04 0.  0.
        1    1    3    3  502    0 -0.40703423694E+03 -0.26795125937E+03  0.88113382827E+03  0.10069118982E+04  0.50400001928E-02 0. -1.
       -1    1    3    3    0  502  0.40703423694E+03  0.26795125937E+03 -0.20379115979E+03  0.52820979191E+03  0.50400001928E-02 0.  1.
</event>
<event>
 5   0  0.1387622E-03  0.1298253E+04  0.7818609E-02  0.9030952E-01
       -1   -1    0    0    0  501  0.00000000000E+00  0.00000000000E+00  0.39258905943E+03  0.39258905946E+03  0.50400001928E-02 0. -1.
        1   -1    0    0  501    0  0.00000000000E+00  0.00000000000E+00 -0.10732987463E+04  0.10732987463E+04  0.50400001928E-02 0.  1.
    10030    2    1    2    0    0  0.00000000000E+00  0.00000000000E+00 -0.68070968691E+03  0.14658878058E+04  0.12982532039E+04 0.  0.
        3    1    3    3  502    0  0.12915382841E+03 -0.27100755097E+03  0.30949408873E+03  0.43117560835E+03  0.10100000352E+00 0. -1.
       -3    1    3    3    0  502 -0.12915382841E+03  0.27100755097E+03 -0.99020377563E+03  0.10347121975E+04  0.10100000352E+00 0.  1.
</event>
<event>
 5   0  0.1346593E-03  0.1311320E+04  0.7818609E-02  0.9020636E-01
        1   -1    0    0  501    0  0.00000000000E+00  0.00000000000E+00  0.12253098153E+04  0.12253098153E+04  0.50400001928E-02 0. -1.
       -1   -1    0    0    0  501  0.00000000000E+00  0.00000000000E+00 -0.35084207152E+03  0.35084207155E+03  0.50400001928E-02 0.  1.
    10030    2    1    2    0    0  0.00000000000E+00  0.00000000000E+00  0.87446774382E+03  0.15761518869E+04  0.13113203024E+04 0.  0.
        2    1    3    3  502    0 -0.62848446302E+02 -0.59325847957E+03  0.76416794867E+03  0.96946284331E+03  0.25500000920E-02 0. -1.
       -2    1    3    3    0  502  0.62848446302E+02  0.59325847957E+03  0.11029979515E+03  0.60668904359E+03  0.25500000920E-02 0.  1.
</event>
<event>
 5   0  0.1310461E-03  0.1327239E+04  0.7818609E-02  0.9008239E-01
        1   -1    0    0  501    0  0.00000000000E+00  0.00000000000E+00  0.47307574838E+03  0.47307574841E+03  0.50400001928E-02 0. -1.
       -1   -1    0    0    0  501  0.00000000000E+00  0.00000000000E+00 -0.93091022220E+03  0.93091022222E+03  0.50400001928E-02 0.  1.
    10030    2    1    2    0    0  0.00000000000E+00  0.00000000000E+00 -0.45783447383E+03  0.14039859706E+04  0.13272393154E+04 0.  0.
        4    1    3    3  502    0 -0.52603301161E+03 -0.19060918571E+03  0.14857465438E+03  0.57889431834E+03  0.12699999809E+01 0. -1.
       -4    1    3    3    0  502  0.52603301161E+03  0.19060918571E+03 -0.60640912821E+03  0.82509165228E+03  0.12699999809E+01 0.  1.
</event>
<event>
 5   0  0.2401211E-03  0.1304622E+04  0.7818609E-02  0.9025908E-01
        2   -1    0    0  501    0  0.00000000000E+00  0.00000000000E+00  0.64356057602E+03  0.64356057603E+03  0.25500000920E-02 0.  1.
       -2   -1    0    0    0  501  0.00000000000E+00  0.00000000000E+00 -0.66117993557E+03  0.66117993558E+03  0.25500000920E-02 0. -1.
    10030    2    1    2    0    0  0.00000000000E+00  0.00000000000E+00 -0.17619359549E+02  0.13047405116E+04  0.13046215393E+04 0.  0.
        4    1    3    3  502    0  0.46952037247E+03 -0.26623787444E+03  0.35752379430E+03  0.64742324823E+03  0.12699999809E+01 0.  1.
       -4    1    3    3    0  502 -0.46952037247E+03  0.26623787444E+03 -0.37514315385E+03  0.65731726338E+03  0.12699999809E+01 0. -1.
</event>
<event>
 5   0  0.1332630E-03  0.1053205E+04  0.7818609E-02  0.9252042E-01
        1   -1    0    0  501    0  0.00000000000E+00  0.00000000000E+00  0.96379301137E+03  0.96379301138E+03  0.50400001928E-02 0.  1.
       -1   -1    0    0    0  501  0.00000000000E+00  0.00000000000E+00 -0.28772769223E+03  0.28772769228E+03  0.50400001928E-02 0. -1.
    10030    2    1    2    0    0  0.00000000000E+00  0.00000000000E+00  0.67606531914E+03  0.12515207037E+04  0.10532045176E+04 0.  0.
        5    1    3    3  502    0  0.14999947277E+03  0.35925709038E+03 -0.83306253491E+02  0.39815514651E+03  0.46999998093E+01 0. -1.
       -5    1    3    3    0  502 -0.14999947277E+03 -0.35925709038E+03  0.75937157263E+03  0.85336555715E+03  0.46999998093E+01 0.  1.
</event>
<event>
 5   0  0.1387622E-03  0.1294462E+04  0.7818609E-02  0.9033969E-01
       -1   -1    0    0    0  501  0.00000000000E+00  0.00000000000E+00  0.40174156593E+03  0.40174156596E+03  0.50400001928E-02 0.  1.
        1   -1    0    0  501    0  0.00000000000E+00  0.00000000000E+00 -0.10427293935E+04  0.10427293935E+04  0.50400001928E-02 0. -1.
    10030    2    1    2    0    0  0.00000000000E+00  0.00000000000E+00 -0.64098782753E+03  0.14444709594E+04  0.12944616478E+04 0.  0.
        3    1    3    3  502    0 -0.32521976652E+02 -0.38769726457E+03 -0.89767847231E+03  0.97836266168E+03  0.10100000352E+00 0. -1.
       -3    1    3    3    0  502  0.32521976652E+02  0.38769726457E+03  0.25669064478E+03  0.46610829776E+03  0.10100000352E+00 0.  1.
</event>
<event>
 5   0  0.1332630E-03  0.1313564E+04  0.7818609E-02  0.9018877E-01
       -1   -1    0    0    0  501  0.00000000000E+00  0.00000000000E+00  0.42075104700E+03  0.42075104703E+03  0.50400001928E-02 0. -1.
        1   -1    0    0  501    0  0.00000000000E+00  0.00000000000E+00 -0.10252205991E+04  0.10252205991E+04  0.50400001928E-02 0.  1.
    10030    2    1    2    0    0  0.00000000000E+00  0.00000000000E+00 -0.60446955208E+03  0.14459716461E+04  0.13135640685E+04 0.  0.
        5    1    3    3  502    0  0.19980195326E+03 -0.62005865581E+03 -0.21048458908E+03  0.68463085631E+03  0.46999998093E+01 0. -1.
       -5    1    3    3    0  502 -0.19980195326E+03  0.62005865581E+03 -0.39398496300E+03  0.76134078982E+03  0.46999998093E+01 0.  1.
</event>
<event>
 5   0  0.2312105E-03  0.1280246E+04  0.7818609E-02  0.9045379E-01
        2   -1    0    0  501    0  0.00000000000E+00  0.00000000000E+00  0.38465665228E+03  0.38465665229E+03  0.25500000920E-02 0. -1.
       -2   -1    0    0    0  501  0.00000000000E+00  0.00000000000E+00 -0.10652548981E+04  0.10652548981E+04  0.25500000920E-02 0.  1.
    10030    2    1    2    0    0  0.00000000000E+00  0.00000000000E+00 -0.68059824580E+03  0.14499115504E+04  0.12802458872E+04 0.  0.
        5    1    3    3  502    0 -0.40838656799E+03 -0.22057795481E+03 -0.83951192740E+03  0.95928962744E+03  0.46999998093E+01 0.  1.
       -5    1    3    3    0  502  0.40838656799E+03  0.22057795481E+03  0.15891368161E+03  0.49062192294E+03  0.46999998093E+01 0. -1.
</event>
<event>
 5   0  0.2334946E-03  0.1302282E+04  0.7818609E-02  0.9027757E-01
       -2   -1    0    0    0  501  0.00000000000E+00  0.00000000000E+00  0.46624906322E+03  0.46624906323E+03  0.25500000920E-02 0. -1.
        2   -1    0    0  501    0  0.00000000000E+00  0.00000000000E+00 -0.90935221349E+03  0.90935221349E+03  0.25500000920E-02 0.  1.
    10030    2    1    2    0    0  0.00000000000E+00  0.00000000000E+00 -0.44310315026E+03  0.13756012767E+04  0.13022820243E+04 0.  0.
        1    1    3    3  502    0 -0.38810297329E+03  0.20252061780E+02 -0.77341233448E+03  0.86556380645E+03  0.50400001928E-02 0.  1.
       -1    1    3    3    0  502  0.38810297329E+03 -0.20252061780E+02  0.33030918421E+03  0.51003747028E+03  0.50400001928E-02 0. -1.
</event>
<event>
 5   0  0.1346593E-03  0.1293550E+04  0.7818609E-02  0.9034696E-01
        1   -1    0    0  501    0  0.00000000000E+00  0.00000000000E+00  0.62602640272E+03  0.62602640274E+03  0.50400001928E-02 0. -1.
       -1   -1    0    0    0  501  0.00000000000E+00  0.00000000000E+00 -0.66821130514E+03  0.66821130516E+03  0.50400001928E-02 0.  1.
    10030    2    1    2    0    0  0.00000000000E+00  0.00000000000E+00 -0.42184902414E+02  0.12942377079E+04  0.12935500294E+04 0.  0.
        2    1    3    3  502    0 -0.23824316005E+03 -0.14155560712E+03 -0.60580036252E+03  0.66617705789E+03  0.25500000920E-02 0.  1.
       -2    1    3    3    0  502  0.23824316005E+03  0.14155560712E+03  0.56361546011E+03  0.62806065001E+03  0.25500000920E-02 0. -1.
</event>
<event>
 5   0  0.2312105E-03  0.1305092E+04  0.7818609E-02  0.9025537E-01
        2   -1    0    0  501    0  0.00000000000E+00  0.00000000000E+00  0.57159645287E+03  0.57159645288E+03  0.25500000920E-02 0. -1.
       -2   -1    0    0    0  501  0.00000000000E+00  0.00000000000E+00 -0.74495945634E+03  0.74495945635E+03  0.25500000920E-02 0.  1.
    10030    2    1    2    0    0  0.00000000000E+00  0.00000000000E+00 -0.17336300347E+03  0.13165559092E+04  0.13050918478E+04 0.  0.
        5    1    3    3  502    0  0.59922591421E+03 -0.25367008626E+02  0.17263471068E+03  0.62413140822E+03  0.46999998093E+01 0. -1.
       -5    1    3    3    0  502 -0.59922591421E+03  0.25367008626E+02 -0.34599771415E+03  0.69242450100E+03  0.46999998093E+01 0.  1.
</event>
<event>
 5   0  0.2334946E-03  0.1277349E+04  0.7818609E-02  0.9047723E-01
       -2   -1    0    0    0  501  0.00000000000E+00  0.00000000000E+00  0.62288988806E+03  0.62288988807E+03  0.25500000920E-02 0. -1.
        2   -1    0    0  501    0  0.00000000000E+00  0.00000000000E+00 -0.65485888850E+03  0.65485888850E+03  0.25500000920E-02 0.  1.
    10030    2    1    2    0    0  0.00000000000E+00  0.00000000000E+00 -0.31969000430E+02  0.12777487766E+04  0.12773487852E+04 0.  0.
        1    1    3    3  502    0  0.21280739719E+03  0.29864555732E+03  0.50708346225E+03  0.62578734001E+03  0.50400001928E-02 0. -1.
       -1    1    3    3    0  502 -0.21280739719E+03 -0.29864555732E+03 -0.53905246268E+03  0.65196143656E+03  0.50400001928E-02 0.  1.
</event>
<event>
 5   0  0.9131250E-04  0.1301157E+04  0.7818609E-02  0.9028648E-01
        3   -1    0    0  501    0  0.00000000000E+00  0.00000000000E+00  0.49887707201E+03  0.49887708223E+03  0.10100000352E+00 0.  1.
       -3   -1    0    0    0  501  0.00000000000E+00  0.00000000000E+00 -0.84840998618E+03  0.84840999219E+03  0.10100000352E+00 0. -1.
    10030    2    1    2    0    0  0.00000000000E+00  0.00000000000E+00 -0.34953291417E+03  0.13472870744E+04  0.13011568709E+04 0.  0.
        4    1    3    3  502    0 -0.52423004869E+03  0.15040946081E+02 -0.57339216344E+03  0.77706084704E+03  0.12699999809E+01 0. -1.
       -4    1    3    3    0  502  0.52423004869E+03 -0.15040946081E+02  0.22385924927E+03  0.57022622738E+03  0.12699999809E+01 0.  1.
</event>
<event>
 5   0  0.2334946E-03  0.1317099E+04  0.7818609E-02  0.9016114E-01
       -2   -1    0    0    0  501  0.00000000000E+00  0.00000000000E+00  0.47479593825E+03  0.47479593826E+03  0.25500000920E-02 0.  1.
        2   -1    0    0  501    0  0.00000000000E+00  0.00000000000E+00 -0.91341915852E+03  0.91341915852E+03  0.25500000920E-02 0. -1.
    10030    2    1    2    0    0  0.00000000000E+00  0.00000000000E+00 -0.43862322026E+03  0.13882150968E+04  0.13170993985E+04 0.  0.
        1    1    3    3  502    0 -0.43515522473E+03 -0.47363500106E+03 -0.36835966372E+03  0.74120106970E+03  0.50400001928E-02 0. -1.
       -1    1    3    3    0  502  0.43515522473E+03  0.47363500106E+03 -0.70263556541E+02  0.64701402708E+03  0.50400001928E-02 0.  1.
</event>
<event>
 5   0  0.2478236E-03  0.1291542E+04  0.7818609E-02  0.9036299E-01
        2   -1    0    0  501    0  0.00000000000E+00  0.00000000000E+00  0.83928353078E+03  0.83928353079E+03  0.25500000920E-02 0. -1.
       -2   -1    0    0    0  501  0.00000000000E+00  0.00000000000E+00 -0.49687644912E+03  0.49687644913E+03  0.25500000920E-02 0.  1.
    10030    2    1    2    0    0  0.00000000000E+00  0.00000000000E+00  0.34240708166E+03  0.13361599799E+04  0.12915420560E+04 0.  0.
        3    1    3    3  502    0 -0.28327641934E+03  0.37858956764E+03 -0.28381410076E+03  0.55147624108E+03  0.10100000352E+00 0.  1.
       -3    1    3    3    0  502  0.28327641934E+03 -0.37858956764E+03  0.62622118242E+03  0.78468373884E+03  0.10100000352E+00 0. -1.
</event>
<event>
 5   0  0.1310461E-03  0.1165434E+04  0.7818609E-02  0.9143662E-01
       -1   -1    0    0    0  501  0.00000000000E+00  0.00000000000E+00  0.13218469620E+04  0.13218469620E+04  0.50400001928E-02 0. -1.
        1   -1    0    0  501    0  0.00000000000E+00  0.00000000000E+00 -0.25688226526E+03  0.25688226531E+03  0.50400001928E-02 0.  1.
    10030    2    1    2    0    0  0.00000000000E+00  0.00000000000E+00  0.10649646967E+04  0.15787292273E+04  0.11654338968E+04 0.  0.
        4    1    3    3  502    0  0.26098451612E+03 -0.48311189558E+03  0.26825209562E+03  0.61112259082E+03  0.12699999809E+01 0.  1.
       -4    1    3    3    0  502 -0.26098451612E+03  0.48311189558E+03  0.79671260111E+03  0.96760663649E+03  0.12699999809E+01 0. -1.
</event>
<event>
 5   0  0.1310461E-03  0.1301825E+04  0.7818609E-02  0.9028119E-01
       -1   -1    0    0    0  501  0.00000000000E+00  0.00000000000E+00  0.10703786134E+04  0.10703786134E+04  0.50400001928E-02 0. -1.
        1   -1    0    0  501    0  0.00000000000E+00  0.00000000000E+00 -0.39582931942E+03  0.39582931946E+03  0.50400001928E-02 0.  1.
    10030    2    1    2    0    0  0.00000000000E+00  0.00000000000E+00  0.67454929395E+03  0.14662079328E+04  0.13018252388E+04 0.  0.
        4    1    3    3  502    0  0.30536214075E+03  0.40730919161E+03 -0.11957895637E+03  0.52292213022E+03  0.12699999809E+01 0.  1.
       -4    1    3    3    0  502 -0.30536214075E+03 -0.40730919161E+03  0.79412825031E+03  0.94328580261E+03  0.12699999809E+01 0. -1.
</event>
<event>
 5   0  0.1324721E-03  0.1310469E+04  0.7818609E-02  0.9021304E-01
        1   -1    0    0  501    0  0.00000000000E+00  0.00000000000E+00  0.89289387010E+03  0.89289387011E+03  0.50400001928E-02 0. -1.
       -1   -1    0    0    0  501  0.00000000000E+00  0.00000000000E+00 -0.48083224388E+03  0.48083224390E+03  0.50400001928E-02 0.  1.
    10030    2    1    2    0    0  0.00000000000E+00  0.00000000000E+00  0.41206162622E+03  0.13737261140E+04  0.13104688674E+04 0.  0.
        1    1    3    3  502    0 -0.77972849029E+02 -0.35992961243E+03  0.77413460846E+03  0.85727095083E+03  0.50400001928E-02 0. -1.
       -1    1    3    3    0  502  0.77972849029E+02  0.35992961243E+03 -0.36207298224E+03  0.51645516319E+03  0.50400001928E-02 0.  1.
</event>
<event>
 5   0  0.2312105E-03  0.1275389E+04  0.7818609E-02  0.9049313E-01
        2   -1    0    0  501    0  0.00000000000E+00  0.00000000000E+00  0.42787935024E+03  0.42787935025E+03  0.25500000920E-02 0. -1.
       -2   -1    0    0    0  501  0.00000000000E+00  0.00000000000E+00 -0.95039456486E+03  0.95039456486E+03  0.25500000920E-02 0.  1.
    10030    2    1    2    0    0  0.00000000000E+00  0.00000000000E+00 -0.52251521462E+03  0.13782739151E+04  0.12753888958E+04 0.  0.
        5    1    3    3  502    0  0.10219718427E+03 -0.94049670293E+02  0.41131703424E+03  0.43415826332E+03  0.46999998093E+01 0. -1.
       -5    1    3    3    0  502 -0.10219718427E+03  0.94049670293E+02 -0.93383224886E+03  0.94411565179E+03  0.46999998093E+01 0.  1.
</event>
<event>
 5   0  0.1324721E-03  0.1296073E+04  0.7818609E-02  0.9032685E-01
        1   -1    0    0  501    0  0.00000000000E+00  0.00000000000E+00  0.65174966220E+03  0.65174966222E+03  0.50400001928E-02 0.  1.
       -1   -1    0    0    0  501  0.00000000000E+00  0.00000000000E+00 -0.64434441398E+03  0.64434441400E+03  0.50400001928E-02 0. -1.
    10030    2    1    2    0    0  0.00000000000E+00  0.00000000000E+00  0.74052482176E+01  0.12960940762E+04  0.12960729211E+04 0.  0.
        1    1    3    3  502    0 -0.19038943603E+03  0.61928886298E+03  0.17283014671E+02  0.64812462982E+03  0.50400001928E-02 0. -1.
       -1    1    3    3    0  502  0.19038943603E+03 -0.61928886298E+03 -0.98777664531E+01  0.64796944639E+03  0.50400001928E-02 0.  1.
</event>
<event>
 5   0  0.9131250E-04  0.1274353E+04  0.7818609E-02  0.9050154E-01
       -3   -1    0    0    0  501  0.00000000000E+00  0.00000000000E+00  0.51024621841E+03  0.51024622841E+03  0.10100000352E+00 0.  1.
        3   -1    0    0  501    0  0.00000000000E+00  0.00000000000E+00 -0.79568268133E+03  0.79568268775E+03  0.10100000352E+00 0. -1.
    10030    2    1    2    0    0  0.00000000000E+00  0.00000000000E+00 -0.28543646292E+03  0.13059289162E+04  0.12743533104E+04 0.  0.
        1    1    3    3  502    0  0.19002913359E+03  0.49655913864E+03  0.21714081780E+03  0.57431018149E+03  0.50400001928E-02 0.  1.
       -1    1    3    3    0  502 -0.19002913359E+03 -0.49655913864E+03 -0.50257728072E+03  0.73161873466E+03  0.50400001928E-02 0. -1.
</event>
<event>
 5   0  0.2312105E-03  0.1291612E+04  0.7818609E-02  0.9036243E-01
       -2   -1    0    0    0  501  0.00000000000E+00  0.00000000000E+00  0.89922515511E+03  0.89922515512E+03  0.25500000920E-02 0. -1.
        2   -1    0    0  501    0  0.00000000000E+00  0.00000000000E+00 -0.46380565530E+03  0.46380565531E+03  0.25500000920E-02 0.  1.
    10030    2    1    2    0    0  0.00000000000E+00  0.00000000000E+00  0.43541949981E+03  0.13630308104E+04  0.12916124997E+04 0.  0.
        5    1    3    3  502    0 -0.60716444526E+03 -0.14471019435E+03  0.39256376245E+03  0.73737243068E+03  0.46999998093E+01 0. -1.
       -5    1    3    3    0  502  0.60716444526E+03  0.14471019435E+03  0.42855737355E+02  0.62565837975E+03  0.46999998093E+01 0.  1.
</event>
<event>
 5   0  0.2334946E-03  0.1306198E+04  0.7818609E-02  0.9024664E-01
       -2   -1    0    0    0  501  0.00000000000E+00  0.00000000000E+00  0.36759910604E+03  0.36759910605E+03  0.25500000920E-02 0. -1.
        2   -1    0    0  501    0  0.00000000000E+00  0.00000000000E+00 -0.11603355104E+04  0.11603355104E+04  0.25500000920E-02 0.  1.
    10030    2    1    2    0    0  0.00000000000E+00  0.00000000000E+00 -0.79273640436E+03  0.15279346165E+04  0.13061979886E+04 0.  0.
        1    1    3    3  502    0  0.37327613670E+03  0.78409504924E+02  0.22377437553E+03  0.44221951094E+03  0.50400001928E-02 0. -1.
       -1    1    3    3    0  502 -0.37327613670E+03 -0.78409504924E+02 -0.10165107799E+04  0.10857151055E+04  0.50400001928E-02 0.  1.
</event>
<event>
 5   0  0.2401211E-03  0.1304893E+04  0.7818609E-02  0.9025694E-01
        2   -1    0    0  501    0  0.00000000000E+00  0.00000000000E+00  0.23759890271E+04  0.23759890272E+04  0.25500000920E-02 0.  1.
       -2   -1    0    0    0  501  0.00000000000E+00  0.00000000000E+00 -0.17916183958E+03  0.17916183960E+03  0.25500000920E-02 0. -1.
    10030    2    1    2    0    0  0.00000000000E+00  0.00000000000E+00  0.21968271876E+04  0.25551508667E+04  0.13048931986E+04 0.  0.
        4    1    3    3  502    0  0.32644874069E+03  0.55787463993E+03  0.92445867600E+03  0.11280152263E+04  0.12699999809E+01 0. -1.
       -4    1    3    3    0  502 -0.32644874069E+03 -0.55787463993E+03  0.12723685116E+04  0.14271356405E+04  0.12699999809E+01 0.  1.
</event>
<event>
 5   0  0.2312105E-03  0.1283685E+04  0.7818609E-02  0.9042604E-01
        2   -1    0    0  501    0  0.00000000000E+00  0.00000000000E+00  0.10243140977E+04  0.10243140977E+04  0.25500000920E-02 0. -1.
       -2   -1    0    0    0  501  0.00000000000E+00  0.00000000000E+00 -0.40218309157E+03  0.40218309158E+03  0.25500000920E-02 0.  1.
    10030    2    1    2    0    0  0.00000000000E+00  0.00000000000E+00  0.62213100615E+03  0.14264971893E+04  0.12836850246E+04 0.  0.
        5    1    3    3  502    0 -0.31044303459E+02  0.54830903146E+03  0.68018374526E+03  0.87423026719E+03  0.46999998093E+01 0. -1.
       -5    1    3    3    0  502  0.31044303459E+02 -0.54830903146E+03 -0.58052739110E+02  0.55226692212E+03  0.46999998093E+01 0.  1.
</event>
<event>
 5   0  0.1310461E-03  0.1351073E+04  0.7818609E-02  0.8990016E-01
       -1   -1    0    0    0  501  0.00000000000E+00  0.00000000000E+00  0.86691215238E+03  0.86691215240E+03  0.50400001928E-02 0. -1.
        1   -1    0    0  501    0  0.00000000000E+00  0.00000000000E+00 -0.52640818575E+03  0.52640818578E+03  0.50400001928E-02 0.  1.
    10030    2    1    2    0    0  0.00000000000E+00  0.00000000000E+00  0.34050396663E+03  0.13933203382E+04  0.13510731340E+04 0.  0.
        4    1    3    3  502    0 -0.13683452725E+03 -0.30433977212E+03  0.77598703862E+03  0.84469158972E+03  0.12699999809E+01 0. -1.
       -4    1    3    3    0  502  0.13683452725E+03  0.30433977212E+03 -0.43548307199E+03  0.54862874845E+03  0.12699999809E+01 0.  1.
</event>
<event>
 5   0  0.2334946E-03  0.1303004E+04  0.7818609E-02  0.9027187E-01
        2   -1    0    0  501    0  0.00000000000E+00  0.00000000000E+00  0.93041968002E+03  0.93041968003E+03  0.25500000920E-02 0.  1.
       -2   -1    0    0    0  501  0.00000000000E+00  0.00000000000E+00 -0.45619685658E+03  0.45619685659E+03  0.25500000920E-02 0. -1.
    10030    2    1    2    0    0  0.00000000000E+00  0.00000000000E+00  0.47422282344E+03  0.13866165366E+04  0.13030035047E+04 0.  0.
        1    1    3    3  502    0 -0.11055522211E+02  0.10998853293E+03  0.92036690731E+03  0.92698163199E+03  0.50400001928E-02 0.  1.
       -1    1    3    3    0  502  0.11055522211E+02 -0.10998853293E+03 -0.44614408387E+03  0.45963490462E+03  0.50400001928E-02 0. -1.
</event>
<event>
 5   0  0.1310461E-03  0.1240023E+04  0.7818609E-02  0.9078528E-01
        1   -1    0    0  501    0  0.00000000000E+00  0.00000000000E+00  0.16051776349E+04  0.16051776349E+04  0.50400001928E-02 0. -1.
       -1   -1    0    0    0  501  0.00000000000E+00  0.00000000000E+00 -0.23948384079E+03  0.23948384084E+03  0.50400001928E-02 0.  1.
    10030    2    1    2    0    0  0.00000000000E+00  0.00000000000E+00  0.13656937941E+04  0.18446614758E+04  0.12400227501E+04 0.  0.
        4    1    3    3  502    0  0.25248175960E+03 -0.25264902050E+03  0.14367459887E+04  0.14804793870E+04  0.12699999809E+01 0. -1.
       -4    1    3    3    0  502 -0.25248175960E+03  0.25264902050E+03 -0.71052194587E+02  0.36418208872E+03  0.12699999809E+01 0.  1.
</event>
<event>
 5   0  0.1346593E-03  0.1294548E+04  0.7818609E-02  0.9033900E-01
        1   -1    0    0  501    0  0.00000000000E+00  0.00000000000E+00  0.12775421454E+04  0.12775421454E+04  0.50400001928E-02 0. -1.
       -1   -1    0    0    0  501  0.00000000000E+00  0.00000000000E+00 -0.32794481936E+03  0.32794481940E+03  0.50400001928E-02 0.  1.
    10030    2    1    2    0    0  0.00000000000E+00  0.00000000000E+00  0.94959732602E+03  0.16054869648E+04  0.12945475320E+04 0.  0.
        2    1    3    3  502    0  0.93433734202E+01  0.64009438226E+03  0.59346375184E+03  0.87293031886E+03  0.25500000920E-02 0. -1.
       -2    1    3    3    0  502 -0.93433734202E+01 -0.64009438226E+03  0.35613357418E+03  0.73255664593E+03  0.25500000920E-02 0.  1.
</event>
<event>
 5   0  0.9131250E-04  0.1283159E+04  0.7818609E-02  0.9043028E-01
        4   -1    0    0  501    0  0.00000000000E+00  0.00000000000E+00  0.51199699370E+03  0.51199856881E+03  0.12699999809E+01 0. -1.
       -4   -1    0    0    0  501  0.00000000000E+00  0.00000000000E+00 -0.80395457664E+03  0.80395557974E+03  0.12699999809E+01 0.  1.
    10030    2    1    2    0    0  0.00000000000E+00  0.00000000000E+00 -0.29195758294E+03  0.13159541486E+04  0.12831586382E+04 0.  0.
        1    1    3    3  502    0 -0.22086308523E+01 -0.61917601345E+03 -0.31832207335E+03  0.69621315421E+03  0.50400001928E-02 0.  1.
       -1    1    3    3    0  502  0.22086308523E+01  0.61917601345E+03  0.26364490418E+02  0.61974099434E+03  0.50400001928E-02 0. -1.
</event>
<event>
 5   0  0.1324721E-03  0.1264117E+04  0.7818609E-02  0.9058515E-01
        1   -1    0    0  501    0  0.00000000000E+00  0.00000000000E+00  0.54347470248E+03  0.54347470251E+03  0.50400001928E-02 0. -1.
       -1   -1    0    0    0  501  0.00000000000E+00  0.00000000000E+00 -0.73508123487E+03  0.73508123489E+03  0.50400001928E-02 0.  1.
    10030    2    1    2    0    0  0.00000000000E+00  0.00000000000E+00 -0.19160653239E+03  0.12785559374E+04  0.12641171709E+04 0.  0.
        1    1    3    3  502    0 -0.45030269003E+03  0.39706768901E+03 -0.29570384406E+03  0.66923540382E+03  0.50400001928E-02 0.  1.
       -1    1    3    3    0  502  0.45030269003E+03 -0.39706768901E+03  0.10409731168E+03  0.60932053357E+03  0.50400001928E-02 0. -1.
</event>
<event>
 5   0  0.1310461E-03  0.1319261E+04  0.7818609E-02  0.9014429E-01
       -1   -1    0    0    0  501  0.00000000000E+00  0.00000000000E+00  0.59434375813E+03  0.59434375815E+03  0.50400001928E-02 0. -1.
        1   -1    0    0  501    0  0.00000000000E+00  0.00000000000E+00 -0.73208907571E+03  0.73208907573E+03  0.50400001928E-02 0.  1.
    10030    2    1    2    0    0  0.00000000000E+00  0.00000000000E+00 -0.13774531757E+03  0.13264328339E+04  0.13192612669E+04 0.  0.
        4    1    3    3  502    0  0.14053971273E+01  0.25313397005E+03 -0.68130799342E+03  0.72681564150E+03  0.12699999809E+01 0.  1.
       -4    1    3    3    0  502 -0.14053971273E+01 -0.25313397005E+03  0.54356267584E+03  0.59961719238E+03  0.12699999809E+01 0. -1.
</event>
<event>
 5   0  0.2401211E-03  0.1301181E+04  0.7818609E-02  0.9028629E-01
       -2   -1    0    0    0  501  0.00000000000E+00  0.00000000000E+00  0.45464897963E+03  0.45464897964E+03  0.25500000920E-02 0. -1.
        2   -1    0    0  501    0  0.00000000000E+00  0.00000000000E+00 -0.93097703890E+03  0.93097703891E+03  0.25500000920E-02 0.  1.
    10030    2    1    2    0    0  0.00000000000E+00  0.00000000000E+00 -0.47632805927E+03  0.13856260185E+04  0.13011806344E+04 0.  0.
        4    1    3    3  502    0  0.60872159596E+03  0.60351342048E+02 -0.47408635617E+03  0.77391456369E+03  0.12699999809E+01 0.  1.
       -4    1    3    3    0  502 -0.60872159596E+03 -0.60351342048E+02 -0.22417030973E+01  0.61171145486E+03  0.12699999809E+01 0. -1.
</event>
<event>
 5   0  0.2361043E-03  0.1383200E+04  0.7818609E-02  0.8966070E-01
        2   -1    0    0  501    0  0.00000000000E+00  0.00000000000E+00  0.17348207006E+04  0.17348207006E+04  0.25500000920E-02 0. -1.
       -2   -1    0    0    0  501  0.00000000000E+00  0.00000000000E+00 -0.27571178738E+03  0.27571178739E+03  0.25500000920E-02 0.  1.
    10030    2    1    2    0    0  0.00000000000E+00  0.00000000000E+00  0.14591089132E+04  0.20105324880E+04  0.13831999366E+04 0.  0.
        2    1    3    3  502    0 -0.10967805786E+03  0.59660494971E+03  0.24671800322E+03  0.65485610291E+03  0.25500000920E-02 0.  1.
       -2    1    3    3    0  502  0.10967805786E+03 -0.59660494971E+03  0.12123909100E+04  0.13556763851E+04  0.25500000920E-02 0. -1.
</event>
<event>
 5   0  0.1387622E-03  0.1311795E+04  0.7818609E-02  0.9020263E-01
        1   -1    0    0  501    0  0.00000000000E+00  0.00000000000E+00  0.80879386657E+03  0.80879386658E+03  0.50400001928E-02 0. -1.
       -1   -1    0    0    0  501  0.00000000000E+00  0.00000000000E+00 -0.53190534067E+03  0.53190534070E+03  0.50400001928E-02 0.  1.
    10030    2    1    2    0    0  0.00000000000E+00  0.00000000000E+00  0.27688852589E+03  0.13406992073E+04  0.13117953761E+04 0.  0.
        3    1    3    3  502    0 -0.10896741651E+03 -0.26639947838E+03  0.74080222003E+03  0.79475186023E+03  0.10100000352E+00 0. -1.
       -3    1    3    3    0  502  0.10896741651E+03  0.26639947838E+03 -0.46391369414E+03  0.54594734705E+03  0.10100000352E+00 0.  1.
</event>
<event>
 5   0  0.2361043E-03  0.1300643E+04  0.7818609E-02  0.9029055E-01
        2   -1    0    0  501    0  0.00000000000E+00  0.00000000000E+00  0.14250787498E+04  0.14250787498E+04  0.25500000920E-02 0. -1.
       -2   -1    0    0    0  501  0.00000000000E+00  0.00000000000E+00 -0.29676818340E+03  0.29676818341E+03  0.25500000920E-02 0.  1.
    10030    2    1    2    0    0  0.00000000000E+00  0.00000000000E+00  0.11283105664E+04  0.17218469333E+04  0.13006429669E+04 0.  0.
        2    1    3    3  502    0  0.60934847144E+03  0.22017987730E+03  0.49005207631E+03  0.81236431207E+03  0.25500000920E-02 0.  1.
       -2    1    3    3    0  502 -0.60934847144E+03 -0.22017987730E+03  0.63825849013E+03  0.90948262119E+03  0.25500000920E-02 0. -1.
</event>
<event>
 5   0  0.1332630E-03  0.1282100E+04  0.7818609E-02  0.9043882E-01
       -1   -1    0    0    0  501  0.00000000000E+00  0.00000000000E+00  0.31860233395E+03  0.31860233399E+03  0.50400001928E-02 0.  1.
        1   -1    0    0  501    0  0.00000000000E+00  0.00000000000E+00 -0.12898364180E+04  0.12898364180E+04  0.50400001928E-02 0. -1.
    10030    2    1    2    0    0  0.00000000000E+00  0.00000000000E+00 -0.97123408405E+03  0.16084387520E+04  0.12820996735E+04 0.  0.
        5    1    3    3  502    0 -0.39118576129E+03 -0.91259542036E+02  0.14110845176E+03  0.42577962493E+03  0.46999998093E+01 0.  1.
       -5    1    3    3    0  502  0.39118576129E+03  0.91259542036E+02 -0.11123425358E+04  0.11826591271E+04  0.46999998093E+01 0. -1.
</event>
<event>
 5   0  0.2334946E-03  0.1308364E+04  0.7818609E-02  0.9022959E-01
       -2   -1    0    0    0  501  0.00000000000E+00  0.00000000000E+00  0.27030371152E+03  0.27030371153E+03  0.25500000920E-02 0. -1.
        2   -1    0    0  501    0  0.00000000000E+00  0.00000000000E+00 -0.15832331919E+04  0.15832331919E+04  0.25500000920E-02 0.  1.
    10030    2    1    2    0    0  0.00000000000E+00  0.00000000000E+00 -0.13129294804E+04  0.18535369035E+04  0.13083635703E+04 0.  0.
        1    1    3    3  502    0 -0.29970640182E+02  0.41901219925E+03 -0.13669061575E+04  0.14300006664E+04  0.50400001928E-02 0.  1.
       -1    1    3    3    0  502  0.29970640182E+02 -0.41901219925E+03  0.53976677126E+02  0.42353623705E+03  0.50400001928E-02 0. -1.
</event>
<event>
 5   0  0.2401211E-03  0.1287978E+04  0.7818609E-02  0.9039153E-01
       -2   -1    0    0    0  501  0.00000000000E+00  0.00000000000E+00  0.52592797413E+03  0.52592797413E+03  0.25500000920E-02 0.  1.
        2   -1    0    0  501    0  0.00000000000E+00  0.00000000000E+00 -0.78855305932E+03  0.78855305933E+03  0.25500000920E-02 0. -1.
    10030    2    1    2    0    0  0.00000000000E+00  0.00000000000E+00 -0.26262508520E+03  0.13144810335E+04  0.12879784361E+04 0.  0.
        4    1    3    3  502    0  0.40581229022E+03  0.20989795931E+03  0.33187617940E+03  0.56469830845E+03  0.12699999809E+01 0.  1.
       -4    1    3    3    0  502 -0.40581229022E+03 -0.20989795931E+03 -0.59450126460E+03  0.74978272501E+03  0.12699999809E+01 0. -1.
</event>
<event>
 5   0  0.1387622E-03  0.1296443E+04  0.7818609E-02  0.9032391E-01
        1   -1    0    0  501    0  0.00000000000E+00  0.00000000000E+00  0.10185133487E+04  0.10185133487E+04  0.50400001928E-02 0. -1.
       -1   -1    0    0    0  501  0.00000000000E+00  0.00000000000E+00 -0.41255320241E+03  0.41255320244E+03  0.50400001928E-02 0.  1.
    10030    2    1    2    0    0  0.00000000000E+00  0.00000000000E+00  0.60596014626E+03  0.14310665511E+04  0.12964427388E+04 0.  0.
        3    1    3    3  502    0  0.18935340573E+03  0.25083116908E+03  0.92879065602E+03  0.98052184094E+03  0.10100000352E+00 0. -1.
       -3    1    3    3    0  502 -0.18935340573E+03 -0.25083116908E+03 -0.32283050976E+03  0.45054471018E+03  0.10100000352E+00 0.  1.
</event>
<event>
 5   0  0.2401211E-03  0.1308349E+04  0.7818609E-02  0.9022970E-01
       -2   -1    0    0    0  501  0.00000000000E+00  0.00000000000E+00  0.40637450742E+03  0.40637450742E+03  0.25500000920E-02 0. -1.
        2   -1    0    0  501    0  0.00000000000E+00  0.00000000000E+00 -0.10530789520E+04  0.10530789520E+04  0.25500000920E-02 0.  1.
    10030    2    1    2    0    0  0.00000000000E+00  0.00000000000E+00 -0.64670444455E+03  0.14594534594E+04  0.13083492506E+04 0.  0.
        4    1    3    3  502    0  0.59664834661E+03 -0.26823557155E+03 -0.32133934626E+03  0.72883479590E+03  0.12699999809E+01 0. -1.
       -4    1    3    3    0  502 -0.59664834661E+03  0.26823557155E+03 -0.32536509829E+03  0.73061866349E+03  0.12699999809E+01 0.  1.
</event>
<event>
 5   0  0.2312105E-03  0.1301989E+04  0.7818609E-02  0.9027990E-01
       -2   -1    0    0    0  501  0.00000000000E+00  0.00000000000E+00  0.95600635059E+03  0.95600635060E+03  0.25500000920E-02 0.  1.
        2   -1    0    0  501    0  0.00000000000E+00  0.00000000000E+00 -0.44329575229E+03  0.44329575230E+03  0.25500000920E-02 0. -1.
    10030    2    1    2    0    0  0.00000000000E+00  0.00000000000E+00  0.51271059830E+03  0.13993021029E+04  0.13019885628E+04 0.  0.
        5    1    3    3  502    0  0.25160513771E+01 -0.28954298532E+03  0.88296780840E+03  0.92924469949E+03  0.46999998093E+01 0.  1.
       -5    1    3    3    0  502 -0.25160513771E+01  0.28954298532E+03 -0.37025721010E+03  0.47005740340E+03  0.46999998093E+01 0. -1.
</event>
<event>
 5   0  0.2334946E-03  0.1296838E+04  0.7818609E-02  0.9032076E-01
        2   -1    0    0  501    0  0.00000000000E+00  0.00000000000E+00  0.12055978211E+04  0.12055978212E+04  0.25500000920E-02 0. -1.
       -2   -1    0    0    0  501  0.00000000000E+00  0.00000000000E+00 -0.34874582696E+03  0.34874582697E+03  0.25500000920E-02 0.  1.
    10030    2    1    2    0    0  0.00000000000E+00  0.00000000000E+00  0.85685199419E+03  0.15543436481E+04  0.12968380148E+04 0.  0.
        1    1    3    3  502    0 -0.44076498612E+03 -0.49222342774E+02  0.99537423724E+03  0.10897093577E+04  0.50400001928E-02 0. -1.
       -1    1    3    3    0  502  0.44076498612E+03  0.49222342774E+02 -0.13852224305E+03  0.46463429045E+03  0.50400001928E-02 0.  1.
</event>
<event>
 5   0  0.1310461E-03  0.1289598E+04  0.7818609E-02  0.9037855E-01
        1   -1    0    0  501    0  0.00000000000E+00  0.00000000000E+00  0.24173956149E+04  0.24173956149E+04  0.50400001928E-02 0.  1.
       -1   -1    0    0    0  501  0.00000000000E+00  0.00000000000E+00 -0.17198906806E+03  0.17198906814E+03  0.50400001928E-02 0. -1.
    10030    2    1    2    0    0  0.00000000000E+00  0.00000000000E+00  0.22454065468E+04  0.25893846830E+04  0.12895977963E+04 0.  0.
        4    1    3    3  502    0  0.27192172605E+03  0.21483734789E+03  0.22145057706E+04  0.22414579924E+04  0.12699999809E+01 0.  1.
       -4    1    3    3    0  502 -0.27192172605E+03 -0.21483734789E+03  0.30900776269E+02  0.34792669059E+03  0.12699999809E+01 0. -1.
</event>
<event>
 5   0  0.2334946E-03  0.1307486E+04  0.7818609E-02  0.9023649E-01
        2   -1    0    0  501    0  0.00000000000E+00  0.00000000000E+00  0.30093952131E+03  0.30093952132E+03  0.25500000920E-02 0.  1.
       -2   -1    0    0    0  501  0.00000000000E+00  0.00000000000E+00 -0.14201531614E+04  0.14201531614E+04  0.25500000920E-02 0. -1.
    10030    2    1    2    0    0  0.00000000000E+00  0.00000000000E+00 -0.11192136401E+04  0.17210926827E+04  0.13074864628E+04 0.  0.
        1    1    3    3  502    0  0.31276871370E+03  0.56823241202E+03 -0.45211866063E+03  0.79064759890E+03  0.50400001928E-02 0.  1.
       -1    1    3    3    0  502 -0.31276871370E+03 -0.56823241202E+03 -0.66709497943E+03  0.93044508379E+03  0.50400001928E-02 0. -1.
</event>
<event>
 5   0  0.1346593E-03  0.1329005E+04  0.7818609E-02  0.9006875E-01
        1   -1    0    0  501    0  0.00000000000E+00  0.00000000000E+00  0.55149895267E+03  0.55149895269E+03  0.50400001928E-02 0.  1.
       -1   -1    0    0    0  501  0.00000000000E+00  0.00000000000E+00 -0.80066100202E+03  0.80066100204E+03  0.50400001928E-02 0. -1.
    10030    2    1    2    0    0  0.00000000000E+00  0.00000000000E+00 -0.24916204936E+03  0.13521599547E+04  0.13290051980E+04 0.  0.
        2    1    3    3  502    0 -0.52202363648E+03  0.26486409047E+03 -0.44454716050E+03  0.73504002706E+03  0.25500000920E-02 0. -1.
       -2    1    3    3    0  502  0.52202363648E+03 -0.26486409047E+03  0.19538511114E+03  0.61711992767E+03  0.25500000920E-02 0.  1.
</event>
<event>
 5   0  0.2478236E-03  0.1267443E+04  0.7818609E-02  0.9055789E-01
        2   -1    0    0  501    0  0.00000000000E+00  0.00000000000E+00  0.11404390175E+04  0.11404390175E+04  0.25500000920E-02 0.  1.
       -2   -1    0    0    0  501  0.00000000000E+00  0.00000000000E+00 -0.35214774984E+03  0.35214774984E+03  0.25500000920E-02 0. -1.
    10030    2    1    2    0    0  0.00000000000E+00  0.00000000000E+00  0.78829126763E+03  0.14925867673E+04  0.12674431488E+04 0.  0.
        3    1    3    3  502    0 -0.48655959114E+03 -0.27674230921E+03  0.44253959935E+02  0.56150241728E+03  0.10100000352E+00 0. -1.
       -3    1    3    3    0  502  0.48655959114E+03  0.27674230921E+03  0.74403730770E+03  0.93108435004E+03  0.10100000352E+00 0.  1.
</event>
<event>
 5   0  0.1310461E-03  0.1295420E+04  0.7818609E-02  0.9033205E-01
        1   -1    0    0  501    0  0.00000000000E+00  0.00000000000E+00  0.12740642021E+04  0.12740642021E+04  0.50400001928E-02 0. -1.
       -1   -1    0    0    0  501  0.00000000000E+00  0.00000000000E+00 -0.32928325844E+03  0.32928325848E+03  0.50400001928E-02 0.  1.
    10030    2    1    2    0    0  0.00000000000E+00  0.00000000000E+00  0.94478094363E+03  0.16033474606E+04  0.12954196416E+04 0.  0.
        4    1    3    3  502    0 -0.13635590738E+03  0.11480814551E+03 -0.29832575861E+03  0.34752512845E+03  0.12699999809E+01 0.  1.
       -4    1    3    3    0  502  0.13635590738E+03 -0.11480814551E+03  0.12431067022E+04  0.12558223321E+04  0.12699999809E+01 0. -1.
</event>
<event>
 5   0  0.1310461E-03  0.1304219E+04  0.7818609E-02  0.9026226E-01
       -1   -1    0    0    0  501  0.00000000000E+00  0.00000000000E+00  0.10202662609E+04  0.10202662609E+04  0.50400001928E-02 0.  1.
        1   -1    0    0  501    0  0.00000000000E+00  0.00000000000E+00 -0.41679975224E+03  0.41679975227E+03  0.50400001928E-02 0. -1.
    10030    2    1    2    0    0  0.00000000000E+00  0.00000000000E+00  0.60346650867E+03  0.14370660132E+04  0.13042188847E+04 0.  0.
        4    1    3    3  502    0 -0.54119995038E+03  0.36217867281E+03  0.33949239970E+03  0.73438918816E+03  0.12699999809E+01 0. -1.
       -4    1    3    3    0  502  0.54119995038E+03 -0.36217867281E+03  0.26397410897E+03  0.70267682503E+03  0.12699999809E+01 0.  1.
</event>
<event>
 5   0  0.2334946E-03  0.1320267E+04  0.7818609E-02  0.9013646E-01
       -2   -1    0    0    0  501  0.00000000000E+00  0.00000000000E+00  0.54842890931E+03  0.54842890931E+03  0.25500000920E-02 0.  1.
        2   -1    0    0  501    0  0.00000000000E+00  0.00000000000E+00 -0.79459069674E+03  0.79459069675E+03  0.25500000920E-02 0. -1.
    10030    2    1    2    0    0  0.00000000000E+00  0.00000000000E+00 -0.24616178743E+03  0.13430196061E+04  0.13202674110E+04 0.  0.
        1    1    3    3  502    0 -0.19786305196E+03 -0.30738728856E+03  0.43606404901E+03  0.56902424145E+03  0.50400001928E-02 0.  1.
       -1    1    3    3    0  502  0.19786305196E+03  0.30738728856E+03 -0.68222583644E+03  0.77399536461E+03  0.50400001928E-02 0. -1.
</event>
<event>
 5   0  0.2401211E-03  0.1292925E+04  0.7818609E-02  0.9035195E-01
       -2   -1    0    0    0  501  0.00000000000E+00  0.00000000000E+00  0.61296912421E+03  0.61296912421E+03  0.25500000920E-02 0. -1.
        2   -1    0    0  501    0  0.00000000000E+00  0.00000000000E+00 -0.68178574175E+03  0.68178574175E+03  0.25500000920E-02 0.  1.
    10030    2    1    2    0    0  0.00000000000E+00  0.00000000000E+00 -0.68816617543E+02  0.12947548660E+04  0.12929247604E+04 0.  0.
        4    1    3    3  502    0  0.50727724094E+03 -0.37425647516E+03 -0.17783774342E+03  0.65500075135E+03  0.12699999809E+01 0.  1.
       -4    1    3    3    0  502 -0.50727724094E+03  0.37425647516E+03  0.10902112588E+03  0.63975411462E+03  0.12699999809E+01 0. -1.
</event>
<event>
 5   0  0.1332630E-03  0.1330112E+04  0.7818609E-02  0.9006021E-01
       -1   -1    0    0    0  501  0.00000000000E+00  0.00000000000E+00  0.24565064494E+03  0.24565064499E+03  0.50400001928E-02 0. -1.
        1   -1    0    0  501    0  0.00000000000E+00  0.00000000000E+00 -0.18005222654E+04  0.18005222654E+04  0.50400001928E-02 0.  1.
    10030    2    1    2    0    0  0.00000000000E+00  0.00000000000E+00 -0.15548716204E+04  0.20461729103E+04  0.13301119588E+04 0.  0.
        5    1    3    3  502    0  0.54688847701E+02 -0.60532960239E+03 -0.11926826824E+04  0.13386294739E+04  0.46999998093E+01 0.  1.
       -5    1    3    3    0  502 -0.54688847701E+02  0.60532960239E+03 -0.36218893802E+03  0.70754343642E+03  0.46999998093E+01 0. -1.
</event>
<event>
 5   0  0.2334946E-03  0.1307720E+04  0.7818609E-02  0.9023465E-01
       -2   -1    0    0    0  501  0.00000000000E+00  0.00000000000E+00  0.26571816561E+03  0.26571816562E+03  0.25500000920E-02 0. -1.
        2   -1    0    0  501    0  0.00000000000E+00  0.00000000000E+00 -0.16089717007E+04  0.16089717007E+04  0.25500000920E-02 0.  1.
    10030    2    1    2    0    0  0.00000000000E+00  0.00000000000E+00 -0.13432535351E+04  0.18746898664E+04  0.13077201671E+04 0.  0.
        1    1    3    3  502    0  0.14430084094E+03  0.12214656465E+03 -0.15689348035E+04  0.15802844471E+04  0.50400001928E-02 0.  1.
       -1    1    3    3    0  502 -0.14430084094E+03 -0.12214656465E+03  0.22568126841E+03  0.29440541926E+03  0.50400001928E-02 0. -1.
</event>
<event>
 5   0  0.2478236E-03  0.1329228E+04  0.7818609E-02  0.9006703E-01
        2   -1    0    0  501    0  0.00000000000E+00  0.00000000000E+00  0.15066730507E+04  0.15066730507E+04  0.25500000920E-02 0.  1.
       -2   -1    0    0    0  501  0.00000000000E+00  0.00000000000E+00 -0.29317032900E+03  0.29317032901E+03  0.25500000920E-02 0. -1.
    10030    2    1    2    0    0  0.00000000000E+00  0.00000000000E+00  0.12135027217E+04  0.17998433797E+04  0.13292280978E+04 0.  0.
        3    1    3    3  502    0  0.62299490880E+03  0.18240611873E+03  0.41374711406E+03  0.76979304565E+03  0.10100000352E+00 0.  1.
       -3    1    3    3    0  502 -0.62299490880E+03 -0.18240611873E+03  0.79975560766E+03  0.10300503341E+04  0.10100000352E+00 0. -1.
</event>
<event>
 5   0  0.1324721E-03  0.1316804E+04  0.7818609E-02  0.9016344E-01
        1   -1    0    0  501    0  0.00000000000E+00  0.00000000000E+00  0.11609277126E+04  0.11609277127E+04  0.50400001928E-02 0.  1.
       -1   -1    0    0    0  501  0.00000000000E+00  0.00000000000E+00 -0.37340266888E+03  0.37340266892E+03  0.50400001928E-02 0. -1.
    10030    2    1    2    0    0  0.00000000000E+00  0.00000000000E+00  0.78752504376E+03  0.15343303816E+04  0.13168044750E+04 0.  0.
        1    1    3    3  502    0 -0.65382719422E+02 -0.12225329748E+03 -0.35620208470E+03  0.38223120479E+03  0.50400001928E-02 0. -1.
       -1    1    3    3    0  502  0.65382719422E+02  0.12225329748E+03  0.11437271285E+04  0.11520991768E+04  0.50400001928E-02 0.  1.
</event>
<event>
 5   0  0.1310461E-03  0.1276075E+04  0.7818609E-02  0.9048756E-01
       -1   -1    0    0    0  501  0.00000000000E+00  0.00000000000E+00  0.45946293428E+03  0.45946293431E+03  0.50400001928E-02 0.  1.
        1   -1    0    0  501    0  0.00000000000E+00  0.00000000000E+00 -0.88601630729E+03  0.88601630730E+03  0.50400001928E-02 0. -1.
    10030    2    1    2    0    0  0.00000000000E+00  0.00000000000E+00 -0.42655337301E+03  0.13454792416E+04  0.12760746881E+04 0.  0.
        4    1    3    3  502    0 -0.16445427576E+03 -0.18643486958E+03  0.40629411077E+03  0.47631889188E+03  0.12699999809E+01 0.  1.
       -4    1    3    3    0  502  0.16445427576E+03  0.18643486958E+03 -0.83284748378E+03  0.86916034973E+03  0.12699999809E+01 0. -1.
</event>
<event>
 5   0  0.1387622E-03  0.1099178E+04  0.7818609E-02  0.9205993E-01
       -1   -1    0    0    0  501  0.00000000000E+00  0.00000000000E+00  0.70230590275E+03  0.70230590277E+03  0.50400001928E-02 0.  1.
        1   -1    0    0  501    0  0.00000000000E+00  0.00000000000E+00 -0.43008075732E+03  0.43008075735E+03  0.50400001928E-02 0. -1.
    10030    2    1    2    0    0  0.00000000000E+00  0.00000000000E+00  0.27222514543E+03  0.11323866601E+04  0.10991783378E+04 0.  0.
        3    1    3    3  502    0  0.83568046812E+02 -0.27882808710E+02 -0.42275929864E+03  0.43184083208E+03  0.10100000352E+00 0. -1.
       -3    1    3    3    0  502 -0.83568046812E+02  0.27882808710E+02  0.69498444407E+03  0.70054582803E+03  0.10100000352E+00 0.  1.
</event>
<event>
 5   0  0.1332630E-03  0.1285469E+04  0.7818609E-02  0.9041168E-01
       -1   -1    0    0    0  501  0.00000000000E+00  0.00000000000E+00  0.91174979789E+03  0.91174979790E+03  0.50400001928E-02 0. -1.
        1   -1    0    0  501    0  0.00000000000E+00  0.00000000000E+00 -0.45309321743E+03  0.45309321746E+03  0.50400001928E-02 0.  1.
    10030    2    1    2    0    0  0.00000000000E+00  0.00000000000E+00  0.45865658046E+03  0.13648430154E+04  0.12854690186E+04 0.  0.
        5    1    3    3  502    0 -0.34330504269E+03  0.54163530932E+03  0.18355727493E+03  0.66704012159E+03  0.46999998093E+01 0. -1.
       -5    1    3    3    0  502  0.34330504269E+03 -0.54163530932E+03  0.27509930553E+03  0.69780289376E+03  0.46999998093E+01 0.  1.
</event>
<event>
 5   0  0.9131250E-04  0.1308922E+04  0.7818609E-02  0.9022520E-01
        3   -1    0    0  501    0  0.00000000000E+00  0.00000000000E+00  0.82660705963E+03  0.82660706580E+03  0.10100000352E+00 0. -1.
       -3   -1    0    0    0  501  0.00000000000E+00  0.00000000000E+00 -0.51816558335E+03  0.51816559320E+03  0.10100000352E+00 0.  1.
    10030    2    1    2    0    0  0.00000000000E+00  0.00000000000E+00  0.30844147627E+03  0.13447726590E+04  0.13089222132E+04 0.  0.
        3    1    3    3  502    0  0.20397606565E+03 -0.20035460499E+03 -0.45060633382E+03  0.53366120468E+03  0.10100000352E+00 0.  1.
       -3    1    3    3    0  502 -0.20397606565E+03  0.20035460499E+03  0.75904781010E+03  0.81111145431E+03  0.10100000352E+00 0. -1.
</event>
<event>
 5   0  0.1387622E-03  0.1300593E+04  0.7818609E-02  0.9029095E-01
        1   -1    0    0  501    0  0.00000000000E+00  0.00000000000E+00  0.10082523566E+04  0.10082523566E+04  0.50400001928E-02 0.  1.
       -1   -1    0    0    0  501  0.00000000000E+00  0.00000000000E+00 -0.41942408035E+03  0.41942408038E+03  0.50400001928E-02 0. -1.
    10030    2    1    2    0    0  0.00000000000E+00  0.00000000000E+00  0.58882827623E+03  0.14276764370E+04  0.13005926610E+04 0.  0.
        3    1    3    3  502    0  0.17595381020E+03  0.15341122926E+03  0.96067260081E+03  0.98862864855E+03  0.10100000352E+00 0.  1.
       -3    1    3    3    0  502 -0.17595381020E+03 -0.15341122926E+03 -0.37184432458E+03  0.43904778842E+03  0.10100000352E+00 0. -1.
</event>
<event>
 5   0  0.2401211E-03  0.1302680E+04  0.7818609E-02  0.9027443E-01
       -2   -1    0    0    0  501  0.00000000000E+00  0.00000000000E+00  0.46845960941E+03  0.46845960942E+03  0.25500000920E-02 0. -1.
        2   -1    0    0  501    0  0.00000000000E+00  0.00000000000E+00 -0.90561434804E+03  0.90561434804E+03  0.25500000920E-02 0.  1.
    10030    2    1    2    0    0  0.00000000000E+00  0.00000000000E+00 -0.43715473863E+03  0.13740739575E+04  0.13026799204E+04 0.  0.
        4    1    3    3  502    0  0.44459784349E+03  0.35191558677E+03  0.11950434757E+03  0.57947797597E+03  0.12699999809E+01 0. -1.
       -4    1    3    3    0  502 -0.44459784349E+03 -0.35191558677E+03 -0.55665908620E+03  0.79459598149E+03  0.12699999809E+01 0.  1.
</event>
<event>
 5   0  0.2334946E-03  0.1290402E+04  0.7818609E-02  0.9037212E-01
        2   -1    0    0  501    0  0.00000000000E+00  0.00000000000E+00  0.32386132507E+03  0.32386132508E+03  0.25500000920E-02 0.  1.
       -2   -1    0    0    0  501  0.00000000000E+00  0.00000000000E+00 -0.12853777173E+04  0.12853777173E+04  0.25500000920E-02 0. -1.
    10030    2    1    2    0    0  0.00000000000E+00  0.00000000000E+00 -0.96151639220E+03  0.16092390424E+04  0.12904016906E+04 0.  0.
        1    1    3    3  502    0 -0.38971574571E+03  0.32520220116E+03 -0.97748170274E+03  0.11014106016E+04  0.50400001928E-02 0. -1.
       -1    1    3    3    0  502  0.38971574571E+03 -0.32520220116E+03  0.15965310531E+02  0.50782844077E+03  0.50400001928E-02 0.  1.
</event>
<event>
 5   0  0.1346593E-03  0.1311971E+04  0.7818609E-02  0.9020125E-01
       -1   -1    0    0    0  501  0.00000000000E+00  0.00000000000E+00  0.17371629169E+04  0.17371629169E+04  0.50400001928E-02 0.  1.
        1   -1    0    0  501    0  0.00000000000E+00  0.00000000000E+00 -0.24771262796E+03  0.24771262801E+03  0.50400001928E-02 0. -1.
    10030    2    1    2    0    0  0.00000000000E+00  0.00000000000E+00  0.14894502889E+04  0.19848755449E+04  0.13119713280E+04 0.  0.
        2    1    3    3  502    0  0.34273142649E+03 -0.43449975886E+03  0.12776044890E+04  0.13923103467E+04  0.25500000920E-02 0.  1.
       -2    1    3    3    0  502 -0.34273142649E+03  0.43449975886E+03  0.21184579989E+03  0.59256519818E+03  0.25500000920E-02 0. -1.
</event>
<event>
 5   0  0.2312105E-03  0.1284003E+04  0.7818609E-02  0.9042348E-01
        2   -1    0    0  501    0  0.00000000000E+00  0.00000000000E+00  0.23817593900E+03  0.23817593901E+03  0.25500000920E-02 0.  1.
       -2   -1    0    0    0  501  0.00000000000E+00  0.00000000000E+00 -0.17305112519E+04  0.17305112519E+04  0.25500000920E-02 0. -1.
    10030    2    1    2    0    0  0.00000000000E+00  0.00000000000E+00 -0.14923353129E+04  0.19686871909E+04  0.12840033370E+04 0.  0.
        5    1    3    3  502    0  0.34272232551E+02  0.19386152028E+03  0.19072592356E+03  0.27414474805E+03  0.46999998093E+01 0.  1.
       -5    1    3    3    0  502 -0.34272232551E+02 -0.19386152028E+03 -0.16830612365E+04  0.16945424429E+04  0.46999998093E+01 0. -1.
</event>
<event>
 5   0  0.1346593E-03  0.1332538E+04  0.7818609E-02  0.9004153E-01
       -1   -1    0    0    0  501  0.00000000000E+00  0.00000000000E+00  0.47868476360E+03  0.47868476363E+03  0.50400001928E-02 0. -1.
        1   -1    0    0  501    0  0.00000000000E+00  0.00000000000E+00 -0.92736213390E+03  0.92736213391E+03  0.50400001928E-02 0.  1.
    10030    2    1    2    0    0  0.00000000000E+00  0.00000000000E+00 -0.44867737029E+03  0.14060468975E+04  0.13325376150E+04 0.  0.
        2    1    3    3  502    0 -0.48441561164E+03  0.44832453487E+03 -0.32024121898E+03  0.73362647969E+03  0.25500000920E-02 0. -1.
       -2    1    3    3    0  502  0.48441561164E+03 -0.44832453487E+03 -0.12843615131E+03  0.67242041785E+03  0.25500000920E-02 0.  1.
</event>
<event>
 5   0  0.2361043E-03  0.1264091E+04  0.7818609E-02  0.9058536E-01
        2   -1    0    0  501    0  0.00000000000E+00  0.00000000000E+00  0.11496163949E+04  0.11496163949E+04  0.25500000920E-02 0.  1.
       -2   -1    0    0    0  501  0.00000000000E+00  0.00000000000E+00 -0.34749128131E+03  0.34749128132E+03  0.25500000920E-02 0. -1.
    10030    2    1    2    0    0  0.00000000000E+00  0.00000000000E+00  0.80212511356E+03  0.14971076762E+04  0.12640912532E+04 0.  0.
        2    1    3    3  502    0  0.29779946509E+03  0.17549672355E+03 -0.22562650756E+03  0.41278437750E+03  0.25500000920E-02 0. -1.
       -2    1    3    3    0  502 -0.29779946509E+03 -0.17549672355E+03  0.10277516211E+04  0.10843232987E+04  0.25500000920E-02 0.  1.
</event>
<event>
 5   0  0.2478236E-03  0.1361391E+04  0.7818609E-02  0.8982250E-01
       -2   -1    0    0    0  501  0.00000000000E+00  0.00000000000E+00  0.30416768276E+03  0.30416768277E+03  0.25500000920E-02 0.  1.
        2   -1    0    0  501    0  0.00000000000E+00  0.00000000000E+00 -0.15233250505E+04  0.15233250505E+04  0.25500000920E-02 0. -1.
    10030    2    1    2    0    0  0.00000000000E+00  0.00000000000E+00 -0.12191573677E+04  0.18274927333E+04  0.13613908340E+04 0.  0.
        3    1    3    3  502    0  0.66721578675E+03 -0.56051028663E+02 -0.77413626305E+03  0.10235260563E+04  0.10100000352E+00 0. -1.
       -3    1    3    3    0  502 -0.66721578675E+03  0.56051028663E+02 -0.44502110468E+03  0.80396667699E+03  0.10100000352E+00 0.  1.
</event>
<event>
 5   0  0.9131250E-04  0.1305970E+04  0.7818609E-02  0.9024844E-01
        3   -1    0    0  501    0  0.00000000000E+00  0.00000000000E+00  0.70527365112E+03  0.70527365835E+03  0.10100000352E+00 0. -1.
       -3   -1    0    0    0  501  0.00000000000E+00  0.00000000000E+00 -0.60457330635E+03  0.60457331478E+03  0.10100000352E+00 0.  1.
    10030    2    1    2    0    0  0.00000000000E+00  0.00000000000E+00  0.10070034477E+03  0.13098469731E+04  0.13059703418E+04 0.  0.
        4    1    3    3  502    0  0.15966221921E+03 -0.54477117317E+03  0.37398487789E+03  0.67980435212E+03  0.12699999809E+01 0. -1.
       -4    1    3    3    0  502 -0.15966221921E+03  0.54477117317E+03 -0.27328453312E+03  0.63004262102E+03  0.12699999809E+01 0.  1.
</event>
<event>
 5   0  0.2334946E-03  0.1306498E+04  0.7818609E-02  0.9024428E-01
       -2   -1    0    0    0  501  0.00000000000E+00  0.00000000000E+00  0.38058357043E+03  0.38058357044E+03  0.25500000920E-02 0.  1.
        2   -1    0    0  501    0  0.00000000000E+00  0.00000000000E+00 -0.11212635719E+04  0.11212635719E+04  0.25500000920E-02 0. -1.
    10030    2    1    2    0    0  0.00000000000E+00  0.00000000000E+00 -0.74068000144E+03  0.15018471423E+04  0.13064983637E+04 0.  0.
        1    1    3    3  502    0  0.50308700731E+03  0.56061665030E+02  0.10430919031E+03  0.51683639038E+03  0.50400001928E-02 0.  1.
       -1    1    3    3    0  502 -0.50308700731E+03 -0.56061665030E+02 -0.84498919176E+03  0.98501075193E+03  0.50400001928E-02 0. -1.
</event>
<event>
 5   0  0.2401211E-03  0.1432461E+04  0.7818609E-02  0.8930651E-01
       -2   -1    0    0    0  501  0.00000000000E+00  0.00000000000E+00  0.32857727565E+03  0.32857727566E+03  0.25500000920E-02 0.  1.
        2   -1    0    0  501    0  0.00000000000E+00  0.00000000000E+00 -0.15612340889E+04  0.15612340889E+04  0.25500000920E-02 0. -1.
    10030    2    1    2    0    0  0.00000000000E+00  0.00000000000E+00 -0.12326568133E+04  0.18898113646E+04  0.14324608806E+04 0.  0.
        4    1    3    3  502    0  0.34215932721E+03 -0.23193843623E+03  0.15532516477E+03  0.44158347241E+03  0.12699999809E+01 0.  1.
       -4    1    3    3    0  502 -0.34215932721E+03  0.23193843623E+03 -0.13879819780E+04  0.14482278922E+04  0.12699999809E+01 0. -1.
</event>
<event>
 5   0  0.1332630E-03  0.1330158E+04  0.7818609E-02  0.9005986E-01
        1   -1    0    0  501    0  0.00000000000E+00  0.00000000000E+00  0.80212150187E+03  0.80212150189E+03  0.50400001928E-02 0.  1.
       -1   -1    0    0    0  501  0.00000000000E+00  0.00000000000E+00 -0.55145015401E+03  0.55145015403E+03  0.50400001928E-02 0. -1.
    10030    2    1    2    0    0  0.00000000000E+00  0.00000000000E+00  0.25067134787E+03  0.13535716559E+04  0.13301579241E+04 0.  0.
        5    1    3    3  502    0 -0.16600978098E+03  0.15730810635E+03  0.76083037677E+03  0.79447469432E+03  0.46999998093E+01 0.  1.
       -5    1    3    3    0  502  0.16600978098E+03 -0.15730810635E+03 -0.51015902890E+03  0.55909696160E+03  0.46999998093E+01 0. -1.
</event>
<event>
 5   0  0.1346593E-03  0.1290262E+04  0.7818609E-02  0.9037323E-01
       -1   -1    0    0    0  501  0.00000000000E+00  0.00000000000E+00  0.81132004721E+03  0.81132004723E+03  0.50400001928E-02 0.  1.
        1   -1    0    0  501    0  0.00000000000E+00  0.00000000000E+00 -0.51298361708E+03  0.51298361710E+03  0.50400001928E-02 0. -1.
    10030    2    1    2    0    0  0.00000000000E+00  0.00000000000E+00  0.29833643014E+03  0.13243036643E+04  0.12902618222E+04 0.  0.
        2    1    3    3  502    0 -0.28360667588E+03  0.17547416621E+03 -0.41764278125E+03  0.53446180626E+03  0.25500000920E-02 0. -1.
       -2    1    3    3    0  502  0.28360667588E+03 -0.17547416621E+03  0.71597921139E+03  0.78984185807E+03  0.25500000920E-02 0.  1.
</event>
<event>
 5   0  0.1332630E-03  0.1266016E+04  0.7818609E-02  0.9056957E-01
       -1   -1    0    0    0  501  0.00000000000E+00  0.00000000000E+00  0.49395598171E+03  0.49395598174E+03  0.50400001928E-02 0. -1.
        1   -1    0    0  501    0  0.00000000000E+00  0.00000000000E+00 -0.81120456961E+03  0.81120456963E+03  0.50400001928E-02 0.  1.
    10030    2    1    2    0    0  0.00000000000E+00  0.00000000000E+00 -0.31724858790E+03  0.13051605514E+04  0.12660163499E+04 0.  0.
        5    1    3    3  502    0 -0.43262810164E+03  0.25677258819E+03  0.23741243852E+03  0.55631465227E+03  0.46999998093E+01 0. -1.
       -5    1    3    3    0  502  0.43262810164E+03 -0.25677258819E+03 -0.55466102642E+03  0.74884589910E+03  0.46999998093E+01 0.  1.
</event>
<event>
 5   0  0.2478236E-03  0.1292196E+04  0.7818609E-02  0.9035776E-01
        2   -1    0    0  501    0  0.00000000000E+00  0.00000000000E+00  0.56301703803E+03  0.56301703804E+03  0.25500000920E-02 0.  1.
       -2   -1    0    0    0  501  0.00000000000E+00  0.00000000000E+00 -0.74143924728E+03  0.74143924728E+03  0.25500000920E-02 0. -1.
    10030    2    1    2    0    0  0.00000000000E+00  0.00000000000E+00 -0.17842220925E+03  0.13044562853E+04  0.12921964694E+04 0.  0.
        3    1    3    3  502    0  0.39998994342E+03  0.35305015335E+02 -0.60017989325E+03  0.72211793594E+03  0.10100000352E+00 0. -1.
       -3    1    3    3    0  502 -0.39998994342E+03 -0.35305015335E+02  0.42175768401E+03  0.58233834938E+03  0.10100000352E+00 0.  1.
</event>
<event>
 5   0  0.2361043E-03  0.1358607E+04  0.7818609E-02  0.8984338E-01
        2   -1    0    0  501    0  0.00000000000E+00  0.00000000000E+00  0.45017891369E+03  0.45017891369E+03  0.25500000920E-02 0. -1.
       -2   -1    0    0    0  501  0.00000000000E+00  0.00000000000E+00 -0.10250448267E+04  0.10250448267E+04  0.25500000920E-02 0.  1.
    10030    2    1    2    0    0  0.00000000000E+00  0.00000000000E+00 -0.57486591297E+03  0.14752237404E+04  0.13586074732E+04 0.  0.
        2    1    3    3  502    0 -0.41728899599E+03 -0.41770096063E+03 -0.65219820743E+03  0.87975377264E+03  0.25500000920E-02 0. -1.
       -2    1    3    3    0  502  0.41728899599E+03  0.41770096063E+03  0.77332294458E+02  0.59546996772E+03  0.25500000920E-02 0.  1.
</event>
<event>
 5   0  0.2312105E-03  0.1298635E+04  0.7818609E-02  0.9030648E-01
        2   -1    0    0  501    0  0.00000000000E+00  0.00000000000E+00  0.67826663371E+03  0.67826663371E+03  0.25500000920E-02 0. -1.
       -2   -1    0    0    0  501  0.00000000000E+00  0.00000000000E+00 -0.62160413665E+03  0.62160413666E+03  0.25500000920E-02 0.  1.
    10030    2    1    2    0    0  0.00000000000E+00  0.00000000000E+00  0.56662497057E+02  0.12998707704E+04  0.12986351994E+04 0.  0.
        5    1    3    3  502    0 -0.22693590749E+03 -0.50496639358E+03 -0.31125587771E+03  0.63513248710E+03  0.46999998093E+01 0. -1.
       -5    1    3    3    0  502  0.22693590749E+03  0.50496639358E+03  0.36791837477E+03  0.66473828327E+03  0.46999998093E+01 0.  1.
</event>
<event>
 5   0  0.1310461E-03  0.1292989E+04  0.7818609E-02  0.9035143E-01
        1   -1    0    0  501    0  0.00000000000E+00  0.00000000000E+00  0.60914659605E+03  0.60914659607E+03  0.50400001928E-02 0. -1.
       -1   -1    0    0    0  501  0.00000000000E+00  0.00000000000E+00 -0.68613258969E+03  0.68613258971E+03  0.50400001928E-02 0.  1.
    10030    2    1    2    0    0  0.00000000000E+00  0.00000000000E+00 -0.76985993640E+02  0.12952791858E+04  0.12929892984E+04 0.  0.
        4    1    3    3  502    0 -0.99068306889E+02 -0.47039494469E+03  0.39455464247E+03  0.62190104697E+03  0.12699999809E+01 0. -1.
       -4    1    3    3    0  502  0.99068306889E+02  0.47039494469E+03 -0.47154063611E+03  0.67337813881E+03  0.12699999809E+01 0.  1.
</event>
<event>
 5   0  0.1324721E-03  0.1296623E+04  0.7818609E-02  0.9032248E-01
       -1   -1    0    0    0  501  0.00000000000E+00  0.00000000000E+00  0.63031404844E+03  0.63031404846E+03  0.50400001928E-02 0.  1.
        1   -1    0    0  501    0  0.00000000000E+00  0.00000000000E+00 -0.66682269019E+03  0.66682269021E+03  0.50400001928E-02 0. -1.
    10030    2    1    2    0    0  0.00000000000E+00  0.00000000000E+00 -0.36508641756E+02  0.12971367387E+04  0.12966228588E+04 0.  0.
        1    1    3    3  502    0  0.40939896872E+03  0.42618040931E+02 -0.51933594832E+03  0.66267159306E+03  0.50400001928E-02 0. -1.
       -1    1    3    3    0  502 -0.40939896872E+03 -0.42618040931E+02  0.48282730656E+03  0.63446514561E+03  0.50400001928E-02 0.  1.
</event>
<event>
 5   0  0.2361043E-03  0.1268728E+04  0.7818609E-02  0.9054739E-01
       -2   -1    0    0    0  501  0.00000000000E+00  0.00000000000E+00  0.67311750612E+03  0.67311750613E+03  0.25500000920E-02 0.  1.
        2   -1    0    0  501    0  0.00000000000E+00  0.00000000000E+00 -0.59784148606E+03  0.59784148606E+03  0.25500000920E-02 0. -1.
    10030    2    1    2    0    0  0.00000000000E+00  0.00000000000E+00  0.75276020066E+02  0.12709589922E+04  0.12687278198E+04 0.  0.
        2    1    3    3  502    0  0.27268995662E+03 -0.34315867842E+03 -0.42175310020E+03  0.60827080199E+03  0.25500000920E-02 0. -1.
       -2    1    3    3    0  502 -0.27268995662E+03  0.34315867842E+03  0.49702912027E+03  0.66268819019E+03  0.25500000920E-02 0.  1.
</event>
<event>
 5   0  0.9131250E-04  0.1314380E+04  0.7818609E-02  0.9018239E-01
       -3   -1    0    0    0  501  0.00000000000E+00  0.00000000000E+00  0.68935973147E+03  0.68935973887E+03  0.10100000352E+00 0. -1.
        3   -1    0    0  501    0  0.00000000000E+00  0.00000000000E+00 -0.62652176322E+03  0.62652177136E+03  0.10100000352E+00 0.  1.
    10030    2    1    2    0    0  0.00000000000E+00  0.00000000000E+00  0.62837968246E+02  0.13158815102E+04  0.13143802869E+04 0.  0.
        2    1    3    3  502    0 -0.22035144163E+03 -0.47357143883E+03 -0.36787764854E+03  0.63887293713E+03  0.25500000920E-02 0.  1.
       -2    1    3    3    0  502  0.22035144163E+03  0.47357143883E+03  0.43071561678E+03  0.67700857310E+03  0.25500000920E-02 0. -1.
</event>
<event>
 5   0  0.1310461E-03  0.1284409E+04  0.7818609E-02  0.9042022E-01
       -1   -1    0    0    0  501  0.00000000000E+00  0.00000000000E+00  0.39390243819E+03  0.39390243822E+03  0.50400001928E-02 0.  1.
        1   -1    0    0  501    0  0.00000000000E+00  0.00000000000E+00 -0.10470265310E+04  0.10470265310E+04  0.50400001928E-02 0. -1.
    10030    2    1    2    0    0  0.00000000000E+00  0.00000000000E+00 -0.65312409279E+03  0.14409289692E+04  0.12844085073E+04 0.  0.
        4    1    3    3  502    0 -0.45530754750E+03  0.21870586824E+03 -0.77148669275E+03  0.92213369399E+03  0.12699999809E+01 0. -1.
       -4    1    3    3    0  502  0.45530754750E+03 -0.21870586824E+03  0.11836259996E+03  0.51879527521E+03  0.12699999809E+01 0.  1.
</event>
<event>
 5   0  0.2401211E-03  0.1302680E+04  0.7818609E-02  0.9027443E-01
        2   -1    0    0  501    0  0.00000000000E+00  0.00000000000E+00  0.96740818063E+03  0.96740818063E+03  0.25500000920E-02 0. -1.
       -2   -1    0    0    0  501  0.00000000000E+00  0.00000000000E+00 -0.43853617818E+03  0.43853617819E+03  0.25500000920E-02 0.  1.
    10030    2    1    2    0    0  0.00000000000E+00  0.00000000000E+00  0.52887200245E+03  0.14059443588E+04  0.13026795251E+04 0.  0.
        4    1    3    3  502    0  0.41615851976E+03  0.50031824183E+03  0.29370826691E+03  0.71398348414E+03  0.12699999809E+01 0. -1.
       -4    1    3    3    0  502 -0.41615851976E+03 -0.50031824183E+03  0.23516373554E+03  0.69196087468E+03  0.12699999809E+01 0.  1.
</event>
<event>
 5   0  0.1332630E-03  0.1297300E+04  0.7818609E-02  0.9031709E-01
        1   -1    0    0  501    0  0.00000000000E+00  0.00000000000E+00  0.36018084352E+03  0.36018084356E+03  0.50400001928E-02 0. -1.
       -1   -1    0    0    0  501  0.00000000000E+00  0.00000000000E+00 -0.11681537942E+04  0.11681537942E+04  0.50400001928E-02 0.  1.
    10030    2    1    2    0    0  0.00000000000E+00  0.00000000000E+00 -0.80797295066E+03  0.15283346377E+04  0.12972996862E+04 0.  0.
        5    1    3    3  502    0 -0.54756892325E+03  0.29018963326E+03 -0.17835002250E+03  0.64488182598E+03  0.46999998093E+01 0. -1.
       -5    1    3    3    0  502  0.54756892325E+03 -0.29018963326E+03 -0.62962292816E+03  0.88345281176E+03  0.46999998093E+01 0.  1.
</event>
<event>
 5   0  0.2478236E-03  0.1323818E+04  0.7818609E-02  0.9010888E-01
        2   -1    0    0  501    0  0.00000000000E+00  0.00000000000E+00  0.12164579037E+04  0.12164579037E+04  0.25500000920E-02 0.  1.
       -2   -1    0    0    0  501  0.00000000000E+00  0.00000000000E+00 -0.36016314404E+03  0.36016314404E+03  0.25500000920E-02 0. -1.
    10030    2    1    2    0    0  0.00000000000E+00  0.00000000000E+00  0.85629475964E+03  0.15766210477E+04  0.13238176660E+04 0.  0.
        3    1    3    3  502    0 -0.12517488281E+03  0.58097331722E+03  0.77521633278E+03  0.97681068760E+03  0.10100000352E+00 0. -1.
       -3    1    3    3    0  502  0.12517488281E+03 -0.58097331722E+03  0.81078426859E+02  0.59981036012E+03  0.10100000352E+00 0.  1.
</event>
<event>
 5   0  0.2334946E-03  0.1280959E+04  0.7818609E-02  0.9044803E-01
        2   -1    0    0  501    0  0.00000000000E+00  0.00000000000E+00  0.24079260863E+04  0.24079260863E+04  0.25500000920E-02 0.  1.
       -2   -1    0    0    0  501  0.00000000000E+00  0.00000000000E+00 -0.17035984553E+03  0.17035984555E+03  0.25500000920E-02 0. -1.
    10030    2    1    2    0    0  0.00000000000E+00  0.00000000000E+00  0.22375662407E+04  0.25782859318E+04  0.12809588848E+04 0.  0.
        1    1    3    3  502    0  0.54314954544E+03  0.19836471732E+03  0.16731342302E+04  0.17702367474E+04  0.50400001928E-02 0. -1.
       -1    1    3    3    0  502 -0.54314954544E+03 -0.19836471732E+03  0.56443201058E+03  0.80804918439E+03  0.50400001928E-02 0.  1.
</event>
<event>
 5   0  0.1324721E-03  0.1299607E+04  0.7818609E-02  0.9029877E-01
        1   -1    0    0  501    0  0.00000000000E+00  0.00000000000E+00  0.49881889512E+03  0.49881889515E+03  0.50400001928E-02 0.  1.
       -1   -1    0    0    0  501  0.00000000000E+00  0.00000000000E+00 -0.84648856724E+03  0.84648856725E+03  0.50400001928E-02 0. -1.
    10030    2    1    2    0    0  0.00000000000E+00  0.00000000000E+00 -0.34766967212E+03  0.13453074624E+04  0.12996068511E+04 0.  0.
        1    1    3    3  502    0 -0.43555411034E+03 -0.90787478289E+02 -0.66408653354E+03  0.79935015687E+03  0.50400001928E-02 0. -1.
       -1    1    3    3    0  502  0.43555411034E+03  0.90787478289E+02  0.31641686142E+03  0.54595730553E+03  0.50400001928E-02 0.  1.
</event>
<event>
 5   0  0.9131250E-04  0.1264572E+04  0.7818609E-02  0.9058142E-01
       -3   -1    0    0    0  501  0.00000000000E+00  0.00000000000E+00  0.98975514568E+03  0.98975515083E+03  0.10100000352E+00 0. -1.
        3   -1    0    0  501    0  0.00000000000E+00  0.00000000000E+00 -0.40392349376E+03  0.40392350639E+03  0.10100000352E+00 0.  1.
    10030    2    1    2    0    0  0.00000000000E+00  0.00000000000E+00  0.58583165192E+03  0.13936786572E+04  0.12645716568E+04 0.  0.
        3    1    3    3  502    0 -0.21708603051E+03  0.54443859115E+03  0.55429056703E+03  0.80670798129E+03  0.10100000352E+00 0. -1.
       -3    1    3    3    0  502  0.21708603051E+03 -0.54443859115E+03  0.31541084887E+02  0.58697067593E+03  0.10100000352E+00 0.  1.
</event>
<event>
 5   0  0.1346593E-03  0.1297103E+04  0.7818609E-02  0.9031866E-01
        1   -1    0    0  501    0  0.00000000000E+00  0.00000000000E+00  0.11810347266E+04  0.11810347267E+04  0.50400001928E-02 0. -1.
       -1   -1    0    0    0  501  0.00000000000E+00  0.00000000000E+00 -0.35614435928E+03  0.35614435932E+03  0.50400001928E-02 0.  1.
    10030    2    1    2    0    0  0.00000000000E+00  0.00000000000E+00  0.82489036736E+03  0.15371790860E+04  0.12971027038E+04 0.  0.
        2    1    3    3  502    0  0.43396686000E+03 -0.46099486634E+03  0.24579253057E+03  0.67915938517E+03  0.25500000920E-02 0.  1.
       -2    1    3    3    0  502 -0.43396686000E+03  0.46099486634E+03  0.57909783679E+03  0.85801970080E+03  0.25500000920E-02 0. -1.
</event>
<event>
 5   0  0.1310461E-03  0.1287315E+04  0.7818609E-02  0.9039686E-01
        1   -1    0    0  501    0  0.00000000000E+00  0.00000000000E+00  0.93802000312E+03  0.93802000313E+03  0.50400001928E-02 0.  1.
       -1   -1    0    0    0  501  0.00000000000E+00  0.00000000000E+00 -0.44166954897E+03  0.44166954900E+03  0.50400001928E-02 0. -1.
    10030    2    1    2    0    0  0.00000000000E+00  0.00000000000E+00  0.49635045414E+03  0.13796895521E+04  0.12873148360E+04 0.  0.
        4    1    3    3  502    0  0.25590922564E+03  0.86742389144E+01 -0.38473237542E+03  0.46215299175E+03  0.12699999809E+01 0. -1.
       -4    1    3    3    0  502 -0.25590922564E+03 -0.86742389144E+01  0.88108282956E+03  0.91753656038E+03  0.12699999809E+01 0.  1.
</event>
<event>
 5   0  0.1310461E-03  0.1295713E+04  0.7818609E-02  0.9032972E-01
       -1   -1    0    0    0  501  0.00000000000E+00  0.00000000000E+00  0.41591460647E+03  0.41591460650E+03  0.50400001928E-02 0. -1.
        1   -1    0    0  501    0  0.00000000000E+00  0.00000000000E+00 -0.10091441066E+04  0.10091441066E+04  0.50400001928E-02 0.  1.
    10030    2    1    2    0    0  0.00000000000E+00  0.00000000000E+00 -0.59322950011E+03  0.14250587131E+04  0.12957125823E+04 0.  0.
        4    1    3    3  502    0 -0.42241403259E+03 -0.16069921125E+03 -0.80712645729E+03  0.92504734061E+03  0.12699999809E+01 0.  1.
       -4    1    3    3    0  502  0.42241403259E+03  0.16069921125E+03  0.21389695718E+03  0.50001137249E+03  0.12699999809E+01 0. -1.
</event>
<event>
 5   0  0.1324721E-03  0.1304876E+04  0.7818609E-02  0.9025707E-01
        1   -1    0    0  501    0  0.00000000000E+00  0.00000000000E+00  0.52239076012E+03  0.52239076014E+03  0.50400001928E-02 0.  1.
       -1   -1    0    0    0  501  0.00000000000E+00  0.00000000000E+00 -0.81486012543E+03  0.81486012545E+03  0.50400001928E-02 0. -1.
    10030    2    1    2    0    0  0.00000000000E+00  0.00000000000E+00 -0.29246936531E+03  0.13372508856E+04  0.13048760866E+04 0.  0.
        1    1    3    3  502    0  0.35319588412E+03  0.12324017217E+03 -0.69404358700E+03  0.78843641043E+03  0.50400001928E-02 0. -1.
       -1    1    3    3    0  502 -0.35319588412E+03 -0.12324017217E+03  0.40157422169E+03  0.54881447516E+03  0.50400001928E-02 0.  1.
</event>
<event>
 5   0  0.2312105E-03  0.1289069E+04  0.7818609E-02  0.9038278E-01
        2   -1    0    0  501    0  0.00000000000E+00  0.00000000000E+00  0.12717144384E+04  0.12717144384E+04  0.25500000920E-02 0. -1.
       -2   -1    0    0    0  501  0.00000000000E+00  0.00000000000E+00 -0.32666529057E+03  0.32666529058E+03  0.25500000920E-02 0.  1.
    10030    2    1    2    0    0  0.00000000000E+00  0.00000000000E+00  0.94504914784E+03  0.15983797290E+04  0.12890693799E+04 0.  0.
        5    1    3    3  502    0 -0.38922728305E+03  0.96117044189E+02  0.10982583399E+04  0.11691577461E+04  0.46999998093E+01 0. -1.
       -5    1    3    3    0  502  0.38922728305E+03 -0.96117044189E+02 -0.15320919209E+03  0.42922198288E+03  0.46999998093E+01 0.  1.
</event>
<event>
 5   0  0.2361043E-03  0.1306116E+04  0.7818609E-02  0.9024729E-01
       -2   -1    0    0    0  501  0.00000000000E+00  0.00000000000E+00  0.37841792414E+03  0.37841792415E+03  0.25500000920E-02 0. -1.
        2   -1    0    0  501    0  0.00000000000E+00  0.00000000000E+00 -0.11270204631E+04  0.11270204631E+04  0.25500000920E-02 0.  1.
    10030    2    1    2    0    0  0.00000000000E+00  0.00000000000E+00 -0.74860253891E+03  0.15054383872E+04  0.13061159889E+04 0.  0.
        2    1    3    3  502    0  0.48176584474E+03  0.34480398302E+03 -0.57603490230E+02  0.59523632110E+03  0.25500000920E-02 0. -1.
       -2    1    3    3    0  502 -0.48176584474E+03 -0.34480398302E+03 -0.69099904868E+03  0.91020206611E+03  0.25500000920E-02 0.  1.
</event>
<event>
 5   0  0.1346593E-03  0.1320474E+04  0.7818609E-02  0.9013485E-01
        1   -1    0    0  501    0  0.00000000000E+00  0.00000000000E+00  0.10725671853E+04  0.10725671853E+04  0.50400001928E-02 0.  1.
       -1   -1    0    0    0  501  0.00000000000E+00  0.00000000000E+00 -0.40642018455E+03  0.40642018458E+03  0.50400001928E-02 0. -1.
    10030    2    1    2    0    0  0.00000000000E+00  0.00000000000E+00  0.66614700072E+03  0.14789873699E+04  0.13204740867E+04 0.  0.
        2    1    3    3  502    0 -0.64392031249E+03  0.61212770394E+02  0.18476791301E+03  0.67269573640E+03  0.25500000920E-02 0. -1.
       -2    1    3    3    0  502  0.64392031249E+03 -0.61212770394E+02  0.48137908771E+03  0.80629163346E+03  0.25500000920E-02 0.  1.
</event>
<event>
 5   0  0.1324721E-03  0.1294082E+04  0.7818609E-02  0.9034272E-01
        1   -1    0    0  501    0  0.00000000000E+00  0.00000000000E+00  0.21065845377E+04  0.21065845377E+04  0.50400001928E-02 0.  1.
       -1   -1    0    0    0  501  0.00000000000E+00  0.00000000000E+00 -0.19873959389E+03  0.19873959395E+03  0.50400001928E-02 0. -1.
    10030    2    1    2    0    0  0.00000000000E+00  0.00000000000E+00  0.19078449438E+04  0.23053241317E+04  0.12940815362E+04 0.  0.
        1    1    3    3  502    0 -0.21513195862E+03 -0.43248995565E+03  0.17208354207E+04  0.17873454804E+04  0.50400001928E-02 0.  1.
       -1    1    3    3    0  502  0.21513195862E+03  0.43248995565E+03  0.18700952313E+03  0.51797865123E+03  0.50400001928E-02 0. -1.
</event>
<event>
 5   0  0.1387622E-03  0.1263903E+04  0.7818609E-02  0.9058691E-01
        1   -1    0    0  501    0  0.00000000000E+00  0.00000000000E+00  0.41144965515E+03  0.41144965518E+03  0.50400001928E-02 0.  1.
       -1   -1    0    0    0  501  0.00000000000E+00  0.00000000000E+00 -0.97062319853E+03  0.97062319855E+03  0.50400001928E-02 0. -1.
    10030    2    1    2    0    0  0.00000000000E+00  0.00000000000E+00 -0.55917354339E+03  0.13820728537E+04  0.12639028133E+04 0.  0.
        3    1    3    3  502    0 -0.58253816462E+03 -0.17669279687E+03 -0.94041669042E+02  0.61596664148E+03  0.10100000352E+00 0. -1.
       -3    1    3    3    0  502  0.58253816462E+03  0.17669279687E+03 -0.46513187434E+03  0.76610621224E+03  0.10100000352E+00 0.  1.
</event>
<event>
 5   0  0.1324721E-03  0.1274840E+04  0.7818609E-02  0.9049759E-01
       -1   -1    0    0    0  501  0.00000000000E+00  0.00000000000E+00  0.36622370543E+03  0.36622370546E+03  0.50400001928E-02 0. -1.
        1   -1    0    0  501    0  0.00000000000E+00  0.00000000000E+00 -0.11094421578E+04  0.11094421579E+04  0.50400001928E-02 0.  1.
    10030    2    1    2    0    0  0.00000000000E+00  0.00000000000E+00 -0.74321845242E+03  0.14756658633E+04  0.12748396260E+04 0.  0.
        1    1    3    3  502    0  0.13172457014E+03 -0.57754299681E+03 -0.99166893428E+02  0.60061747254E+03  0.50400001928E-02 0. -1.
       -1    1    3    3    0  502 -0.13172457014E+03  0.57754299681E+03 -0.64405155899E+03  0.87504839078E+03  0.50400001928E-02 0.  1.
</event>
<event>
 5   0  0.1310461E-03  0.1208112E+04  0.7818609E-02  0.9105785E-01
        1   -1    0    0  501    0  0.00000000000E+00  0.00000000000E+00  0.12625896675E+04  0.12625896675E+04  0.50400001928E-02 0. -1.
       -1   -1    0    0    0  501  0.00000000000E+00  0.00000000000E+00 -0.28899642737E+03  0.28899642741E+03  0.50400001928E-02 0.  1.
    10030    2    1    2    0    0  0.00000000000E+00  0.00000000000E+00  0.97359324009E+03  0.15515860949E+04  0.12081124172E+04 0.  0.
        4    1    3    3  502    0  0.49861686306E+03 -0.30648770593E+03  0.29488502059E+03  0.65537186260E+03  0.12699999809E+01 0.  1.
       -4    1    3    3    0  502 -0.49861686306E+03  0.30648770593E+03  0.67870821950E+03  0.89621423228E+03  0.12699999809E+01 0. -1.
</event>
<event>
 5   0  0.1310461E-03  0.1360414E+04  0.7818609E-02  0.8982982E-01
        1   -1    0    0  501    0  0.00000000000E+00  0.00000000000E+00  0.11226491536E+04  0.11226491537E+04  0.50400001928E-02 0. -1.
       -1   -1    0    0    0  501  0.00000000000E+00  0.00000000000E+00 -0.41213385374E+03  0.41213385378E+03  0.50400001928E-02 0.  1.
    10030    2    1    2    0    0  0.00000000000E+00  0.00000000000E+00  0.71051529989E+03  0.15347830074E+04  0.13604142342E+04 0.  0.
        4    1    3    3  502    0  0.54352419371E+03 -0.39652935387E+03  0.24229357525E+03  0.71509570488E+03  0.12699999809E+01 0.  1.
       -4    1    3    3    0  502 -0.54352419371E+03  0.39652935387E+03  0.46822172464E+03  0.81968730255E+03  0.12699999809E+01 0. -1.
</event>
<event>
 5   0  0.1387622E-03  0.1283702E+04  0.7818609E-02  0.9042590E-01
       -1   -1    0    0    0  501  0.00000000000E+00  0.00000000000E+00  0.73015026683E+03  0.73015026685E+03  0.50400001928E-02 0. -1.
        1   -1    0    0  501    0  0.00000000000E+00  0.00000000000E+00 -0.56423016460E+03  0.56423016462E+03  0.50400001928E-02 0.  1.
    10030    2    1    2    0    0  0.00000000000E+00  0.00000000000E+00  0.16592010223E+03  0.12943804315E+04  0.12837021543E+04 0.  0.
        3    1    3    3  502    0  0.18881624369E+03 -0.29675681929E+02  0.70078902579E+03  0.72638659737E+03  0.10100000352E+00 0. -1.
       -3    1    3    3    0  502 -0.18881624369E+03  0.29675681929E+02 -0.53486892356E+03  0.56799383409E+03  0.10100000352E+00 0.  1.
</event>
<event>
 5   0  0.2361043E-03  0.1305097E+04  0.7818609E-02  0.9025533E-01
       -2   -1    0    0    0  501  0.00000000000E+00  0.00000000000E+00  0.75925120000E+03  0.75925120001E+03  0.25500000920E-02 0.  1.
        2   -1    0    0  501    0  0.00000000000E+00  0.00000000000E+00 -0.56084158845E+03  0.56084158846E+03  0.25500000920E-02 0. -1.
    10030    2    1    2    0    0  0.00000000000E+00  0.00000000000E+00  0.19840961155E+03  0.13200927885E+04  0.13050971597E+04 0.  0.
        2    1    3    3  502    0 -0.10808888722E+03 -0.16047165671E+03 -0.53116151239E+03  0.56530249637E+03  0.25500000920E-02 0. -1.
       -2    1    3    3    0  502  0.10808888722E+03  0.16047165671E+03  0.72957112394E+03  0.75479029210E+03  0.25500000920E-02 0.  1.
</event>
<event>
 5   0  0.1332630E-03  0.1310875E+04  0.7818609E-02  0.9020986E-01
        1   -1    0    0  501    0  0.00000000000E+00  0.00000000000E+00  0.42998965193E+03  0.42998965196E+03  0.50400001928E-02 0.  1.
       -1   -1    0    0    0  501  0.00000000000E+00  0.00000000000E+00 -0.99908954010E+03  0.99908954011E+03  0.50400001928E-02 0. -1.
    10030    2    1    2    0    0  0.00000000000E+00  0.00000000000E+00 -0.56909988817E+03  0.14290791921E+04  0.13108747669E+04 0.  0.
        5    1    3    3  502    0  0.33051291182E+03 -0.51961315462E+03 -0.39953938274E+02  0.61713452546E+03  0.46999998093E+01 0.  1.
       -5    1    3    3    0  502 -0.33051291182E+03  0.51961315462E+03 -0.52914594990E+03  0.81194466660E+03  0.46999998093E+01 0. -1.
</event>
<event>
 5   0  0.2334946E-03  0.1300034E+04  0.7818609E-02  0.9029538E-01
       -2   -1    0    0    0  501  0.00000000000E+00  0.00000000000E+00  0.30644204788E+03  0.30644204789E+03  0.25500000920E-02 0.  1.
        2   -1    0    0  501    0  0.00000000000E+00  0.00000000000E+00 -0.13787997514E+04  0.13787997514E+04  0.25500000920E-02 0. -1.
    10030    2    1    2    0    0  0.00000000000E+00  0.00000000000E+00 -0.10723577036E+04  0.16852417993E+04  0.13000341833E+04 0.  0.
        1    1    3    3  502    0 -0.18193893323E+03 -0.29821504603E+03 -0.12467722750E+04  0.12947876639E+04  0.50400001928E-02 0. -1.
       -1    1    3    3    0  502  0.18193893323E+03  0.29821504603E+03  0.17441457139E+03  0.39045413539E+03  0.50400001928E-02 0.  1.
</event>
<event>
 5   0  0.1387622E-03  0.1314361E+04  0.7818609E-02  0.9018253E-01
        1   -1    0    0  501    0  0.00000000000E+00  0.00000000000E+00  0.61461778294E+03  0.61461778296E+03  0.50400001928E-02 0. -1.
       -1   -1    0    0    0  501  0.00000000000E+00  0.00000000000E+00 -0.70269098659E+03  0.70269098661E+03  0.50400001928E-02 0.  1.
    10030    2    1    2    0    0  0.00000000000E+00  0.00000000000E+00 -0.88073203653E+02  0.13173087696E+04  0.13143612537E+04 0.  0.
        3    1    3    3  502    0  0.15502190470E+03  0.10765882140E+03 -0.67494343134E+03  0.70083582847E+03  0.10100000352E+00 0.  1.
       -3    1    3    3    0  502 -0.15502190470E+03 -0.10765882140E+03  0.58687022769E+03  0.61647294110E+03  0.10100000352E+00 0. -1.
</event>
<event>
 5   0  0.2334946E-03  0.1301268E+04  0.7818609E-02  0.9028560E-01
       -2   -1    0    0    0  501  0.00000000000E+00  0.00000000000E+00  0.48074507498E+03  0.48074507499E+03  0.25500000920E-02 0. -1.
        2   -1    0    0  501    0  0.00000000000E+00  0.00000000000E+00 -0.88055966253E+03  0.88055966253E+03  0.25500000920E-02 0.  1.
    10030    2    1    2    0    0  0.00000000000E+00  0.00000000000E+00 -0.39981458754E+03  0.13613047375E+04  0.13012681830E+04 0.  0.
        1    1    3    3  502    0  0.55030445524E+03  0.32945316523E+02 -0.56139920962E+03  0.78682238143E+03  0.50400001928E-02 0. -1.
       -1    1    3    3    0  502 -0.55030445524E+03 -0.32945316523E+02  0.16158462208E+03  0.57448235609E+03  0.50400001928E-02 0.  1.
</event>
<event>
 5   0  0.1324721E-03  0.1290328E+04  0.7818609E-02  0.9037271E-01
       -1   -1    0    0    0  501  0.00000000000E+00  0.00000000000E+00  0.38387475035E+03  0.38387475038E+03  0.50400001928E-02 0.  1.
        1   -1    0    0  501    0  0.00000000000E+00  0.00000000000E+00 -0.10843027493E+04  0.10843027493E+04  0.50400001928E-02 0. -1.
    10030    2    1    2    0    0  0.00000000000E+00  0.00000000000E+00 -0.70042799891E+03  0.14681774997E+04  0.12903277835E+04 0.  0.
        1    1    3    3  502    0  0.60048779644E+03  0.79949225017E+02 -0.60274878017E+03  0.85456630186E+03  0.50400001928E-02 0. -1.
       -1    1    3    3    0  502 -0.60048779644E+03 -0.79949225017E+02 -0.97679218741E+02  0.61361119779E+03  0.50400001928E-02 0.  1.
</event>
<event>
 5   0  0.2312105E-03  0.1301391E+04  0.7818609E-02  0.9028463E-01
        2   -1    0    0  501    0  0.00000000000E+00  0.00000000000E+00  0.60818373181E+03  0.60818373182E+03  0.25500000920E-02 0.  1.
       -2   -1    0    0    0  501  0.00000000000E+00  0.00000000000E+00 -0.69617885011E+03  0.69617885012E+03  0.25500000920E-02 0. -1.
    10030    2    1    2    0    0  0.00000000000E+00  0.00000000000E+00 -0.87995118300E+02  0.13043625819E+04  0.13013910267E+04 0.  0.
        5    1    3    3  502    0 -0.54870618653E+03  0.21771503295E+03 -0.31830888757E+03  0.67068692593E+03  0.46999998093E+01 0. -1.
       -5    1    3    3    0  502  0.54870618653E+03 -0.21771503295E+03  0.23031376927E+03  0.63367565601E+03  0.46999998093E+01 0.  1.
</event>
<event>
 5   0  0.1346593E-03  0.1305267E+04  0.7818609E-02  0.9025399E-01
        1   -1    0    0  501    0  0.00000000000E+00  0.00000000000E+00  0.23816659152E+04  0.23816659152E+04  0.50400001928E-02 0. -1.
       -1   -1    0    0    0  501  0.00000000000E+00  0.00000000000E+00 -0.17883728158E+03  0.17883728165E+03  0.50400001928E-02 0.  1.
    10030    2    1    2    0    0  0.00000000000E+00  0.00000000000E+00  0.22028286336E+04  0.25605031968E+04  0.13052672646E+04 0.  0.
        2    1    3    3  502    0 -0.51987941741E+02  0.15524483971E+03  0.23407284536E+04  0.23464469736E+04  0.25500000920E-02 0. -1.
       -2    1    3    3    0  502  0.51987941741E+02 -0.15524483971E+03 -0.13789982001E+03  0.21405622324E+03  0.25500000920E-02 0.  1.
</event>
<event>
 5   0  0.2478236E-03  0.1297275E+04  0.7818609E-02  0.9031729E-01
        2   -1    0    0  501    0  0.00000000000E+00  0.00000000000E+00  0.57842512676E+03  0.57842512676E+03  0.25500000920E-02 0. -1.
       -2   -1    0    0    0  501  0.00000000000E+00  0.00000000000E+00 -0.72737250396E+03  0.72737250396E+03  0.25500000920E-02 0.  1.
    10030    2    1    2    0    0  0.00000000000E+00  0.00000000000E+00 -0.14894737720E+03  0.13057976307E+04  0.12972748865E+04 0.  0.
        3    1    3    3  502    0 -0.10626749090E+03 -0.42688617287E+03  0.40531908720E+03  0.59817067536E+03  0.10100000352E+00 0. -1.
       -3    1    3    3    0  502  0.10626749090E+03  0.42688617287E+03 -0.55426646440E+03  0.70762695537E+03  0.10100000352E+00 0.  1.
</event>
<event>
 5   0  0.2361043E-03  0.1321602E+04  0.7818609E-02  0.9012608E-01
        2   -1    0    0  501    0  0.00000000000E+00  0.00000000000E+00  0.12879915054E+04  0.12879915054E+04  0.25500000920E-02 0. -1.
       -2   -1    0    0    0  501  0.00000000000E+00  0.00000000000E+00 -0.33902261855E+03  0.33902261856E+03  0.25500000920E-02 0.  1.
    10030    2    1    2    0    0  0.00000000000E+00  0.00000000000E+00  0.94896888689E+03  0.16270141240E+04  0.13216024408E+04 0.  0.
        2    1    3    3  502    0  0.80429079241E+02 -0.49140058177E+03  0.10092871156E+04  0.11254349605E+04  0.25500000920E-02 0. -1.
       -2    1    3    3    0  502 -0.80429079241E+02  0.49140058177E+03 -0.60318228723E+02  0.50157916351E+03  0.25500000920E-02 0.  1.
</event>
<event>
 5   0  0.9131250E-04  0.1283589E+04  0.7818609E-02  0.9042682E-01
       -4   -1    0    0    0  501  0.00000000000E+00  0.00000000000E+00  0.11798236827E+04  0.11798243662E+04  0.12699999809E+01 0.  1.
        4   -1    0    0  501    0  0.00000000000E+00  0.00000000000E+00 -0.34911808427E+03  0.34912039423E+03  0.12699999809E+01 0. -1.
    10030    2    1    2    0    0  0.00000000000E+00  0.00000000000E+00  0.83070559839E+03  0.15289447604E+04  0.12835888318E+04 0.  0.
        3    1    3    3  502    0  0.19615055085E+03 -0.49818292513E+03 -0.61838201122E+01  0.53544328862E+03  0.10100000352E+00 0. -1.
       -3    1    3    3    0  502 -0.19615055085E+03  0.49818292513E+03  0.83688941850E+03  0.99350147181E+03  0.10100000352E+00 0.  1.
</event>
<event>
 5   0  0.2312105E-03  0.1313141E+04  0.7818609E-02  0.9019209E-01
       -2   -1    0    0    0  501  0.00000000000E+00  0.00000000000E+00  0.30751045876E+03  0.30751045877E+03  0.25500000920E-02 0.  1.
        2   -1    0    0  501    0  0.00000000000E+00  0.00000000000E+00 -0.14018538318E+04  0.14018538318E+04  0.25500000920E-02 0. -1.
    10030    2    1    2    0    0  0.00000000000E+00  0.00000000000E+00 -0.10943433730E+04  0.17093642906E+04  0.13131408378E+04 0.  0.
        5    1    3    3  502    0 -0.54746552333E+03 -0.35806544010E+03 -0.47430618236E+03  0.80803329341E+03  0.46999998093E+01 0.  1.
       -5    1    3    3    0  502  0.54746552333E+03  0.35806544010E+03 -0.62003719069E+03  0.90133099717E+03  0.46999998093E+01 0. -1.
</event>
<event>
 5   0  0.2312105E-03  0.1286395E+04  0.7818609E-02  0.9040424E-01
       -2   -1    0    0    0  501  0.00000000000E+00  0.00000000000E+00  0.27793412632E+03  0.27793412633E+03  0.25500000920E-02 0.  1.
        2   -1    0    0  501    0  0.00000000000E+00  0.00000000000E+00 -0.14884922645E+04  0.14884922645E+04  0.25500000920E-02 0. -1.
    10030    2    1    2    0    0  0.00000000000E+00  0.00000000000E+00 -0.12105581382E+04  0.17664263908E+04  0.12863946472E+04 0.  0.
        5    1    3    3  502    0 -0.46168224511E+02  0.31538145635E+03  0.16182959982E+03  0.35750227599E+03  0.46999998093E+01 0.  1.
       -5    1    3    3    0  502  0.46168224511E+02 -0.31538145635E+03 -0.13723877380E+04  0.14089241148E+04  0.46999998093E+01 0. -1.
</event>
<event>
 5   0  0.2478236E-03  0.1293821E+04  0.7818609E-02  0.9034480E-01
        2   -1    0    0  501    0  0.00000000000E+00  0.00000000000E+00  0.24070878464E+04  0.24070878465E+04  0.25500000920E-02 0. -1.
       -2   -1    0    0    0  501  0.00000000000E+00  0.00000000000E+00 -0.17385869780E+03  0.17385869781E+03  0.25500000920E-02 0.  1.
    10030    2    1    2    0    0  0.00000000000E+00  0.00000000000E+00  0.22332291487E+04  0.25809465443E+04  0.12938209435E+04 0.  0.
        3    1    3    3  502    0 -0.31370132736E+03 -0.20133350618E+03  0.21713272119E+04  0.22030900060E+04  0.10100000352E+00 0. -1.
       -3    1    3    3    0  502  0.31370132736E+03  0.20133350618E+03  0.61901936779E+02  0.37785653822E+03  0.10100000352E+00 0.  1.
</event>
<event>
 5   0  0.2334946E-03  0.1238768E+04  0.7818609E-02  0.9079583E-01
        2   -1    0    0  501    0  0.00000000000E+00  0.00000000000E+00  0.92534857913E+03  0.92534857914E+03  0.25500000920E-02 0.  1.
       -2   -1    0    0    0  501  0.00000000000E+00  0.00000000000E+00 -0.41458622723E+03  0.41458622724E+03  0.25500000920E-02 0. -1.
    10030    2    1    2    0    0  0.00000000000E+00  0.00000000000E+00  0.51076235190E+03  0.13399348064E+04  0.12387683824E+04 0.  0.
        1    1    3    3  502    0  0.25062925092E+02 -0.32734548791E+03 -0.31272936979E+03  0.45341248044E+03  0.50400001928E-02 0. -1.
       -1    1    3    3    0  502 -0.25062925092E+02  0.32734548791E+03  0.82349172169E+03  0.88652232593E+03  0.50400001928E-02 0.  1.
</event>
<event>
 5   0  0.1332630E-03  0.1293179E+04  0.7818609E-02  0.9034992E-01
       -1   -1    0    0    0  501  0.00000000000E+00  0.00000000000E+00  0.30273595777E+03  0.30273595781E+03  0.50400001928E-02 0. -1.
        1   -1    0    0  501    0  0.00000000000E+00  0.00000000000E+00 -0.13809984905E+04  0.13809984906E+04  0.50400001928E-02 0.  1.
    10030    2    1    2    0    0  0.00000000000E+00  0.00000000000E+00 -0.10782625328E+04  0.16837344484E+04  0.12931788751E+04 0.  0.
        5    1    3    3  502    0 -0.34568872742E+02  0.50851463246E+03 -0.10571188332E+04  0.11735861519E+04  0.46999998093E+01 0.  1.
       -5    1    3    3    0  502  0.34568872742E+02 -0.50851463246E+03 -0.21143699594E+02  0.51014829650E+03  0.46999998093E+01 0. -1.
</event>
<event>
 5   0  0.1324721E-03  0.1323714E+04  0.7818609E-02  0.9010968E-01
        1   -1    0    0  501    0  0.00000000000E+00  0.00000000000E+00  0.71751322700E+03  0.71751322702E+03  0.50400001928E-02 0. -1.
       -1   -1    0    0    0  501  0.00000000000E+00  0.00000000000E+00 -0.61051831520E+03  0.61051831522E+03  0.50400001928E-02 0.  1.
    10030    2    1    2    0    0  0.00000000000E+00  0.00000000000E+00  0.10699491180E+03  0.13280315422E+04  0.13237144201E+04 0.  0.
        1    1    3    3  502    0 -0.71144386967E+02 -0.55836186203E+03  0.40280746908E+03  0.69215847170E+03  0.50400001928E-02 0. -1.
       -1    1    3    3    0  502  0.71144386967E+02  0.55836186203E+03 -0.29581255728E+03  0.63587307054E+03  0.50400001928E-02 0.  1.
</event>
<event>
 5   0  0.9131250E-04  0.1295033E+04  0.7818609E-02  0.9033513E-01
       -3   -1    0    0    0  501  0.00000000000E+00  0.00000000000E+00  0.40744916536E+03  0.40744917788E+03  0.10100000352E+00 0.  1.
        3   -1    0    0  501    0  0.00000000000E+00  0.00000000000E+00 -0.10290304267E+04  0.10290304317E+04  0.10100000352E+00 0. -1.
    10030    2    1    2    0    0  0.00000000000E+00  0.00000000000E+00 -0.62158126136E+03  0.14364796096E+04  0.12950329742E+04 0.  0.
        1    1    3    3  502    0  0.24787441868E+03  0.54423971860E+03 -0.35401725617E+02  0.59907585575E+03  0.50400001928E-02 0.  1.
       -1    1    3    3    0  502 -0.24787441868E+03 -0.54423971860E+03 -0.58617953574E+03  0.83740375380E+03  0.50400001928E-02 0. -1.
</event>
<event>
 5   0  0.2361043E-03  0.1295535E+04  0.7818609E-02  0.9033113E-01
       -2   -1    0    0    0  501  0.00000000000E+00  0.00000000000E+00  0.55751733175E+03  0.55751733176E+03  0.25500000920E-02 0. -1.
        2   -1    0    0  501    0  0.00000000000E+00  0.00000000000E+00 -0.75262758033E+03  0.75262758034E+03  0.25500000920E-02 0.  1.
    10030    2    1    2    0    0  0.00000000000E+00  0.00000000000E+00 -0.19511024858E+03  0.13101449121E+04  0.12955352877E+04 0.  0.
        2    1    3    3  502    0 -0.61873857820E+03  0.18264856676E+03 -0.15656547807E+03  0.66386043415E+03  0.25500000920E-02 0.  1.
       -2    1    3    3    0  502  0.61873857820E+03 -0.18264856676E+03 -0.38544770512E+02  0.64628447795E+03  0.25500000920E-02 0. -1.
</event>
<event>
 5   0  0.1346593E-03  0.1337869E+04  0.7818609E-02  0.9000062E-01
       -1   -1    0    0    0  501  0.00000000000E+00  0.00000000000E+00  0.49760097221E+03  0.49760097224E+03  0.50400001928E-02 0. -1.
        1   -1    0    0  501    0  0.00000000000E+00  0.00000000000E+00 -0.89926191089E+03  0.89926191090E+03  0.50400001928E-02 0.  1.
    10030    2    1    2    0    0  0.00000000000E+00  0.00000000000E+00 -0.40166093868E+03  0.13968628831E+04  0.13378693526E+04 0.  0.
        2    1    3    3  502    0  0.38274714774E+03 -0.21947828235E+03  0.32414021767E+03  0.54747874502E+03  0.25500000920E-02 0. -1.
       -2    1    3    3    0  502 -0.38274714774E+03  0.21947828235E+03 -0.72580115635E+03  0.84938413812E+03  0.25500000920E-02 0.  1.
</event>
<event>
 5   0  0.2334946E-03  0.1326601E+04  0.7818609E-02  0.9008733E-01
       -2   -1    0    0    0  501  0.00000000000E+00  0.00000000000E+00  0.33182140552E+03  0.33182140553E+03  0.25500000920E-02 0.  1.
        2   -1    0    0  501    0  0.00000000000E+00  0.00000000000E+00 -0.13259159442E+04  0.13259159442E+04  0.25500000920E-02 0. -1.
    10030    2    1    2    0    0  0.00000000000E+00  0.00000000000E+00 -0.99409453871E+03  0.16577373498E+04  0.13266006064E+04 0.  0.
        1    1    3    3  502    0  0.43490540447E+03  0.29781332407E+03  0.61168225997E+01  0.52713651209E+03  0.50400001928E-02 0.  1.
       -1    1    3    3    0  502 -0.43490540447E+03 -0.29781332407E+03 -0.10002113613E+04  0.11306008377E+04  0.50400001928E-02 0. -1.
</event>
<event>
 5   0  0.2312105E-03  0.1292021E+04  0.7818609E-02  0.9035917E-01
       -2   -1    0    0    0  501  0.00000000000E+00  0.00000000000E+00  0.76518837833E+03  0.76518837834E+03  0.25500000920E-02 0. -1.
        2   -1    0    0  501    0  0.00000000000E+00  0.00000000000E+00 -0.54539465046E+03  0.54539465046E+03  0.25500000920E-02 0.  1.
    10030    2    1    2    0    0  0.00000000000E+00  0.00000000000E+00  0.21979372787E+03  0.13105830288E+04  0.12920211270E+04 0.  0.
        5    1    3    3  502    0  0.46990526453E+02  0.32941058589E+03  0.67155568215E+03  0.74948553549E+03  0.46999998093E+01 0. -1.
       -5    1    3    3    0  502 -0.46990526453E+02 -0.32941058589E+03 -0.45176195428E+03  0.56109749331E+03  0.46999998093E+01 0.  1.
</event>
<event>
 5   0  0.9131250E-04  0.1298244E+04  0.7818609E-02  0.9030959E-01
       -3   -1    0    0    0  501  0.00000000000E+00  0.00000000000E+00  0.43219283243E+03  0.43219284423E+03  0.10100000352E+00 0.  1.
        3   -1    0    0  501    0  0.00000000000E+00  0.00000000000E+00 -0.97493429971E+03  0.97493430495E+03  0.10100000352E+00 0. -1.
    10030    2    1    2    0    0  0.00000000000E+00  0.00000000000E+00 -0.54274146729E+03  0.14071271492E+04  0.12982443967E+04 0.  0.
        3    1    3    3  502    0 -0.42842883307E+03 -0.19885746059E+03  0.21124212295E+03  0.51741549972E+03  0.10100000352E+00 0.  1.
       -3    1    3    3    0  502  0.42842883307E+03  0.19885746059E+03 -0.75398359023E+03  0.88971164946E+03  0.10100000352E+00 0. -1.
</event>
<event>
 5   0  0.1387622E-03  0.1277024E+04  0.7818609E-02  0.9047986E-01
       -1   -1    0    0    0  501  0.00000000000E+00  0.00000000000E+00  0.21255973129E+03  0.21255973135E+03  0.50400001928E-02 0.  1.
        1   -1    0    0  501    0  0.00000000000E+00  0.00000000000E+00 -0.19180379137E+04  0.19180379138E+04  0.50400001928E-02 0. -1.
    10030    2    1    2    0    0  0.00000000000E+00  0.00000000000E+00 -0.17054781825E+04  0.21305976451E+04  0.12770240775E+04 0.  0.
        3    1    3    3  502    0 -0.33458251081E+03  0.25022967344E+03 -0.47159958633E+02  0.42045739131E+03  0.10100000352E+00 0.  1.
       -3    1    3    3    0  502  0.33458251081E+03 -0.25022967344E+03 -0.16583182238E+04  0.17101402538E+04  0.10100000352E+00 0. -1.
</event>
<event>
 5   0  0.1332630E-03  0.1328013E+04  0.7818609E-02  0.9007641E-01
       -1   -1    0    0    0  501  0.00000000000E+00  0.00000000000E+00  0.51751935370E+03  0.51751935372E+03  0.50400001928E-02 0.  1.
        1   -1    0    0  501    0  0.00000000000E+00  0.00000000000E+00 -0.85195791816E+03  0.85195791818E+03  0.50400001928E-02 0. -1.
    10030    2    1    2    0    0  0.00000000000E+00  0.00000000000E+00 -0.33443856447E+03  0.13694772719E+04  0.13280131192E+04 0.  0.
        5    1    3    3  502    0  0.24321895181E+03 -0.26549275756E+03 -0.74252765696E+03  0.82523407236E+03  0.46999998093E+01 0. -1.
       -5    1    3    3    0  502 -0.24321895181E+03  0.26549275756E+03  0.40808909249E+03  0.54424319954E+03  0.46999998093E+01 0.  1.
</event>
<event>
 5   0  0.2334946E-03  0.1297036E+04  0.7818609E-02  0.9031919E-01
        2   -1    0    0  501    0  0.00000000000E+00  0.00000000000E+00  0.26006779420E+04  0.26006779420E+04  0.25500000920E-02 0.  1.
       -2   -1    0    0    0  501  0.00000000000E+00  0.00000000000E+00 -0.16171774712E+03  0.16171774714E+03  0.25500000920E-02 0. -1.
    10030    2    1    2    0    0  0.00000000000E+00  0.00000000000E+00  0.24389601949E+04  0.27623956891E+04  0.12970362798E+04 0.  0.
        1    1    3    3  502    0 -0.42417914661E+03 -0.26786889220E+03  0.34421223062E+03  0.60841084110E+03  0.50400001928E-02 0. -1.
       -1    1    3    3    0  502  0.42417914661E+03  0.26786889220E+03  0.20947479642E+04  0.21539848480E+04  0.50400001928E-02 0.  1.
</event>
<event>
 5   0  0.2401211E-03  0.1305248E+04  0.7818609E-02  0.9025414E-01
        2   -1    0    0  501    0  0.00000000000E+00  0.00000000000E+00  0.13885821709E+04  0.13885821709E+04  0.25500000920E-02 0.  1.
       -2   -1    0    0    0  501  0.00000000000E+00  0.00000000000E+00 -0.30672862325E+03  0.30672862326E+03  0.25500000920E-02 0. -1.
    10030    2    1    2    0    0  0.00000000000E+00  0.00000000000E+00  0.10818535477E+04  0.16953107942E+04  0.13052477122E+04 0.  0.
        4    1    3    3  502    0 -0.32397930718E+03  0.59464098775E+02 -0.19083878709E+03  0.38068310454E+03  0.12699999809E+01 0. -1.
       -4    1    3    3    0  502  0.32397930718E+03 -0.59464098775E+02  0.12726923348E+04  0.13146276896E+04  0.12699999809E+01 0.  1.
</event>
<event>
 5   0  0.9131250E-04  0.1318223E+04  0.7818609E-02  0.9015238E-01
       -4   -1    0    0    0  501  0.00000000000E+00  0.00000000000E+00  0.82053782164E+03  0.82053880447E+03  0.12699999809E+01 0. -1.
        4   -1    0    0  501    0  0.00000000000E+00  0.00000000000E+00 -0.52944109441E+03  0.52944261762E+03  0.12699999809E+01 0.  1.
    10030    2    1    2    0    0  0.00000000000E+00  0.00000000000E+00  0.29109672723E+03  0.13499814221E+04  0.13182232494E+04 0.  0.
        4    1    3    3  502    0 -0.39297458514E+03 -0.31513378837E+03  0.58086344240E+03  0.76885777668E+03  0.12699999809E+01 0. -1.
       -4    1    3    3    0  502  0.39297458514E+03  0.31513378837E+03 -0.28976671517E+03  0.58112364542E+03  0.12699999809E+01 0.  1.
</event>
<event>
 5   0  0.1310461E-03  0.1299132E+04  0.7818609E-02  0.9030254E-01
       -1   -1    0    0    0  501  0.00000000000E+00  0.00000000000E+00  0.47492887846E+03  0.47492887849E+03  0.50400001928E-02 0.  1.
        1   -1    0    0  501    0  0.00000000000E+00  0.00000000000E+00 -0.88841895528E+03  0.88841895529E+03  0.50400001928E-02 0. -1.
    10030    2    1    2    0    0  0.00000000000E+00  0.00000000000E+00 -0.41349007682E+03  0.13633478338E+04  0.12991317378E+04 0.  0.
        4    1    3    3  502    0  0.58902814719E+03  0.26581927716E+02  0.79257753612E+02  0.59493206458E+03  0.12699999809E+01 0.  1.
       -4    1    3    3    0  502 -0.58902814719E+03 -0.26581927716E+02 -0.49274783043E+03  0.76841576920E+03  0.12699999809E+01 0. -1.
</event>
<event>
 5   0  0.2478236E-03  0.1281266E+04  0.7818609E-02  0.9044554E-01
        2   -1    0    0  501    0  0.00000000000E+00  0.00000000000E+00  0.67172333101E+03  0.67172333101E+03  0.25500000920E-02 0.  1.
       -2   -1    0    0    0  501  0.00000000000E+00  0.00000000000E+00 -0.61098211352E+03  0.61098211352E+03  0.25500000920E-02 0. -1.
    10030    2    1    2    0    0  0.00000000000E+00  0.00000000000E+00  0.60741217491E+02  0.12827054445E+04  0.12812664680E+04 0.  0.
        3    1    3    3  502    0  0.26441574900E+03  0.14986071463E+03  0.59495167219E+03  0.66808788685E+03  0.10100000352E+00 0.  1.
       -3    1    3    3    0  502 -0.26441574900E+03 -0.14986071463E+03 -0.53421045470E+03  0.61461755769E+03  0.10100000352E+00 0. -1.
</event>
<event>
 5   0  0.1324721E-03  0.1310770E+04  0.7818609E-02  0.9021067E-01
        1   -1    0    0  501    0  0.00000000000E+00  0.00000000000E+00  0.99837947601E+03  0.99837947602E+03  0.50400001928E-02 0. -1.
       -1   -1    0    0    0  501  0.00000000000E+00  0.00000000000E+00 -0.43022698162E+03  0.43022698165E+03  0.50400001928E-02 0.  1.
    10030    2    1    2    0    0  0.00000000000E+00  0.00000000000E+00  0.56815249439E+03  0.14286064577E+04  0.13107704429E+04 0.  0.
        1    1    3    3  502    0  0.58680249130E+03 -0.79319415717E+01 -0.33923330741E+02  0.58783575247E+03  0.50400001928E-02 0. -1.
       -1    1    3    3    0  502 -0.58680249130E+03  0.79319415717E+01  0.60207582513E+03  0.84077070520E+03  0.50400001928E-02 0.  1.
</event>
<event>
 5   0  0.2312105E-03  0.1318094E+04  0.7818609E-02  0.9015338E-01
       -2   -1    0    0    0  501  0.00000000000E+00  0.00000000000E+00  0.83732096218E+03  0.83732096219E+03  0.25500000920E-02 0. -1.
        2   -1    0    0  501    0  0.00000000000E+00  0.00000000000E+00 -0.51872929638E+03  0.51872929638E+03  0.25500000920E-02 0.  1.
    10030    2    1    2    0    0  0.00000000000E+00  0.00000000000E+00  0.31859166581E+03  0.13560502586E+04  0.13180939474E+04 0.  0.
        5    1    3    3  502    0 -0.24598937024E+03 -0.43810728151E+03  0.59804107192E+03  0.78110432984E+03  0.46999998093E+01 0. -1.
       -5    1    3    3    0  502  0.24598937024E+03  0.43810728151E+03 -0.27944940612E+03  0.57494592873E+03  0.46999998093E+01 0.  1.
</event>
<event>
 5   0  0.1346593E-03  0.1272401E+04  0.7818609E-02  0.9051742E-01
        1   -1    0    0  501    0  0.00000000000E+00  0.00000000000E+00  0.78591197919E+03  0.78591197921E+03  0.50400001928E-02 0. -1.
       -1   -1    0    0    0  501  0.00000000000E+00  0.00000000000E+00 -0.51500817812E+03  0.51500817814E+03  0.50400001928E-02 0.  1.
    10030    2    1    2    0    0  0.00000000000E+00  0.00000000000E+00  0.27090380107E+03  0.13009201573E+04  0.12724010321E+04 0.  0.
        2    1    3    3  502    0 -0.19093957687E+03  0.19270683446E+03 -0.45290894630E+03  0.52793973113E+03  0.25500000920E-02 0.  1.
       -2    1    3    3    0  502  0.19093957687E+03 -0.19270683446E+03  0.72381274737E+03  0.77298042622E+03  0.25500000920E-02 0. -1.
</event>
<event>
 5   0  0.2334946E-03  0.1305261E+04  0.7818609E-02  0.9025403E-01
       -2   -1    0    0    0  501  0.00000000000E+00  0.00000000000E+00  0.63064213010E+03  0.63064213011E+03  0.25500000920E-02 0. -1.
        2   -1    0    0  501    0  0.00000000000E+00  0.00000000000E+00 -0.67538593079E+03  0.67538593079E+03  0.25500000920E-02 0.  1.
    10030    2    1    2    0    0  0.00000000000E+00  0.00000000000E+00 -0.44743800683E+02  0.13060280609E+04  0.13052613869E+04 0.  0.
        1    1    3    3  502    0 -0.13853069014E+03 -0.89388044824E+02  0.60946226240E+03  0.63136774069E+03  0.50400001928E-02 0. -1.
       -1    1    3    3    0  502  0.13853069014E+03  0.89388044824E+02 -0.65420606308E+03  0.67466032021E+03  0.50400001928E-02 0.  1.
</event>
<event>
 5   0  0.2361043E-03  0.1290710E+04  0.7818609E-02  0.9036965E-01
       -2   -1    0    0    0  501  0.00000000000E+00  0.00000000000E+00  0.49140619660E+03  0.49140619661E+03  0.25500000920E-02 0.  1.
        2   -1    0    0  501    0  0.00000000000E+00  0.00000000000E+00 -0.84753314993E+03  0.84753314994E+03  0.25500000920E-02 0. -1.
    10030    2    1    2    0    0  0.00000000000E+00  0.00000000000E+00 -0.35612695333E+03  0.13389393465E+04  0.12907099468E+04 0.  0.
        2    1    3    3  502    0 -0.28149533677E+03 -0.55568467170E+03 -0.30650475758E+01  0.62292413142E+03  0.25500000920E-02 0.  1.
       -2    1    3    3    0  502  0.28149533677E+03  0.55568467170E+03 -0.35306190575E+03  0.71601521512E+03  0.25500000920E-02 0. -1.
</event>
<event>
 5   0  0.1332630E-03  0.1382987E+04  0.7818609E-02  0.8966226E-01
        1   -1    0    0  501    0  0.00000000000E+00  0.00000000000E+00  0.81196421223E+03  0.81196421225E+03  0.50400001928E-02 0.  1.
       -1   -1    0    0    0  501  0.00000000000E+00  0.00000000000E+00 -0.58889678918E+03  0.58889678920E+03  0.50400001928E-02 0. -1.
    10030    2    1    2    0    0  0.00000000000E+00  0.00000000000E+00  0.22306742305E+03  0.14008610014E+04  0.13829867932E+04 0.  0.
        5    1    3    3  502    0 -0.23349742071E+03  0.30555555702E+03 -0.47057249292E+03  0.60773827014E+03  0.46999998093E+01 0. -1.
       -5    1    3    3    0  502  0.23349742071E+03 -0.30555555702E+03  0.69363991597E+03  0.79312273131E+03  0.46999998093E+01 0.  1.
</event>
<event>
 5   0  0.1310461E-03  0.1256127E+04  0.7818609E-02  0.9065099E-01
       -1   -1    0    0    0  501  0.00000000000E+00  0.00000000000E+00  0.32909748487E+03  0.32909748491E+03  0.50400001928E-02 0. -1.
        1   -1    0    0  501    0  0.00000000000E+00  0.00000000000E+00 -0.11986223908E+04  0.11986223908E+04  0.50400001928E-02 0.  1.
    10030    2    1    2    0    0  0.00000000000E+00  0.00000000000E+00 -0.86952490594E+03  0.15277198757E+04  0.12561267677E+04 0.  0.
        4    1    3    3  502    0 -0.43158930417E+03  0.20035326995E+03 -0.93333816760E+03  0.10476318572E+04  0.12699999809E+01 0.  1.
       -4    1    3    3    0  502  0.43158930417E+03 -0.20035326995E+03  0.63813261660E+02  0.48008801851E+03  0.12699999809E+01 0. -1.
</event>
<event>
 5   0  0.9131250E-04  0.1312966E+04  0.7818609E-02  0.9019345E-01
       -3   -1    0    0    0  501  0.00000000000E+00  0.00000000000E+00  0.16976267232E+04  0.16976267262E+04  0.10100000352E+00 0.  1.
        3   -1    0    0  501    0  0.00000000000E+00  0.00000000000E+00 -0.25386627438E+03  0.25386629447E+03  0.10100000352E+00 0. -1.
    10030    2    1    2    0    0  0.00000000000E+00  0.00000000000E+00  0.14437604488E+04  0.19514930206E+04  0.13129664033E+04 0.  0.
        4    1    3    3  502    0 -0.19252942563E+03  0.42456259371E+03  0.34871260157E+02  0.46748111555E+03  0.12699999809E+01 0. -1.
       -4    1    3    3    0  502  0.19252942563E+03 -0.42456259371E+03  0.14088891886E+04  0.14840119051E+04  0.12699999809E+01 0.  1.
</event>
<event>
 5   0  0.2401211E-03  0.1332365E+04  0.7818609E-02  0.9004286E-01
        2   -1    0    0  501    0  0.00000000000E+00  0.00000000000E+00  0.21056133246E+04  0.21056133246E+04  0.25500000920E-02 0. -1.
       -2   -1    0    0    0  501  0.00000000000E+00  0.00000000000E+00 -0.21076945064E+03  0.21076945066E+03  0.25500000920E-02 0.  1.
    10030    2    1    2    0    0  0.00000000000E+00  0.00000000000E+00  0.18948438740E+04  0.23163827753E+04  0.13323647604E+04 0.  0.
        4    1    3    3  502    0 -0.53577237697E+03 -0.27837639904E+03  0.45799033588E+03  0.75782730231E+03  0.12699999809E+01 0.  1.
       -4    1    3    3    0  502  0.53577237697E+03  0.27837639904E+03  0.14368535381E+04  0.15585554730E+04  0.12699999809E+01 0. -1.
</event>
<event>
 5   0  0.2312105E-03  0.1294326E+04  0.7818609E-02  0.9034077E-01
        2   -1    0    0  501    0  0.00000000000E+00  0.00000000000E+00  0.21777124507E+04  0.21777124507E+04  0.25500000920E-02 0.  1.
       -2   -1    0    0    0  501  0.00000000000E+00  0.00000000000E+00 -0.19232110220E+03  0.19232110222E+03  0.25500000920E-02 0. -1.
    10030    2    1    2    0    0  0.00000000000E+00  0.00000000000E+00  0.19853913485E+04  0.23700335530E+04  0.12943261704E+04 0.  0.
        5    1    3    3  502    0 -0.13151476663E+03 -0.28294086220E+03 -0.45465971227E+02  0.31534252787E+03  0.46999998093E+01 0. -1.
       -5    1    3    3    0  502  0.13151476663E+03  0.28294086220E+03  0.20308573198E+04  0.20546910251E+04  0.46999998093E+01 0.  1.
</event>
<event>
 5   0  0.1310461E-03  0.1307352E+04  0.7818609E-02  0.9023755E-01
       -1   -1    0    0    0  501  0.00000000000E+00  0.00000000000E+00  0.34517814057E+03  0.34517814061E+03  0.50400001928E-02 0. -1.
        1   -1    0    0  501    0  0.00000000000E+00  0.00000000000E+00 -0.12378893029E+04  0.12378893029E+04  0.50400001928E-02 0.  1.
    10030    2    1    2    0    0  0.00000000000E+00  0.00000000000E+00 -0.89271116231E+03  0.15830674435E+04  0.13073520227E+04 0.  0.
        4    1    3    3  502    0 -0.40245070292E+03  0.19091595587E+03 -0.10256592580E+04  0.11182101756E+04  0.12699999809E+01 0.  1.
       -4    1    3    3    0  502  0.40245070292E+03 -0.19091595587E+03  0.13294809564E+03  0.46485726790E+03  0.12699999809E+01 0. -1.
</event>
<event>
 5   0  0.2401211E-03  0.1305454E+04  0.7818609E-02  0.9025251E-01
        2   -1    0    0  501    0  0.00000000000E+00  0.00000000000E+00  0.17299088296E+04  0.17299088296E+04  0.25500000920E-02 0. -1.
       -2   -1    0    0    0  501  0.00000000000E+00  0.00000000000E+00 -0.24628620718E+03  0.24628620720E+03  0.25500000920E-02 0.  1.
    10030    2    1    2    0    0  0.00000000000E+00  0.00000000000E+00  0.14836226224E+04  0.19761950368E+04  0.13054542266E+04 0.  0.
        4    1    3    3  502    0 -0.52174357189E+03  0.15372100587E+03  0.19557411802E+03  0.57801154919E+03  0.12699999809E+01 0.  1.
       -4    1    3    3    0  502  0.52174357189E+03 -0.15372100587E+03  0.12880485044E+04  0.13981834876E+04  0.12699999809E+01 0. -1.
</event>
<event>
 5   0  0.9131250E-04  0.1295250E+04  0.7818609E-02  0.9033340E-01
        3   -1    0    0  501    0  0.00000000000E+00  0.00000000000E+00  0.57059780735E+03  0.57059781629E+03  0.10100000352E+00 0.  1.
       -3   -1    0    0    0  501  0.00000000000E+00  0.00000000000E+00 -0.73505065430E+03  0.73505066123E+03  0.10100000352E+00 0. -1.
    10030    2    1    2    0    0  0.00000000000E+00  0.00000000000E+00 -0.16445284695E+03  0.13056484775E+04  0.12952502492E+04 0.  0.
        4    1    3    3  502    0 -0.85235481342E+02 -0.25671097691E+03 -0.67538135853E+03  0.72753501998E+03  0.12699999809E+01 0. -1.
       -4    1    3    3    0  502  0.85235481342E+02  0.25671097691E+03  0.51092851158E+03  0.57811345754E+03  0.12699999809E+01 0.  1.
</event>
<event>
 5   0  0.1387622E-03  0.1297700E+04  0.7818609E-02  0.9031391E-01
       -1   -1    0    0    0  501  0.00000000000E+00  0.00000000000E+00  0.41751989783E+03  0.41751989786E+03  0.50400001928E-02 0. -1.
        1   -1    0    0  501    0  0.00000000000E+00  0.00000000000E+00 -0.10083505053E+04  0.10083505053E+04  0.50400001928E-02 0.  1.
    10030    2    1    2    0    0  0.00000000000E+00  0.00000000000E+00 -0.59083060744E+03  0.14258704031E+04  0.12977001194E+04 0.  0.
        3    1    3    3  502    0  0.48492042322E+02 -0.37557016795E+02  0.41432743629E+03  0.41884274178E+03  0.10100000352E+00 0. -1.
       -3    1    3    3    0  502 -0.48492042322E+02  0.37557016795E+02 -0.10051580437E+04  0.10070276614E+04  0.10100000352E+00 0.  1.
</event>
<event>
 5   0  0.1346593E-03  0.1320246E+04  0.7818609E-02  0.9013662E-01
       -1   -1    0    0    0  501  0.00000000000E+00  0.00000000000E+00  0.54933405661E+03  0.54933405663E+03  0.50400001928E-02 0.  1.
        1   -1    0    0  501    0  0.00000000000E+00  0.00000000000E+00 -0.79325580983E+03  0.79325580984E+03  0.50400001928E-02 0. -1.
    10030    2    1    2    0    0  0.00000000000E+00  0.00000000000E+00 -0.24392175322E+03  0.13425898665E+04  0.13202460861E+04 0.  0.
        2    1    3    3  502    0 -0.27899130494E+02 -0.65154217005E+03 -0.17872010575E+02  0.65238406602E+03  0.25500000920E-02 0. -1.
       -2    1    3    3    0  502  0.27899130494E+02  0.65154217005E+03 -0.22604974264E+03  0.69020580046E+03  0.25500000920E-02 0.  1.
</event>
<event>
 5   0  0.1346593E-03  0.1280503E+04  0.7818609E-02  0.9045171E-01
       -1   -1    0    0    0  501  0.00000000000E+00  0.00000000000E+00  0.23447241419E+03  0.23447241425E+03  0.50400001928E-02 0. -1.
        1   -1    0    0  501    0  0.00000000000E+00  0.00000000000E+00 -0.17482730169E+04  0.17482730169E+04  0.50400001928E-02 0.  1.
    10030    2    1    2    0    0  0.00000000000E+00  0.00000000000E+00 -0.15138006027E+04  0.19827454311E+04  0.12805027060E+04 0.  0.
        2    1    3    3  502    0 -0.54056307795E+03 -0.12998153008E+03 -0.12485500610E+04  0.13667409756E+04  0.25500000920E-02 0. -1.
       -2    1    3    3    0  502  0.54056307795E+03  0.12998153008E+03 -0.26525054164E+03  0.61600445555E+03  0.25500000920E-02 0.  1.
</event>
<event>
 5   0  0.1324721E-03  0.1093308E+04  0.7818609E-02  0.9211739E-01
       -1   -1    0    0    0  501  0.00000000000E+00  0.00000000000E+00  0.25859445100E+03  0.25859445105E+03  0.50400001928E-02 0.  1.
        1   -1    0    0  501    0  0.00000000000E+00  0.00000000000E+00 -0.11555958924E+04  0.11555958924E+04  0.50400001928E-02 0. -1.
    10030    2    1    2    0    0  0.00000000000E+00  0.00000000000E+00 -0.89700144137E+03  0.14141903434E+04  0.10933081641E+04 0.  0.
        1    1    3    3  502    0 -0.14017079807E+03  0.35943341612E+03 -0.94945383793E+03  0.10248428287E+04  0.50400001928E-02 0. -1.
       -1    1    3    3    0  502  0.14017079807E+03 -0.35943341612E+03  0.52452396560E+02  0.38934751468E+03  0.50400001928E-02 0.  1.
</event>
<event>
 5   0  0.1332630E-03  0.1281179E+04  0.7818609E-02  0.9044625E-01
       -1   -1    0    0    0  501  0.00000000000E+00  0.00000000000E+00  0.50207058192E+03  0.50207058195E+03  0.50400001928E-02 0.  1.
        1   -1    0    0  501    0  0.00000000000E+00  0.00000000000E+00 -0.81732471478E+03  0.81732471479E+03  0.50400001928E-02 0. -1.
    10030    2    1    2    0    0  0.00000000000E+00  0.00000000000E+00 -0.31525413285E+03  0.13193952967E+04  0.12811786686E+04 0.  0.
        5    1    3    3  502    0  0.16242568659E+03  0.56027146620E+03 -0.43018454194E+03  0.72482208137E+03  0.46999998093E+01 0. -1.
       -5    1    3    3    0  502 -0.16242568659E+03 -0.56027146620E+03  0.11493040909E+03  0.59457321538E+03  0.46999998093E+01 0.  1.
</event>
<event>
 5   0  0.1346593E-03  0.1292888E+04  0.7818609E-02  0.9035224E-01
        1   -1    0    0  501    0  0.00000000000E+00  0.00000000000E+00  0.39486673890E+03  0.39486673893E+03  0.50400001928E-02 0. -1.
       -1   -1    0    0    0  501  0.00000000000E+00  0.00000000000E+00 -0.10583059180E+04  0.10583059180E+04  0.50400001928E-02 0.  1.
    10030    2    1    2    0    0  0.00000000000E+00  0.00000000000E+00 -0.66343917913E+03  0.14531726570E+04  0.12928879405E+04 0.  0.
        2    1    3    3  502    0  0.20175458187E+03  0.57973135212E+03 -0.10386461640E+03  0.62256020631E+03  0.25500000920E-02 0. -1.
       -2    1    3    3    0  502 -0.20175458187E+03 -0.57973135212E+03 -0.55957456273E+03  0.83061245066E+03  0.25500000920E-02 0.  1.
</event>
<event>
 5   0  0.2401211E-03  0.1245202E+04  0.7818609E-02  0.9074186E-01
       -2   -1    0    0    0  501  0.00000000000E+00  0.00000000000E+00  0.19400747380E+03  0.19400747382E+03  0.25500000920E-02 0. -1.
        2   -1    0    0  501    0  0.00000000000E+00  0.00000000000E+00 -0.19980275778E+04  0.19980275778E+04  0.25500000920E-02 0.  1.
    10030    2    1    2    0    0  0.00000000000E+00  0.00000000000E+00 -0.18040201040E+04  0.21920350516E+04  0.12452024462E+04 0.  0.
        4    1    3    3  502    0  0.33517467336E+03  0.45436928123E+03 -0.13638792671E+04  0.14761306763E+04  0.12699999809E+01 0.  1.
       -4    1    3    3    0  502 -0.33517467336E+03 -0.45436928123E+03 -0.44014083685E+03  0.71590437528E+03  0.12699999809E+01 0. -1.
</event>
<event>
 5   0  0.2401211E-03  0.1285941E+04  0.7818609E-02  0.9040789E-01
       -2   -1    0    0    0  501  0.00000000000E+00  0.00000000000E+00  0.47784139115E+03  0.47784139116E+03  0.25500000920E-02 0. -1.
        2   -1    0    0  501    0  0.00000000000E+00  0.00000000000E+00 -0.86516433053E+03  0.86516433054E+03  0.25500000920E-02 0.  1.
    10030    2    1    2    0    0  0.00000000000E+00  0.00000000000E+00 -0.38732293938E+03  0.13430057217E+04  0.12859414097E+04 0.  0.
        4    1    3    3  502    0 -0.23337806450E+03  0.10500604484E+03 -0.80968203042E+03  0.84916323150E+03  0.12699999809E+01 0.  1.
       -4    1    3    3    0  502  0.23337806450E+03 -0.10500604484E+03  0.42235909104E+03  0.49384249020E+03  0.12699999809E+01 0. -1.
</event>
<event>
 5   0  0.2334946E-03  0.1316026E+04  0.7818609E-02  0.9016952E-01
        2   -1    0    0  501    0  0.00000000000E+00  0.00000000000E+00  0.39443964028E+03  0.39443964029E+03  0.25500000920E-02 0.  1.
       -2   -1    0    0    0  501  0.00000000000E+00  0.00000000000E+00 -0.10977112089E+04  0.10977112089E+04  0.25500000920E-02 0. -1.
    10030    2    1    2    0    0  0.00000000000E+00  0.00000000000E+00 -0.70327156859E+03  0.14921508492E+04  0.13160255535E+04 0.  0.
        1    1    3    3  502    0 -0.29232720201E+03  0.54443399523E+03 -0.95286486160E+02  0.62525441435E+03  0.50400001928E-02 0.  1.
       -1    1    3    3    0  502  0.29232720201E+03 -0.54443399523E+03 -0.60798508243E+03  0.86689643480E+03  0.50400001928E-02 0. -1.
</event>
<event>
 5   0  0.1310461E-03  0.1282756E+04  0.7818609E-02  0.9043353E-01
       -1   -1    0    0    0  501  0.00000000000E+00  0.00000000000E+00  0.32228637849E+03  0.32228637853E+03  0.50400001928E-02 0.  1.
        1   -1    0    0  501    0  0.00000000000E+00  0.00000000000E+00 -0.12763972685E+04  0.12763972685E+04  0.50400001928E-02 0. -1.
    10030    2    1    2    0    0  0.00000000000E+00  0.00000000000E+00 -0.95411089004E+03  0.15986836471E+04  0.12827555546E+04 0.  0.
        4    1    3    3  502    0 -0.31555995465E+03  0.55214320634E+03 -0.37335378403E+03  0.73745160264E+03  0.12699999809E+01 0. -1.
       -4    1    3    3    0  502  0.31555995465E+03 -0.55214320634E+03 -0.58075710601E+03  0.86123204443E+03  0.12699999809E+01 0.  1.
</event>
<event>
 5   0  0.1310461E-03  0.1153977E+04  0.7818609E-02  0.9154123E-01
        1   -1    0    0  501    0  0.00000000000E+00  0.00000000000E+00  0.64402165983E+03  0.64402165985E+03  0.50400001928E-02 0.  1.
       -1   -1    0    0    0  501  0.00000000000E+00  0.00000000000E+00 -0.51693236272E+03  0.51693236274E+03  0.50400001928E-02 0. -1.
    10030    2    1    2    0    0  0.00000000000E+00  0.00000000000E+00  0.12708929712E+03  0.11609540226E+04  0.11539768425E+04 0.  0.
        4    1    3    3  502    0  0.23803938090E+03 -0.42050678529E+03 -0.25367963862E+03  0.54575056141E+03  0.12699999809E+01 0. -1.
       -4    1    3    3    0  502 -0.23803938090E+03  0.42050678529E+03  0.38076893574E+03  0.61520346118E+03  0.12699999809E+01 0.  1.
</event>
<event>
 5   0  0.2312105E-03  0.1309801E+04  0.7818609E-02  0.9021829E-01
        2   -1    0    0  501    0  0.00000000000E+00  0.00000000000E+00  0.81386690439E+03  0.81386690439E+03  0.25500000920E-02 0.  1.
       -2   -1    0    0    0  501  0.00000000000E+00  0.00000000000E+00 -0.52698382711E+03  0.52698382712E+03  0.25500000920E-02 0. -1.
    10030    2    1    2    0    0  0.00000000000E+00  0.00000000000E+00  0.28688307728E+03  0.13408507315E+04  0.13098010476E+04 0.  0.
        5    1    3    3  502    0 -0.46137806301E+03  0.41417668259E+03  0.35929677407E+03  0.71660889143E+03  0.46999998093E+01 0.  1.
       -5    1    3    3    0  502  0.46137806301E+03 -0.41417668259E+03 -0.72413696788E+02  0.62424184008E+03  0.46999998093E+01 0. -1.
</event>
<event>
 5   0  0.1332630E-03  0.1305630E+04  0.7818609E-02  0.9025112E-01
        1   -1    0    0  501    0  0.00000000000E+00  0.00000000000E+00  0.98033615246E+03  0.98033615248E+03  0.50400001928E-02 0. -1.
       -1   -1    0    0    0  501  0.00000000000E+00  0.00000000000E+00 -0.43471552404E+03  0.43471552407E+03  0.50400001928E-02 0.  1.
    10030    2    1    2    0    0  0.00000000000E+00  0.00000000000E+00  0.54562062842E+03  0.14150516765E+04  0.13056298775E+04 0.  0.
        5    1    3    3  502    0 -0.33720550775E+03 -0.39204224756E+03 -0.15900316647E+03  0.54102566970E+03  0.46999998093E+01 0.  1.
       -5    1    3    3    0  502  0.33720550775E+03  0.39204224756E+03  0.70462379489E+03  0.87402600685E+03  0.46999998093E+01 0. -1.
</event>
<event>
 5   0  0.1332630E-03  0.1281850E+04  0.7818609E-02  0.9044083E-01
       -1   -1    0    0    0  501  0.00000000000E+00  0.00000000000E+00  0.55920607162E+03  0.55920607164E+03  0.50400001928E-02 0.  1.
        1   -1    0    0  501    0  0.00000000000E+00  0.00000000000E+00 -0.73458599743E+03  0.73458599745E+03  0.50400001928E-02 0. -1.
    10030    2    1    2    0    0  0.00000000000E+00  0.00000000000E+00 -0.17537992581E+03  0.12937920691E+04  0.12818501471E+04 0.  0.
        5    1    3    3  502    0  0.43545315063E+03  0.37899855587E+03 -0.36867804992E+03  0.68498536206E+03  0.46999998093E+01 0. -1.
       -5    1    3    3    0  502 -0.43545315063E+03 -0.37899855587E+03  0.19329812411E+03  0.60880670703E+03  0.46999998093E+01 0.  1.
</event>
<event>
 5   0  0.2361043E-03  0.1297929E+04  0.7818609E-02  0.9031209E-01
        2   -1    0    0  501    0  0.00000000000E+00  0.00000000000E+00  0.20647006520E+04  0.20647006520E+04  0.25500000920E-02 0.  1.
       -2   -1    0    0    0  501  0.00000000000E+00  0.00000000000E+00 -0.20397869944E+03  0.20397869945E+03  0.25500000920E-02 0. -1.
    10030    2    1    2    0    0  0.00000000000E+00  0.00000000000E+00  0.18607219526E+04  0.22686793514E+04  0.12979290485E+04 0.  0.
        2    1    3    3  502    0 -0.17458916695E+03 -0.59322438502E+03  0.12744771753E+04  0.14165763723E+04  0.25500000920E-02 0.  1.
       -2    1    3    3    0  502  0.17458916695E+03  0.59322438502E+03  0.58624477722E+03  0.85210297911E+03  0.25500000920E-02 0. -1.
</event>
<event>
 5   0  0.1387622E-03  0.1308512E+04  0.7818609E-02  0.9022842E-01
       -1   -1    0    0    0  501  0.00000000000E+00  0.00000000000E+00  0.21098026358E+03  0.21098026364E+03  0.50400001928E-02 0.  1.
        1   -1    0    0  501    0  0.00000000000E+00  0.00000000000E+00 -0.20288664641E+04  0.20288664641E+04  0.50400001928E-02 0. -1.
    10030    2    1    2    0    0  0.00000000000E+00  0.00000000000E+00 -0.18178862005E+04  0.22398467277E+04  0.13085117981E+04 0.  0.
        3    1    3    3  502    0  0.57865788370E+03  0.26385132465E+03 -0.11718421461E+04  0.13332953512E+04  0.10100000352E+00 0. -1.
       -3    1    3    3    0  502 -0.57865788370E+03 -0.26385132465E+03 -0.64604405435E+03  0.90655137651E+03  0.10100000352E+00 0.  1.
</event>
<event>
 5   0  0.2478236E-03  0.1319233E+04  0.7818609E-02  0.9014451E-01
       -2   -1    0    0    0  501  0.00000000000E+00  0.00000000000E+00  0.47479620709E+03  0.47479620710E+03  0.25500000920E-02 0. -1.
        2   -1    0    0  501    0  0.00000000000E+00  0.00000000000E+00 -0.91638036838E+03  0.91638036838E+03  0.25500000920E-02 0.  1.
    10030    2    1    2    0    0  0.00000000000E+00  0.00000000000E+00 -0.44158416129E+03  0.13911765755E+04  0.13192329941E+04 0.  0.
        3    1    3    3  502    0  0.48971458664E+03  0.41482302059E+03 -0.38139804447E+03  0.74656747405E+03  0.10100000352E+00 0. -1.
       -3    1    3    3    0  502 -0.48971458664E+03 -0.41482302059E+03 -0.60186116815E+02  0.64460910143E+03  0.10100000352E+00 0.  1.
</event>
<event>
 5   0  0.9131250E-04  0.1312867E+04  0.7818609E-02  0.9019424E-01
       -3   -1    0    0    0  501  0.00000000000E+00  0.00000000000E+00  0.11745553307E+04  0.11745553350E+04  0.10100000352E+00 0.  1.
        3   -1    0    0  501    0  0.00000000000E+00  0.00000000000E+00 -0.36686617391E+03  0.36686618781E+03  0.10100000352E+00 0. -1.
    10030    2    1    2    0    0  0.00000000000E+00  0.00000000000E+00  0.80768915675E+03  0.15414215228E+04  0.13128665344E+04 0.  0.
        4    1    3    3  502    0 -0.62219671049E+03 -0.14099044879E+03  0.58533894777E+03  0.86581195988E+03  0.12699999809E+01 0. -1.
       -4    1    3    3    0  502  0.62219671049E+03  0.14099044879E+03  0.22235020898E+03  0.67560956294E+03  0.12699999809E+01 0.  1.
</event>
<event>
 5   0  0.2401211E-03  0.1297627E+04  0.7818609E-02  0.9031449E-01
       -2   -1    0    0    0  501  0.00000000000E+00  0.00000000000E+00  0.11108026545E+04  0.11108026545E+04  0.25500000920E-02 0.  1.
        2   -1    0    0  501    0  0.00000000000E+00  0.00000000000E+00 -0.37896822308E+03  0.37896822309E+03  0.25500000920E-02 0. -1.
    10030    2    1    2    0    0  0.00000000000E+00  0.00000000000E+00  0.73183443146E+03  0.14897708776E+04  0.12976269236E+04 0.  0.
        4    1    3    3  502    0 -0.29525545515E+03  0.30341425253E+03 -0.19853488760E+03  0.46760422039E+03  0.12699999809E+01 0. -1.
       -4    1    3    3    0  502  0.29525545515E+03 -0.30341425253E+03  0.93036931906E+03  0.10221666572E+04  0.12699999809E+01 0.  1.
</event>
<event>
 5   0  0.2401211E-03  0.1284803E+04  0.7818609E-02  0.9041704E-01
       -2   -1    0    0    0  501  0.00000000000E+00  0.00000000000E+00  0.51135848240E+03  0.51135848241E+03  0.25500000920E-02 0.  1.
        2   -1    0    0  501    0  0.00000000000E+00  0.00000000000E+00 -0.80702582711E+03  0.80702582711E+03  0.25500000920E-02 0. -1.
    10030    2    1    2    0    0  0.00000000000E+00  0.00000000000E+00 -0.29566734471E+03  0.13183843095E+04  0.12848027120E+04 0.  0.
        4    1    3    3  502    0  0.38373958583E+03  0.44247454888E+01 -0.67647105862E+03  0.77774697310E+03  0.12699999809E+01 0. -1.
       -4    1    3    3    0  502 -0.38373958583E+03 -0.44247454888E+01  0.38080371392E+03  0.54063733643E+03  0.12699999809E+01 0.  1.
</event>
<event>
 5   0  0.1346593E-03  0.1298398E+04  0.7818609E-02  0.9030837E-01
       -1   -1    0    0    0  501  0.00000000000E+00  0.00000000000E+00  0.66799923288E+03  0.66799923289E+03  0.50400001928E-02 0. -1.
        1   -1    0    0  501    0  0.00000000000E+00  0.00000000000E+00 -0.63092767174E+03  0.63092767176E+03  0.50400001928E-02 0.  1.
    10030    2    1    2    0    0  0.00000000000E+00  0.00000000000E+00  0.37071561134E+02  0.12989269047E+04  0.12983977830E+04 0.  0.
        2    1    3    3  502    0 -0.41472527010E+03 -0.29077825838E+03 -0.38772102360E+03  0.63786882456E+03  0.25500000920E-02 0.  1.
       -2    1    3    3    0  502  0.41472527010E+03  0.29077825838E+03  0.42479258473E+03  0.66105808009E+03  0.25500000920E-02 0. -1.
</event>
<event>
 5   0  0.2334946E-03  0.1196549E+04  0.7818609E-02  0.9115882E-01
       -2   -1    0    0    0  501  0.00000000000E+00  0.00000000000E+00  0.43568074097E+03  0.43568074097E+03  0.25500000920E-02 0. -1.
        2   -1    0    0  501    0  0.00000000000E+00  0.00000000000E+00 -0.82154760481E+03  0.82154760482E+03  0.25500000920E-02 0.  1.
    10030    2    1    2    0    0  0.00000000000E+00  0.00000000000E+00 -0.38586686385E+03  0.12572283458E+04  0.11965491535E+04 0.  0.
        1    1    3    3  502    0 -0.13436275429E+03  0.32163605415E+03  0.31796471923E+03  0.47180998693E+03  0.50400001928E-02 0. -1.
       -1    1    3    3    0  502  0.13436275429E+03 -0.32163605415E+03 -0.70383158308E+03  0.78541835886E+03  0.50400001928E-02 0.  1.
</event>
<event>
 5   0  0.1324721E-03  0.1232995E+04  0.7818609E-02  0.9084456E-01
        1   -1    0    0  501    0  0.00000000000E+00  0.00000000000E+00  0.14019010202E+04  0.14019010202E+04  0.50400001928E-02 0. -1.
       -1   -1    0    0    0  501  0.00000000000E+00  0.00000000000E+00 -0.27110987722E+03  0.27110987727E+03  0.50400001928E-02 0.  1.
    10030    2    1    2    0    0  0.00000000000E+00  0.00000000000E+00  0.11307911429E+04  0.16730108974E+04  0.12329950746E+04 0.  0.
        1    1    3    3  502    0 -0.25781530067E+03 -0.29921208710E+03 -0.76895397542E+02  0.40237980132E+03  0.50400001928E-02 0.  1.
       -1    1    3    3    0  502  0.25781530067E+03  0.29921208710E+03  0.12076865405E+04  0.12706310961E+04  0.50400001928E-02 0. -1.
</event>
<event>
 5   0  0.1332630E-03  0.1284979E+04  0.7818609E-02  0.9041563E-01
        1   -1    0    0  501    0  0.00000000000E+00  0.00000000000E+00  0.86497888051E+03  0.86497888053E+03  0.50400001928E-02 0. -1.
       -1   -1    0    0    0  501  0.00000000000E+00  0.00000000000E+00 -0.47722848914E+03  0.47722848917E+03  0.50400001928E-02 0.  1.
    10030    2    1    2    0    0  0.00000000000E+00  0.00000000000E+00  0.38775039137E+03  0.13422073697E+04  0.12849786991E+04 0.  0.
        5    1    3    3  502    0 -0.64038604705E+01 -0.34467867647E+03  0.76017022305E+03  0.83470069933E+03  0.46999998093E+01 0. -1.
       -5    1    3    3    0  502  0.64038604705E+01  0.34467867647E+03 -0.37241983168E+03  0.50750667037E+03  0.46999998093E+01 0.  1.
</event>
<event>
 5   0  0.2334946E-03  0.1285955E+04  0.7818609E-02  0.9040778E-01
       -2   -1    0    0    0  501  0.00000000000E+00  0.00000000000E+00  0.11466679206E+04  0.11466679206E+04  0.25500000920E-02 0.  1.
        2   -1    0    0  501    0  0.00000000000E+00  0.00000000000E+00 -0.36054040918E+03  0.36054040919E+03  0.25500000920E-02 0. -1.
    10030    2    1    2    0    0  0.00000000000E+00  0.00000000000E+00  0.78612751146E+03  0.15072083298E+04  0.12859550868E+04 0.  0.
        1    1    3    3  502    0  0.18297931144E+03 -0.56967133213E+03  0.66896544511E+03  0.89750856366E+03  0.50400001928E-02 0.  1.
       -1    1    3    3    0  502 -0.18297931144E+03  0.56967133213E+03  0.11716206635E+03  0.60969976618E+03  0.50400001928E-02 0. -1.
</event>
<event>
 5   0  0.1332630E-03  0.1307937E+04  0.7818609E-02  0.9023294E-01
       -1   -1    0    0    0  501  0.00000000000E+00  0.00000000000E+00  0.68562224352E+03  0.68562224353E+03  0.50400001928E-02 0. -1.
        1   -1    0    0  501    0  0.00000000000E+00  0.00000000000E+00 -0.62377647529E+03  0.62377647531E+03  0.50400001928E-02 0.  1.
    10030    2    1    2    0    0  0.00000000000E+00  0.00000000000E+00  0.61845768230E+02  0.13093987188E+04  0.13079373478E+04 0.  0.
        5    1    3    3  502    0  0.37962876733E+03 -0.49334802619E+03  0.23150307808E+03  0.66417320112E+03  0.46999998093E+01 0. -1.
       -5    1    3    3    0  502 -0.37962876733E+03  0.49334802619E+03 -0.16965730985E+03  0.64522551772E+03  0.46999998093E+01 0.  1.
</event>
<event>
 5   0  0.1387622E-03  0.1401669E+04  0.7818609E-02  0.8952612E-01
        1   -1    0    0  501    0  0.00000000000E+00  0.00000000000E+00  0.45821366090E+03  0.45821366093E+03  0.50400001928E-02 0.  1.
       -1   -1    0    0    0  501  0.00000000000E+00  0.00000000000E+00 -0.10719209191E+04  0.10719209191E+04  0.50400001928E-02 0. -1.
    10030    2    1    2    0    0  0.00000000000E+00  0.00000000000E+00 -0.61370725816E+03  0.15301345800E+04  0.14016687320E+04 0.  0.
        3    1    3    3  502    0  0.27288523852E+03  0.24891169840E+03  0.34333989252E+03  0.50428729808E+03  0.10100000352E+00 0.  1.
       -3    1    3    3    0  502 -0.27288523852E+03 -0.24891169840E+03 -0.95704715069E+03  0.10258472819E+04  0.10100000352E+00 0. -1.
</event>
<event>
 5   0  0.1310461E-03  0.1326995E+04  0.7818609E-02  0.9008428E-01
       -1   -1    0    0    0  501  0.00000000000E+00  0.00000000000E+00  0.74781946410E+03  0.74781946412E+03  0.50400001928E-02 0.  1.
        1   -1    0    0  501    0  0.00000000000E+00  0.00000000000E+00 -0.58868307029E+03  0.58868307031E+03  0.50400001928E-02 0. -1.
    10030    2    1    2    0    0  0.00000000000E+00  0.00000000000E+00  0.15913639382E+03  0.13365025344E+04  0.13269945865E+04 0.  0.
        4    1    3    3  502    0 -0.61517689949E+03  0.18096340389E+03  0.25119063618E+03  0.68868622740E+03  0.12699999809E+01 0.  1.
       -4    1    3    3    0  502  0.61517689949E+03 -0.18096340389E+03 -0.92054242367E+02  0.64781630702E+03  0.12699999809E+01 0. -1.
</event>
<event>
 5   0  0.2312105E-03  0.1275605E+04  0.7818609E-02  0.9049137E-01
       -2   -1    0    0    0  501  0.00000000000E+00  0.00000000000E+00  0.29966958535E+03  0.29966958536E+03  0.25500000920E-02 0. -1.
        2   -1    0    0  501    0  0.00000000000E+00  0.00000000000E+00 -0.13574690595E+04  0.13574690595E+04  0.25500000920E-02 0.  1.
    10030    2    1    2    0    0  0.00000000000E+00  0.00000000000E+00 -0.10577994741E+04  0.16571386449E+04  0.12756052527E+04 0.  0.
        5    1    3    3  502    0  0.35648133013E+03  0.42851167581E+02  0.15588111299E+03  0.39145392152E+03  0.46999998093E+01 0. -1.
       -5    1    3    3    0  502 -0.35648133013E+03 -0.42851167581E+02 -0.12136805871E+04  0.12656847233E+04  0.46999998093E+01 0.  1.
</event>
<event>
 5   0  0.2334946E-03  0.1332920E+04  0.7818609E-02  0.9003859E-01
        2   -1    0    0  501    0  0.00000000000E+00  0.00000000000E+00  0.10655927305E+04  0.10655927305E+04  0.25500000920E-02 0.  1.
       -2   -1    0    0    0  501  0.00000000000E+00  0.00000000000E+00 -0.41682831277E+03  0.41682831277E+03  0.25500000920E-02 0. -1.
    10030    2    1    2    0    0  0.00000000000E+00  0.00000000000E+00  0.64876441776E+03  0.14824210433E+04  0.13329204327E+04 0.  0.
        1    1    3    3  502    0 -0.17487337487E+03  0.38411564433E+03 -0.24926360790E+03  0.49016106711E+03  0.50400001928E-02 0. -1.
       -1    1    3    3    0  502  0.17487337487E+03 -0.38411564433E+03  0.89802802566E+03  0.99225997619E+03  0.50400001928E-02 0.  1.
</event>
<event>
 5   0  0.1346593E-03  0.1319337E+04  0.7818609E-02  0.9014370E-01
       -1   -1    0    0    0  501  0.00000000000E+00  0.00000000000E+00  0.89467201453E+03  0.89467201454E+03  0.50400001928E-02 0. -1.
        1   -1    0    0  501    0  0.00000000000E+00  0.00000000000E+00 -0.48639317094E+03  0.48639317097E+03  0.50400001928E-02 0.  1.
    10030    2    1    2    0    0  0.00000000000E+00  0.00000000000E+00  0.40827884359E+03  0.13810651855E+04  0.13193367396E+04 0.  0.
        2    1    3    3  502    0  0.87559844776E+02  0.23768001292E+03 -0.43345972217E+03  0.50204167726E+03  0.25500000920E-02 0.  1.
       -2    1    3    3    0  502 -0.87559844776E+02 -0.23768001292E+03  0.84173856576E+03  0.87902350825E+03  0.25500000920E-02 0. -1.
</event>
<event>
 5   0  0.1332630E-03  0.1330978E+04  0.7818609E-02  0.9005353E-01
       -1   -1    0    0    0  501  0.00000000000E+00  0.00000000000E+00  0.44258256159E+03  0.44258256162E+03  0.50400001928E-02 0.  1.
        1   -1    0    0  501    0  0.00000000000E+00  0.00000000000E+00 -0.10006626743E+04  0.10006626744E+04  0.50400001928E-02 0. -1.
    10030    2    1    2    0    0  0.00000000000E+00  0.00000000000E+00 -0.55808011275E+03  0.14432452360E+04  0.13309783616E+04 0.  0.
        5    1    3    3  502    0  0.54110658921E+03  0.57475787396E+02 -0.69443771218E+03  0.88225032339E+03  0.46999998093E+01 0. -1.
       -5    1    3    3    0  502 -0.54110658921E+03 -0.57475787396E+02  0.13635759943E+03  0.56099491259E+03  0.46999998093E+01 0.  1.
</event>
<event>
 5   0  0.2478236E-03  0.1294933E+04  0.7818609E-02  0.9033593E-01
        2   -1    0    0  501    0  0.00000000000E+00  0.00000000000E+00  0.20836490214E+04  0.20836490214E+04  0.25500000920E-02 0.  1.
       -2   -1    0    0    0  501  0.00000000000E+00  0.00000000000E+00 -0.20119165126E+03  0.20119165127E+03  0.25500000920E-02 0. -1.
    10030    2    1    2    0    0  0.00000000000E+00  0.00000000000E+00  0.18824573701E+04  0.22848406727E+04  0.12949328744E+04 0.  0.
        3    1    3    3  502    0 -0.21386327490E+03 -0.20924509371E+03  0.19543529476E+04  0.19771232798E+04  0.10100000352E+00 0.  1.
       -3    1    3    3    0  502  0.21386327490E+03  0.20924509371E+03 -0.71895577482E+02  0.30771739284E+03  0.10100000352E+00 0. -1.
</event>
<event>
 5   0  0.2334946E-03  0.1310780E+04  0.7818609E-02  0.9021060E-01
       -2   -1    0    0    0  501  0.00000000000E+00  0.00000000000E+00  0.43823106764E+03  0.43823106765E+03  0.25500000920E-02 0. -1.
        2   -1    0    0  501    0  0.00000000000E+00  0.00000000000E+00 -0.98015870023E+03  0.98015870023E+03  0.25500000920E-02 0.  1.
    10030    2    1    2    0    0  0.00000000000E+00  0.00000000000E+00 -0.54192763259E+03  0.14183897679E+04  0.13107799108E+04 0.  0.
        1    1    3    3  502    0  0.18623533027E+02  0.37969956009E+03  0.30673503137E+03  0.48847207843E+03  0.50400001928E-02 0. -1.
       -1    1    3    3    0  502 -0.18623533027E+02 -0.37969956009E+03 -0.84866266396E+03  0.92991768945E+03  0.50400001928E-02 0.  1.
</event>
<event>
 5   0  0.9131250E-04  0.1264834E+04  0.7818609E-02  0.9057926E-01
       -3   -1    0    0    0  501  0.00000000000E+00  0.00000000000E+00  0.11876691310E+04  0.11876691353E+04  0.10100000352E+00 0. -1.
        3   -1    0    0  501    0  0.00000000000E+00  0.00000000000E+00 -0.33675324935E+03  0.33675326449E+03  0.10100000352E+00 0.  1.
    10030    2    1    2    0    0  0.00000000000E+00  0.00000000000E+00  0.85091588163E+03  0.15244223998E+04  0.12648343035E+04 0.  0.
        3    1    3    3  502    0  0.41113968355E+03 -0.44130848436E+03  0.19626540788E+03  0.63427843908E+03  0.10100000352E+00 0.  1.
       -3    1    3    3    0  502 -0.41113968355E+03  0.44130848436E+03  0.65465047375E+03  0.89014396068E+03  0.10100000352E+00 0. -1.
</event>
<event>
 5   0  0.1332630E-03  0.1315161E+04  0.7818609E-02  0.9017628E-01
        1   -1    0    0  501    0  0.00000000000E+00  0.00000000000E+00  0.71909657255E+03  0.71909657257E+03  0.50400001928E-02 0. -1.
       -1   -1    0    0    0  501  0.00000000000E+00  0.00000000000E+00 -0.60132715932E+03  0.60132715934E+03  0.50400001928E-02 0.  1.
    10030    2    1    2    0    0  0.00000000000E+00  0.00000000000E+00  0.11776941323E+03  0.13204237319E+04  0.13151612818E+04 0.  0.
        5    1    3    3  502    0 -0.22059474133E+03  0.26833522868E+03  0.61944158695E+03  0.71020828247E+03  0.46999998093E+01 0. -1.
       -5    1    3    3    0  502  0.22059474133E+03 -0.26833522868E+03 -0.50167217372E+03  0.61021544944E+03  0.46999998093E+01 0.  1.
</event>
<event>
 5   0  0.1346593E-03  0.1292293E+04  0.7818609E-02  0.9035699E-01
        1   -1    0    0  501    0  0.00000000000E+00  0.00000000000E+00  0.70702521079E+03  0.70702521081E+03  0.50400001928E-02 0.  1.
       -1   -1    0    0    0  501  0.00000000000E+00  0.00000000000E+00 -0.59050986410E+03  0.59050986412E+03  0.50400001928E-02 0. -1.
    10030    2    1    2    0    0  0.00000000000E+00  0.00000000000E+00  0.11651534668E+03  0.12975350749E+04  0.12922930955E+04 0.  0.
        2    1    3    3  502    0 -0.43054619918E+03  0.24700506860E+03 -0.35709147608E+03  0.61147024117E+03  0.25500000920E-02 0. -1.
       -2    1    3    3    0  502  0.43054619918E+03 -0.24700506860E+03  0.47360682276E+03  0.68606483376E+03  0.25500000920E-02 0.  1.
</event>
<event>
 5   0  0.1332630E-03  0.1274938E+04  0.7818609E-02  0.9049679E-01
        1   -1    0    0  501    0  0.00000000000E+00  0.00000000000E+00  0.12687020851E+04  0.12687020851E+04  0.50400001928E-02 0.  1.
       -1   -1    0    0    0  501  0.00000000000E+00  0.00000000000E+00 -0.32030125054E+03  0.32030125058E+03  0.50400001928E-02 0. -1.
    10030    2    1    2    0    0  0.00000000000E+00  0.00000000000E+00  0.94840083453E+03  0.15890033357E+04  0.12749382173E+04 0.  0.
        5    1    3    3  502    0  0.20300921509E+03 -0.65270089592E+01 -0.27886950080E+03  0.34502989977E+03  0.46999998093E+01 0. -1.
       -5    1    3    3    0  502 -0.20300921509E+03  0.65270089592E+01  0.12272703353E+04  0.12439734359E+04  0.46999998093E+01 0.  1.
</event>
<event>
 5   0  0.1346593E-03  0.1312883E+04  0.7818609E-02  0.9019411E-01
       -1   -1    0    0    0  501  0.00000000000E+00  0.00000000000E+00  0.56021431970E+03  0.56021431972E+03  0.50400001928E-02 0.  1.
        1   -1    0    0  501    0  0.00000000000E+00  0.00000000000E+00 -0.76919695401E+03  0.76919695402E+03  0.50400001928E-02 0. -1.
    10030    2    1    2    0    0  0.00000000000E+00  0.00000000000E+00 -0.20898263431E+03  0.13294112737E+04  0.13128825512E+04 0.  0.
        2    1    3    3  502    0 -0.52896999202E+03 -0.36912387546E+03  0.18917816270E+02  0.64530579702E+03  0.25500000920E-02 0.  1.
       -2    1    3    3    0  502  0.52896999202E+03  0.36912387546E+03 -0.22790045058E+03  0.68410547672E+03  0.25500000920E-02 0. -1.
</event>
<event>
 5   0  0.1332630E-03  0.1316786E+04  0.7818609E-02  0.9016359E-01
        1   -1    0    0  501    0  0.00000000000E+00  0.00000000000E+00  0.27686880259E+03  0.27686880264E+03  0.50400001928E-02 0. -1.
       -1   -1    0    0    0  501  0.00000000000E+00  0.00000000000E+00 -0.15656551516E+04  0.15656551516E+04  0.50400001928E-02 0.  1.
    10030    2    1    2    0    0  0.00000000000E+00  0.00000000000E+00 -0.12887863490E+04  0.18425239543E+04  0.13167855819E+04 0.  0.
        5    1    3    3  502    0  0.15986211584E+03  0.52270122937E+03 -0.13086991024E+03  0.56206894121E+03  0.46999998093E+01 0. -1.
       -5    1    3    3    0  502 -0.15986211584E+03 -0.52270122937E+03 -0.11579164388E+04  0.12804550131E+04  0.46999998093E+01 0.  1.
</event>
<event>
 5   0  0.9131250E-04  0.1299082E+04  0.7818609E-02  0.9030293E-01
        4   -1    0    0  501    0  0.00000000000E+00  0.00000000000E+00  0.88745633095E+03  0.88745723968E+03  0.12699999809E+01 0.  1.
       -4   -1    0    0    0  501  0.00000000000E+00  0.00000000000E+00 -0.47540583862E+03  0.47540753496E+03  0.12699999809E+01 0. -1.
    10030    2    1    2    0    0  0.00000000000E+00  0.00000000000E+00  0.41205049233E+03  0.13628647746E+04  0.12990822860E+04 0.  0.
        3    1    3    3  502    0  0.57801126611E+03  0.26765425697E+03  0.33942111863E+03  0.72176348689E+03  0.10100000352E+00 0.  1.
       -3    1    3    3    0  502 -0.57801126611E+03 -0.26765425697E+03  0.72629373698E+02  0.64110128775E+03  0.10100000352E+00 0. -1.
</event>
<event>
 5   0  0.2478236E-03  0.1291025E+04  0.7818609E-02  0.9036713E-01
        2   -1    0    0  501    0  0.00000000000E+00  0.00000000000E+00  0.13195821466E+04  0.13195821466E+04  0.25500000920E-02 0. -1.
       -2   -1    0    0    0  501  0.00000000000E+00  0.00000000000E+00 -0.31577148902E+03  0.31577148903E+03  0.25500000920E-02 0.  1.
    10030    2    1    2    0    0  0.00000000000E+00  0.00000000000E+00  0.10038106576E+04  0.16353536356E+04  0.12910250491E+04 0.  0.
        3    1    3    3  502    0 -0.56257568488E+03 -0.23612722643E+03  0.76893459469E+03  0.98158437711E+03  0.10100000352E+00 0. -1.
       -3    1    3    3    0  502  0.56257568488E+03  0.23612722643E+03  0.23487606289E+03  0.65376925853E+03  0.10100000352E+00 0.  1.
</event>
<event>
 5   0  0.2361043E-03  0.1335067E+04  0.7818609E-02  0.9002210E-01
       -2   -1    0    0    0  501  0.00000000000E+00  0.00000000000E+00  0.44318101755E+03  0.44318101756E+03  0.25500000920E-02 0.  1.
        2   -1    0    0  501    0  0.00000000000E+00  0.00000000000E+00 -0.10054597988E+04  0.10054597988E+04  0.25500000920E-02 0. -1.
    10030    2    1    2    0    0  0.00000000000E+00  0.00000000000E+00 -0.56227878122E+03  0.14486408163E+04  0.13350665852E+04 0.  0.
        2    1    3    3  502    0 -0.14326769608E+03 -0.12333028789E+03 -0.97580860288E+03  0.99395091534E+03  0.25500000920E-02 0. -1.
       -2    1    3    3    0  502  0.14326769608E+03  0.12333028789E+03  0.41352982166E+03  0.45468990099E+03  0.25500000920E-02 0.  1.
</event>
<event>
 5   0  0.2334946E-03  0.1292690E+04  0.7818609E-02  0.9035382E-01
        2   -1    0    0  501    0  0.00000000000E+00  0.00000000000E+00  0.15799099754E+04  0.15799099754E+04  0.25500000920E-02 0.  1.
       -2   -1    0    0    0  501  0.00000000000E+00  0.00000000000E+00 -0.26442132849E+03  0.26442132850E+03  0.25500000920E-02 0. -1.
    10030    2    1    2    0    0  0.00000000000E+00  0.00000000000E+00  0.13154886469E+04  0.18443313039E+04  0.12926900551E+04 0.  0.
        1    1    3    3  502    0 -0.46442076531E+02 -0.22737739645E+03  0.15184175066E+04  0.15360498270E+04  0.50400001928E-02 0.  1.
       -1    1    3    3    0  502  0.46442076531E+02  0.22737739645E+03 -0.20292885964E+03  0.30828147688E+03  0.50400001928E-02 0. -1.
</event>
<event>
 5   0  0.1346593E-03  0.1302348E+04  0.7818609E-02  0.9027705E-01
        1   -1    0    0  501    0  0.00000000000E+00  0.00000000000E+00  0.11334396911E+04  0.11334396911E+04  0.50400001928E-02 0.  1.
       -1   -1    0    0    0  501  0.00000000000E+00  0.00000000000E+00 -0.37410710490E+03  0.37410710494E+03  0.50400001928E-02 0. -1.
    10030    2    1    2    0    0  0.00000000000E+00  0.00000000000E+00  0.75933258621E+03  0.15075467961E+04  0.13023484042E+04 0.  0.
        2    1    3    3  502    0 -0.58512972717E+02 -0.62150602548E+03  0.16517585704E+03  0.64573723095E+03  0.25500000920E-02 0.  1.
       -2    1    3    3    0  502  0.58512972717E+02  0.62150602548E+03  0.59415672917E+03  0.86180956511E+03  0.25500000920E-02 0. -1.
</event>
<event>
 5   0  0.2401211E-03  0.1368377E+04  0.7818609E-02  0.8977032E-01
       -2   -1    0    0    0  501  0.00000000000E+00  0.00000000000E+00  0.10544826057E+04  0.10544826057E+04  0.25500000920E-02 0.  1.
        2   -1    0    0  501    0  0.00000000000E+00  0.00000000000E+00 -0.44392765067E+03  0.44392765068E+03  0.25500000920E-02 0. -1.
    10030    2    1    2    0    0  0.00000000000E+00  0.00000000000E+00  0.61055495503E+03  0.14984102564E+04  0.13683771203E+04 0.  0.
        4    1    3    3  502    0 -0.42791454733E+03  0.22458336392E+03 -0.22506382540E+03  0.53310776168E+03  0.12699999809E+01 0. -1.
       -4    1    3    3    0  502  0.42791454733E+03 -0.22458336392E+03  0.83561878044E+03  0.96530249470E+03  0.12699999809E+01 0.  1.
</event>
<event>
 5   0  0.1310461E-03  0.1310836E+04  0.7818609E-02  0.9021016E-01
       -1   -1    0    0    0  501  0.00000000000E+00  0.00000000000E+00  0.48785644641E+03  0.48785644644E+03  0.50400001928E-02 0.  1.
        1   -1    0    0  501    0  0.00000000000E+00  0.00000000000E+00 -0.88053169824E+03  0.88053169825E+03  0.50400001928E-02 0. -1.
    10030    2    1    2    0    0  0.00000000000E+00  0.00000000000E+00 -0.39267525182E+03  0.13683881447E+04  0.13108364738E+04 0.  0.
        4    1    3    3  502    0 -0.56893713349E+03 -0.80870011597E+02 -0.52536141908E+03  0.77861136275E+03  0.12699999809E+01 0. -1.
       -4    1    3    3    0  502  0.56893713349E+03  0.80870011597E+02  0.13268616726E+03  0.58977678194E+03  0.12699999809E+01 0.  1.
</event>
<event>
 5   0  0.1346593E-03  0.1299072E+04  0.7818609E-02  0.9030301E-01
        1   -1    0    0  501    0  0.00000000000E+00  0.00000000000E+00  0.13147037631E+04  0.13147037631E+04  0.50400001928E-02 0. -1.
       -1   -1    0    0    0  501  0.00000000000E+00  0.00000000000E+00 -0.32090650333E+03  0.32090650337E+03  0.50400001928E-02 0.  1.
    10030    2    1    2    0    0  0.00000000000E+00  0.00000000000E+00  0.99379725980E+03  0.16356102665E+04  0.12990719573E+04 0.  0.
        2    1    3    3  502    0  0.14156399669E+03 -0.39558513643E+03 -0.12677371406E+03  0.43886164096E+03  0.25500000920E-02 0.  1.
       -2    1    3    3    0  502 -0.14156399669E+03  0.39558513643E+03  0.11205709739E+04  0.11967486256E+04  0.25500000920E-02 0. -1.
</event>
<event>
 5   0  0.2478236E-03  0.1272606E+04  0.7818609E-02  0.9051575E-01
       -2   -1    0    0    0  501  0.00000000000E+00  0.00000000000E+00  0.32181628323E+03  0.32181628324E+03  0.25500000920E-02 0. -1.
        2   -1    0    0  501    0  0.00000000000E+00  0.00000000000E+00 -0.12581143512E+04  0.12581143512E+04  0.25500000920E-02 0.  1.
    10030    2    1    2    0    0  0.00000000000E+00  0.00000000000E+00 -0.93629806794E+03  0.15799306344E+04  0.12726062775E+04 0.  0.
        3    1    3    3  502    0  0.53497123389E+03  0.39469577249E+02 -0.43258261692E+02  0.53816666194E+03  0.10100000352E+00 0. -1.
       -3    1    3    3    0  502 -0.53497123389E+03 -0.39469577249E+02 -0.89303980625E+03  0.10417639725E+04  0.10100000352E+00 0.  1.
</event>
<event>
 5   0  0.1332630E-03  0.1306149E+04  0.7818609E-02  0.9024703E-01
       -1   -1    0    0    0  501  0.00000000000E+00  0.00000000000E+00  0.42365298342E+03  0.42365298345E+03  0.50400001928E-02 0.  1.
        1   -1    0    0  501    0  0.00000000000E+00  0.00000000000E+00 -0.10067349667E+04  0.10067349667E+04  0.50400001928E-02 0. -1.
    10030    2    1    2    0    0  0.00000000000E+00  0.00000000000E+00 -0.58308198326E+03  0.14303879501E+04  0.13061489535E+04 0.  0.
        5    1    3    3  502    0  0.21252695656E+03  0.17959253105E+03  0.35547206254E+03  0.45144618917E+03  0.46999998093E+01 0.  1.
       -5    1    3    3    0  502 -0.21252695656E+03 -0.17959253105E+03 -0.93855404580E+03  0.97894176096E+03  0.46999998093E+01 0. -1.
</event>
<event>
 5   0  0.2478236E-03  0.1306957E+04  0.7818609E-02  0.9024067E-01
       -2   -1    0    0    0  501  0.00000000000E+00  0.00000000000E+00  0.89040099888E+03  0.89040099888E+03  0.25500000920E-02 0. -1.
        2   -1    0    0  501    0  0.00000000000E+00  0.00000000000E+00 -0.47959727806E+03  0.47959727806E+03  0.25500000920E-02 0.  1.
    10030    2    1    2    0    0  0.00000000000E+00  0.00000000000E+00  0.41080372082E+03  0.13699982769E+04  0.13069566105E+04 0.  0.
        3    1    3    3  502    0 -0.79821544285E+02 -0.64847200877E+03  0.21808768222E+03  0.68880307231E+03  0.10100000352E+00 0.  1.
       -3    1    3    3    0  502  0.79821544285E+02  0.64847200877E+03  0.19271603861E+03  0.68119520464E+03  0.10100000352E+00 0. -1.
</event>
<event>
 5   0  0.1310461E-03  0.1291362E+04  0.7818609E-02  0.9036444E-01
       -1   -1    0    0    0  501  0.00000000000E+00  0.00000000000E+00  0.70323388973E+03  0.70323388975E+03  0.50400001928E-02 0.  1.
        1   -1    0    0  501    0  0.00000000000E+00  0.00000000000E+00 -0.59283780071E+03  0.59283780073E+03  0.50400001928E-02 0. -1.
    10030    2    1    2    0    0  0.00000000000E+00  0.00000000000E+00  0.11039608902E+03  0.12960716905E+04  0.12913615026E+04 0.  0.
        4    1    3    3  502    0 -0.11407428261E+03 -0.57252134662E+03 -0.22168568985E+03  0.62445159322E+03  0.12699999809E+01 0. -1.
       -4    1    3    3    0  502  0.11407428261E+03  0.57252134662E+03  0.33208177887E+03  0.67162009726E+03  0.12699999809E+01 0.  1.
</event>
<event>
 5   0  0.1332630E-03  0.1310451E+04  0.7818609E-02  0.9021318E-01
        1   -1    0    0  501    0  0.00000000000E+00  0.00000000000E+00  0.38497249556E+03  0.38497249560E+03  0.50400001928E-02 0.  1.
       -1   -1    0    0    0  501  0.00000000000E+00  0.00000000000E+00 -0.11151982567E+04  0.11151982567E+04  0.50400001928E-02 0. -1.
    10030    2    1    2    0    0  0.00000000000E+00  0.00000000000E+00 -0.73022576112E+03  0.15001707523E+04  0.13104513054E+04 0.  0.
        5    1    3    3  502    0 -0.34375980284E+03 -0.24185966494E+03  0.21027896088E+03  0.47000662863E+03  0.46999998093E+01 0.  1.
       -5    1    3    3    0  502  0.34375980284E+03  0.24185966494E+03 -0.94050472200E+03  0.10301641237E+04  0.46999998093E+01 0. -1.
</event>
<event>
 5   0  0.2312105E-03  0.1279621E+04  0.7818609E-02  0.9045884E-01
        2   -1    0    0  501    0  0.00000000000E+00  0.00000000000E+00  0.10448749886E+04  0.10448749886E+04  0.25500000920E-02 0.  1.
       -2   -1    0    0    0  501  0.00000000000E+00  0.00000000000E+00 -0.39177657637E+03  0.39177657637E+03  0.25500000920E-02 0. -1.
    10030    2    1    2    0    0  0.00000000000E+00  0.00000000000E+00  0.65309841220E+03  0.14366515649E+04  0.12796211092E+04 0.  0.
        5    1    3    3  502    0 -0.50093991314E+03 -0.38467966180E+03  0.21196491993E+03  0.66623603630E+03  0.46999998093E+01 0. -1.
       -5    1    3    3    0  502  0.50093991314E+03  0.38467966180E+03  0.44113349227E+03  0.77041552864E+03  0.46999998093E+01 0.  1.
</event>
<event>
 5   0  0.1324721E-03  0.1285013E+04  0.7818609E-02  0.9041535E-01
       -1   -1    0    0    0  501  0.00000000000E+00  0.00000000000E+00  0.29440653786E+03  0.29440653790E+03  0.50400001928E-02 0.  1.
        1   -1    0    0  501    0  0.00000000000E+00  0.00000000000E+00 -0.14021922611E+04  0.14021922611E+04  0.50400001928E-02 0. -1.
    10030    2    1    2    0    0  0.00000000000E+00  0.00000000000E+00 -0.11077857232E+04  0.16965987990E+04  0.12850129479E+04 0.  0.
        1    1    3    3  502    0 -0.50101218405E+02 -0.63254947437E+03 -0.42064355813E+03  0.76129493144E+03  0.50400001928E-02 0.  1.
       -1    1    3    3    0  502  0.50101218405E+02  0.63254947437E+03 -0.68714216510E+03  0.93530386757E+03  0.50400001928E-02 0. -1.
</event>
<event>
 5   0  0.2312105E-03  0.1278629E+04  0.7818609E-02  0.9046686E-01
        2   -1    0    0  501    0  0.00000000000E+00  0.00000000000E+00  0.66078656548E+03  0.66078656548E+03  0.25500000920E-02 0.  1.
       -2   -1    0    0    0  501  0.00000000000E+00  0.00000000000E+00 -0.61854057316E+03  0.61854057316E+03  0.25500000920E-02 0. -1.
    10030    2    1    2    0    0  0.00000000000E+00  0.00000000000E+00  0.42245992323E+02  0.12793271386E+04  0.12786294240E+04 0.  0.
        5    1    3    3  502    0 -0.13687505871E+03 -0.67570344143E+02  0.64226822779E+03  0.66017505219E+03  0.46999998093E+01 0.  1.
       -5    1    3    3    0  502  0.13687505871E+03  0.67570344143E+02 -0.60002223547E+03  0.61915208645E+03  0.46999998093E+01 0. -1.
</event>
<event>
 5   0  0.1346593E-03  0.1260142E+04  0.7818609E-02  0.9061784E-01
        1   -1    0    0  501    0  0.00000000000E+00  0.00000000000E+00  0.98275531558E+03  0.98275531559E+03  0.50400001928E-02 0. -1.
       -1   -1    0    0    0  501  0.00000000000E+00  0.00000000000E+00 -0.40395549476E+03  0.40395549479E+03  0.50400001928E-02 0.  1.
    10030    2    1    2    0    0  0.00000000000E+00  0.00000000000E+00  0.57879982082E+03  0.13867108104E+04  0.12601419123E+04 0.  0.
        2    1    3    3  502    0 -0.44913910522E+01 -0.17621833964E+03 -0.37626757275E+03  0.41551216845E+03  0.25500000920E-02 0.  1.
       -2    1    3    3    0  502  0.44913910522E+01  0.17621833964E+03  0.95506739357E+03  0.97119864193E+03  0.25500000920E-02 0. -1.
</event>
<event>
 5   0  0.1387622E-03  0.1295793E+04  0.7818609E-02  0.9032908E-01
       -1   -1    0    0    0  501  0.00000000000E+00  0.00000000000E+00  0.44960390387E+03  0.44960390390E+03  0.50400001928E-02 0.  1.
        1   -1    0    0  501    0  0.00000000000E+00  0.00000000000E+00 -0.93364441868E+03  0.93364441870E+03  0.50400001928E-02 0. -1.
    10030    2    1    2    0    0  0.00000000000E+00  0.00000000000E+00 -0.48404051482E+03  0.13832483226E+04  0.12957934642E+04 0.  0.
        3    1    3    3  502    0 -0.38809727198E+03 -0.31228361849E+03 -0.68426276155E+03  0.84637821802E+03  0.10100000352E+00 0. -1.
       -3    1    3    3    0  502  0.38809727198E+03  0.31228361849E+03  0.20022224673E+03  0.53687010457E+03  0.10100000352E+00 0.  1.
</event>
<event>
 5   0  0.9131250E-04  0.1299491E+04  0.7818609E-02  0.9029969E-01
       -3   -1    0    0    0  501  0.00000000000E+00  0.00000000000E+00  0.38313768467E+03  0.38313769798E+03  0.10100000352E+00 0. -1.
        3   -1    0    0  501    0  0.00000000000E+00  0.00000000000E+00 -0.11018739852E+04  0.11018739898E+04  0.10100000352E+00 0.  1.
    10030    2    1    2    0    0  0.00000000000E+00  0.00000000000E+00 -0.71873630051E+03  0.14850116878E+04  0.12994913787E+04 0.  0.
        5    1    3    3  502    0  0.38182956016E+03  0.30940280337E+02  0.24033383393E+03  0.45225386200E+03  0.46999998093E+01 0. -1.
       -5    1    3    3    0  502 -0.38182956016E+03 -0.30940280337E+02 -0.95907013444E+03  0.10327578258E+04  0.46999998093E+01 0.  1.
</event>
<event>
 5   0  0.1332630E-03  0.1296153E+04  0.7818609E-02  0.9032622E-01
       -1   -1    0    0    0  501  0.00000000000E+00  0.00000000000E+00  0.43668610672E+03  0.43668610675E+03  0.50400001928E-02 0. -1.
        1   -1    0    0  501    0  0.00000000000E+00  0.00000000000E+00 -0.96179621361E+03  0.96179621362E+03  0.50400001928E-02 0.  1.
    10030    2    1    2    0    0  0.00000000000E+00  0.00000000000E+00 -0.52511010689E+03  0.13984823204E+04  0.12961528367E+04 0.  0.
        5    1    3    3  502    0 -0.50482042081E+03  0.40474374184E+03 -0.30175223665E+03  0.71395914179E+03  0.46999998093E+01 0. -1.
       -5    1    3    3    0  502  0.50482042081E+03 -0.40474374184E+03 -0.22335787024E+03  0.68452317859E+03  0.46999998093E+01 0.  1.
</event>
<event>
 5   0  0.2361043E-03  0.1204548E+04  0.7818609E-02  0.9108885E-01
       -2   -1    0    0    0  501  0.00000000000E+00  0.00000000000E+00  0.49811575850E+03  0.49811575851E+03  0.25500000920E-02 0. -1.
        2   -1    0    0  501    0  0.00000000000E+00  0.00000000000E+00 -0.72821188573E+03  0.72821188574E+03  0.25500000920E-02 0.  1.
    10030    2    1    2    0    0  0.00000000000E+00  0.00000000000E+00 -0.23009612723E+03  0.12263276442E+04  0.12045477422E+04 0.  0.
        2    1    3    3  502    0 -0.90056397339E+02  0.58416299215E+03 -0.23279946376E+03  0.63525754339E+03  0.25500000920E-02 0. -1.
       -2    1    3    3    0  502  0.90056397339E+02 -0.58416299215E+03  0.27033365341E+01  0.59107010086E+03  0.25500000920E-02 0.  1.
</event>
<event>
 5   0  0.2334946E-03  0.1343711E+04  0.7818609E-02  0.8995602E-01
       -2   -1    0    0    0  501  0.00000000000E+00  0.00000000000E+00  0.34262123815E+03  0.34262123816E+03  0.25500000920E-02 0. -1.
        2   -1    0    0  501    0  0.00000000000E+00  0.00000000000E+00 -0.13174609819E+04  0.13174609819E+04  0.25500000920E-02 0.  1.
    10030    2    1    2    0    0  0.00000000000E+00  0.00000000000E+00 -0.97483974374E+03  0.16600822201E+04  0.13437114465E+04 0.  0.
        1    1    3    3  502    0  0.37971978534E+03 -0.40941163310E+03 -0.25843965356E+02  0.55899276496E+03  0.50400001928E-02 0. -1.
       -1    1    3    3    0  502 -0.37971978534E+03  0.40941163310E+03 -0.94899577839E+03  0.11010894551E+04  0.50400001928E-02 0.  1.
</event>
<event>
 5   0  0.1324721E-03  0.1284925E+04  0.7818609E-02  0.9041606E-01
        1   -1    0    0  501    0  0.00000000000E+00  0.00000000000E+00  0.24694343641E+04  0.24694343641E+04  0.50400001928E-02 0.  1.
       -1   -1    0    0    0  501  0.00000000000E+00  0.00000000000E+00 -0.16714668856E+03  0.16714668863E+03  0.50400001928E-02 0. -1.
    10030    2    1    2    0    0  0.00000000000E+00  0.00000000000E+00  0.23022876755E+04  0.26365810527E+04  0.12849245529E+04 0.  0.
        1    1    3    3  502    0  0.74877181196E+02 -0.49848820370E+03  0.33381245388E+03  0.60458898095E+03  0.50400001928E-02 0. -1.
       -1    1    3    3    0  502 -0.74877181196E+02  0.49848820370E+03  0.19684752217E+04  0.20319920718E+04  0.50400001928E-02 0.  1.
</event>
<event>
 5   0  0.1387622E-03  0.1285369E+04  0.7818609E-02  0.9041249E-01
        1   -1    0    0  501    0  0.00000000000E+00  0.00000000000E+00  0.83581251669E+03  0.83581251671E+03  0.50400001928E-02 0.  1.
       -1   -1    0    0    0  501  0.00000000000E+00  0.00000000000E+00 -0.49418179358E+03  0.49418179361E+03  0.50400001928E-02 0. -1.
    10030    2    1    2    0    0  0.00000000000E+00  0.00000000000E+00  0.34163072311E+03  0.13299943103E+04  0.12853689410E+04 0.  0.
        3    1    3    3  502    0  0.60260717794E+03  0.67970956003E+02 -0.49382382393E+02  0.60843577447E+03  0.10100000352E+00 0. -1.
       -3    1    3    3    0  502 -0.60260717794E+03 -0.67970956003E+02  0.39101310551E+03  0.72155853584E+03  0.10100000352E+00 0.  1.
</event>
<event>
 5   0  0.1387622E-03  0.1274488E+04  0.7818609E-02  0.9050044E-01
       -1   -1    0    0    0  501  0.00000000000E+00  0.00000000000E+00  0.33797630400E+03  0.33797630404E+03  0.50400001928E-02 0.  1.
        1   -1    0    0  501    0  0.00000000000E+00  0.00000000000E+00 -0.12015047722E+04  0.12015047722E+04  0.50400001928E-02 0. -1.
    10030    2    1    2    0    0  0.00000000000E+00  0.00000000000E+00 -0.86352846821E+03  0.15394810763E+04  0.12744883557E+04 0.  0.
        3    1    3    3  502    0  0.12714675605E+02 -0.12086946165E+03  0.32384703215E+03  0.34590172039E+03  0.10100000352E+00 0.  1.
       -3    1    3    3    0  502 -0.12714675605E+02  0.12086946165E+03 -0.11873755004E+04  0.11935793559E+04  0.10100000352E+00 0. -1.
</event>
<event>
 5   0  0.1346593E-03  0.1303639E+04  0.7818609E-02  0.9026685E-01
        1   -1    0    0  501    0  0.00000000000E+00  0.00000000000E+00  0.75912337427E+03  0.75912337429E+03  0.50400001928E-02 0.  1.
       -1   -1    0    0    0  501  0.00000000000E+00  0.00000000000E+00 -0.55968309010E+03  0.55968309012E+03  0.50400001928E-02 0. -1.
    10030    2    1    2    0    0  0.00000000000E+00  0.00000000000E+00  0.19944028417E+03  0.13188064644E+04  0.13036387780E+04 0.  0.
        2    1    3    3  502    0  0.51090667460E+03  0.24228225180E+03  0.42774920169E+03  0.70901036610E+03  0.25500000920E-02 0.  1.
       -2    1    3    3    0  502 -0.51090667460E+03 -0.24228225180E+03 -0.22830891752E+03  0.60979609831E+03  0.25500000920E-02 0. -1.
</event>
<event>
 5   0  0.2334946E-03  0.1333685E+04  0.7818609E-02  0.9003271E-01
        2   -1    0    0  501    0  0.00000000000E+00  0.00000000000E+00  0.12973276147E+04  0.12973276147E+04  0.25500000920E-02 0. -1.
       -2   -1    0    0    0  501  0.00000000000E+00  0.00000000000E+00 -0.34276509490E+03  0.34276509491E+03  0.25500000920E-02 0.  1.
    10030    2    1    2    0    0  0.00000000000E+00  0.00000000000E+00  0.95456251985E+03  0.16400927097E+04  0.13336845549E+04 0.  0.
        1    1    3    3  502    0  0.19251196056E+03  0.51700078174E+03  0.16613963731E+02  0.55192996575E+03  0.50400001928E-02 0.  1.
       -1    1    3    3    0  502 -0.19251196056E+03 -0.51700078174E+03  0.93794855612E+03  0.10881627439E+04  0.50400001928E-02 0. -1.
</event>
<event>
 5   0  0.2478236E-03  0.1326634E+04  0.7818609E-02  0.9008707E-01
        2   -1    0    0  501    0  0.00000000000E+00  0.00000000000E+00  0.22379374084E+04  0.22379374084E+04  0.25500000920E-02 0.  1.
       -2   -1    0    0    0  501  0.00000000000E+00  0.00000000000E+00 -0.19660474596E+03  0.19660474598E+03  0.25500000920E-02 0. -1.
    10030    2    1    2    0    0  0.00000000000E+00  0.00000000000E+00  0.20413326624E+04  0.24345421543E+04  0.13266335073E+04 0.  0.
        3    1    3    3  502    0  0.24126526021E+03  0.37840576098E+03  0.12428710848E+03  0.46566848858E+03  0.10100000352E+00 0. -1.
       -3    1    3    3    0  502 -0.24126526021E+03 -0.37840576098E+03  0.19170455539E+04  0.19688736658E+04  0.10100000352E+00 0.  1.
</event>
<event>
 5   0  0.1387622E-03  0.1295835E+04  0.7818609E-02  0.9032875E-01
        1   -1    0    0  501    0  0.00000000000E+00  0.00000000000E+00  0.10287013965E+04  0.10287013965E+04  0.50400001928E-02 0.  1.
       -1   -1    0    0    0  501  0.00000000000E+00  0.00000000000E+00 -0.40808422805E+03  0.40808422808E+03  0.50400001928E-02 0. -1.
    10030    2    1    2    0    0  0.00000000000E+00  0.00000000000E+00  0.62061716844E+03  0.14367856246E+04  0.12958345810E+04 0.  0.
        3    1    3    3  502    0  0.42701974403E+02  0.79862229653E+01  0.10270847656E+04  0.10280030955E+04  0.10100000352E+00 0.  1.
       -3    1    3    3    0  502 -0.42701974403E+02 -0.79862229653E+01 -0.40646759716E+03  0.40878252912E+03  0.10100000352E+00 0. -1.
</event>
<event>
 5   0  0.2401211E-03  0.1290434E+04  0.7818609E-02  0.9037185E-01
       -2   -1    0    0    0  501  0.00000000000E+00  0.00000000000E+00  0.40582667451E+03  0.40582667452E+03  0.25500000920E-02 0. -1.
        2   -1    0    0  501    0  0.00000000000E+00  0.00000000000E+00 -0.10258202330E+04  0.10258202330E+04  0.25500000920E-02 0.  1.
    10030    2    1    2    0    0  0.00000000000E+00  0.00000000000E+00 -0.61999355852E+03  0.14316469076E+04  0.12904343669E+04 0.  0.
        4    1    3    3  502    0 -0.27990625365E+03 -0.68816620110E+02  0.33042451702E+03  0.43848057242E+03  0.12699999809E+01 0. -1.
       -4    1    3    3    0  502  0.27990625365E+03  0.68816620110E+02 -0.95041807554E+03  0.99316633514E+03  0.12699999809E+01 0.  1.
</event>
<event>
 5   0  0.1387622E-03  0.1300347E+04  0.7818609E-02  0.9029290E-01
       -1   -1    0    0    0  501  0.00000000000E+00  0.00000000000E+00  0.80572153749E+03  0.80572153750E+03  0.50400001928E-02 0.  1.
        1   -1    0    0  501    0  0.00000000000E+00  0.00000000000E+00 -0.52465451643E+03  0.52465451645E+03  0.50400001928E-02 0. -1.
    10030    2    1    2    0    0  0.00000000000E+00  0.00000000000E+00  0.28106702106E+03  0.13303760540E+04  0.13003467901E+04 0.  0.
        3    1    3    3  502    0  0.24769659105E+03  0.26945114820E+03 -0.40924744882E+03  0.54903643509E+03  0.10100000352E+00 0. -1.
       -3    1    3    3    0  502 -0.24769659105E+03 -0.26945114820E+03  0.69031446988E+03  0.78133961887E+03  0.10100000352E+00 0.  1.
</event>
<event>
 5   0  0.1387622E-03  0.1298911E+04  0.7818609E-02  0.9030429E-01
        1   -1    0    0  501    0  0.00000000000E+00  0.00000000000E+00  0.15031941350E+04  0.15031941350E+04  0.50400001928E-02 0. -1.
       -1   -1    0    0    0  501  0.00000000000E+00  0.00000000000E+00 -0.28059756369E+03  0.28059756374E+03  0.50400001928E-02 0.  1.
    10030    2    1    2    0    0  0.00000000000E+00  0.00000000000E+00  0.12225965713E+04  0.17837916988E+04  0.12989112550E+04 0.  0.
        3    1    3    3  502    0  0.29445178503E+03 -0.68919622728E+02  0.14006049848E+04  0.14328803516E+04  0.10100000352E+00 0. -1.
       -3    1    3    3    0  502 -0.29445178503E+03  0.68919622728E+02 -0.17800841353E+03  0.35091134720E+03  0.10100000352E+00 0.  1.
</event>
<event>
 5   0  0.2478236E-03  0.1324379E+04  0.7818609E-02  0.9010453E-01
        2   -1    0    0  501    0  0.00000000000E+00  0.00000000000E+00  0.91249810180E+03  0.91249810181E+03  0.25500000920E-02 0.  1.
       -2   -1    0    0    0  501  0.00000000000E+00  0.00000000000E+00 -0.48054310997E+03  0.48054310997E+03  0.25500000920E-02 0. -1.
    10030    2    1    2    0    0  0.00000000000E+00  0.00000000000E+00  0.43195499184E+03  0.13930412118E+04  0.13243786100E+04 0.  0.
        3    1    3    3  502    0 -0.45802338117E+03  0.75593505541E+02  0.71268330906E+03  0.85053942001E+03  0.10100000352E+00 0.  1.
       -3    1    3    3    0  502  0.45802338117E+03 -0.75593505541E+02 -0.28072831722E+03  0.54250179177E+03  0.10100000352E+00 0. -1.
</event>
<event>
 5   0  0.1310461E-03  0.1230568E+04  0.7818609E-02  0.9086514E-01
       -1   -1    0    0    0  501  0.00000000000E+00  0.00000000000E+00  0.37990318131E+03  0.37990318134E+03  0.50400001928E-02 0.  1.
        1   -1    0    0  501    0  0.00000000000E+00  0.00000000000E+00 -0.99650157692E+03  0.99650157693E+03  0.50400001928E-02 0. -1.
    10030    2    1    2    0    0  0.00000000000E+00  0.00000000000E+00 -0.61659839561E+03  0.13764047583E+04  0.12305675427E+04 0.  0.
        4    1    3    3  502    0 -0.19402175450E+03 -0.27438005369E+03 -0.88478740787E+03  0.94645614009E+03  0.12699999809E+01 0.  1.
       -4    1    3    3    0  502  0.19402175450E+03  0.27438005369E+03  0.26818901226E+03  0.42994861819E+03  0.12699999809E+01 0. -1.
</event>
<event>
 5   0  0.1387622E-03  0.1319980E+04  0.7818609E-02  0.9013869E-01
       -1   -1    0    0    0  501  0.00000000000E+00  0.00000000000E+00  0.66981208891E+03  0.66981208893E+03  0.50400001928E-02 0. -1.
        1   -1    0    0  501    0  0.00000000000E+00  0.00000000000E+00 -0.65031188407E+03  0.65031188409E+03  0.50400001928E-02 0.  1.
    10030    2    1    2    0    0  0.00000000000E+00  0.00000000000E+00  0.19500204842E+02  0.13201239730E+04  0.13199799416E+04 0.  0.
        3    1    3    3  502    0 -0.56041984835E+02 -0.33335106186E+03 -0.55716545028E+03  0.65168779618E+03  0.10100000352E+00 0.  1.
       -3    1    3    3    0  502  0.56041984835E+02  0.33335106186E+03  0.57666565512E+03  0.66843617683E+03  0.10100000352E+00 0. -1.
</event>
<event>
 5   0  0.2361043E-03  0.1306195E+04  0.7818609E-02  0.9024667E-01
       -2   -1    0    0    0  501  0.00000000000E+00  0.00000000000E+00  0.21387625389E+03  0.21387625390E+03  0.25500000920E-02 0.  1.
        2   -1    0    0  501    0  0.00000000000E+00  0.00000000000E+00 -0.19943142059E+04  0.19943142059E+04  0.25500000920E-02 0. -1.
    10030    2    1    2    0    0  0.00000000000E+00  0.00000000000E+00 -0.17804379520E+04  0.22081904598E+04  0.13061951637E+04 0.  0.
        2    1    3    3  502    0  0.60644436733E+03 -0.23486345460E+03 -0.99166388973E+03  0.11858890687E+04  0.25500000920E-02 0. -1.
       -2    1    3    3    0  502 -0.60644436733E+03  0.23486345460E+03 -0.78877406225E+03  0.10223013911E+04  0.25500000920E-02 0.  1.
</event>
<event>
 5   0  0.1310461E-03  0.1232911E+04  0.7818609E-02  0.9084527E-01
        1   -1    0    0  501    0  0.00000000000E+00  0.00000000000E+00  0.66598062632E+03  0.66598062634E+03  0.50400001928E-02 0.  1.
       -1   -1    0    0    0  501  0.00000000000E+00  0.00000000000E+00 -0.57061370250E+03  0.57061370252E+03  0.50400001928E-02 0. -1.
    10030    2    1    2    0    0  0.00000000000E+00  0.00000000000E+00  0.95366923822E+02  0.12365943289E+04  0.12329114664E+04 0.  0.
        4    1    3    3  502    0 -0.55685981614E+03  0.17205815276E+03  0.24907966887E+03  0.63382896518E+03  0.12699999809E+01 0.  1.
       -4    1    3    3    0  502  0.55685981614E+03 -0.17205815276E+03 -0.15371274505E+03  0.60276536368E+03  0.12699999809E+01 0. -1.
</event>
<event>
 5   0  0.2334946E-03  0.1274283E+04  0.7818609E-02  0.9050211E-01
        2   -1    0    0  501    0  0.00000000000E+00  0.00000000000E+00  0.17621180689E+04  0.17621180689E+04  0.25500000920E-02 0. -1.
       -2   -1    0    0    0  501  0.00000000000E+00  0.00000000000E+00 -0.23037570397E+03  0.23037570398E+03  0.25500000920E-02 0.  1.
    10030    2    1    2    0    0  0.00000000000E+00  0.00000000000E+00  0.15317423649E+04  0.19924937729E+04  0.12742828424E+04 0.  0.
        1    1    3    3  502    0  0.93553848069E+02  0.14458432836E+03 -0.19329480131E+03  0.25888188569E+03  0.50400001928E-02 0.  1.
       -1    1    3    3    0  502 -0.93553848069E+02 -0.14458432836E+03  0.17250371662E+04  0.17336118872E+04  0.50400001928E-02 0. -1.
</event>
<event>
 5   0  0.9131250E-04  0.1300454E+04  0.7818609E-02  0.9029205E-01
       -4   -1    0    0    0  501  0.00000000000E+00  0.00000000000E+00  0.13448027567E+04  0.13448033564E+04  0.12699999809E+01 0.  1.
        4   -1    0    0  501    0  0.00000000000E+00  0.00000000000E+00 -0.31438996157E+03  0.31439252668E+03  0.12699999809E+01 0. -1.
    10030    2    1    2    0    0  0.00000000000E+00  0.00000000000E+00  0.10304127952E+04  0.16591958831E+04  0.13004539400E+04 0.  0.
        5    1    3    3  502    0  0.51380960236E+03 -0.32698840209E+03  0.22468206574E+03  0.64917319972E+03  0.46999998093E+01 0. -1.
       -5    1    3    3    0  502 -0.51380960236E+03  0.32698840209E+03  0.80573072941E+03  0.10100226834E+04  0.46999998093E+01 0.  1.
</event>
<event>
 5   0  0.1310461E-03  0.1313197E+04  0.7818609E-02  0.9019165E-01
        1   -1    0    0  501    0  0.00000000000E+00  0.00000000000E+00  0.11959001679E+04  0.11959001679E+04  0.50400001928E-02 0.  1.
       -1   -1    0    0    0  501  0.00000000000E+00  0.00000000000E+00 -0.36049976814E+03  0.36049976818E+03  0.50400001928E-02 0. -1.
    10030    2    1    2    0    0  0.00000000000E+00  0.00000000000E+00  0.83540039972E+03  0.15563999361E+04  0.13131972179E+04 0.  0.
        4    1    3    3  502    0 -0.37943615840E+03  0.44597549464E+03  0.65605982076E+02  0.58921277813E+03  0.12699999809E+01 0. -1.
       -4    1    3    3    0  502  0.37943615840E+03 -0.44597549464E+03  0.76979441765E+03  0.96718715793E+03  0.12699999809E+01 0.  1.
</event>
<event>
 5   0  0.2478236E-03  0.1294596E+04  0.7818609E-02  0.9033862E-01
       -2   -1    0    0    0  501  0.00000000000E+00  0.00000000000E+00  0.49908613949E+03  0.49908613950E+03  0.25500000920E-02 0.  1.
        2   -1    0    0  501    0  0.00000000000E+00  0.00000000000E+00 -0.83952339940E+03  0.83952339941E+03  0.25500000920E-02 0. -1.
    10030    2    1    2    0    0  0.00000000000E+00  0.00000000000E+00 -0.34043725991E+03  0.13386095389E+04  0.12945956781E+04 0.  0.
        3    1    3    3  502    0 -0.58239060233E+03  0.28014683061E+03 -0.20797615735E+03  0.67890732254E+03  0.10100000352E+00 0. -1.
       -3    1    3    3    0  502  0.58239060233E+03 -0.28014683061E+03 -0.13246110256E+03  0.65970221636E+03  0.10100000352E+00 0.  1.
</event>
<event>
 5   0  0.1387622E-03  0.1276698E+04  0.7818609E-02  0.9048251E-01
       -1   -1    0    0    0  501  0.00000000000E+00  0.00000000000E+00  0.52833046560E+03  0.52833046562E+03  0.50400001928E-02 0.  1.
        1   -1    0    0  501    0  0.00000000000E+00  0.00000000000E+00 -0.77127783714E+03  0.77127783716E+03  0.50400001928E-02 0. -1.
    10030    2    1    2    0    0  0.00000000000E+00  0.00000000000E+00 -0.24294737154E+03  0.12996083028E+04  0.12766982084E+04 0.  0.
        3    1    3    3  502    0 -0.22076296728E+03 -0.23491316407E+03  0.43938441889E+03  0.54495794346E+03  0.10100000352E+00 0.  1.
       -3    1    3    3    0  502  0.22076296728E+03  0.23491316407E+03 -0.68233179044E+03  0.75465035932E+03  0.10100000352E+00 0. -1.
</event>
<event>
 5   0  0.2361043E-03  0.1302430E+04  0.7818609E-02  0.9027640E-01
       -2   -1    0    0    0  501  0.00000000000E+00  0.00000000000E+00  0.76127900867E+03  0.76127900868E+03  0.25500000920E-02 0.  1.
        2   -1    0    0  501    0  0.00000000000E+00  0.00000000000E+00 -0.55706395227E+03  0.55706395227E+03  0.25500000920E-02 0. -1.
    10030    2    1    2    0    0  0.00000000000E+00  0.00000000000E+00  0.20421505640E+03  0.13183429609E+04  0.13024301799E+04 0.  0.
        2    1    3    3  502    0  0.58717825781E+03 -0.13322444591E+03  0.35323961954E+03  0.69807255229E+03  0.25500000920E-02 0.  1.
       -2    1    3    3    0  502 -0.58717825781E+03  0.13322444591E+03 -0.14902456314E+03  0.62027040866E+03  0.25500000920E-02 0. -1.
</event>
<event>
 5   0  0.2478236E-03  0.1277929E+04  0.7818609E-02  0.9047253E-01
        2   -1    0    0  501    0  0.00000000000E+00  0.00000000000E+00  0.15537809290E+04  0.15537809290E+04  0.25500000920E-02 0. -1.
       -2   -1    0    0    0  501  0.00000000000E+00  0.00000000000E+00 -0.26276272464E+03  0.26276272466E+03  0.25500000920E-02 0.  1.
    10030    2    1    2    0    0  0.00000000000E+00  0.00000000000E+00  0.12910182043E+04  0.18165436536E+04  0.12779291223E+04 0.  0.
        3    1    3    3  502    0  0.14008777013E+03 -0.20008556919E+03 -0.19378327512E+03  0.31178644334E+03  0.10100000352E+00 0.  1.
       -3    1    3    3    0  502 -0.14008777013E+03  0.20008556919E+03  0.14848014794E+04  0.15047572103E+04  0.10100000352E+00 0. -1.
</event>
<event>
 5   0  0.2361043E-03  0.1315333E+04  0.7818609E-02  0.9017494E-01
       -2   -1    0    0    0  501  0.00000000000E+00  0.00000000000E+00  0.23886541767E+03  0.23886541768E+03  0.25500000920E-02 0.  1.
        2   -1    0    0  501    0  0.00000000000E+00  0.00000000000E+00 -0.18107487331E+04  0.18107487331E+04  0.25500000920E-02 0. -1.
    10030    2    1    2    0    0  0.00000000000E+00  0.00000000000E+00 -0.15718833154E+04  0.20496141507E+04  0.13153330414E+04 0.  0.
        2    1    3    3  502    0 -0.48148797810E+03 -0.44797312649E+03 -0.79190738629E+03  0.10293822922E+04  0.25500000920E-02 0.  1.
       -2    1    3    3    0  502  0.48148797810E+03  0.44797312649E+03 -0.77997592910E+03  0.10202318585E+04  0.25500000920E-02 0. -1.
</event>
<event>
 5   0  0.2361043E-03  0.1293883E+04  0.7818609E-02  0.9034430E-01
       -2   -1    0    0    0  501  0.00000000000E+00  0.00000000000E+00  0.55868057954E+03  0.55868057954E+03  0.25500000920E-02 0.  1.
        2   -1    0    0  501    0  0.00000000000E+00  0.00000000000E+00 -0.74914549412E+03  0.74914549412E+03  0.25500000920E-02 0. -1.
    10030    2    1    2    0    0  0.00000000000E+00  0.00000000000E+00 -0.19046491458E+03  0.13078260737E+04  0.12938825894E+04 0.  0.
        2    1    3    3  502    0  0.41021628603E+03 -0.47954634887E+01  0.41039087006E+03  0.58027671332E+03  0.25500000920E-02 0.  1.
       -2    1    3    3    0  502 -0.41021628603E+03  0.47954634887E+01 -0.60085578464E+03  0.72754936034E+03  0.25500000920E-02 0. -1.
</event>
<event>
 5   0  0.1332630E-03  0.1326121E+04  0.7818609E-02  0.9009103E-01
        1   -1    0    0  501    0  0.00000000000E+00  0.00000000000E+00  0.12599920483E+04  0.12599920483E+04  0.50400001928E-02 0.  1.
       -1   -1    0    0    0  501  0.00000000000E+00  0.00000000000E+00 -0.34893028170E+03  0.34893028174E+03  0.50400001928E-02 0. -1.
    10030    2    1    2    0    0  0.00000000000E+00  0.00000000000E+00  0.91106176659E+03  0.16089223300E+04  0.13261212319E+04 0.  0.
        5    1    3    3  502    0 -0.84177742016E+02  0.14138847802E+03 -0.32374370282E+03  0.36319233071E+03  0.46999998093E+01 0. -1.
       -5    1    3    3    0  502  0.84177742016E+02 -0.14138847802E+03  0.12348054694E+04  0.12457299993E+04  0.46999998093E+01 0.  1.
</event>
<event>
 5   0  0.1310461E-03  0.1299040E+04  0.7818609E-02  0.9030327E-01
        1   -1    0    0  501    0  0.00000000000E+00  0.00000000000E+00  0.67648987565E+03  0.67648987567E+03  0.50400001928E-02 0. -1.
       -1   -1    0    0    0  501  0.00000000000E+00  0.00000000000E+00 -0.62362542371E+03  0.62362542373E+03  0.50400001928E-02 0.  1.
    10030    2    1    2    0    0  0.00000000000E+00  0.00000000000E+00  0.52864451937E+02  0.13001152994E+04  0.12990400846E+04 0.  0.
        4    1    3    3  502    0 -0.42982643185E+03  0.33858239192E+03  0.37670172469E+03  0.66430008273E+03  0.12699999809E+01 0. -1.
       -4    1    3    3    0  502  0.42982643185E+03 -0.33858239192E+03 -0.32383727275E+03  0.63581521667E+03  0.12699999809E+01 0.  1.
</event>
<event>
 5   0  0.2361043E-03  0.1279998E+04  0.7818609E-02  0.9045579E-01
       -2   -1    0    0    0  501  0.00000000000E+00  0.00000000000E+00  0.19470250584E+03  0.19470250586E+03  0.25500000920E-02 0. -1.
        2   -1    0    0  501    0  0.00000000000E+00  0.00000000000E+00 -0.21037169389E+04  0.21037169389E+04  0.25500000920E-02 0.  1.
    10030    2    1    2    0    0  0.00000000000E+00  0.00000000000E+00 -0.19090144330E+04  0.22984194448E+04  0.12799983744E+04 0.  0.
        2    1    3    3  502    0  0.55863660325E+02  0.43468234002E+03 -0.17919958554E+04  0.18448085622E+04  0.25500000920E-02 0.  1.
       -2    1    3    3    0  502 -0.55863660325E+02 -0.43468234002E+03 -0.11701857764E+03  0.45361088258E+03  0.25500000920E-02 0. -1.
</event>
<event>
 5   0  0.2361043E-03  0.1289205E+04  0.7818609E-02  0.9038170E-01
        2   -1    0    0  501    0  0.00000000000E+00  0.00000000000E+00  0.82296356213E+03  0.82296356213E+03  0.25500000920E-02 0. -1.
       -2   -1    0    0    0  501  0.00000000000E+00  0.00000000000E+00 -0.50489743444E+03  0.50489743445E+03  0.25500000920E-02 0.  1.
    10030    2    1    2    0    0  0.00000000000E+00  0.00000000000E+00  0.31806612768E+03  0.13278609966E+04  0.12892047024E+04 0.  0.
        2    1    3    3  502    0 -0.42268439069E+03 -0.48592809999E+03  0.13131942086E+03  0.65729217460E+03  0.25500000920E-02 0.  1.
       -2    1    3    3    0  502  0.42268439069E+03  0.48592809999E+03  0.18674670682E+03  0.67056882198E+03  0.25500000920E-02 0. -1.
</event>
<event>
 5   0  0.9131250E-04  0.1294020E+04  0.7818609E-02  0.9034321E-01
        3   -1    0    0  501    0  0.00000000000E+00  0.00000000000E+00  0.16743288924E+04  0.16743288954E+04  0.10100000352E+00 0.  1.
       -3   -1    0    0    0  501  0.00000000000E+00  0.00000000000E+00 -0.25002384713E+03  0.25002386753E+03  0.10100000352E+00 0. -1.
    10030    2    1    2    0    0  0.00000000000E+00  0.00000000000E+00  0.14243050452E+04  0.19243527629E+04  0.12940203609E+04 0.  0.
        2    1    3    3  502    0 -0.48763329541E+03 -0.23663123356E+03  0.18671238533E+03  0.57327313414E+03  0.25500000920E-02 0. -1.
       -2    1    3    3    0  502  0.48763329541E+03  0.23663123356E+03  0.12375926599E+04  0.13510796288E+04  0.25500000920E-02 0.  1.
</event>
<event>
 5   0  0.2478236E-03  0.1292108E+04  0.7818609E-02  0.9035847E-01
       -2   -1    0    0    0  501  0.00000000000E+00  0.00000000000E+00  0.21260358460E+03  0.21260358462E+03  0.25500000920E-02 0.  1.
        2   -1    0    0  501    0  0.00000000000E+00  0.00000000000E+00 -0.19632123403E+04  0.19632123403E+04  0.25500000920E-02 0. -1.
    10030    2    1    2    0    0  0.00000000000E+00  0.00000000000E+00 -0.17506087557E+04  0.21758159249E+04  0.12921083250E+04 0.  0.
        3    1    3    3  502    0 -0.23414140822E+03 -0.31074599947E+03 -0.17437939584E+04  0.17866736285E+04  0.10100000352E+00 0. -1.
       -3    1    3    3    0  502  0.23414140822E+03  0.31074599947E+03 -0.68147973280E+01  0.38914229645E+03  0.10100000352E+00 0.  1.
</event>
<event>
 5   0  0.9131250E-04  0.1306504E+04  0.7818609E-02  0.9024423E-01
        4   -1    0    0  501    0  0.00000000000E+00  0.00000000000E+00  0.37828181398E+03  0.37828394585E+03  0.12699999809E+01 0.  1.
       -4   -1    0    0    0  501  0.00000000000E+00  0.00000000000E+00 -0.11280903801E+04  0.11280910950E+04  0.12699999809E+01 0. -1.
    10030    2    1    2    0    0  0.00000000000E+00  0.00000000000E+00 -0.74980856612E+03  0.15063750408E+04  0.13065040673E+04 0.  0.
        4    1    3    3  502    0 -0.24862515411E+03 -0.51079085301E+03 -0.30523823340E+01  0.56809567215E+03  0.12699999809E+01 0.  1.
       -4    1    3    3    0  502  0.24862515411E+03  0.51079085301E+03 -0.74675618379E+03  0.93827936869E+03  0.12699999809E+01 0. -1.
</event>
<event>
 5   0  0.1324721E-03  0.1287753E+04  0.7818609E-02  0.9039334E-01
        1   -1    0    0  501    0  0.00000000000E+00  0.00000000000E+00  0.21289359973E+04  0.21289359973E+04  0.50400001928E-02 0. -1.
       -1   -1    0    0    0  501  0.00000000000E+00  0.00000000000E+00 -0.19473432673E+03  0.19473432680E+03  0.50400001928E-02 0.  1.
    10030    2    1    2    0    0  0.00000000000E+00  0.00000000000E+00  0.19342016706E+04  0.23236703241E+04  0.12877529548E+04 0.  0.
        1    1    3    3  502    0  0.41228045636E+03  0.49345892446E+03  0.90725349168E+03  0.11120187872E+04  0.50400001928E-02 0.  1.
       -1    1    3    3    0  502 -0.41228045636E+03 -0.49345892446E+03  0.10269481789E+04  0.12116515369E+04  0.50400001928E-02 0. -1.
</event>
<event>
 5   0  0.2361043E-03  0.1317223E+04  0.7818609E-02  0.9016018E-01
        2   -1    0    0  501    0  0.00000000000E+00  0.00000000000E+00  0.21378712735E+04  0.21378712735E+04  0.25500000920E-02 0. -1.
       -2   -1    0    0    0  501  0.00000000000E+00  0.00000000000E+00 -0.20289759522E+03  0.20289759524E+03  0.25500000920E-02 0.  1.
    10030    2    1    2    0    0  0.00000000000E+00  0.00000000000E+00  0.19349736783E+04  0.23407688687E+04  0.13172227455E+04 0.  0.
        2    1    3    3  502    0 -0.32291588091E+03  0.56238821062E+03  0.11717606826E+04  0.13392454080E+04  0.25500000920E-02 0. -1.
       -2    1    3    3    0  502  0.32291588091E+03 -0.56238821062E+03  0.76321299565E+03  0.10015234607E+04  0.25500000920E-02 0.  1.
</event>
<event>
 5   0  0.2312105E-03  0.1225330E+04  0.7818609E-02  0.9090970E-01
       -2   -1    0    0    0  501  0.00000000000E+00  0.00000000000E+00  0.45840216272E+03  0.45840216273E+03  0.25500000920E-02 0.  1.
        2   -1    0    0  501    0  0.00000000000E+00  0.00000000000E+00 -0.81884068524E+03  0.81884068524E+03  0.25500000920E-02 0. -1.
    10030    2    1    2    0    0  0.00000000000E+00  0.00000000000E+00 -0.36043852252E+03  0.12772428480E+04  0.12253299001E+04 0.  0.
        5    1    3    3  502    0 -0.14801915122E+03 -0.53329529009E+03 -0.45407160928E+03  0.71590268327E+03  0.46999998093E+01 0. -1.
       -5    1    3    3    0  502  0.14801915122E+03  0.53329529009E+03  0.93633086764E+02  0.56134016469E+03  0.46999998093E+01 0.  1.
</event>
<event>
 5   0  0.9131250E-04  0.1320510E+04  0.7818609E-02  0.9013457E-01
        4   -1    0    0  501    0  0.00000000000E+00  0.00000000000E+00  0.31240681790E+03  0.31240939929E+03  0.12699999809E+01 0.  1.
       -4   -1    0    0    0  501  0.00000000000E+00  0.00000000000E+00 -0.13954038251E+04  0.13954044031E+04  0.12699999809E+01 0. -1.
    10030    2    1    2    0    0  0.00000000000E+00  0.00000000000E+00 -0.10829970072E+04  0.17078138023E+04  0.13205095478E+04 0.  0.
        4    1    3    3  502    0 -0.16843257308E+03 -0.63292991442E+03 -0.64943239343E+03  0.92235234850E+03  0.12699999809E+01 0. -1.
       -4    1    3    3    0  502  0.16843257308E+03  0.63292991442E+03 -0.43356461379E+03  0.78546145385E+03  0.12699999809E+01 0.  1.
</event>
<event>
 5   0  0.1332630E-03  0.1286775E+04  0.7818609E-02  0.9040119E-01
       -1   -1    0    0    0  501  0.00000000000E+00  0.00000000000E+00  0.32391702197E+03  0.32391702201E+03  0.50400001928E-02 0. -1.
        1   -1    0    0  501    0  0.00000000000E+00  0.00000000000E+00 -0.12779426972E+04  0.12779426972E+04  0.50400001928E-02 0.  1.
    10030    2    1    2    0    0  0.00000000000E+00  0.00000000000E+00 -0.95402567523E+03  0.16018597192E+04  0.12867748719E+04 0.  0.
        5    1    3    3  502    0  0.58254275606E+03  0.19080273598E+02 -0.81612161437E+03  0.10028941614E+04  0.46999998093E+01 0.  1.
       -5    1    3    3    0  502 -0.58254275606E+03 -0.19080273598E+02 -0.13790406085E+03  0.59896555783E+03  0.46999998093E+01 0. -1.
</event>
<event>
 5   0  0.2401211E-03  0.1292601E+04  0.7818609E-02  0.9035453E-01
       -2   -1    0    0    0  501  0.00000000000E+00  0.00000000000E+00  0.28430390507E+03  0.28430390508E+03  0.25500000920E-02 0.  1.
        2   -1    0    0  501    0  0.00000000000E+00  0.00000000000E+00 -0.14692176697E+04  0.14692176697E+04  0.25500000920E-02 0. -1.
    10030    2    1    2    0    0  0.00000000000E+00  0.00000000000E+00 -0.11849137647E+04  0.17535215748E+04  0.12926009762E+04 0.  0.
        4    1    3    3  502    0 -0.16735464534E+03 -0.40141500218E+03 -0.12410133852E+04  0.13150123256E+04  0.12699999809E+01 0. -1.
       -4    1    3    3    0  502  0.16735464534E+03  0.40141500218E+03  0.56099620584E+02  0.43850924919E+03  0.12699999809E+01 0.  1.
</event>
<event>
 5   0  0.1387622E-03  0.1295965E+04  0.7818609E-02  0.9032771E-01
       -1   -1    0    0    0  501  0.00000000000E+00  0.00000000000E+00  0.42355891529E+03  0.42355891532E+03  0.50400001928E-02 0.  1.
        1   -1    0    0  501    0  0.00000000000E+00  0.00000000000E+00 -0.99131754907E+03  0.99131754908E+03  0.50400001928E-02 0. -1.
    10030    2    1    2    0    0  0.00000000000E+00  0.00000000000E+00 -0.56775863378E+03  0.14148764644E+04  0.12959651011E+04 0.  0.
        3    1    3    3  502    0 -0.39451400128E+03 -0.18141673680E+03 -0.80897610345E+03  0.91814795962E+03  0.10100000352E+00 0. -1.
       -3    1    3    3    0  502  0.39451400128E+03  0.18141673680E+03  0.24121746967E+03  0.49672850479E+03  0.10100000352E+00 0.  1.
</event>
<event>
 5   0  0.1346593E-03  0.1261949E+04  0.7818609E-02  0.9060297E-01
       -1   -1    0    0    0  501  0.00000000000E+00  0.00000000000E+00  0.40557455271E+03  0.40557455274E+03  0.50400001928E-02 0.  1.
        1   -1    0    0  501    0  0.00000000000E+00  0.00000000000E+00 -0.98164116921E+03  0.98164116922E+03  0.50400001928E-02 0. -1.
    10030    2    1    2    0    0  0.00000000000E+00  0.00000000000E+00 -0.57606661650E+03  0.13872157220E+04  0.12619487758E+04 0.  0.
        2    1    3    3  502    0 -0.30429948306E+03  0.37749134900E+02 -0.89423119346E+03  0.94534258337E+03  0.25500000920E-02 0. -1.
       -2    1    3    3    0  502  0.30429948306E+03 -0.37749134900E+02  0.31816457696E+03  0.44187313860E+03  0.25500000920E-02 0.  1.
</event>
<event>
 5   0  0.2361043E-03  0.1349490E+04  0.7818609E-02  0.8991215E-01
       -2   -1    0    0    0  501  0.00000000000E+00  0.00000000000E+00  0.35669974245E+03  0.35669974246E+03  0.25500000920E-02 0. -1.
        2   -1    0    0  501    0  0.00000000000E+00  0.00000000000E+00 -0.12763689912E+04  0.12763689912E+04  0.25500000920E-02 0.  1.
    10030    2    1    2    0    0  0.00000000000E+00  0.00000000000E+00 -0.91966924873E+03  0.16330687336E+04  0.13494895190E+04 0.  0.
        2    1    3    3  502    0 -0.22111991646E+03 -0.16950985627E+03 -0.12035064863E+04  0.12353361775E+04  0.25500000920E-02 0.  1.
       -2    1    3    3    0  502  0.22111991646E+03  0.16950985627E+03  0.28383723754E+03  0.39773255619E+03  0.25500000920E-02 0. -1.
</event>
<event>
 5   0  0.2312105E-03  0.1321889E+04  0.7818609E-02  0.9012385E-01
        2   -1    0    0  501    0  0.00000000000E+00  0.00000000000E+00  0.53794615854E+03  0.53794615855E+03  0.25500000920E-02 0.  1.
       -2   -1    0    0    0  501  0.00000000000E+00  0.00000000000E+00 -0.81206565187E+03  0.81206565187E+03  0.25500000920E-02 0. -1.
    10030    2    1    2    0    0  0.00000000000E+00  0.00000000000E+00 -0.27411949333E+03  0.13500118104E+04  0.13218889483E+04 0.  0.
        5    1    3    3  502    0 -0.17771948657E+03 -0.39662064018E+03 -0.64558213618E+03  0.77826122393E+03  0.46999998093E+01 0. -1.
       -5    1    3    3    0  502  0.17771948657E+03  0.39662064018E+03  0.37146264285E+03  0.57175058649E+03  0.46999998093E+01 0.  1.
</event>
<event>
 5   0  0.1310461E-03  0.1286407E+04  0.7818609E-02  0.9040414E-01
       -1   -1    0    0    0  501  0.00000000000E+00  0.00000000000E+00  0.48052790329E+03  0.48052790332E+03  0.50400001928E-02 0. -1.
        1   -1    0    0  501    0  0.00000000000E+00  0.00000000000E+00 -0.86095082142E+03  0.86095082143E+03  0.50400001928E-02 0.  1.
    10030    2    1    2    0    0  0.00000000000E+00  0.00000000000E+00 -0.38042291813E+03  0.13414787247E+04  0.12864072342E+04 0.  0.
        4    1    3    3  502    0  0.41426044948E+01 -0.49138074639E+03  0.24256999733E+03  0.54800913824E+03  0.12699999809E+01 0. -1.
       -4    1    3    3    0  502 -0.41426044948E+01  0.49138074639E+03 -0.62299291546E+03  0.79346958650E+03  0.12699999809E+01 0.  1.
</event>
<event>
 5   0  0.2312105E-03  0.1298176E+04  0.7818609E-02  0.9031013E-01
        2   -1    0    0  501    0  0.00000000000E+00  0.00000000000E+00  0.26616515791E+04  0.26616515791E+04  0.25500000920E-02 0. -1.
       -2   -1    0    0    0  501  0.00000000000E+00  0.00000000000E+00 -0.15829090965E+03  0.15829090968E+03  0.25500000920E-02 0.  1.
    10030    2    1    2    0    0  0.00000000000E+00  0.00000000000E+00  0.25033606695E+04  0.28199424888E+04  0.12981760276E+04 0.  0.
        5    1    3    3  502    0 -0.97589202749E+01  0.41737795444E+02  0.26585368601E+04  0.26588865351E+04  0.46999998093E+01 0. -1.
       -5    1    3    3    0  502  0.97589202749E+01 -0.41737795444E+02 -0.15517619061E+03  0.16105595371E+03  0.46999998093E+01 0.  1.
</event>
<event>
 5   0  0.1387622E-03  0.1281128E+04  0.7818609E-02  0.9044666E-01
       -1   -1    0    0    0  501  0.00000000000E+00  0.00000000000E+00  0.52399517500E+03  0.52399517502E+03  0.50400001928E-02 0.  1.
        1   -1    0    0  501    0  0.00000000000E+00  0.00000000000E+00 -0.78306518686E+03  0.78306518687E+03  0.50400001928E-02 0. -1.
    10030    2    1    2    0    0  0.00000000000E+00  0.00000000000E+00 -0.25907001186E+03  0.13070603619E+04  0.12811282210E+04 0.  0.
        3    1    3    3  502    0 -0.57382757095E+03  0.28361719640E+03 -0.15464153735E+03  0.65850650001E+03  0.10100000352E+00 0.  1.
       -3    1    3    3    0  502  0.57382757095E+03 -0.28361719640E+03 -0.10442847451E+03  0.64855386189E+03  0.10100000352E+00 0. -1.
</event>
<event>
 5   0  0.2361043E-03  0.1298601E+04  0.7818609E-02  0.9030676E-01
        2   -1    0    0  501    0  0.00000000000E+00  0.00000000000E+00  0.18718082977E+04  0.18718082977E+04  0.25500000920E-02 0.  1.
       -2   -1    0    0    0  501  0.00000000000E+00  0.00000000000E+00 -0.22523191842E+03  0.22523191844E+03  0.25500000920E-02 0. -1.
    10030    2    1    2    0    0  0.00000000000E+00  0.00000000000E+00  0.16465763793E+04  0.20970402161E+04  0.12986007451E+04 0.  0.
        2    1    3    3  502    0  0.46152338276E+03  0.30000158912E+03  0.26719424635E+03  0.61188034091E+03  0.25500000920E-02 0. -1.
       -2    1    3    3    0  502 -0.46152338276E+03 -0.30000158912E+03  0.13793821329E+04  0.14851598752E+04  0.25500000920E-02 0.  1.
</event>
<event>
 5   0  0.2478236E-03  0.1337515E+04  0.7818609E-02  0.9000334E-01
        2   -1    0    0  501    0  0.00000000000E+00  0.00000000000E+00  0.18387234600E+04  0.18387234600E+04  0.25500000920E-02 0.  1.
       -2   -1    0    0    0  501  0.00000000000E+00  0.00000000000E+00 -0.24323193519E+03  0.24323193520E+03  0.25500000920E-02 0. -1.
    10030    2    1    2    0    0  0.00000000000E+00  0.00000000000E+00  0.15954915248E+04  0.20819553952E+04  0.13375145090E+04 0.  0.
        3    1    3    3  502    0 -0.90857011078E+01  0.22950872383E+03  0.17753996048E+04  0.17901956795E+04  0.10100000352E+00 0.  1.
       -3    1    3    3    0  502  0.90857011078E+01 -0.22950872383E+03 -0.17990807992E+03  0.29175971569E+03  0.10100000352E+00 0. -1.
</event>
<event>
 5   0  0.2334946E-03  0.1306003E+04  0.7818609E-02  0.9024818E-01
       -2   -1    0    0    0  501  0.00000000000E+00  0.00000000000E+00  0.11377737170E+04  0.11377737170E+04  0.25500000920E-02 0. -1.
        2   -1    0    0  501    0  0.00000000000E+00  0.00000000000E+00 -0.37477671476E+03  0.37477671477E+03  0.25500000920E-02 0.  1.
    10030    2    1    2    0    0  0.00000000000E+00  0.00000000000E+00  0.76299700221E+03  0.15125504317E+04  0.13060032095E+04 0.  0.
        1    1    3    3  502    0 -0.48942052184E+03  0.41989629768E+03  0.26245224578E+03  0.69622304569E+03  0.50400001928E-02 0.  1.
       -1    1    3    3    0  502  0.48942052184E+03 -0.41989629768E+03  0.50054475644E+03  0.81632738606E+03  0.50400001928E-02 0. -1.
</event>
<event>
 5   0  0.1324721E-03  0.1039098E+04  0.7818609E-02  0.9266673E-01
       -1   -1    0    0    0  501  0.00000000000E+00  0.00000000000E+00  0.48043341979E+03  0.48043341982E+03  0.50400001928E-02 0.  1.
        1   -1    0    0  501    0  0.00000000000E+00  0.00000000000E+00 -0.56184872859E+03  0.56184872861E+03  0.50400001928E-02 0. -1.
    10030    2    1    2    0    0  0.00000000000E+00  0.00000000000E+00 -0.81415308798E+02  0.10422821484E+04  0.10390975048E+04 0.  0.
        1    1    3    3  502    0  0.31800020900E+03 -0.26027632792E+03 -0.35958605569E+03  0.54604947694E+03  0.50400001928E-02 0. -1.
       -1    1    3    3    0  502 -0.31800020900E+03  0.26027632792E+03  0.27817074689E+03  0.49623267148E+03  0.50400001928E-02 0.  1.
</event>
<event>
 5   0  0.2478236E-03  0.1300396E+04  0.7818609E-02  0.9029251E-01
        2   -1    0    0  501    0  0.00000000000E+00  0.00000000000E+00  0.48783487772E+03  0.48783487773E+03  0.25500000920E-02 0. -1.
       -2   -1    0    0    0  501  0.00000000000E+00  0.00000000000E+00 -0.86659914860E+03  0.86659914860E+03  0.25500000920E-02 0.  1.
    10030    2    1    2    0    0  0.00000000000E+00  0.00000000000E+00 -0.37876427087E+03  0.13544340263E+04  0.13003957701E+04 0.  0.
        3    1    3    3  502    0  0.26762311694E+03 -0.15581613518E+03 -0.78485346535E+03  0.84373916169E+03  0.10100000352E+00 0.  1.
       -3    1    3    3    0  502 -0.26762311694E+03  0.15581613518E+03  0.40608919448E+03  0.51069486464E+03  0.10100000352E+00 0. -1.
</event>
<event>
 5   0  0.1310461E-03  0.1297858E+04  0.7818609E-02  0.9031266E-01
       -1   -1    0    0    0  501  0.00000000000E+00  0.00000000000E+00  0.86722273817E+03  0.86722273818E+03  0.50400001928E-02 0.  1.
        1   -1    0    0  501    0  0.00000000000E+00  0.00000000000E+00 -0.48558305499E+03  0.48558305502E+03  0.50400001928E-02 0. -1.
    10030    2    1    2    0    0  0.00000000000E+00  0.00000000000E+00  0.38163968318E+03  0.13528057932E+04  0.12978577219E+04 0.  0.
        4    1    3    3  502    0  0.51862453228E+03  0.11146305810E+03 -0.19878527915E+03  0.56649149942E+03  0.12699999809E+01 0. -1.
       -4    1    3    3    0  502 -0.51862453228E+03 -0.11146305810E+03  0.58042496233E+03  0.78631429378E+03  0.12699999809E+01 0.  1.
</event>
<event>
 5   0  0.2312105E-03  0.1302637E+04  0.7818609E-02  0.9027476E-01
        2   -1    0    0  501    0  0.00000000000E+00  0.00000000000E+00  0.14857627523E+04  0.14857627523E+04  0.25500000920E-02 0. -1.
       -2   -1    0    0    0  501  0.00000000000E+00  0.00000000000E+00 -0.28552062352E+03  0.28552062353E+03  0.25500000920E-02 0.  1.
    10030    2    1    2    0    0  0.00000000000E+00  0.00000000000E+00  0.12002421288E+04  0.17712833758E+04  0.13026371827E+04 0.  0.
        5    1    3    3  502    0  0.26132749511E+03  0.23158938739E+02  0.14107127772E+04  0.14349080200E+04  0.46999998093E+01 0. -1.
       -5    1    3    3    0  502 -0.26132749511E+03 -0.23158938739E+02 -0.21047064843E+03  0.33637535581E+03  0.46999998093E+01 0.  1.
</event>
<event>
 5   0  0.1310461E-03  0.1241151E+04  0.7818609E-02  0.9077581E-01
       -1   -1    0    0    0  501  0.00000000000E+00  0.00000000000E+00  0.10050316441E+04  0.10050316441E+04  0.50400001928E-02 0.  1.
        1   -1    0    0  501    0  0.00000000000E+00  0.00000000000E+00 -0.38318583005E+03  0.38318583008E+03  0.50400001928E-02 0. -1.
    10030    2    1    2    0    0  0.00000000000E+00  0.00000000000E+00  0.62184581404E+03  0.13882174742E+04  0.12411508930E+04 0.  0.
        4    1    3    3  502    0 -0.37671090931E+03  0.49148648125E+03  0.26559703802E+03  0.67380521662E+03  0.12699999809E+01 0. -1.
       -4    1    3    3    0  502  0.37671090931E+03 -0.49148648125E+03  0.35624877602E+03  0.71441225756E+03  0.12699999809E+01 0.  1.
</event>
<event>
 5   0  0.1387622E-03  0.1311075E+04  0.7818609E-02  0.9020829E-01
       -1   -1    0    0    0  501  0.00000000000E+00  0.00000000000E+00  0.50591522173E+03  0.50591522175E+03  0.50400001928E-02 0. -1.
        1   -1    0    0  501    0  0.00000000000E+00  0.00000000000E+00 -0.84940959879E+03  0.84940959880E+03  0.50400001928E-02 0.  1.
    10030    2    1    2    0    0  0.00000000000E+00  0.00000000000E+00 -0.34349437706E+03  0.13553248206E+04  0.13110747432E+04 0.  0.
        3    1    3    3  502    0  0.31502453943E+03 -0.56463925106E+03 -0.28342718472E+03  0.70596665893E+03  0.10100000352E+00 0.  1.
       -3    1    3    3    0  502 -0.31502453943E+03  0.56463925106E+03 -0.60067192338E+02  0.64935816163E+03  0.10100000352E+00 0. -1.
</event>
<event>
 5   0  0.2334946E-03  0.1345454E+04  0.7818609E-02  0.8994277E-01
       -2   -1    0    0    0  501  0.00000000000E+00  0.00000000000E+00  0.37308600592E+03  0.37308600593E+03  0.25500000920E-02 0. -1.
        2   -1    0    0  501    0  0.00000000000E+00  0.00000000000E+00 -0.12130221963E+04  0.12130221963E+04  0.25500000920E-02 0.  1.
    10030    2    1    2    0    0  0.00000000000E+00  0.00000000000E+00 -0.83993619035E+03  0.15861082022E+04  0.13454539848E+04 0.  0.
        1    1    3    3  502    0 -0.12962403782E+03  0.65878537836E+03 -0.46943885914E+03  0.81925173690E+03  0.50400001928E-02 0. -1.
       -1    1    3    3    0  502  0.12962403782E+03 -0.65878537836E+03 -0.37049733121E+03  0.76685646530E+03  0.50400001928E-02 0.  1.
</event>
<event>
 5   0  0.2401211E-03  0.1311775E+04  0.7818609E-02  0.9020280E-01
        2   -1    0    0  501    0  0.00000000000E+00  0.00000000000E+00  0.14213857197E+04  0.14213857197E+04  0.25500000920E-02 0. -1.
       -2   -1    0    0    0  501  0.00000000000E+00  0.00000000000E+00 -0.30265405821E+03  0.30265405822E+03  0.25500000920E-02 0.  1.
    10030    2    1    2    0    0  0.00000000000E+00  0.00000000000E+00  0.11187316615E+04  0.17240397779E+04  0.13117746092E+04 0.  0.
        4    1    3    3  502    0 -0.19375086031E+03 -0.39072244537E+02  0.13813119612E+04  0.13953818055E+04  0.12699999809E+01 0. -1.
       -4    1    3    3    0  502  0.19375086031E+03  0.39072244537E+02 -0.26258029967E+03  0.32865797243E+03  0.12699999809E+01 0.  1.
</event>
<event>
 5   0  0.2478236E-03  0.1290152E+04  0.7818609E-02  0.9037411E-01
        2   -1    0    0  501    0  0.00000000000E+00  0.00000000000E+00  0.22168031515E+04  0.22168031515E+04  0.25500000920E-02 0.  1.
       -2   -1    0    0    0  501  0.00000000000E+00  0.00000000000E+00 -0.18771317923E+03  0.18771317925E+03  0.25500000920E-02 0. -1.
    10030    2    1    2    0    0  0.00000000000E+00  0.00000000000E+00  0.20290899723E+04  0.24045163308E+04  0.12901521884E+04 0.  0.
        3    1    3    3  502    0 -0.38262672834E+03  0.31290199543E+03  0.17870723911E+04  0.18541679031E+04  0.10100000352E+00 0.  1.
       -3    1    3    3    0  502  0.38262672834E+03 -0.31290199543E+03  0.24201758125E+03  0.55034842765E+03  0.10100000352E+00 0. -1.
</event>
<event>
 5   0  0.1346593E-03  0.1319100E+04  0.7818609E-02  0.9014555E-01
       -1   -1    0    0    0  501  0.00000000000E+00  0.00000000000E+00  0.56259942250E+03  0.56259942252E+03  0.50400001928E-02 0. -1.
        1   -1    0    0  501    0  0.00000000000E+00  0.00000000000E+00 -0.77320717043E+03  0.77320717044E+03  0.50400001928E-02 0.  1.
    10030    2    1    2    0    0  0.00000000000E+00  0.00000000000E+00 -0.21060774793E+03  0.13358065930E+04  0.13190995529E+04 0.  0.
        2    1    3    3  502    0 -0.17930804247E+03 -0.37308734130E+03 -0.62528602647E+03  0.74988542674E+03  0.25500000920E-02 0.  1.
       -2    1    3    3    0  502  0.17930804247E+03  0.37308734130E+03  0.41467827854E+03  0.58592116623E+03  0.25500000920E-02 0. -1.
</event>
<event>
 5   0  0.1346593E-03  0.1292080E+04  0.7818609E-02  0.9035869E-01
        1   -1    0    0  501    0  0.00000000000E+00  0.00000000000E+00  0.77329689029E+03  0.77329689031E+03  0.50400001928E-02 0.  1.
       -1   -1    0    0    0  501  0.00000000000E+00  0.00000000000E+00 -0.53972543162E+03  0.53972543165E+03  0.50400001928E-02 0. -1.
    10030    2    1    2    0    0  0.00000000000E+00  0.00000000000E+00  0.23357145867E+03  0.13130223220E+04  0.12920804896E+04 0.  0.
        2    1    3    3  502    0 -0.14221971405E+03 -0.55839337337E+03 -0.18007637856E+03  0.60370283137E+03  0.25500000920E-02 0. -1.
       -2    1    3    3    0  502  0.14221971405E+03  0.55839337337E+03  0.41364783723E+03  0.70931949059E+03  0.25500000920E-02 0.  1.
</event>
<event>
 5   0  0.2312105E-03  0.1267867E+04  0.7818609E-02  0.9055442E-01
        2   -1    0    0  501    0  0.00000000000E+00  0.00000000000E+00  0.15203898775E+04  0.15203898775E+04  0.25500000920E-02 0. -1.
       -2   -1    0    0    0  501  0.00000000000E+00  0.00000000000E+00 -0.26432146801E+03  0.26432146803E+03  0.25500000920E-02 0.  1.
    10030    2    1    2    0    0  0.00000000000E+00  0.00000000000E+00  0.12560684095E+04  0.17847113455E+04  0.12678670031E+04 0.  0.
        5    1    3    3  502    0  0.41138435550E+03 -0.10205862778E+03  0.12915678269E+04  0.13593463845E+04  0.46999998093E+01 0. -1.
       -5    1    3    3    0  502 -0.41138435550E+03  0.10205862778E+03 -0.35499417437E+02  0.42536496105E+03  0.46999998093E+01 0.  1.
</event>
<event>
 5   0  0.1324721E-03  0.1323463E+04  0.7818609E-02  0.9011163E-01
        1   -1    0    0  501    0  0.00000000000E+00  0.00000000000E+00  0.51435169064E+03  0.51435169067E+03  0.50400001928E-02 0.  1.
       -1   -1    0    0    0  501  0.00000000000E+00  0.00000000000E+00 -0.85134124827E+03  0.85134124828E+03  0.50400001928E-02 0. -1.
    10030    2    1    2    0    0  0.00000000000E+00  0.00000000000E+00 -0.33698955763E+03  0.13656929390E+04  0.13234633510E+04 0.  0.
        1    1    3    3  502    0  0.96637162527E+02  0.40651648570E+03 -0.69798990735E+03  0.81350126313E+03  0.50400001928E-02 0. -1.
       -1    1    3    3    0  502 -0.96637162527E+02 -0.40651648570E+03  0.36100034972E+03  0.55219167582E+03  0.50400001928E-02 0.  1.
</event>
<event>
 5   0  0.2478236E-03  0.1317073E+04  0.7818609E-02  0.9016135E-01
       -2   -1    0    0    0  501  0.00000000000E+00  0.00000000000E+00  0.58972058506E+03  0.58972058507E+03  0.25500000920E-02 0.  1.
        2   -1    0    0  501    0  0.00000000000E+00  0.00000000000E+00 -0.73538246327E+03  0.73538246327E+03  0.25500000920E-02 0. -1.
    10030    2    1    2    0    0  0.00000000000E+00  0.00000000000E+00 -0.14566187821E+03  0.13251030483E+04  0.13170727793E+04 0.  0.
        3    1    3    3  502    0  0.32411365146E+02 -0.46023385096E+03  0.39993242206E+03  0.61058303823E+03  0.10100000352E+00 0.  1.
       -3    1    3    3    0  502 -0.32411365146E+02  0.46023385096E+03 -0.54559430026E+03  0.71452001011E+03  0.10100000352E+00 0. -1.
</event>
<event>
 5   0  0.9131250E-04  0.1252500E+04  0.7818609E-02  0.9068105E-01
       -4   -1    0    0    0  501  0.00000000000E+00  0.00000000000E+00  0.65099202559E+03  0.65099326439E+03  0.12699999809E+01 0.  1.
        4   -1    0    0  501    0  0.00000000000E+00  0.00000000000E+00 -0.60244601423E+03  0.60244735285E+03  0.12699999809E+01 0. -1.
    10030    2    1    2    0    0  0.00000000000E+00  0.00000000000E+00  0.48546011362E+02  0.12534406172E+04  0.12525001660E+04 0.  0.
        5    1    3    3  502    0  0.47051961018E+03  0.32146542405E+03 -0.23561094043E+03  0.61665495025E+03  0.46999998093E+01 0. -1.
       -5    1    3    3    0  502 -0.47051961018E+03 -0.32146542405E+03  0.28415695180E+03  0.63678566698E+03  0.46999998093E+01 0.  1.
</event>
<event>
 5   0  0.1310461E-03  0.1316272E+04  0.7818609E-02  0.9016760E-01
        1   -1    0    0  501    0  0.00000000000E+00  0.00000000000E+00  0.29044640447E+03  0.29044640451E+03  0.50400001928E-02 0.  1.
       -1   -1    0    0    0  501  0.00000000000E+00  0.00000000000E+00 -0.14913004806E+04  0.14913004806E+04  0.50400001928E-02 0. -1.
    10030    2    1    2    0    0  0.00000000000E+00  0.00000000000E+00 -0.12008540761E+04  0.17817468851E+04  0.13162717996E+04 0.  0.
        4    1    3    3  502    0 -0.56998849676E+03  0.28303432026E+02 -0.15670574718E+03  0.59181608190E+03  0.12699999809E+01 0.  1.
       -4    1    3    3    0  502  0.56998849676E+03 -0.28303432026E+02 -0.10441483290E+04  0.11899308032E+04  0.12699999809E+01 0. -1.
</event>
<event>
 5   0  0.1332630E-03  0.1294891E+04  0.7818609E-02  0.9033626E-01
        1   -1    0    0  501    0  0.00000000000E+00  0.00000000000E+00  0.69319784603E+03  0.69319784605E+03  0.50400001928E-02 0. -1.
       -1   -1    0    0    0  501  0.00000000000E+00  0.00000000000E+00 -0.60471299609E+03  0.60471299611E+03  0.50400001928E-02 0.  1.
    10030    2    1    2    0    0  0.00000000000E+00  0.00000000000E+00  0.88484849935E+02  0.12979108422E+04  0.12948911095E+04 0.  0.
        5    1    3    3  502    0  0.33770053667E+03 -0.47581737040E+03  0.32546727632E+03  0.66812787728E+03  0.46999998093E+01 0. -1.
       -5    1    3    3    0  502 -0.33770053667E+03  0.47581737040E+03 -0.23698242639E+03  0.62978296488E+03  0.46999998093E+01 0.  1.
</event>
<event>
 5   0  0.2401211E-03  0.1306406E+04  0.7818609E-02  0.9024500E-01
       -2   -1    0    0    0  501  0.00000000000E+00  0.00000000000E+00  0.52141102799E+03  0.52141102799E+03  0.25500000920E-02 0. -1.
        2   -1    0    0  501    0  0.00000000000E+00  0.00000000000E+00 -0.81830712561E+03  0.81830712561E+03  0.25500000920E-02 0.  1.
    10030    2    1    2    0    0  0.00000000000E+00  0.00000000000E+00 -0.29689609762E+03  0.13397181536E+04  0.13064063068E+04 0.  0.
        4    1    3    3  502    0  0.32113288771E+03  0.40723976987E+03 -0.55569142492E+03  0.76010863327E+03  0.12699999809E+01 0.  1.
       -4    1    3    3    0  502 -0.32113288771E+03 -0.40723976987E+03  0.25879532730E+03  0.57960952034E+03  0.12699999809E+01 0. -1.
</event>
<event>
 5   0  0.1332630E-03  0.1419136E+04  0.7818609E-02  0.8940082E-01
        1   -1    0    0  501    0  0.00000000000E+00  0.00000000000E+00  0.11111588323E+04  0.11111588323E+04  0.50400001928E-02 0.  1.
       -1   -1    0    0    0  501  0.00000000000E+00  0.00000000000E+00 -0.45311876594E+03  0.45311876597E+03  0.50400001928E-02 0. -1.
    10030    2    1    2    0    0  0.00000000000E+00  0.00000000000E+00  0.65804006637E+03  0.15642775983E+04  0.14191362428E+04 0.  0.
        5    1    3    3  502    0 -0.55377116844E+03 -0.43368628632E+03  0.22609730443E+03  0.73884259691E+03  0.46999998093E+01 0.  1.
       -5    1    3    3    0  502  0.55377116844E+03  0.43368628632E+03  0.43194276193E+03  0.82543500139E+03  0.46999998093E+01 0. -1.
</event>
<event>
 5   0  0.2361043E-03  0.1302770E+04  0.7818609E-02  0.9027371E-01
        2   -1    0    0  501    0  0.00000000000E+00  0.00000000000E+00  0.45205677167E+03  0.45205677168E+03  0.25500000920E-02 0.  1.
       -2   -1    0    0    0  501  0.00000000000E+00  0.00000000000E+00 -0.93860470853E+03  0.93860470853E+03  0.25500000920E-02 0. -1.
    10030    2    1    2    0    0  0.00000000000E+00  0.00000000000E+00 -0.48654793686E+03  0.13906614802E+04  0.13027703012E+04 0.  0.
        2    1    3    3  502    0 -0.40269690257E+03 -0.29219696172E+03  0.20551693161E+03  0.53831316997E+03  0.25500000920E-02 0.  1.
       -2    1    3    3    0  502  0.40269690257E+03  0.29219696172E+03 -0.69206486847E+03  0.85234831023E+03  0.25500000920E-02 0. -1.
</event>
<event>
 5   0  0.1346593E-03  0.1307303E+04  0.7818609E-02  0.9023794E-01
       -1   -1    0    0    0  501  0.00000000000E+00  0.00000000000E+00  0.32891877168E+03  0.32891877172E+03  0.50400001928E-02 0. -1.
        1   -1    0    0  501    0  0.00000000000E+00  0.00000000000E+00 -0.12989843184E+04  0.12989843184E+04  0.50400001928E-02 0.  1.
    10030    2    1    2    0    0  0.00000000000E+00  0.00000000000E+00 -0.97006554668E+03  0.16279030901E+04  0.13073030658E+04 0.  0.
        2    1    3    3  502    0 -0.54719217457E+03  0.50349523424E+02 -0.44236250776E+02  0.55128141299E+03  0.25500000920E-02 0. -1.
       -2    1    3    3    0  502  0.54719217457E+03 -0.50349523424E+02 -0.92582929591E+03  0.10766216771E+04  0.25500000920E-02 0.  1.
</event>
<event>
 5   0  0.1310461E-03  0.1334209E+04  0.7818609E-02  0.9002868E-01
        1   -1    0    0  501    0  0.00000000000E+00  0.00000000000E+00  0.67639398948E+03  0.67639398950E+03  0.50400001928E-02 0. -1.
       -1   -1    0    0    0  501  0.00000000000E+00  0.00000000000E+00 -0.65794293305E+03  0.65794293307E+03  0.50400001928E-02 0.  1.
    10030    2    1    2    0    0  0.00000000000E+00  0.00000000000E+00  0.18451056437E+02  0.13343369226E+04  0.13342093469E+04 0.  0.
        4    1    3    3  502    0 -0.43552713810E+02 -0.65328154081E+03 -0.11866719854E+03  0.66539997547E+03  0.12699999809E+01 0. -1.
       -4    1    3    3    0  502  0.43552713810E+02  0.65328154081E+03  0.13711825498E+03  0.66893694710E+03  0.12699999809E+01 0.  1.
</event>
<event>
 5   0  0.2361043E-03  0.1296649E+04  0.7818609E-02  0.9032226E-01
       -2   -1    0    0    0  501  0.00000000000E+00  0.00000000000E+00  0.81857477781E+03  0.81857477782E+03  0.25500000920E-02 0. -1.
        2   -1    0    0  501    0  0.00000000000E+00  0.00000000000E+00 -0.51348390970E+03  0.51348390970E+03  0.25500000920E-02 0.  1.
    10030    2    1    2    0    0  0.00000000000E+00  0.00000000000E+00  0.30509086811E+03  0.13320586875E+04  0.12966494936E+04 0.  0.
        2    1    3    3  502    0 -0.39466658878E+03  0.43947862305E+03 -0.12200122477E+03  0.60314797129E+03  0.25500000920E-02 0.  1.
       -2    1    3    3    0  502  0.39466658878E+03 -0.43947862305E+03  0.42709209289E+03  0.72891071623E+03  0.25500000920E-02 0. -1.
</event>
<event>
 5   0  0.2401211E-03  0.1381993E+04  0.7818609E-02  0.8966957E-01
        2   -1    0    0  501    0  0.00000000000E+00  0.00000000000E+00  0.10432621926E+04  0.10432621926E+04  0.25500000920E-02 0. -1.
       -2   -1    0    0    0  501  0.00000000000E+00  0.00000000000E+00 -0.45767586372E+03  0.45767586373E+03  0.25500000920E-02 0.  1.
    10030    2    1    2    0    0  0.00000000000E+00  0.00000000000E+00  0.58558632883E+03  0.15009380563E+04  0.13819926557E+04 0.  0.
        4    1    3    3  502    0  0.55496288715E+03  0.41169087786E+03  0.29164011837E+03  0.75001917080E+03  0.12699999809E+01 0.  1.
       -4    1    3    3    0  502 -0.55496288715E+03 -0.41169087786E+03  0.29394621047E+03  0.75091888548E+03  0.12699999809E+01 0. -1.
</event>
<event>
 5   0  0.1346593E-03  0.1307762E+04  0.7818609E-02  0.9023433E-01
       -1   -1    0    0    0  501  0.00000000000E+00  0.00000000000E+00  0.29830908489E+03  0.29830908493E+03  0.50400001928E-02 0.  1.
        1   -1    0    0  501    0  0.00000000000E+00  0.00000000000E+00 -0.14332788997E+04  0.14332788998E+04  0.50400001928E-02 0. -1.
    10030    2    1    2    0    0  0.00000000000E+00  0.00000000000E+00 -0.11349698149E+04  0.17315879847E+04  0.13077616251E+04 0.  0.
        2    1    3    3  502    0 -0.14189442593E+03 -0.63764885173E+03 -0.60563214338E+03  0.89079760851E+03  0.25500000920E-02 0. -1.
       -2    1    3    3    0  502  0.14189442593E+03  0.63764885173E+03 -0.52933767148E+03  0.84079037618E+03  0.25500000920E-02 0.  1.
</event>
<event>
 5   0  0.1324721E-03  0.1142582E+04  0.7818609E-02  0.9164654E-01
       -1   -1    0    0    0  501  0.00000000000E+00  0.00000000000E+00  0.55355270717E+03  0.55355270719E+03  0.50400001928E-02 0. -1.
        1   -1    0    0  501    0  0.00000000000E+00  0.00000000000E+00 -0.58959775764E+03  0.58959775766E+03  0.50400001928E-02 0.  1.
    10030    2    1    2    0    0  0.00000000000E+00  0.00000000000E+00 -0.36045050468E+02  0.11431504648E+04  0.11425820494E+04 0.  0.
        1    1    3    3  502    0  0.25470714201E+03  0.47010234352E+03  0.18332742127E+03  0.56522640153E+03  0.50400001928E-02 0.  1.
       -1    1    3    3    0  502 -0.25470714201E+03 -0.47010234352E+03 -0.21937247174E+03  0.57792406331E+03  0.50400001928E-02 0. -1.
</event>
<event>
 5   0  0.1310461E-03  0.1000925E+04  0.7818609E-02  0.9307531E-01
        1   -1    0    0  501    0  0.00000000000E+00  0.00000000000E+00  0.57915523091E+03  0.57915523093E+03  0.50400001928E-02 0. -1.
       -1   -1    0    0    0  501  0.00000000000E+00  0.00000000000E+00 -0.43246241662E+03  0.43246241665E+03  0.50400001928E-02 0.  1.
    10030    2    1    2    0    0  0.00000000000E+00  0.00000000000E+00  0.14669281429E+03  0.10116176476E+04  0.10009253135E+04 0.  0.
        4    1    3    3  502    0 -0.44675791641E+03 -0.19293985143E+03 -0.44703880442E+02  0.48869056873E+03  0.12699999809E+01 0. -1.
       -4    1    3    3    0  502  0.44675791641E+03  0.19293985143E+03  0.19139669473E+03  0.52292707885E+03  0.12699999809E+01 0.  1.
</event>
<event>
 5   0  0.2401211E-03  0.1303104E+04  0.7818609E-02  0.9027107E-01
        2   -1    0    0  501    0  0.00000000000E+00  0.00000000000E+00  0.14293451138E+04  0.14293451138E+04  0.25500000920E-02 0.  1.
       -2   -1    0    0    0  501  0.00000000000E+00  0.00000000000E+00 -0.29700318503E+03  0.29700318504E+03  0.25500000920E-02 0. -1.
    10030    2    1    2    0    0  0.00000000000E+00  0.00000000000E+00  0.11323419287E+04  0.17263482988E+04  0.13031040654E+04 0.  0.
        4    1    3    3  502    0 -0.52119916972E+03  0.35098572209E+03  0.33794075690E+03  0.71347397969E+03  0.12699999809E+01 0.  1.
       -4    1    3    3    0  502  0.52119916972E+03 -0.35098572209E+03  0.79440117184E+03  0.10128743191E+04  0.12699999809E+01 0. -1.
</event>
<event>
 5   0  0.1387622E-03  0.1315503E+04  0.7818609E-02  0.9017361E-01
       -1   -1    0    0    0  501  0.00000000000E+00  0.00000000000E+00  0.37089817177E+03  0.37089817180E+03  0.50400001928E-02 0. -1.
        1   -1    0    0  501    0  0.00000000000E+00  0.00000000000E+00 -0.11664571546E+04  0.11664571546E+04  0.50400001928E-02 0.  1.
    10030    2    1    2    0    0  0.00000000000E+00  0.00000000000E+00 -0.79555898281E+03  0.15373553264E+04  0.13155026813E+04 0.  0.
        3    1    3    3  502    0  0.58351976595E+03 -0.30176065907E+03 -0.35933830245E+03  0.74878490798E+03  0.10100000352E+00 0.  1.
       -3    1    3    3    0  502 -0.58351976595E+03  0.30176065907E+03 -0.43622068037E+03  0.78857041841E+03  0.10100000352E+00 0. -1.
</event>
<event>
 5   0  0.1324721E-03  0.1250435E+04  0.7818609E-02  0.9069821E-01
       -1   -1    0    0    0  501  0.00000000000E+00  0.00000000000E+00  0.14584577212E+04  0.14584577212E+04  0.50400001928E-02 0.  1.
        1   -1    0    0  501    0  0.00000000000E+00  0.00000000000E+00 -0.26802070778E+03  0.26802070783E+03  0.50400001928E-02 0. -1.
    10030    2    1    2    0    0  0.00000000000E+00  0.00000000000E+00  0.11904370134E+04  0.17264784291E+04  0.12504349176E+04 0.  0.
        1    1    3    3  502    0 -0.29704851313E+03  0.43044182832E+03  0.12218157169E+03  0.53707199071E+03  0.50400001928E-02 0. -1.
       -1    1    3    3    0  502  0.29704851313E+03 -0.43044182832E+03  0.10682554418E+04  0.11894064383E+04  0.50400001928E-02 0.  1.
</event>
<event>
 5   0  0.1324721E-03  0.1343242E+04  0.7818609E-02  0.8995960E-01
        1   -1    0    0  501    0  0.00000000000E+00  0.00000000000E+00  0.13557378261E+04  0.13557378261E+04  0.50400001928E-02 0.  1.
       -1   -1    0    0    0  501  0.00000000000E+00  0.00000000000E+00 -0.33271510441E+03  0.33271510445E+03  0.50400001928E-02 0. -1.
    10030    2    1    2    0    0  0.00000000000E+00  0.00000000000E+00  0.10230227217E+04  0.16884529306E+04  0.13432415307E+04 0.  0.
        1    1    3    3  502    0  0.22119602676E+03  0.35868602901E+03 -0.14585344411E+03  0.44593337713E+03  0.50400001928E-02 0. -1.
       -1    1    3    3    0  502 -0.22119602676E+03 -0.35868602901E+03  0.11688761658E+04  0.12425195535E+04  0.50400001928E-02 0.  1.
</event>
<event>
 5   0  0.2401211E-03  0.1264835E+04  0.7818609E-02  0.9057926E-01
       -2   -1    0    0    0  501  0.00000000000E+00  0.00000000000E+00  0.37856325088E+03  0.37856325089E+03  0.25500000920E-02 0.  1.
        2   -1    0    0  501    0  0.00000000000E+00  0.00000000000E+00 -0.10564993656E+04  0.10564993656E+04  0.25500000920E-02 0. -1.
    10030    2    1    2    0    0  0.00000000000E+00  0.00000000000E+00 -0.67793611468E+03  0.14350626165E+04  0.12648349053E+04 0.  0.
        4    1    3    3  502    0 -0.52645193563E+03  0.33989576348E+03 -0.43570398786E+03  0.76323020676E+03  0.12699999809E+01 0.  1.
       -4    1    3    3    0  502  0.52645193563E+03 -0.33989576348E+03 -0.24223212681E+03  0.67183240970E+03  0.12699999809E+01 0. -1.
</event>
<event>
 5   0  0.2478236E-03  0.1302946E+04  0.7818609E-02  0.9027232E-01
       -2   -1    0    0    0  501  0.00000000000E+00  0.00000000000E+00  0.27663608153E+03  0.27663608154E+03  0.25500000920E-02 0.  1.
        2   -1    0    0  501    0  0.00000000000E+00  0.00000000000E+00 -0.15342072716E+04  0.15342072716E+04  0.25500000920E-02 0. -1.
    10030    2    1    2    0    0  0.00000000000E+00  0.00000000000E+00 -0.12575711901E+04  0.18108433532E+04  0.13029460279E+04 0.  0.
        3    1    3    3  502    0  0.60517126469E+03  0.71150419217E+02 -0.94911252227E+03  0.11278781991E+04  0.10100000352E+00 0. -1.
       -3    1    3    3    0  502 -0.60517126469E+03 -0.71150419217E+02 -0.30845866782E+03  0.68296515410E+03  0.10100000352E+00 0.  1.
</event>
<event>
 5   0  0.2312105E-03  0.1378804E+04  0.7818609E-02  0.8969306E-01
        2   -1    0    0  501    0  0.00000000000E+00  0.00000000000E+00  0.16267410019E+04  0.16267410019E+04  0.25500000920E-02 0.  1.
       -2   -1    0    0    0  501  0.00000000000E+00  0.00000000000E+00 -0.29216388598E+03  0.29216388599E+03  0.25500000920E-02 0. -1.
    10030    2    1    2    0    0  0.00000000000E+00  0.00000000000E+00  0.13345771159E+04  0.19189048879E+04  0.13788037897E+04 0.  0.
        5    1    3    3  502    0  0.14062686386E+03 -0.53858104340E+03  0.10127284934E+03  0.56579478184E+03  0.46999998093E+01 0. -1.
       -5    1    3    3    0  502 -0.14062686386E+03  0.53858104340E+03  0.12333042665E+04  0.13531101060E+04  0.46999998093E+01 0.  1.
</event>
<event>
 5   0  0.2478236E-03  0.1284547E+04  0.7818609E-02  0.9041910E-01
       -2   -1    0    0    0  501  0.00000000000E+00  0.00000000000E+00  0.46173154166E+03  0.46173154167E+03  0.25500000920E-02 0.  1.
        2   -1    0    0  501    0  0.00000000000E+00  0.00000000000E+00 -0.89340930501E+03  0.89340930501E+03  0.25500000920E-02 0. -1.
    10030    2    1    2    0    0  0.00000000000E+00  0.00000000000E+00 -0.43167776335E+03  0.13551408467E+04  0.12845470108E+04 0.  0.
        3    1    3    3  502    0 -0.27560615674E+03  0.11784957083E+02 -0.82772949586E+03  0.87248711587E+03  0.10100000352E+00 0. -1.
       -3    1    3    3    0  502  0.27560615674E+03 -0.11784957083E+02  0.39605173251E+03  0.48265373082E+03  0.10100000352E+00 0.  1.
</event>
<event>
 5   0  0.1332630E-03  0.1021482E+04  0.7818609E-02  0.9285293E-01
        1   -1    0    0  501    0  0.00000000000E+00  0.00000000000E+00  0.76095732280E+03  0.76095732282E+03  0.50400001928E-02 0. -1.
       -1   -1    0    0    0  501  0.00000000000E+00  0.00000000000E+00 -0.34280010852E+03  0.34280010856E+03  0.50400001928E-02 0.  1.
    10030    2    1    2    0    0  0.00000000000E+00  0.00000000000E+00  0.41815721428E+03  0.11037574314E+04  0.10214817725E+04 0.  0.
        5    1    3    3  502    0  0.74813058561E+02 -0.63880815702E+02  0.75059942002E+03  0.75703324344E+03  0.46999998093E+01 0. -1.
       -5    1    3    3    0  502 -0.74813058561E+02  0.63880815702E+02 -0.33244220574E+03  0.34672418793E+03  0.46999998093E+01 0.  1.
</event>
<event>
 5   0  0.2312105E-03  0.1299813E+04  0.7818609E-02  0.9029713E-01
       -2   -1    0    0    0  501  0.00000000000E+00  0.00000000000E+00  0.30267720209E+03  0.30267720210E+03  0.25500000920E-02 0.  1.
        2   -1    0    0  501    0  0.00000000000E+00  0.00000000000E+00 -0.13954757422E+04  0.13954757422E+04  0.25500000920E-02 0. -1.
    10030    2    1    2    0    0  0.00000000000E+00  0.00000000000E+00 -0.10927985401E+04  0.16981529443E+04  0.12998133608E+04 0.  0.
        5    1    3    3  502    0 -0.50443873957E+02  0.62356569387E+03 -0.31645563020E+03  0.70110271350E+03  0.46999998093E+01 0. -1.
       -5    1    3    3    0  502  0.50443873957E+02 -0.62356569387E+03 -0.77634290989E+03  0.99705023079E+03  0.46999998093E+01 0.  1.
</event>
<event>
 5   0  0.2361043E-03  0.1295073E+04  0.7818609E-02  0.9033482E-01
        2   -1    0    0  501    0  0.00000000000E+00  0.00000000000E+00  0.10616786485E+04  0.10616786485E+04  0.25500000920E-02 0. -1.
       -2   -1    0    0    0  501  0.00000000000E+00  0.00000000000E+00 -0.39494386978E+03  0.39494386978E+03  0.25500000920E-02 0.  1.
    10030    2    1    2    0    0  0.00000000000E+00  0.00000000000E+00  0.66673477874E+03  0.14566225183E+04  0.12950729306E+04 0.  0.
        2    1    3    3  502    0 -0.56516279054E+03 -0.81794535761E+02  0.67674376639E+03  0.88548373855E+03  0.25500000920E-02 0. -1.
       -2    1    3    3    0  502  0.56516279054E+03  0.81794535761E+02 -0.10008987653E+02  0.57113877975E+03  0.25500000920E-02 0.  1.
</event>
<event>
 5   0  0.2312105E-03  0.1262591E+04  0.7818609E-02  0.9059769E-01
       -2   -1    0    0    0  501  0.00000000000E+00  0.00000000000E+00  0.36171371216E+03  0.36171371217E+03  0.25500000920E-02 0. -1.
        2   -1    0    0  501    0  0.00000000000E+00  0.00000000000E+00 -0.11017937323E+04  0.11017937323E+04  0.25500000920E-02 0.  1.
    10030    2    1    2    0    0  0.00000000000E+00  0.00000000000E+00 -0.74008002017E+03  0.14635074445E+04  0.12625908299E+04 0.  0.
        5    1    3    3  502    0  0.48011812224E+03 -0.36606287614E+03 -0.58376169097E+03  0.83983048434E+03  0.46999998093E+01 0.  1.
       -5    1    3    3    0  502 -0.48011812224E+03  0.36606287614E+03 -0.15631832920E+03  0.62367696015E+03  0.46999998093E+01 0. -1.
</event>
<event>
 5   0  0.1324721E-03  0.1336612E+04  0.7818609E-02  0.9001025E-01
        1   -1    0    0  501    0  0.00000000000E+00  0.00000000000E+00  0.65416924380E+03  0.65416924382E+03  0.50400001928E-02 0. -1.
       -1   -1    0    0    0  501  0.00000000000E+00  0.00000000000E+00 -0.68274830811E+03  0.68274830813E+03  0.50400001928E-02 0.  1.
    10030    2    1    2    0    0  0.00000000000E+00  0.00000000000E+00 -0.28579064310E+02  0.13369175519E+04  0.13366120521E+04 0.  0.
        1    1    3    3  502    0 -0.26598010163E+02 -0.53704801101E+03  0.38267007778E+03  0.65997303637E+03  0.50400001928E-02 0. -1.
       -1    1    3    3    0  502  0.26598010163E+02  0.53704801101E+03 -0.41124914209E+03  0.67694451558E+03  0.50400001928E-02 0.  1.
</event>
<event>
 5   0  0.2361043E-03  0.1295573E+04  0.7818609E-02  0.9033083E-01
       -2   -1    0    0    0  501  0.00000000000E+00  0.00000000000E+00  0.23468804700E+03  0.23468804702E+03  0.25500000920E-02 0.  1.
        2   -1    0    0  501    0  0.00000000000E+00  0.00000000000E+00 -0.17880224245E+04  0.17880224245E+04  0.25500000920E-02 0. -1.
    10030    2    1    2    0    0  0.00000000000E+00  0.00000000000E+00 -0.15533343775E+04  0.20227104715E+04  0.12955732180E+04 0.  0.
        2    1    3    3  502    0 -0.11493877067E+03  0.32564461400E+03  0.78993532595E+02  0.35425317758E+03  0.25500000920E-02 0.  1.
       -2    1    3    3    0  502  0.11493877067E+03 -0.32564461400E+03 -0.16323279100E+04  0.16684572939E+04  0.25500000920E-02 0. -1.
</event>
<event>
 5   0  0.1332630E-03  0.1305901E+04  0.7818609E-02  0.9024899E-01
       -1   -1    0    0    0  501  0.00000000000E+00  0.00000000000E+00  0.47029389081E+03  0.47029389083E+03  0.50400001928E-02 0. -1.
        1   -1    0    0  501    0  0.00000000000E+00  0.00000000000E+00 -0.90654881516E+03  0.90654881517E+03  0.50400001928E-02 0.  1.
    10030    2    1    2    0    0  0.00000000000E+00  0.00000000000E+00 -0.43625492435E+03  0.13768427060E+04  0.13059010215E+04 0.  0.
        5    1    3    3  502    0 -0.11227609144E+00 -0.48993680764E+03  0.23692562717E+03  0.54423701720E+03  0.46999998093E+01 0.  1.
       -5    1    3    3    0  502  0.11227609144E+00  0.48993680764E+03 -0.67318055152E+03  0.83260568880E+03  0.46999998093E+01 0. -1.
</event>
<event>
 5   0  0.1387622E-03  0.1296573E+04  0.7818609E-02  0.9032288E-01
       -1   -1    0    0    0  501  0.00000000000E+00  0.00000000000E+00  0.65873639029E+03  0.65873639031E+03  0.50400001928E-02 0.  1.
        1   -1    0    0  501    0  0.00000000000E+00  0.00000000000E+00 -0.63800190343E+03  0.63800190345E+03  0.50400001928E-02 0. -1.
    10030    2    1    2    0    0  0.00000000000E+00  0.00000000000E+00  0.20734486866E+02  0.12967382938E+04  0.12965725138E+04 0.  0.
        3    1    3    3  502    0 -0.30021189011E+03 -0.47980479702E+03 -0.30579852889E+03  0.64331374358E+03  0.10100000352E+00 0. -1.
       -3    1    3    3    0  502  0.30021189011E+03  0.47980479702E+03  0.32653301575E+03  0.65342455018E+03  0.10100000352E+00 0.  1.
</event>
<event>
 5   0  0.2401211E-03  0.1311583E+04  0.7818609E-02  0.9020430E-01
       -2   -1    0    0    0  501  0.00000000000E+00  0.00000000000E+00  0.56721059931E+03  0.56721059932E+03  0.25500000920E-02 0.  1.
        2   -1    0    0  501    0  0.00000000000E+00  0.00000000000E+00 -0.75820596167E+03  0.75820596167E+03  0.25500000920E-02 0. -1.
    10030    2    1    2    0    0  0.00000000000E+00  0.00000000000E+00 -0.19099536236E+03  0.13254165610E+04  0.13115829488E+04 0.  0.
        4    1    3    3  502    0  0.34011208850E+03  0.47123551817E+03  0.21155191048E+03  0.61846177736E+03  0.12699999809E+01 0. -1.
       -4    1    3    3    0  502 -0.34011208850E+03 -0.47123551817E+03 -0.40254727284E+03  0.70695478363E+03  0.12699999809E+01 0.  1.
</event>
<event>
 5   0  0.1387622E-03  0.1324229E+04  0.7818609E-02  0.9010569E-01
       -1   -1    0    0    0  501  0.00000000000E+00  0.00000000000E+00  0.26549462709E+03  0.26549462713E+03  0.50400001928E-02 0. -1.
        1   -1    0    0  501    0  0.00000000000E+00  0.00000000000E+00 -0.16512410829E+04  0.16512410829E+04  0.50400001928E-02 0.  1.
    10030    2    1    2    0    0  0.00000000000E+00  0.00000000000E+00 -0.13857464558E+04  0.19167357100E+04  0.13242290370E+04 0.  0.
        3    1    3    3  502    0 -0.54475086746E+03  0.64991188818E+02 -0.15630944517E+03  0.57044720621E+03  0.10100000352E+00 0. -1.
       -3    1    3    3    0  502  0.54475086746E+03 -0.64991188818E+02 -0.12294370106E+04  0.13462885038E+04  0.10100000352E+00 0.  1.
</event>
<event>
 5   0  0.1310461E-03  0.1311435E+04  0.7818609E-02  0.9020546E-01
        1   -1    0    0  501    0  0.00000000000E+00  0.00000000000E+00  0.12880860443E+04  0.12880860443E+04  0.50400001928E-02 0.  1.
       -1   -1    0    0    0  501  0.00000000000E+00  0.00000000000E+00 -0.33380162884E+03  0.33380162888E+03  0.50400001928E-02 0. -1.
    10030    2    1    2    0    0  0.00000000000E+00  0.00000000000E+00  0.95428441548E+03  0.16218876732E+04  0.13114346644E+04 0.  0.
        4    1    3    3  502    0 -0.49203953351E+03  0.18638352550E+03 -0.67991610793E+01  0.52620296712E+03  0.12699999809E+01 0. -1.
       -4    1    3    3    0  502  0.49203953351E+03 -0.18638352550E+03  0.96108357656E+03  0.10956847061E+04  0.12699999809E+01 0.  1.
</event>
<event>
 5   0  0.1387622E-03  0.1293448E+04  0.7818609E-02  0.9034777E-01
        1   -1    0    0  501    0  0.00000000000E+00  0.00000000000E+00  0.14070171619E+04  0.14070171619E+04  0.50400001928E-02 0. -1.
       -1   -1    0    0    0  501  0.00000000000E+00  0.00000000000E+00 -0.29726157497E+03  0.29726157501E+03  0.50400001928E-02 0.  1.
    10030    2    1    2    0    0  0.00000000000E+00  0.00000000000E+00  0.11097555870E+04  0.17042787369E+04  0.12934483176E+04 0.  0.
        3    1    3    3  502    0 -0.54325287579E+02  0.44382599574E+03  0.11705331836E+04  0.12530286092E+04  0.10100000352E+00 0. -1.
       -3    1    3    3    0  502  0.54325287579E+02 -0.44382599574E+03 -0.60777596601E+02  0.45125012778E+03  0.10100000352E+00 0.  1.
</event>
<event>
 5   0  0.2312105E-03  0.1306247E+04  0.7818609E-02  0.9024626E-01
       -2   -1    0    0    0  501  0.00000000000E+00  0.00000000000E+00  0.66707305502E+03  0.66707305503E+03  0.25500000920E-02 0. -1.
        2   -1    0    0  501    0  0.00000000000E+00  0.00000000000E+00 -0.63946576935E+03  0.63946576935E+03  0.25500000920E-02 0.  1.
    10030    2    1    2    0    0  0.00000000000E+00  0.00000000000E+00  0.27607285674E+02  0.13065388244E+04  0.13062471196E+04 0.  0.
        5    1    3    3  502    0 -0.37057890847E+03 -0.53593273982E+03 -0.30879203553E+02  0.65232525953E+03  0.46999998093E+01 0.  1.
       -5    1    3    3    0  502  0.37057890847E+03  0.53593273982E+03  0.58486489227E+02  0.65421356485E+03  0.46999998093E+01 0. -1.
</event>
<event>
 5   0  0.1310461E-03  0.1376630E+04  0.7818609E-02  0.8970911E-01
        1   -1    0    0  501    0  0.00000000000E+00  0.00000000000E+00  0.10844807815E+04  0.10844807815E+04  0.50400001928E-02 0.  1.
       -1   -1    0    0    0  501  0.00000000000E+00  0.00000000000E+00 -0.43687065588E+03  0.43687065591E+03  0.50400001928E-02 0. -1.
    10030    2    1    2    0    0  0.00000000000E+00  0.00000000000E+00  0.64761012564E+03  0.15213514374E+04  0.13766304229E+04 0.  0.
        4    1    3    3  502    0 -0.40826098399E+03  0.42659032793E+01 -0.28859982890E+03  0.49998670295E+03  0.12699999809E+01 0. -1.
       -4    1    3    3    0  502  0.40826098399E+03 -0.42659032793E+01  0.93620995453E+03  0.10213647345E+04  0.12699999809E+01 0.  1.
</event>
<event>
 5   0  0.1332630E-03  0.1308931E+04  0.7818609E-02  0.9022513E-01
       -1   -1    0    0    0  501  0.00000000000E+00  0.00000000000E+00  0.61129058930E+03  0.61129058932E+03  0.50400001928E-02 0.  1.
        1   -1    0    0  501    0  0.00000000000E+00  0.00000000000E+00 -0.70068974124E+03  0.70068974126E+03  0.50400001928E-02 0. -1.
    10030    2    1    2    0    0  0.00000000000E+00  0.00000000000E+00 -0.89399151945E+02  0.13119803306E+04  0.13089309300E+04 0.  0.
        5    1    3    3  502    0 -0.50465096102E+03 -0.10982513647E+03 -0.44759222730E+03  0.68344351997E+03  0.46999998093E+01 0. -1.
       -5    1    3    3    0  502  0.50465096102E+03  0.10982513647E+03  0.35819307535E+03  0.62853681061E+03  0.46999998093E+01 0.  1.
</event>
<event>
 5   0  0.2312105E-03  0.1301735E+04  0.7818609E-02  0.9028190E-01
       -2   -1    0    0    0  501  0.00000000000E+00  0.00000000000E+00  0.38141971312E+03  0.38141971313E+03  0.25500000920E-02 0. -1.
        2   -1    0    0  501    0  0.00000000000E+00  0.00000000000E+00 -0.11106630689E+04  0.11106630689E+04  0.25500000920E-02 0.  1.
    10030    2    1    2    0    0  0.00000000000E+00  0.00000000000E+00 -0.72924335576E+03  0.14920827820E+04  0.13017354403E+04 0.  0.
        5    1    3    3  502    0 -0.27895873425E+03 -0.19337055103E+03 -0.10011605761E+04  0.10571446138E+04  0.46999998093E+01 0.  1.
       -5    1    3    3    0  502  0.27895873425E+03  0.19337055103E+03  0.27191722035E+03  0.43493816818E+03  0.46999998093E+01 0. -1.
</event>
<event>
 5   0  0.1332630E-03  0.1257013E+04  0.7818609E-02  0.9064367E-01
        1   -1    0    0  501    0  0.00000000000E+00  0.00000000000E+00  0.11941926962E+04  0.11941926962E+04  0.50400001928E-02 0. -1.
       -1   -1    0    0    0  501  0.00000000000E+00  0.00000000000E+00 -0.33078426885E+03  0.33078426889E+03  0.50400001928E-02 0.  1.
    10030    2    1    2    0    0  0.00000000000E+00  0.00000000000E+00  0.86340842736E+03  0.15249769651E+04  0.12570125821E+04 0.  0.
        5    1    3    3  502    0  0.38240468498E+03  0.17485291775E+03  0.99838991727E+03  0.10833334680E+04  0.46999998093E+01 0. -1.
       -5    1    3    3    0  502 -0.38240468498E+03 -0.17485291775E+03 -0.13498148991E+03  0.44164349713E+03  0.46999998093E+01 0.  1.
</event>
<event>
 5   0  0.2401211E-03  0.1304281E+04  0.7818609E-02  0.9026177E-01
       -2   -1    0    0    0  501  0.00000000000E+00  0.00000000000E+00  0.46594419594E+03  0.46594419595E+03  0.25500000920E-02 0. -1.
        2   -1    0    0  501    0  0.00000000000E+00  0.00000000000E+00 -0.91274281916E+03  0.91274281916E+03  0.25500000920E-02 0.  1.
    10030    2    1    2    0    0  0.00000000000E+00  0.00000000000E+00 -0.44679862322E+03  0.13786870151E+04  0.13042809804E+04 0.  0.
        4    1    3    3  502    0  0.29233007227E+03 -0.10009863964E+03  0.38365251970E+03  0.49261290846E+03  0.12699999809E+01 0. -1.
       -4    1    3    3    0  502 -0.29233007227E+03  0.10009863964E+03 -0.83045114292E+03  0.88607410665E+03  0.12699999809E+01 0.  1.
</event>
<event>
 5   0  0.1346593E-03  0.1349880E+04  0.7818609E-02  0.8990919E-01
        1   -1    0    0  501    0  0.00000000000E+00  0.00000000000E+00  0.12210212941E+04  0.12210212941E+04  0.50400001928E-02 0.  1.
       -1   -1    0    0    0  501  0.00000000000E+00  0.00000000000E+00 -0.37308423964E+03  0.37308423967E+03  0.50400001928E-02 0. -1.
    10030    2    1    2    0    0  0.00000000000E+00  0.00000000000E+00  0.84793705443E+03  0.15941055338E+04  0.13498797000E+04 0.  0.
        2    1    3    3  502    0  0.57369980193E+03  0.24393728535E+03  0.72943080391E+03  0.95953434520E+03  0.25500000920E-02 0.  1.
       -2    1    3    3    0  502 -0.57369980193E+03 -0.24393728535E+03  0.11850625052E+03  0.63457118855E+03  0.25500000920E-02 0. -1.
</event>
<event>
 5   0  0.1346593E-03  0.1303398E+04  0.7818609E-02  0.9026875E-01
        1   -1    0    0  501    0  0.00000000000E+00  0.00000000000E+00  0.21146969414E+04  0.21146969414E+04  0.50400001928E-02 0. -1.
       -1   -1    0    0    0  501  0.00000000000E+00  0.00000000000E+00 -0.20083815183E+03  0.20083815189E+03  0.50400001928E-02 0.  1.
    10030    2    1    2    0    0  0.00000000000E+00  0.00000000000E+00  0.19138587895E+04  0.23155350933E+04  0.13033983665E+04 0.  0.
        2    1    3    3  502    0  0.43474377716E+03 -0.28825989835E+03  0.16509527614E+04  0.17313985507E+04  0.25500000920E-02 0. -1.
       -2    1    3    3    0  502 -0.43474377716E+03  0.28825989835E+03  0.26290602811E+03  0.58413654260E+03  0.25500000920E-02 0.  1.
</event>
<event>
 5   0  0.1324721E-03  0.1278710E+04  0.7818609E-02  0.9046621E-01
       -1   -1    0    0    0  501  0.00000000000E+00  0.00000000000E+00  0.88660865005E+03  0.88660865006E+03  0.50400001928E-02 0.  1.
        1   -1    0    0  501    0  0.00000000000E+00  0.00000000000E+00 -0.46105438955E+03  0.46105438958E+03  0.50400001928E-02 0. -1.
    10030    2    1    2    0    0  0.00000000000E+00  0.00000000000E+00  0.42555426050E+03  0.13476630396E+04  0.12787099905E+04 0.  0.
        1    1    3    3  502    0  0.14937309514E+03 -0.13592429982E+03  0.85210780306E+03  0.87571424843E+03  0.50400001928E-02 0.  1.
       -1    1    3    3    0  502 -0.14937309514E+03  0.13592429982E+03 -0.42655354256E+03  0.47194879122E+03  0.50400001928E-02 0. -1.
</event>
<event>
 5   0  0.2478236E-03  0.1267707E+04  0.7818609E-02  0.9055573E-01
       -2   -1    0    0    0  501  0.00000000000E+00  0.00000000000E+00  0.52078024508E+03  0.52078024509E+03  0.25500000920E-02 0. -1.
        2   -1    0    0  501    0  0.00000000000E+00  0.00000000000E+00 -0.77147746384E+03  0.77147746385E+03  0.25500000920E-02 0.  1.
    10030    2    1    2    0    0  0.00000000000E+00  0.00000000000E+00 -0.25069721876E+03  0.12922577089E+04  0.12677069420E+04 0.  0.
        3    1    3    3  502    0 -0.43373379923E+03  0.36824857896E+03 -0.41011180074E+03  0.70137274242E+03  0.10100000352E+00 0.  1.
       -3    1    3    3    0  502  0.43373379923E+03 -0.36824857896E+03  0.15941458198E+03  0.59088496651E+03  0.10100000352E+00 0. -1.
</event>
<event>
 5   0  0.1346593E-03  0.1289839E+04  0.7818609E-02  0.9037662E-01
       -1   -1    0    0    0  501  0.00000000000E+00  0.00000000000E+00  0.83997757271E+03  0.83997757272E+03  0.50400001928E-02 0.  1.
        1   -1    0    0  501    0  0.00000000000E+00  0.00000000000E+00 -0.49515779921E+03  0.49515779923E+03  0.50400001928E-02 0. -1.
    10030    2    1    2    0    0  0.00000000000E+00  0.00000000000E+00  0.34481977350E+03  0.13351353720E+04  0.12898394417E+04 0.  0.
        2    1    3    3  502    0  0.38773887655E+03 -0.47186002910E+03 -0.42057173100E+02  0.61217818424E+03  0.25500000920E-02 0.  1.
       -2    1    3    3    0  502 -0.38773887655E+03  0.47186002910E+03  0.38687694660E+03  0.72295718771E+03  0.25500000920E-02 0. -1.
</event>
<event>
 5   0  0.9131250E-04  0.1315882E+04  0.7818609E-02  0.9017064E-01
       -3   -1    0    0    0  501  0.00000000000E+00  0.00000000000E+00  0.60930544263E+03  0.60930545100E+03  0.10100000352E+00 0. -1.
        3   -1    0    0  501    0  0.00000000000E+00  0.00000000000E+00 -0.71045917802E+03  0.71045918520E+03  0.10100000352E+00 0.  1.
    10030    2    1    2    0    0  0.00000000000E+00  0.00000000000E+00 -0.10115373539E+03  0.13197646362E+04  0.13158824479E+04 0.  0.
        3    1    3    3  502    0 -0.62925226151E+03 -0.19097194258E+03 -0.29113907453E+02  0.65823728341E+03  0.10100000352E+00 0.  1.
       -3    1    3    3    0  502  0.62925226151E+03  0.19097194258E+03 -0.72039827938E+02  0.66152735278E+03  0.10100000352E+00 0. -1.
</event>
<event>
 5   0  0.1346593E-03  0.1312410E+04  0.7818609E-02  0.9019782E-01
        1   -1    0    0  501    0  0.00000000000E+00  0.00000000000E+00  0.12634562865E+04  0.12634562865E+04  0.50400001928E-02 0. -1.
       -1   -1    0    0    0  501  0.00000000000E+00  0.00000000000E+00 -0.34081497531E+03  0.34081497535E+03  0.50400001928E-02 0.  1.
    10030    2    1    2    0    0  0.00000000000E+00  0.00000000000E+00  0.92264131117E+03  0.16042712618E+04  0.13124097274E+04 0.  0.
        2    1    3    3  502    0 -0.41896651262E+03  0.31502894652E+03  0.94385920409E+03  0.10796510422E+04  0.25500000920E-02 0. -1.
       -2    1    3    3    0  502  0.41896651262E+03 -0.31502894652E+03 -0.21217892915E+02  0.52462021961E+03  0.25500000920E-02 0.  1.
</event>
<event>
 5   0  0.2312105E-03  0.1333382E+04  0.7818609E-02  0.9003504E-01
       -2   -1    0    0    0  501  0.00000000000E+00  0.00000000000E+00  0.92613100164E+03  0.92613100164E+03  0.25500000920E-02 0. -1.
        2   -1    0    0  501    0  0.00000000000E+00  0.00000000000E+00 -0.47992860263E+03  0.47992860264E+03  0.25500000920E-02 0.  1.
    10030    2    1    2    0    0  0.00000000000E+00  0.00000000000E+00  0.44620239901E+03  0.14060596043E+04  0.13333818020E+04 0.  0.
        5    1    3    3  502    0 -0.34520129282E+01 -0.25916528717E+03  0.87080859759E+03  0.90857485443E+03  0.46999998093E+01 0. -1.
       -5    1    3    3    0  502  0.34520129282E+01  0.25916528717E+03 -0.42460619858E+03  0.49748474986E+03  0.46999998093E+01 0.  1.
</event>
<event>
 5   0  0.2401211E-03  0.1377673E+04  0.7818609E-02  0.8970140E-01
       -2   -1    0    0    0  501  0.00000000000E+00  0.00000000000E+00  0.59408713339E+03  0.59408713339E+03  0.25500000920E-02 0.  1.
        2   -1    0    0  501    0  0.00000000000E+00  0.00000000000E+00 -0.79869716878E+03  0.79869716879E+03  0.25500000920E-02 0. -1.
    10030    2    1    2    0    0  0.00000000000E+00  0.00000000000E+00 -0.20461003539E+03  0.13927843022E+04  0.13776729822E+04 0.  0.
        4    1    3    3  502    0  0.53638133762E+03 -0.31147705494E+02 -0.53810053365E+03  0.76041364803E+03  0.12699999809E+01 0. -1.
       -4    1    3    3    0  502 -0.53638133762E+03  0.31147705494E+02  0.33349049826E+03  0.63237065415E+03  0.12699999809E+01 0.  1.
</event>
<event>
 5   0  0.1346593E-03  0.1231482E+04  0.7818609E-02  0.9085738E-01
        1   -1    0    0  501    0  0.00000000000E+00  0.00000000000E+00  0.15666768140E+04  0.15666768140E+04  0.50400001928E-02 0. -1.
       -1   -1    0    0    0  501  0.00000000000E+00  0.00000000000E+00 -0.24200082663E+03  0.24200082668E+03  0.50400001928E-02 0.  1.
    10030    2    1    2    0    0  0.00000000000E+00  0.00000000000E+00  0.13246759873E+04  0.18086776407E+04  0.12314821706E+04 0.  0.
        2    1    3    3  502    0 -0.26864326667E+03  0.10450240235E+03  0.14614606926E+04  0.14896164985E+04  0.25500000920E-02 0. -1.
       -2    1    3    3    0  502  0.26864326667E+03 -0.10450240235E+03 -0.13678470522E+03  0.31906114212E+03  0.25500000920E-02 0.  1.
</event>
<event>
 5   0  0.1324721E-03  0.1316086E+04  0.7818609E-02  0.9016905E-01
        1   -1    0    0  501    0  0.00000000000E+00  0.00000000000E+00  0.11131652716E+04  0.11131652716E+04  0.50400001928E-02 0.  1.
       -1   -1    0    0    0  501  0.00000000000E+00  0.00000000000E+00 -0.38899932001E+03  0.38899932004E+03  0.50400001928E-02 0. -1.
    10030    2    1    2    0    0  0.00000000000E+00  0.00000000000E+00  0.72416595155E+03  0.15021645916E+04  0.13160859147E+04 0.  0.
        1    1    3    3  502    0  0.39502988285E+03 -0.40494465725E+03 -0.21585968403E+02  0.56612254666E+03  0.50400001928E-02 0. -1.
       -1    1    3    3    0  502 -0.39502988285E+03  0.40494465725E+03  0.74575191995E+03  0.93604204495E+03  0.50400001928E-02 0.  1.
</event>
<event>
 5   0  0.1387622E-03  0.1263980E+04  0.7818609E-02  0.9058627E-01
        1   -1    0    0  501    0  0.00000000000E+00  0.00000000000E+00  0.36192312538E+03  0.36192312542E+03  0.50400001928E-02 0.  1.
       -1   -1    0    0    0  501  0.00000000000E+00  0.00000000000E+00 -0.11035813851E+04  0.11035813851E+04  0.50400001928E-02 0. -1.
    10030    2    1    2    0    0  0.00000000000E+00  0.00000000000E+00 -0.74165825969E+03  0.14655045105E+04  0.12639804176E+04 0.  0.
        3    1    3    3  502    0  0.53159088727E+03  0.12711270025E+03 -0.29659786949E+01  0.54658514179E+03  0.10100000352E+00 0.  1.
       -3    1    3    3    0  502 -0.53159088727E+03 -0.12711270025E+03 -0.73869228099E+03  0.91891936871E+03  0.10100000352E+00 0. -1.
</event>
<event>
 5   0  0.2361043E-03  0.1281297E+04  0.7818609E-02  0.9044530E-01
       -2   -1    0    0    0  501  0.00000000000E+00  0.00000000000E+00  0.40123605110E+03  0.40123605110E+03  0.25500000920E-02 0.  1.
        2   -1    0    0  501    0  0.00000000000E+00  0.00000000000E+00 -0.10229154433E+04  0.10229154433E+04  0.25500000920E-02 0. -1.
    10030    2    1    2    0    0  0.00000000000E+00  0.00000000000E+00 -0.62167939219E+03  0.14241514944E+04  0.12812970820E+04 0.  0.
        2    1    3    3  502    0  0.35019712669E+03  0.32125190869E+03 -0.78838010613E+03  0.92053463168E+03  0.25500000920E-02 0. -1.
       -2    1    3    3    0  502 -0.35019712669E+03 -0.32125190869E+03  0.16670071394E+03  0.50361686271E+03  0.25500000920E-02 0.  1.
</event>
<event>
 5   0  0.1324721E-03  0.1302437E+04  0.7818609E-02  0.9027635E-01
       -1   -1    0    0    0  501  0.00000000000E+00  0.00000000000E+00  0.44158676903E+03  0.44158676906E+03  0.50400001928E-02 0.  1.
        1   -1    0    0  501    0  0.00000000000E+00  0.00000000000E+00 -0.96036791892E+03  0.96036791893E+03  0.50400001928E-02 0. -1.
    10030    2    1    2    0    0  0.00000000000E+00  0.00000000000E+00 -0.51878114988E+03  0.14019546880E+04  0.13024373558E+04 0.  0.
        1    1    3    3  502    0  0.39161467225E+03 -0.48224973787E+03 -0.49121653834E+02  0.62316915689E+03  0.50400001928E-02 0. -1.
       -1    1    3    3    0  502 -0.39161467225E+03  0.48224973787E+03 -0.46965949605E+03  0.77878553110E+03  0.50400001928E-02 0.  1.
</event>
<event>
 5   0  0.2312105E-03  0.1294383E+04  0.7818609E-02  0.9034031E-01
        2   -1    0    0  501    0  0.00000000000E+00  0.00000000000E+00  0.76265264003E+03  0.76265264004E+03  0.25500000920E-02 0. -1.
       -2   -1    0    0    0  501  0.00000000000E+00  0.00000000000E+00 -0.54921084195E+03  0.54921084195E+03  0.25500000920E-02 0.  1.
    10030    2    1    2    0    0  0.00000000000E+00  0.00000000000E+00  0.21344179809E+03  0.13118634820E+04  0.12943834031E+04 0.  0.
        5    1    3    3  502    0 -0.28438987485E+03  0.46909979681E+03 -0.24128591300E+03  0.59931060569E+03  0.46999998093E+01 0.  1.
       -5    1    3    3    0  502  0.28438987485E+03 -0.46909979681E+03  0.45472771109E+03  0.71255287630E+03  0.46999998093E+01 0. -1.
</event>
<event>
 5   0  0.1324721E-03  0.1283253E+04  0.7818609E-02  0.9042952E-01
        1   -1    0    0  501    0  0.00000000000E+00  0.00000000000E+00  0.27928211633E+03  0.27928211638E+03  0.50400001928E-02 0. -1.
       -1   -1    0    0    0  501  0.00000000000E+00  0.00000000000E+00 -0.14740818841E+04  0.14740818841E+04  0.50400001928E-02 0.  1.
    10030    2    1    2    0    0  0.00000000000E+00  0.00000000000E+00 -0.11947997678E+04  0.17533640005E+04  0.12832532225E+04 0.  0.
        1    1    3    3  502    0 -0.58757152424E+03  0.96628188390E+02 -0.27088277956E+03  0.65418253048E+03  0.50400001928E-02 0.  1.
       -1    1    3    3    0  502  0.58757152424E+03 -0.96628188390E+02 -0.92391698822E+03  0.10991814700E+04  0.50400001928E-02 0. -1.
</event>
<event>
 5   0  0.2361043E-03  0.1352333E+04  0.7818609E-02  0.8989064E-01
       -2   -1    0    0    0  501  0.00000000000E+00  0.00000000000E+00  0.35709187070E+03  0.35709187071E+03  0.25500000920E-02 0. -1.
        2   -1    0    0  501    0  0.00000000000E+00  0.00000000000E+00 -0.12803454150E+04  0.12803454150E+04  0.25500000920E-02 0.  1.
    10030    2    1    2    0    0  0.00000000000E+00  0.00000000000E+00 -0.92325354430E+03  0.16374372857E+04  0.13523327097E+04 0.  0.
        2    1    3    3  502    0  0.43560721777E+03  0.80613992653E+02 -0.10801537847E+04  0.11674692555E+04  0.25500000920E-02 0.  1.
       -2    1    3    3    0  502 -0.43560721777E+03 -0.80613992653E+02  0.15690024038E+03  0.46996803021E+03  0.25500000920E-02 0. -1.
</event>
<event>
 5   0  0.9131250E-04  0.1288960E+04  0.7818609E-02  0.9038366E-01
       -3   -1    0    0    0  501  0.00000000000E+00  0.00000000000E+00  0.25174679676E+03  0.25174681702E+03  0.10100000352E+00 0. -1.
        3   -1    0    0  501    0  0.00000000000E+00  0.00000000000E+00 -0.16498906855E+04  0.16498906885E+04  0.10100000352E+00 0.  1.
    10030    2    1    2    0    0  0.00000000000E+00  0.00000000000E+00 -0.13981438887E+04  0.19016375056E+04  0.12889603830E+04 0.  0.
        2    1    3    3  502    0 -0.47444565674E+02  0.52845163658E+02 -0.16441002312E+04  0.16456333639E+04  0.25500000920E-02 0.  1.
       -2    1    3    3    0  502  0.47444565674E+02 -0.52845163658E+02  0.24595634249E+03  0.25600414167E+03  0.25500000920E-02 0. -1.
</event>
<event>
 5   0  0.2312105E-03  0.1299638E+04  0.7818609E-02  0.9029852E-01
        2   -1    0    0  501    0  0.00000000000E+00  0.00000000000E+00  0.14446491769E+04  0.14446491769E+04  0.25500000920E-02 0.  1.
       -2   -1    0    0    0  501  0.00000000000E+00  0.00000000000E+00 -0.29229563778E+03  0.29229563779E+03  0.25500000920E-02 0. -1.
    10030    2    1    2    0    0  0.00000000000E+00  0.00000000000E+00  0.11523535391E+04  0.17369448147E+04  0.12996378766E+04 0.  0.
        5    1    3    3  502    0  0.55004979125E+03  0.26363044515E+03  0.87558126606E+03  0.10671084424E+04  0.46999998093E+01 0.  1.
       -5    1    3    3    0  502 -0.55004979125E+03 -0.26363044515E+03  0.27677227308E+03  0.66983637226E+03  0.46999998093E+01 0. -1.
</event>
<event>
 5   0  0.1324721E-03  0.1273430E+04  0.7818609E-02  0.9050905E-01
        1   -1    0    0  501    0  0.00000000000E+00  0.00000000000E+00  0.36077485362E+03  0.36077485366E+03  0.50400001928E-02 0.  1.
       -1   -1    0    0    0  501  0.00000000000E+00  0.00000000000E+00 -0.11237086387E+04  0.11237086387E+04  0.50400001928E-02 0. -1.
    10030    2    1    2    0    0  0.00000000000E+00  0.00000000000E+00 -0.76293378510E+03  0.14844834924E+04  0.12734297306E+04 0.  0.
        1    1    3    3  502    0 -0.39162022197E+03  0.97257061963E+02  0.19268700563E+03  0.44716173419E+03  0.50400001928E-02 0.  1.
       -1    1    3    3    0  502  0.39162022197E+03 -0.97257061963E+02 -0.95562079073E+03  0.10373217582E+04  0.50400001928E-02 0. -1.
</event>
<event>
 5   0  0.1346593E-03  0.1318286E+04  0.7818609E-02  0.9015188E-01
        1   -1    0    0  501    0  0.00000000000E+00  0.00000000000E+00  0.39604361905E+03  0.39604361908E+03  0.50400001928E-02 0. -1.
       -1   -1    0    0    0  501  0.00000000000E+00  0.00000000000E+00 -0.10970246215E+04  0.10970246215E+04  0.50400001928E-02 0.  1.
    10030    2    1    2    0    0  0.00000000000E+00  0.00000000000E+00 -0.70098100245E+03  0.14930682406E+04  0.13182861621E+04 0.  0.
        2    1    3    3  502    0  0.16358673439E+03 -0.55978892798E+03 -0.69837108165E+03  0.90986066584E+03  0.25500000920E-02 0.  1.
       -2    1    3    3    0  502 -0.16358673439E+03  0.55978892798E+03 -0.26099208056E+01  0.58320757475E+03  0.25500000920E-02 0. -1.
</event>
<event>
 5   0  0.2478236E-03  0.1295096E+04  0.7818609E-02  0.9033463E-01
       -2   -1    0    0    0  501  0.00000000000E+00  0.00000000000E+00  0.44372871135E+03  0.44372871136E+03  0.25500000920E-02 0. -1.
        2   -1    0    0  501    0  0.00000000000E+00  0.00000000000E+00 -0.94498840945E+03  0.94498840946E+03  0.25500000920E-02 0.  1.
    10030    2    1    2    0    0  0.00000000000E+00  0.00000000000E+00 -0.50125969810E+03  0.13887171208E+04  0.12950961187E+04 0.  0.
        3    1    3    3  502    0 -0.39121125055E+03 -0.51091286358E+02 -0.80122894058E+03  0.89309819590E+03  0.10100000352E+00 0.  1.
       -3    1    3    3    0  502  0.39121125055E+03  0.51091286358E+02  0.29996924248E+03  0.49561892491E+03  0.10100000352E+00 0. -1.
</event>
<event>
 5   0  0.1387622E-03  0.1291120E+04  0.7818609E-02  0.9036637E-01
        1   -1    0    0  501    0  0.00000000000E+00  0.00000000000E+00  0.83819031428E+03  0.83819031430E+03  0.50400001928E-02 0. -1.
       -1   -1    0    0    0  501  0.00000000000E+00  0.00000000000E+00 -0.49719968586E+03  0.49719968589E+03  0.50400001928E-02 0.  1.
    10030    2    1    2    0    0  0.00000000000E+00  0.00000000000E+00  0.34099062842E+03  0.13353900002E+04  0.12911203832E+04 0.  0.
        3    1    3    3  502    0 -0.46236213080E+02  0.63979782736E+03  0.24557137965E+03  0.68686560548E+03  0.10100000352E+00 0. -1.
       -3    1    3    3    0  502  0.46236213080E+02 -0.63979782736E+03  0.95419248772E+02  0.64852439470E+03  0.10100000352E+00 0.  1.
</event>
<event>
 5   0  0.2334946E-03  0.1335649E+04  0.7818609E-02  0.9001764E-01
       -2   -1    0    0    0  501  0.00000000000E+00  0.00000000000E+00  0.56434305186E+03  0.56434305187E+03  0.25500000920E-02 0. -1.
        2   -1    0    0  501    0  0.00000000000E+00  0.00000000000E+00 -0.79028050987E+03  0.79028050988E+03  0.25500000920E-02 0.  1.
    10030    2    1    2    0    0  0.00000000000E+00  0.00000000000E+00 -0.22593745801E+03  0.13546235617E+04  0.13356486286E+04 0.  0.
        1    1    3    3  502    0  0.40798908607E+03 -0.89234282085E+02 -0.64149729963E+03  0.76546498085E+03  0.50400001928E-02 0.  1.
       -1    1    3    3    0  502 -0.40798908607E+03  0.89234282085E+02  0.41555984162E+03  0.58915858089E+03  0.50400001928E-02 0. -1.
</event>
<event>
 5   0  0.1324721E-03  0.1237240E+04  0.7818609E-02  0.9080871E-01
        1   -1    0    0  501    0  0.00000000000E+00  0.00000000000E+00  0.42176985242E+03  0.42176985245E+03  0.50400001928E-02 0. -1.
       -1   -1    0    0    0  501  0.00000000000E+00  0.00000000000E+00 -0.90734515571E+03  0.90734515572E+03  0.50400001928E-02 0.  1.
    10030    2    1    2    0    0  0.00000000000E+00  0.00000000000E+00 -0.48557530329E+03  0.13291150082E+04  0.12372402070E+04 0.  0.
        1    1    3    3  502    0  0.24246957176E+03  0.55337246890E+03 -0.38562052432E+03  0.71673968173E+03  0.50400001928E-02 0. -1.
       -1    1    3    3    0  502 -0.24246957176E+03 -0.55337246890E+03 -0.99954778969E+02  0.61237532644E+03  0.50400001928E-02 0.  1.
</event>
<event>
 5   0  0.2361043E-03  0.1301601E+04  0.7818609E-02  0.9028297E-01
        2   -1    0    0  501    0  0.00000000000E+00  0.00000000000E+00  0.19597173202E+04  0.19597173202E+04  0.25500000920E-02 0. -1.
       -2   -1    0    0    0  501  0.00000000000E+00  0.00000000000E+00 -0.21612366166E+03  0.21612366168E+03  0.25500000920E-02 0.  1.
    10030    2    1    2    0    0  0.00000000000E+00  0.00000000000E+00  0.17435936586E+04  0.21758409819E+04  0.13016009881E+04 0.  0.
        2    1    3    3  502    0  0.24470645013E+03 -0.51939556853E+03  0.35957866698E+03  0.67745835377E+03  0.25500000920E-02 0.  1.
       -2    1    3    3    0  502 -0.24470645013E+03  0.51939556853E+03  0.13840149916E+04  0.14983826281E+04  0.25500000920E-02 0. -1.
</event>
<event>
 5   0  0.1387622E-03  0.1321175E+04  0.7818609E-02  0.9012940E-01
       -1   -1    0    0    0  501  0.00000000000E+00  0.00000000000E+00  0.20515405536E+03  0.20515405542E+03  0.50400001928E-02 0.  1.
        1   -1    0    0  501    0  0.00000000000E+00  0.00000000000E+00 -0.21270627813E+04  0.21270627813E+04  0.50400001928E-02 0. -1.
    10030    2    1    2    0    0  0.00000000000E+00  0.00000000000E+00 -0.19219087259E+04  0.23322168367E+04  0.13211745618E+04 0.  0.
        3    1    3    3  502    0  0.37041387087E+03  0.61025525132E+02 -0.14498056905E+01  0.37540999266E+03  0.10100000352E+00 0.  1.
       -3    1    3    3    0  502 -0.37041387087E+03 -0.61025525132E+02 -0.19204589202E+04  0.19568068440E+04  0.10100000352E+00 0. -1.
</event>
<event>
 5   0  0.2401211E-03  0.1298926E+04  0.7818609E-02  0.9030417E-01
        2   -1    0    0  501    0  0.00000000000E+00  0.00000000000E+00  0.11867671463E+04  0.11867671463E+04  0.25500000920E-02 0.  1.
       -2   -1    0    0    0  501  0.00000000000E+00  0.00000000000E+00 -0.35542145195E+03  0.35542145196E+03  0.25500000920E-02 0. -1.
    10030    2    1    2    0    0  0.00000000000E+00  0.00000000000E+00  0.83134569433E+03  0.15421885983E+04  0.12989264833E+04 0.  0.
        4    1    3    3  502    0  0.58247864097E+03  0.25517643972E+03  0.25903966293E+03  0.68665824283E+03  0.12699999809E+01 0.  1.
       -4    1    3    3    0  502 -0.58247864097E+03 -0.25517643972E+03  0.57230603140E+03  0.85553035542E+03  0.12699999809E+01 0. -1.
</event>
<event>
 5   0  0.2334946E-03  0.1277926E+04  0.7818609E-02  0.9047255E-01
       -2   -1    0    0    0  501  0.00000000000E+00  0.00000000000E+00  0.32094978379E+03  0.32094978380E+03  0.25500000920E-02 0.  1.
        2   -1    0    0  501    0  0.00000000000E+00  0.00000000000E+00 -0.12720806015E+04  0.12720806015E+04  0.25500000920E-02 0. -1.
    10030    2    1    2    0    0  0.00000000000E+00  0.00000000000E+00 -0.95113081775E+03  0.15930303853E+04  0.12779264361E+04 0.  0.
        1    1    3    3  502    0 -0.60870354908E+03 -0.16825949221E+03 -0.59669964743E+03  0.86883930427E+03  0.50400001928E-02 0. -1.
       -1    1    3    3    0  502  0.60870354908E+03  0.16825949221E+03 -0.35443117032E+03  0.72419108107E+03  0.50400001928E-02 0.  1.
</event>
<event>
 5   0  0.1387622E-03  0.1267727E+04  0.7818609E-02  0.9055557E-01
       -1   -1    0    0    0  501  0.00000000000E+00  0.00000000000E+00  0.47945240004E+03  0.47945240007E+03  0.50400001928E-02 0.  1.
        1   -1    0    0  501    0  0.00000000000E+00  0.00000000000E+00 -0.83800320024E+03  0.83800320025E+03  0.50400001928E-02 0. -1.
    10030    2    1    2    0    0  0.00000000000E+00  0.00000000000E+00 -0.35855080020E+03  0.13174556003E+04  0.12677265409E+04 0.  0.
        3    1    3    3  502    0  0.32464408186E+03  0.23093574924E+02  0.38598721050E+03  0.50488932446E+03  0.10100000352E+00 0.  1.
       -3    1    3    3    0  502 -0.32464408186E+03 -0.23093574924E+02 -0.74453801070E+03  0.81256627586E+03  0.10100000352E+00 0. -1.
</event>
<event>
 5   0  0.1332630E-03  0.1301805E+04  0.7818609E-02  0.9028135E-01
       -1   -1    0    0    0  501  0.00000000000E+00  0.00000000000E+00  0.63880976074E+03  0.63880976076E+03  0.50400001928E-02 0. -1.
        1   -1    0    0  501    0  0.00000000000E+00  0.00000000000E+00 -0.66322450743E+03  0.66322450745E+03  0.50400001928E-02 0.  1.
    10030    2    1    2    0    0  0.00000000000E+00  0.00000000000E+00 -0.24414746691E+02  0.13020342682E+04  0.13018053448E+04 0.  0.
        5    1    3    3  502    0  0.49417458314E+03 -0.12156908769E+03 -0.41806763886E+03  0.65862751412E+03  0.46999998093E+01 0.  1.
       -5    1    3    3    0  502 -0.49417458314E+03  0.12156908769E+03  0.39365289217E+03  0.64340675409E+03  0.46999998093E+01 0. -1.
</event>
<event>
 5   0  0.1387622E-03  0.1289631E+04  0.7818609E-02  0.9037829E-01
       -1   -1    0    0    0  501  0.00000000000E+00  0.00000000000E+00  0.58018386780E+03  0.58018386782E+03  0.50400001928E-02 0. -1.
        1   -1    0    0  501    0  0.00000000000E+00  0.00000000000E+00 -0.71664668034E+03  0.71664668036E+03  0.50400001928E-02 0.  1.
    10030    2    1    2    0    0  0.00000000000E+00  0.00000000000E+00 -0.13646281255E+03  0.12968305482E+04  0.12896307113E+04 0.  0.
        3    1    3    3  502    0  0.25487736185E+02  0.55790975200E+03  0.25586268921E+03  0.61431151870E+03  0.10100000352E+00 0. -1.
       -3    1    3    3    0  502 -0.25487736185E+02 -0.55790975200E+03 -0.39232550175E+03  0.68251902948E+03  0.10100000352E+00 0.  1.
</event>
<event>
 5   0  0.1332630E-03  0.1284849E+04  0.7818609E-02  0.9041667E-01
       -1   -1    0    0    0  501  0.00000000000E+00  0.00000000000E+00  0.65261942515E+03  0.65261942517E+03  0.50400001928E-02 0.  1.
        1   -1    0    0  501    0  0.00000000000E+00  0.00000000000E+00 -0.63238888206E+03  0.63238888208E+03  0.50400001928E-02 0. -1.
    10030    2    1    2    0    0  0.00000000000E+00  0.00000000000E+00  0.20230543084E+02  0.12850083072E+04  0.12848490475E+04 0.  0.
        5    1    3    3  502    0 -0.35899370783E+03  0.10952650275E+03 -0.51130780986E+03  0.63429512334E+03  0.46999998093E+01 0. -1.
       -5    1    3    3    0  502  0.35899370783E+03 -0.10952650275E+03  0.53153835295E+03  0.65071318391E+03  0.46999998093E+01 0.  1.
</event>
<event>
 5   0  0.2361043E-03  0.1269546E+04  0.7818609E-02  0.9054070E-01
       -2   -1    0    0    0  501  0.00000000000E+00  0.00000000000E+00  0.47615779387E+03  0.47615779387E+03  0.25500000920E-02 0.  1.
        2   -1    0    0  501    0  0.00000000000E+00  0.00000000000E+00 -0.84622501832E+03  0.84622501833E+03  0.25500000920E-02 0. -1.
    10030    2    1    2    0    0  0.00000000000E+00  0.00000000000E+00 -0.37006722446E+03  0.13223828122E+04  0.12695458052E+04 0.  0.
        2    1    3    3  502    0 -0.47119168802E+03 -0.37559826898E+03  0.22875622560E+02  0.60300825917E+03  0.25500000920E-02 0.  1.
       -2    1    3    3    0  502  0.47119168802E+03  0.37559826898E+03 -0.39294284702E+03  0.71937455303E+03  0.25500000920E-02 0. -1.
</event>
<event>
 5   0  0.1387622E-03  0.1296858E+04  0.7818609E-02  0.9032061E-01
       -1   -1    0    0    0  501  0.00000000000E+00  0.00000000000E+00  0.34770780596E+03  0.34770780600E+03  0.50400001928E-02 0.  1.
        1   -1    0    0  501    0  0.00000000000E+00  0.00000000000E+00 -0.12092341476E+04  0.12092341477E+04  0.50400001928E-02 0. -1.
    10030    2    1    2    0    0  0.00000000000E+00  0.00000000000E+00 -0.86152634168E+03  0.15569419537E+04  0.12968579759E+04 0.  0.
        3    1    3    3  502    0  0.37394692090E+03 -0.17898673727E+03  0.16781341719E+03  0.44725150079E+03  0.10100000352E+00 0.  1.
       -3    1    3    3    0  502 -0.37394692090E+03  0.17898673727E+03 -0.10293397589E+04  0.11096904529E+04  0.10100000352E+00 0. -1.
</event>
<event>
 5   0  0.2334946E-03  0.1281315E+04  0.7818609E-02  0.9044515E-01
       -2   -1    0    0    0  501  0.00000000000E+00  0.00000000000E+00  0.61340885371E+03  0.61340885372E+03  0.25500000920E-02 0. -1.
        2   -1    0    0  501    0  0.00000000000E+00  0.00000000000E+00 -0.66911653395E+03  0.66911653395E+03  0.25500000920E-02 0.  1.
    10030    2    1    2    0    0  0.00000000000E+00  0.00000000000E+00 -0.55707680238E+02  0.12825253877E+04  0.12813149591E+04 0.  0.
        1    1    3    3  502    0  0.43547172520E+03 -0.42223053165E+03 -0.23427125388E+03  0.65022862573E+03  0.50400001928E-02 0.  1.
       -1    1    3    3    0  502 -0.43547172520E+03  0.42223053165E+03  0.17856357364E+03  0.63229676194E+03  0.50400001928E-02 0. -1.
</event>
<event>
 5   0  0.2401211E-03  0.1280797E+04  0.7818609E-02  0.9044933E-01
       -2   -1    0    0    0  501  0.00000000000E+00  0.00000000000E+00  0.36583770872E+03  0.36583770873E+03  0.25500000920E-02 0.  1.
        2   -1    0    0  501    0  0.00000000000E+00  0.00000000000E+00 -0.11210174003E+04  0.11210174003E+04  0.25500000920E-02 0. -1.
    10030    2    1    2    0    0  0.00000000000E+00  0.00000000000E+00 -0.75517969158E+03  0.14868551090E+04  0.12807973098E+04 0.  0.
        4    1    3    3  502    0 -0.61612240505E+02 -0.48542604409E+03 -0.85718227965E+03  0.98701448110E+03  0.12699999809E+01 0. -1.
       -4    1    3    3    0  502  0.61612240505E+02  0.48542604409E+03  0.10200258807E+03  0.49984062793E+03  0.12699999809E+01 0.  1.
</event>
<event>
 5   0  0.1387622E-03  0.1318881E+04  0.7818609E-02  0.9014725E-01
       -1   -1    0    0    0  501  0.00000000000E+00  0.00000000000E+00  0.42765864649E+03  0.42765864652E+03  0.50400001928E-02 0. -1.
        1   -1    0    0  501    0  0.00000000000E+00  0.00000000000E+00 -0.10168432065E+04  0.10168432065E+04  0.50400001928E-02 0.  1.
    10030    2    1    2    0    0  0.00000000000E+00  0.00000000000E+00 -0.58918456000E+03  0.14445018530E+04  0.13188810248E+04 0.  0.
        3    1    3    3  502    0  0.17380575846E+03  0.50645790057E+03  0.12697683101E+03  0.55030098359E+03  0.10100000352E+00 0.  1.
       -3    1    3    3    0  502 -0.17380575846E+03 -0.50645790057E+03 -0.71616139101E+03  0.89420086944E+03  0.10100000352E+00 0. -1.
</event>
<event>
 5   0  0.2478236E-03  0.1304529E+04  0.7818609E-02  0.9025981E-01
       -2   -1    0    0    0  501  0.00000000000E+00  0.00000000000E+00  0.16356241948E+03  0.16356241950E+03  0.25500000920E-02 0.  1.
        2   -1    0    0  501    0  0.00000000000E+00  0.00000000000E+00 -0.26011408065E+04  0.26011408065E+04  0.25500000920E-02 0. -1.
    10030    2    1    2    0    0  0.00000000000E+00  0.00000000000E+00 -0.24375783871E+04  0.27647032260E+04  0.13045288556E+04 0.  0.
        3    1    3    3  502    0 -0.28143335589E+02 -0.56934285196E+03 -0.54691209696E+03  0.78997226687E+03  0.10100000352E+00 0.  1.
       -3    1    3    3    0  502  0.28143335589E+02  0.56934285196E+03 -0.18906662901E+04  0.19747309592E+04  0.10100000352E+00 0. -1.
</event>
<event>
 5   0  0.2334946E-03  0.1297038E+04  0.7818609E-02  0.9031918E-01
       -2   -1    0    0    0  501  0.00000000000E+00  0.00000000000E+00  0.56763790410E+03  0.56763790411E+03  0.25500000920E-02 0. -1.
        2   -1    0    0  501    0  0.00000000000E+00  0.00000000000E+00 -0.74092414306E+03  0.74092414306E+03  0.25500000920E-02 0.  1.
    10030    2    1    2    0    0  0.00000000000E+00  0.00000000000E+00 -0.17328623895E+03  0.13085620472E+04  0.12970375903E+04 0.  0.
        1    1    3    3  502    0  0.29446578453E+03 -0.12840825571E+03 -0.65501170205E+03  0.72954719398E+03  0.50400001928E-02 0.  1.
       -1    1    3    3    0  502 -0.29446578453E+03  0.12840825571E+03  0.48172546310E+03  0.57901485319E+03  0.50400001928E-02 0. -1.
</event>
<event>
 5   0  0.1346593E-03  0.1365831E+04  0.7818609E-02  0.8978930E-01
       -1   -1    0    0    0  501  0.00000000000E+00  0.00000000000E+00  0.34860835246E+03  0.34860835250E+03  0.50400001928E-02 0. -1.
        1   -1    0    0  501    0  0.00000000000E+00  0.00000000000E+00 -0.13378154229E+04  0.13378154229E+04  0.50400001928E-02 0.  1.
    10030    2    1    2    0    0  0.00000000000E+00  0.00000000000E+00 -0.98920707046E+03  0.16864237754E+04  0.13658310738E+04 0.  0.
        2    1    3    3  502    0  0.52806990945E+03 -0.12595151423E+03 -0.10061607135E+04  0.11432764297E+04  0.25500000920E-02 0.  1.
       -2    1    3    3    0  502 -0.52806990945E+03  0.12595151423E+03  0.16953643044E+02  0.54314734577E+03  0.25500000920E-02 0. -1.
</event>
<event>
 5   0  0.1332630E-03  0.1253570E+04  0.7818609E-02  0.9067218E-01
        1   -1    0    0  501    0  0.00000000000E+00  0.00000000000E+00  0.23453343188E+04  0.23453343188E+04  0.50400001928E-02 0. -1.
       -1   -1    0    0    0  501  0.00000000000E+00  0.00000000000E+00 -0.16750668256E+03  0.16750668263E+03  0.50400001928E-02 0.  1.
    10030    2    1    2    0    0  0.00000000000E+00  0.00000000000E+00  0.21778276363E+04  0.25128410015E+04  0.12535695774E+04 0.  0.
        5    1    3    3  502    0  0.50812935402E+03 -0.34206484615E+03  0.13550985505E+04  0.14871173359E+04  0.46999998093E+01 0. -1.
       -5    1    3    3    0  502 -0.50812935402E+03  0.34206484615E+03  0.82272908582E+03  0.10257236655E+04  0.46999998093E+01 0.  1.
</event>
<event>
 5   0  0.1324721E-03  0.1293986E+04  0.7818609E-02  0.9034348E-01
       -1   -1    0    0    0  501  0.00000000000E+00  0.00000000000E+00  0.48347348758E+03  0.48347348760E+03  0.50400001928E-02 0. -1.
        1   -1    0    0  501    0  0.00000000000E+00  0.00000000000E+00 -0.86581767140E+03  0.86581767141E+03  0.50400001928E-02 0.  1.
    10030    2    1    2    0    0  0.00000000000E+00  0.00000000000E+00 -0.38234418382E+03  0.13492911590E+04  0.12939859184E+04 0.  0.
        1    1    3    3  502    0  0.43885629344E+03  0.29953688313E+03 -0.57611514526E+03  0.78372562244E+03  0.50400001928E-02 0.  1.
       -1    1    3    3    0  502 -0.43885629344E+03 -0.29953688313E+03  0.19377096144E+03  0.56556553658E+03  0.50400001928E-02 0. -1.
</event>
<event>
 5   0  0.2312105E-03  0.1299725E+04  0.7818609E-02  0.9029783E-01
       -2   -1    0    0    0  501  0.00000000000E+00  0.00000000000E+00  0.45968246107E+03  0.45968246108E+03  0.25500000920E-02 0. -1.
        2   -1    0    0  501    0  0.00000000000E+00  0.00000000000E+00 -0.91872380398E+03  0.91872380399E+03  0.25500000920E-02 0.  1.
    10030    2    1    2    0    0  0.00000000000E+00  0.00000000000E+00 -0.45904134291E+03  0.13784062651E+04  0.12997249236E+04 0.  0.
        5    1    3    3  502    0 -0.56156417121E+03  0.20054967049E+03  0.44427819677E+02  0.59797191396E+03  0.46999998093E+01 0.  1.
       -5    1    3    3    0  502  0.56156417121E+03 -0.20054967049E+03 -0.50346916259E+03  0.78043435111E+03  0.46999998093E+01 0. -1.
</event>
<event>
 5   0  0.2478236E-03  0.1302119E+04  0.7818609E-02  0.9027887E-01
       -2   -1    0    0    0  501  0.00000000000E+00  0.00000000000E+00  0.52735443064E+03  0.52735443064E+03  0.25500000920E-02 0. -1.
        2   -1    0    0  501    0  0.00000000000E+00  0.00000000000E+00 -0.80378232706E+03  0.80378232706E+03  0.25500000920E-02 0.  1.
    10030    2    1    2    0    0  0.00000000000E+00  0.00000000000E+00 -0.27642789642E+03  0.13311367577E+04  0.13021185375E+04 0.  0.
        3    1    3    3  502    0  0.19145881114E+02 -0.30635926527E+03  0.44873777403E+03  0.54368020400E+03  0.10100000352E+00 0. -1.
       -3    1    3    3    0  502 -0.19145881114E+02  0.30635926527E+03 -0.72516567044E+03  0.78745655371E+03  0.10100000352E+00 0.  1.
</event>
<event>
 5   0  0.2401211E-03  0.1280749E+04  0.7818609E-02  0.9044972E-01
        2   -1    0    0  501    0  0.00000000000E+00  0.00000000000E+00  0.11703095374E+04  0.11703095374E+04  0.25500000920E-02 0. -1.
       -2   -1    0    0    0  501  0.00000000000E+00  0.00000000000E+00 -0.35040279102E+03  0.35040279103E+03  0.25500000920E-02 0.  1.
    10030    2    1    2    0    0  0.00000000000E+00  0.00000000000E+00  0.81990674636E+03  0.15207123284E+04  0.12807493561E+04 0.  0.
        4    1    3    3  502    0 -0.39952200410E+02 -0.28668836774E+03 -0.26829060276E+03  0.39467437077E+03  0.12699999809E+01 0.  1.
       -4    1    3    3    0  502  0.39952200410E+02  0.28668836774E+03  0.10881973491E+04  0.11260379576E+04  0.12699999809E+01 0. -1.
</event>
<event>
 5   0  0.2478236E-03  0.1295352E+04  0.7818609E-02  0.9033259E-01
        2   -1    0    0  501    0  0.00000000000E+00  0.00000000000E+00  0.85444210305E+03  0.85444210305E+03  0.25500000920E-02 0. -1.
       -2   -1    0    0    0  501  0.00000000000E+00  0.00000000000E+00 -0.49094501354E+03  0.49094501354E+03  0.25500000920E-02 0.  1.
    10030    2    1    2    0    0  0.00000000000E+00  0.00000000000E+00  0.36349708951E+03  0.13453871166E+04  0.12953518284E+04 0.  0.
        3    1    3    3  502    0 -0.44451280933E+02  0.68487359079E+02  0.84907546998E+03  0.85299214454E+03  0.10100000352E+00 0. -1.
       -3    1    3    3    0  502  0.44451280933E+02 -0.68487359079E+02 -0.48557838046E+03  0.49239497206E+03  0.10100000352E+00 0.  1.
</event>
<event>
 5   0  0.1332630E-03  0.1278634E+04  0.7818609E-02  0.9046682E-01
        1   -1    0    0  501    0  0.00000000000E+00  0.00000000000E+00  0.37542766204E+03  0.37542766207E+03  0.50400001928E-02 0.  1.
       -1   -1    0    0    0  501  0.00000000000E+00  0.00000000000E+00 -0.10886948338E+04  0.10886948338E+04  0.50400001928E-02 0. -1.
    10030    2    1    2    0    0  0.00000000000E+00  0.00000000000E+00 -0.71326717171E+03  0.14641224958E+04  0.12786338900E+04 0.  0.
        5    1    3    3  502    0  0.48632372985E+03 -0.32828023809E+03 -0.64727647424E+03  0.87365188092E+03  0.46999998093E+01 0. -1.
       -5    1    3    3    0  502 -0.48632372985E+03  0.32828023809E+03 -0.65990697476E+02  0.59047061492E+03  0.46999998093E+01 0.  1.
</event>
<event>
 5   0  0.1310461E-03  0.1326967E+04  0.7818609E-02  0.9008449E-01
        1   -1    0    0  501    0  0.00000000000E+00  0.00000000000E+00  0.13278698310E+04  0.13278698310E+04  0.50400001928E-02 0. -1.
       -1   -1    0    0    0  501  0.00000000000E+00  0.00000000000E+00 -0.33151638131E+03  0.33151638135E+03  0.50400001928E-02 0.  1.
    10030    2    1    2    0    0  0.00000000000E+00  0.00000000000E+00  0.99635344966E+03  0.16593862123E+04  0.13269673715E+04 0.  0.
        4    1    3    3  502    0 -0.34503143624E+03 -0.52113139225E+03  0.21971877214E+03  0.66249722393E+03  0.12699999809E+01 0.  1.
       -4    1    3    3    0  502  0.34503143624E+03  0.52113139225E+03  0.77663467751E+03  0.99688898840E+03  0.12699999809E+01 0. -1.
</event>
<event>
 5   0  0.1332630E-03  0.1337536E+04  0.7818609E-02  0.9000317E-01
        1   -1    0    0  501    0  0.00000000000E+00  0.00000000000E+00  0.11974936994E+04  0.11974936994E+04  0.50400001928E-02 0. -1.
       -1   -1    0    0    0  501  0.00000000000E+00  0.00000000000E+00 -0.37348918859E+03  0.37348918863E+03  0.50400001928E-02 0.  1.
    10030    2    1    2    0    0  0.00000000000E+00  0.00000000000E+00  0.82400451080E+03  0.15709828880E+04  0.13375364670E+04 0.  0.
        5    1    3    3  502    0 -0.23116566643E+03 -0.12949181923E+03 -0.30918798264E+03  0.40721615291E+03  0.46999998093E+01 0.  1.
       -5    1    3    3    0  502  0.23116566643E+03  0.12949181923E+03  0.11331924934E+04  0.11637667351E+04  0.46999998093E+01 0. -1.
</event>
<event>
 5   0  0.1310461E-03  0.1311973E+04  0.7818609E-02  0.9020124E-01
       -1   -1    0    0    0  501  0.00000000000E+00  0.00000000000E+00  0.53579911378E+03  0.53579911380E+03  0.50400001928E-02 0.  1.
        1   -1    0    0  501    0  0.00000000000E+00  0.00000000000E+00 -0.80313330075E+03  0.80313330077E+03  0.50400001928E-02 0. -1.
    10030    2    1    2    0    0  0.00000000000E+00  0.00000000000E+00 -0.26733418697E+03  0.13389324146E+04  0.13119727296E+04 0.  0.
        4    1    3    3  502    0 -0.11333739631E+03  0.52473618200E+03 -0.51840603027E+03  0.74628402852E+03  0.12699999809E+01 0. -1.
       -4    1    3    3    0  502  0.11333739631E+03 -0.52473618200E+03  0.25107184330E+03  0.59264838606E+03  0.12699999809E+01 0.  1.
</event>
<event>
 5   0  0.2478236E-03  0.1310002E+04  0.7818609E-02  0.9021671E-01
        2   -1    0    0  501    0  0.00000000000E+00  0.00000000000E+00  0.60660710142E+03  0.60660710143E+03  0.25500000920E-02 0.  1.
       -2   -1    0    0    0  501  0.00000000000E+00  0.00000000000E+00 -0.70725559223E+03  0.70725559224E+03  0.25500000920E-02 0. -1.
    10030    2    1    2    0    0  0.00000000000E+00  0.00000000000E+00 -0.10064849081E+03  0.13138626937E+04  0.13100019310E+04 0.  0.
        3    1    3    3  502    0  0.20616823052E+02 -0.26578894549E+03 -0.65038295093E+03  0.70289886185E+03  0.10100000352E+00 0. -1.
       -3    1    3    3    0  502 -0.20616823052E+02  0.26578894549E+03  0.54973446012E+03  0.61096383181E+03  0.10100000352E+00 0.  1.
</event>
<event>
 5   0  0.1387622E-03  0.1299715E+04  0.7818609E-02  0.9029791E-01
        1   -1    0    0  501    0  0.00000000000E+00  0.00000000000E+00  0.82313899962E+03  0.82313899964E+03  0.50400001928E-02 0. -1.
       -1   -1    0    0    0  501  0.00000000000E+00  0.00000000000E+00 -0.51305384647E+03  0.51305384650E+03  0.50400001928E-02 0.  1.
    10030    2    1    2    0    0  0.00000000000E+00  0.00000000000E+00  0.31008515315E+03  0.13361928461E+04  0.12997147840E+04 0.  0.
        3    1    3    3  502    0  0.58336701037E+03  0.17037125210E+03 -0.81571695861E+02  0.61318625563E+03  0.10100000352E+00 0.  1.
       -3    1    3    3    0  502 -0.58336701037E+03 -0.17037125210E+03  0.39165684901E+03  0.72300659050E+03  0.10100000352E+00 0. -1.
</event>
<event>
 5   0  0.2312105E-03  0.1307184E+04  0.7818609E-02  0.9023887E-01
       -2   -1    0    0    0  501  0.00000000000E+00  0.00000000000E+00  0.11567630245E+04  0.11567630245E+04  0.25500000920E-02 0.  1.
        2   -1    0    0  501    0  0.00000000000E+00  0.00000000000E+00 -0.36929138260E+03  0.36929138261E+03  0.25500000920E-02 0. -1.
    10030    2    1    2    0    0  0.00000000000E+00  0.00000000000E+00  0.78747164192E+03  0.15260544071E+04  0.13071841747E+04 0.  0.
        5    1    3    3  502    0 -0.53060548459E+03  0.35508622578E+03  0.23057799380E+03  0.67883481734E+03  0.46999998093E+01 0. -1.
       -5    1    3    3    0  502  0.53060548459E+03 -0.35508622578E+03  0.55689364812E+03  0.84721958979E+03  0.46999998093E+01 0.  1.
</event>
<event>
 5   0  0.2478236E-03  0.1337331E+04  0.7818609E-02  0.9000474E-01
       -2   -1    0    0    0  501  0.00000000000E+00  0.00000000000E+00  0.34869433671E+03  0.34869433672E+03  0.25500000920E-02 0. -1.
        2   -1    0    0  501    0  0.00000000000E+00  0.00000000000E+00 -0.12822507488E+04  0.12822507488E+04  0.25500000920E-02 0.  1.
    10030    2    1    2    0    0  0.00000000000E+00  0.00000000000E+00 -0.93355641212E+03  0.16309450856E+04  0.13373310351E+04 0.  0.
        3    1    3    3  502    0 -0.58852449841E+03  0.16483199098E+03 -0.79759598880E+03  0.10048333404E+04  0.10100000352E+00 0.  1.
       -3    1    3    3    0  502  0.58852449841E+03 -0.16483199098E+03 -0.13596042332E+03  0.62611174513E+03  0.10100000352E+00 0. -1.
</event>
<event>
 5   0  0.1387622E-03  0.1291926E+04  0.7818609E-02  0.9035992E-01
        1   -1    0    0  501    0  0.00000000000E+00  0.00000000000E+00  0.50172720507E+03  0.50172720509E+03  0.50400001928E-02 0.  1.
       -1   -1    0    0    0  501  0.00000000000E+00  0.00000000000E+00 -0.83166412218E+03  0.83166412220E+03  0.50400001928E-02 0. -1.
    10030    2    1    2    0    0  0.00000000000E+00  0.00000000000E+00 -0.32993691712E+03  0.13333913273E+04  0.12919264927E+04 0.  0.
        3    1    3    3  502    0  0.99050329358E+02  0.63628386528E+03 -0.11233786508E+03  0.65367264827E+03  0.10100000352E+00 0.  1.
       -3    1    3    3    0  502 -0.99050329358E+02 -0.63628386528E+03 -0.21759905203E+03  0.67971867902E+03  0.10100000352E+00 0. -1.
</event>
<event>
 5   0  0.2401211E-03  0.1239120E+04  0.7818609E-02  0.9079287E-01
       -2   -1    0    0    0  501  0.00000000000E+00  0.00000000000E+00  0.34682292225E+03  0.34682292226E+03  0.25500000920E-02 0.  1.
        2   -1    0    0  501    0  0.00000000000E+00  0.00000000000E+00 -0.11067748877E+04  0.11067748877E+04  0.25500000920E-02 0. -1.
    10030    2    1    2    0    0  0.00000000000E+00  0.00000000000E+00 -0.75995196544E+03  0.14535978100E+04  0.12391204959E+04 0.  0.
        4    1    3    3  502    0 -0.93167822738E+02 -0.60552909447E+03 -0.27177449250E+03  0.67023034482E+03  0.12699999809E+01 0. -1.
       -4    1    3    3    0  502  0.93167822738E+02  0.60552909447E+03 -0.48817747294E+03  0.78336746513E+03  0.12699999809E+01 0.  1.
</event>
<event>
 5   0  0.2312105E-03  0.1302517E+04  0.7818609E-02  0.9027572E-01
        2   -1    0    0  501    0  0.00000000000E+00  0.00000000000E+00  0.14932246756E+04  0.14932246756E+04  0.25500000920E-02 0. -1.
       -2   -1    0    0    0  501  0.00000000000E+00  0.00000000000E+00 -0.28404128731E+03  0.28404128732E+03  0.25500000920E-02 0.  1.
    10030    2    1    2    0    0  0.00000000000E+00  0.00000000000E+00  0.12091833883E+04  0.17772659629E+04  0.13025167317E+04 0.  0.
        5    1    3    3  502    0 -0.11101269090E+03 -0.10075526500E+03 -0.26015229751E+03  0.30029443695E+03  0.46999998093E+01 0.  1.
       -5    1    3    3    0  502  0.11101269090E+03  0.10075526500E+03  0.14693356858E+04  0.14769715260E+04  0.46999998093E+01 0. -1.
</event>
<event>
 5   0  0.1346593E-03  0.1305430E+04  0.7818609E-02  0.9025270E-01
        1   -1    0    0  501    0  0.00000000000E+00  0.00000000000E+00  0.99332320708E+03  0.99332320709E+03  0.50400001928E-02 0.  1.
       -1   -1    0    0    0  501  0.00000000000E+00  0.00000000000E+00 -0.42890030648E+03  0.42890030651E+03  0.50400001928E-02 0. -1.
    10030    2    1    2    0    0  0.00000000000E+00  0.00000000000E+00  0.56442290060E+03  0.14222235136E+04  0.13054296273E+04 0.  0.
        2    1    3    3  502    0 -0.54320992185E+01  0.53314683680E+03 -0.12798665287E+03  0.54832074611E+03  0.25500000920E-02 0. -1.
       -2    1    3    3    0  502  0.54320992185E+01 -0.53314683680E+03  0.69240955347E+03  0.87390276749E+03  0.25500000920E-02 0.  1.
</event>
<event>
 5   0  0.1310461E-03  0.1300821E+04  0.7818609E-02  0.9028914E-01
        1   -1    0    0  501    0  0.00000000000E+00  0.00000000000E+00  0.61712356272E+03  0.61712356274E+03  0.50400001928E-02 0.  1.
       -1   -1    0    0    0  501  0.00000000000E+00  0.00000000000E+00 -0.68549332004E+03  0.68549332006E+03  0.50400001928E-02 0. -1.
    10030    2    1    2    0    0  0.00000000000E+00  0.00000000000E+00 -0.68369757314E+02  0.13026168828E+04  0.13008214019E+04 0.  0.
        4    1    3    3  502    0  0.37756276385E+03 -0.23206447276E+03 -0.51089332664E+03  0.67632918336E+03  0.12699999809E+01 0. -1.
       -4    1    3    3    0  502 -0.37756276385E+03  0.23206447276E+03  0.44252356932E+03  0.62628769944E+03  0.12699999809E+01 0.  1.
</event>
<event>
 5   0  0.1387622E-03  0.1307927E+04  0.7818609E-02  0.9023303E-01
        1   -1    0    0  501    0  0.00000000000E+00  0.00000000000E+00  0.43865119262E+03  0.43865119265E+03  0.50400001928E-02 0.  1.
       -1   -1    0    0    0  501  0.00000000000E+00  0.00000000000E+00 -0.97496192294E+03  0.97496192295E+03  0.50400001928E-02 0. -1.
    10030    2    1    2    0    0  0.00000000000E+00  0.00000000000E+00 -0.53631073032E+03  0.14136131156E+04  0.13079269250E+04 0.  0.
        3    1    3    3  502    0  0.43925489704E+03  0.43306723573E+03 -0.33404000459E+02  0.61774422918E+03  0.10100000352E+00 0.  1.
       -3    1    3    3    0  502 -0.43925489704E+03 -0.43306723573E+03 -0.50290672986E+03  0.79586888642E+03  0.10100000352E+00 0. -1.
</event>
<event>
 5   0  0.1332630E-03  0.1300360E+04  0.7818609E-02  0.9029280E-01
       -1   -1    0    0    0  501  0.00000000000E+00  0.00000000000E+00  0.43728381320E+03  0.43728381323E+03  0.50400001928E-02 0. -1.
        1   -1    0    0  501    0  0.00000000000E+00  0.00000000000E+00 -0.96672688945E+03  0.96672688947E+03  0.50400001928E-02 0.  1.
    10030    2    1    2    0    0  0.00000000000E+00  0.00000000000E+00 -0.52944307625E+03  0.14040107027E+04  0.13003599818E+04 0.  0.
        5    1    3    3  502    0  0.21246325556E+03 -0.61000404922E+03 -0.34454963224E+03  0.73210799347E+03  0.46999998093E+01 0. -1.
       -5    1    3    3    0  502 -0.21246325556E+03  0.61000404922E+03 -0.18489344401E+03  0.67190270923E+03  0.46999998093E+01 0.  1.
</event>
<event>
 5   0  0.2334946E-03  0.1277451E+04  0.7818609E-02  0.9047640E-01
        2   -1    0    0  501    0  0.00000000000E+00  0.00000000000E+00  0.10129795776E+04  0.10129795776E+04  0.25500000920E-02 0. -1.
       -2   -1    0    0    0  501  0.00000000000E+00  0.00000000000E+00 -0.40274277027E+03  0.40274277028E+03  0.25500000920E-02 0.  1.
    10030    2    1    2    0    0  0.00000000000E+00  0.00000000000E+00  0.61023680734E+03  0.14157223479E+04  0.12774509013E+04 0.  0.
        1    1    3    3  502    0  0.10207603936E+03  0.57379577758E+03  0.15468680551E+02  0.58300977032E+03  0.50400001928E-02 0. -1.
       -1    1    3    3    0  502 -0.10207603936E+03 -0.57379577758E+03  0.59476812678E+03  0.83271257757E+03  0.50400001928E-02 0.  1.
</event>
<event>
 5   0  0.1324721E-03  0.1158277E+04  0.7818609E-02  0.9150181E-01
        1   -1    0    0  501    0  0.00000000000E+00  0.00000000000E+00  0.16178997229E+03  0.16178997237E+03  0.50400001928E-02 0.  1.
       -1   -1    0    0    0  501  0.00000000000E+00  0.00000000000E+00 -0.20730674689E+04  0.20730674689E+04  0.50400001928E-02 0. -1.
    10030    2    1    2    0    0  0.00000000000E+00  0.00000000000E+00 -0.19112774966E+04  0.22348574413E+04  0.11582772180E+04 0.  0.
        1    1    3    3  502    0 -0.31719528203E+03 -0.48310422937E+03 -0.88347088529E+03  0.10557098790E+04  0.50400001928E-02 0.  1.
       -1    1    3    3    0  502  0.31719528203E+03  0.48310422937E+03 -0.10278066113E+04  0.11791475623E+04  0.50400001928E-02 0. -1.
</event>
<event>
 5   0  0.2334946E-03  0.1310435E+04  0.7818609E-02  0.9021331E-01
        2   -1    0    0  501    0  0.00000000000E+00  0.00000000000E+00  0.66717972285E+03  0.66717972286E+03  0.25500000920E-02 0.  1.
       -2   -1    0    0    0  501  0.00000000000E+00  0.00000000000E+00 -0.64346975276E+03  0.64346975277E+03  0.25500000920E-02 0. -1.
    10030    2    1    2    0    0  0.00000000000E+00  0.00000000000E+00  0.23709970089E+02  0.13106494756E+04  0.13104349985E+04 0.  0.
        1    1    3    3  502    0 -0.27267732728E+03  0.59492542334E+03 -0.20100003905E+02  0.65474666423E+03  0.50400001928E-02 0. -1.
       -1    1    3    3    0  502  0.27267732728E+03 -0.59492542334E+03  0.43809973994E+02  0.65590281139E+03  0.50400001928E-02 0.  1.
</event>
<event>
 5   0  0.1387622E-03  0.1351169E+04  0.7818609E-02  0.8989943E-01
       -1   -1    0    0    0  501  0.00000000000E+00  0.00000000000E+00  0.36882227607E+03  0.36882227610E+03  0.50400001928E-02 0. -1.
        1   -1    0    0  501    0  0.00000000000E+00  0.00000000000E+00 -0.12374923617E+04  0.12374923617E+04  0.50400001928E-02 0.  1.
    10030    2    1    2    0    0  0.00000000000E+00  0.00000000000E+00 -0.86867008567E+03  0.16063146379E+04  0.13511694927E+04 0.  0.
        3    1    3    3  502    0 -0.19723013757E+03 -0.12498734523E+02 -0.12023604200E+04  0.12184935516E+04  0.10100000352E+00 0.  1.
       -3    1    3    3    0  502  0.19723013757E+03  0.12498734523E+02  0.33369033432E+03  0.38782108626E+03  0.10100000352E+00 0. -1.
</event>
<event>
 5   0  0.1346593E-03  0.1307710E+04  0.7818609E-02  0.9023473E-01
        1   -1    0    0  501    0  0.00000000000E+00  0.00000000000E+00  0.59272997175E+03  0.59272997177E+03  0.50400001928E-02 0. -1.
       -1   -1    0    0    0  501  0.00000000000E+00  0.00000000000E+00 -0.72128403559E+03  0.72128403561E+03  0.50400001928E-02 0.  1.
    10030    2    1    2    0    0  0.00000000000E+00  0.00000000000E+00 -0.12855406384E+03  0.13140140074E+04  0.13077104665E+04 0.  0.
        2    1    3    3  502    0 -0.35945520761E+01  0.41522738054E+03  0.44323179119E+03  0.60735584223E+03  0.25500000920E-02 0. -1.
       -2    1    3    3    0  502  0.35945520761E+01 -0.41522738054E+03 -0.57178585503E+03  0.70665816515E+03  0.25500000920E-02 0.  1.
</event>
<event>
 5   0  0.1332630E-03  0.1294200E+04  0.7818609E-02  0.9034178E-01
       -1   -1    0    0    0  501  0.00000000000E+00  0.00000000000E+00  0.42949106093E+03  0.42949106096E+03  0.50400001928E-02 0. -1.
        1   -1    0    0  501    0  0.00000000000E+00  0.00000000000E+00 -0.97496355147E+03  0.97496355149E+03  0.50400001928E-02 0.  1.
    10030    2    1    2    0    0  0.00000000000E+00  0.00000000000E+00 -0.54547249054E+03  0.14044546124E+04  0.12941995675E+04 0.  0.
        5    1    3    3  502    0  0.45946795931E+03  0.24455628901E+03 -0.68993205498E+03  0.86426090656E+03  0.46999998093E+01 0.  1.
       -5    1    3    3    0  502 -0.45946795931E+03 -0.24455628901E+03  0.14445956443E+03  0.54019370589E+03  0.46999998093E+01 0. -1.
</event>
<event>
 5   0  0.2312105E-03  0.1294836E+04  0.7818609E-02  0.9033671E-01
       -2   -1    0    0    0  501  0.00000000000E+00  0.00000000000E+00  0.28658412479E+03  0.28658412480E+03  0.25500000920E-02 0.  1.
        2   -1    0    0  501    0  0.00000000000E+00  0.00000000000E+00 -0.14625719608E+04  0.14625719608E+04  0.25500000920E-02 0. -1.
    10030    2    1    2    0    0  0.00000000000E+00  0.00000000000E+00 -0.11759878360E+04  0.17491560856E+04  0.12948357507E+04 0.  0.
        5    1    3    3  502    0 -0.29232266157E+03 -0.45231941005E+03 -0.10265239717E+03  0.54827455880E+03  0.46999998093E+01 0.  1.
       -5    1    3    3    0  502  0.29232266157E+03  0.45231941005E+03 -0.10733354388E+04  0.12008815268E+04  0.46999998093E+01 0. -1.
</event>
<event>
 5   0  0.2312105E-03  0.1310287E+04  0.7818609E-02  0.9021447E-01
        2   -1    0    0  501    0  0.00000000000E+00  0.00000000000E+00  0.89331810201E+03  0.89331810202E+03  0.25500000920E-02 0.  1.
       -2   -1    0    0    0  501  0.00000000000E+00  0.00000000000E+00 -0.48047086397E+03  0.48047086397E+03  0.25500000920E-02 0. -1.
    10030    2    1    2    0    0  0.00000000000E+00  0.00000000000E+00  0.41284723805E+03  0.13737889660E+04  0.13102874803E+04 0.  0.
        5    1    3    3  502    0 -0.96467809077E+02 -0.16809384940E+03  0.86255561232E+03  0.88407344420E+03  0.46999998093E+01 0.  1.
       -5    1    3    3    0  502  0.96467809077E+02  0.16809384940E+03 -0.44970837427E+03  0.48971552179E+03  0.46999998093E+01 0. -1.
</event>
<event>
 5   0  0.2312105E-03  0.1284002E+04  0.7818609E-02  0.9042348E-01
       -2   -1    0    0    0  501  0.00000000000E+00  0.00000000000E+00  0.28994415148E+03  0.28994415149E+03  0.25500000920E-02 0.  1.
        2   -1    0    0  501    0  0.00000000000E+00  0.00000000000E+00 -0.14215343031E+04  0.14215343031E+04  0.25500000920E-02 0. -1.
    10030    2    1    2    0    0  0.00000000000E+00  0.00000000000E+00 -0.11315901516E+04  0.17114784546E+04  0.12840024257E+04 0.  0.
        5    1    3    3  502    0 -0.57100894430E+03 -0.29189724751E+03 -0.52606923103E+03  0.82947341332E+03  0.46999998093E+01 0.  1.
       -5    1    3    3    0  502  0.57100894430E+03  0.29189724751E+03 -0.60552092061E+03  0.88200504129E+03  0.46999998093E+01 0. -1.
</event>
<event>
 5   0  0.1310461E-03  0.1187574E+04  0.7818609E-02  0.9123803E-01
       -1   -1    0    0    0  501  0.00000000000E+00  0.00000000000E+00  0.60278846327E+03  0.60278846329E+03  0.50400001928E-02 0.  1.
        1   -1    0    0  501    0  0.00000000000E+00  0.00000000000E+00 -0.58491993369E+03  0.58491993371E+03  0.50400001928E-02 0. -1.
    10030    2    1    2    0    0  0.00000000000E+00  0.00000000000E+00  0.17868529582E+02  0.11877083970E+04  0.11875739775E+04 0.  0.
        4    1    3    3  502    0  0.27556235618E+03  0.52498682093E+03  0.41118659304E+02  0.59433839800E+03  0.12699999809E+01 0.  1.
       -4    1    3    3    0  502 -0.27556235618E+03 -0.52498682093E+03 -0.23250129722E+02  0.59336999901E+03  0.12699999809E+01 0. -1.
</event>
<event>
 5   0  0.2361043E-03  0.1480895E+04  0.7818609E-02  0.8897258E-01
        2   -1    0    0  501    0  0.00000000000E+00  0.00000000000E+00  0.13928035700E+04  0.13928035700E+04  0.25500000920E-02 0.  1.
       -2   -1    0    0    0  501  0.00000000000E+00  0.00000000000E+00 -0.39363976157E+03  0.39363976158E+03  0.25500000920E-02 0. -1.
    10030    2    1    2    0    0  0.00000000000E+00  0.00000000000E+00  0.99916380845E+03  0.17864433316E+04  0.14808954929E+04 0.  0.
        2    1    3    3  502    0  0.69023262077E+03  0.26120170306E+03  0.57211678470E+03  0.93379067023E+03  0.25500000920E-02 0.  1.
       -2    1    3    3    0  502 -0.69023262077E+03 -0.26120170306E+03  0.42704702374E+03  0.85265266138E+03  0.25500000920E-02 0. -1.
</event>
<event>
 5   0  0.2478236E-03  0.1298824E+04  0.7818609E-02  0.9030498E-01
       -2   -1    0    0    0  501  0.00000000000E+00  0.00000000000E+00  0.57429362859E+03  0.57429362859E+03  0.25500000920E-02 0. -1.
        2   -1    0    0  501    0  0.00000000000E+00  0.00000000000E+00 -0.73435625324E+03  0.73435625324E+03  0.25500000920E-02 0.  1.
    10030    2    1    2    0    0  0.00000000000E+00  0.00000000000E+00 -0.16006262465E+03  0.13086498818E+04  0.12988242643E+04 0.  0.
        3    1    3    3  502    0 -0.47911177690E+03  0.39950124063E+02  0.35983976871E+03  0.60052375183E+03  0.10100000352E+00 0. -1.
       -3    1    3    3    0  502  0.47911177690E+03 -0.39950124063E+02 -0.51990239336E+03  0.70812613000E+03  0.10100000352E+00 0.  1.
</event>
<event>
 5   0  0.1324721E-03  0.1305949E+04  0.7818609E-02  0.9024861E-01
       -1   -1    0    0    0  501  0.00000000000E+00  0.00000000000E+00  0.50017612837E+03  0.50017612839E+03  0.50400001928E-02 0.  1.
        1   -1    0    0  501    0  0.00000000000E+00  0.00000000000E+00 -0.85245066143E+03  0.85245066145E+03  0.50400001928E-02 0. -1.
    10030    2    1    2    0    0  0.00000000000E+00  0.00000000000E+00 -0.35227453306E+03  0.13526267898E+04  0.13059486536E+04 0.  0.
        1    1    3    3  502    0 -0.45889461894E+02  0.35212538911E+03  0.39142453960E+03  0.52849910369E+03  0.50400001928E-02 0.  1.
       -1    1    3    3    0  502  0.45889461894E+02 -0.35212538911E+03 -0.74369907267E+03  0.82412768615E+03  0.50400001928E-02 0. -1.
</event>
<event>
 5   0  0.2478236E-03  0.1356983E+04  0.7818609E-02  0.8985559E-01
       -2   -1    0    0    0  501  0.00000000000E+00  0.00000000000E+00  0.62830982797E+03  0.62830982798E+03  0.25500000920E-02 0.  1.
        2   -1    0    0  501    0  0.00000000000E+00  0.00000000000E+00 -0.73268090741E+03  0.73268090741E+03  0.25500000920E-02 0. -1.
    10030    2    1    2    0    0  0.00000000000E+00  0.00000000000E+00 -0.10437107944E+03  0.13609907354E+04  0.13569828516E+04 0.  0.
        3    1    3    3  502    0 -0.43518523154E+03  0.23983743856E+02 -0.57371095672E+03  0.72048988736E+03  0.10100000352E+00 0. -1.
       -3    1    3    3    0  502  0.43518523154E+03 -0.23983743856E+02  0.46933987728E+03  0.64050084803E+03  0.10100000352E+00 0.  1.
</event>
<event>
 5   0  0.1310461E-03  0.1299737E+04  0.7818609E-02  0.9029774E-01
        1   -1    0    0  501    0  0.00000000000E+00  0.00000000000E+00  0.39302825298E+03  0.39302825302E+03  0.50400001928E-02 0.  1.
       -1   -1    0    0    0  501  0.00000000000E+00  0.00000000000E+00 -0.10745508012E+04  0.10745508012E+04  0.50400001928E-02 0. -1.
    10030    2    1    2    0    0  0.00000000000E+00  0.00000000000E+00 -0.68152254819E+03  0.14675790542E+04  0.12997366259E+04 0.  0.
        4    1    3    3  502    0  0.11373972120E+03  0.17660345669E+03  0.35363581129E+03  0.41132153484E+03  0.12699999809E+01 0.  1.
       -4    1    3    3    0  502 -0.11373972120E+03 -0.17660345669E+03 -0.10351583595E+04  0.10562575194E+04  0.12699999809E+01 0. -1.
</event>
<event>
 5   0  0.2312105E-03  0.1285638E+04  0.7818609E-02  0.9041033E-01
       -2   -1    0    0    0  501  0.00000000000E+00  0.00000000000E+00  0.59931784128E+03  0.59931784128E+03  0.25500000920E-02 0.  1.
        2   -1    0    0  501    0  0.00000000000E+00  0.00000000000E+00 -0.68947728285E+03  0.68947728286E+03  0.25500000920E-02 0. -1.
    10030    2    1    2    0    0  0.00000000000E+00  0.00000000000E+00 -0.90159441572E+02  0.12887951241E+04  0.12856376422E+04 0.  0.
        5    1    3    3  502    0  0.32492241459E+03 -0.45195669612E+03  0.27719781459E+03  0.62185219231E+03  0.46999998093E+01 0.  1.
       -5    1    3    3    0  502 -0.32492241459E+03  0.45195669612E+03 -0.36735725616E+03  0.66694293183E+03  0.46999998093E+01 0. -1.
</event>
<event>
 5   0  0.1387622E-03  0.1378311E+04  0.7818609E-02  0.8969670E-01
        1   -1    0    0  501    0  0.00000000000E+00  0.00000000000E+00  0.62548313168E+03  0.62548313170E+03  0.50400001928E-02 0.  1.
       -1   -1    0    0    0  501  0.00000000000E+00  0.00000000000E+00 -0.75930918261E+03  0.75930918263E+03  0.50400001928E-02 0. -1.
    10030    2    1    2    0    0  0.00000000000E+00  0.00000000000E+00 -0.13382605093E+03  0.13847923143E+04  0.13783106841E+04 0.  0.
        3    1    3    3  502    0 -0.49635021572E+02  0.62697950484E+03 -0.34996137340E+03  0.71974989262E+03  0.10100000352E+00 0. -1.
       -3    1    3    3    0  502  0.49635021572E+02 -0.62697950484E+03  0.21613532247E+03  0.66504242171E+03  0.10100000352E+00 0.  1.
</event>
<event>
 5   0  0.2361043E-03  0.1257160E+04  0.7818609E-02  0.9064245E-01
       -2   -1    0    0    0  501  0.00000000000E+00  0.00000000000E+00  0.39850623072E+03  0.39850623073E+03  0.25500000920E-02 0.  1.
        2   -1    0    0  501    0  0.00000000000E+00  0.00000000000E+00 -0.99148527059E+03  0.99148527059E+03  0.25500000920E-02 0. -1.
    10030    2    1    2    0    0  0.00000000000E+00  0.00000000000E+00 -0.59297903987E+03  0.13899915013E+04  0.12571603844E+04 0.  0.
        2    1    3    3  502    0  0.43214634598E+02  0.26604079584E+03 -0.92435219738E+03  0.96284588304E+03  0.25500000920E-02 0. -1.
       -2    1    3    3    0  502 -0.43214634598E+02 -0.26604079584E+03  0.33137315751E+03  0.42714561828E+03  0.25500000920E-02 0.  1.
</event>
<event>
 5   0  0.1332630E-03  0.1035968E+04  0.7818609E-02  0.9269952E-01
       -1   -1    0    0    0  501  0.00000000000E+00  0.00000000000E+00  0.60201808863E+03  0.60201808865E+03  0.50400001928E-02 0.  1.
        1   -1    0    0  501    0  0.00000000000E+00  0.00000000000E+00 -0.44568015975E+03  0.44568015978E+03  0.50400001928E-02 0. -1.
    10030    2    1    2    0    0  0.00000000000E+00  0.00000000000E+00  0.15633792888E+03  0.10476982484E+04  0.10359681809E+04 0.  0.
        5    1    3    3  502    0  0.59453205891E+02  0.50496988487E+03 -0.21722700108E+02  0.50894325225E+03  0.46999998093E+01 0.  1.
       -5    1    3    3    0  502 -0.59453205891E+02 -0.50496988487E+03  0.17806062898E+03  0.53875499618E+03  0.46999998093E+01 0. -1.
</event>
<event>
 5   0  0.1346593E-03  0.1295219E+04  0.7818609E-02  0.9033365E-01
        1   -1    0    0  501    0  0.00000000000E+00  0.00000000000E+00  0.26425321186E+04  0.26425321186E+04  0.50400001928E-02 0.  1.
       -1   -1    0    0    0  501  0.00000000000E+00  0.00000000000E+00 -0.15871061311E+03  0.15871061319E+03  0.50400001928E-02 0. -1.
    10030    2    1    2    0    0  0.00000000000E+00  0.00000000000E+00  0.24838215055E+04  0.28012427318E+04  0.12952187349E+04 0.  0.
        2    1    3    3  502    0  0.45808170478E+03 -0.12446210814E+03  0.28914783570E+03  0.55582023669E+03  0.25500000920E-02 0. -1.
       -2    1    3    3    0  502 -0.45808170478E+03  0.12446210814E+03  0.21946736698E+04  0.22454224951E+04  0.25500000920E-02 0.  1.
</event>
<event>
 5   0  0.1332630E-03  0.1287214E+04  0.7818609E-02  0.9039767E-01
        1   -1    0    0  501    0  0.00000000000E+00  0.00000000000E+00  0.71177642805E+03  0.71177642807E+03  0.50400001928E-02 0. -1.
       -1   -1    0    0    0  501  0.00000000000E+00  0.00000000000E+00 -0.58196622831E+03  0.58196622833E+03  0.50400001928E-02 0.  1.
    10030    2    1    2    0    0  0.00000000000E+00  0.00000000000E+00  0.12981019974E+03  0.12937426564E+04  0.12872138024E+04 0.  0.
        5    1    3    3  502    0 -0.31075926724E+03 -0.30133404755E+03 -0.41378175183E+03  0.59884134671E+03  0.46999998093E+01 0.  1.
       -5    1    3    3    0  502  0.31075926724E+03  0.30133404755E+03  0.54359195157E+03  0.69490130969E+03  0.46999998093E+01 0. -1.
</event>
<event>
 5   0  0.2312105E-03  0.1305408E+04  0.7818609E-02  0.9025287E-01
        2   -1    0    0  501    0  0.00000000000E+00  0.00000000000E+00  0.59242167683E+03  0.59242167684E+03  0.25500000920E-02 0. -1.
       -2   -1    0    0    0  501  0.00000000000E+00  0.00000000000E+00 -0.71912069765E+03  0.71912069766E+03  0.25500000920E-02 0.  1.
    10030    2    1    2    0    0  0.00000000000E+00  0.00000000000E+00 -0.12669902082E+03  0.13115423745E+04  0.13054082726E+04 0.  0.
        5    1    3    3  502    0  0.40435691813E+02  0.51099446161E+03 -0.46929044436E+03  0.69498632802E+03  0.46999998093E+01 0.  1.
       -5    1    3    3    0  502 -0.40435691813E+02 -0.51099446161E+03  0.34259142354E+03  0.61655604648E+03  0.46999998093E+01 0. -1.
</event>
<event>
 5   0  0.1332630E-03  0.1289207E+04  0.7818609E-02  0.9038168E-01
       -1   -1    0    0    0  501  0.00000000000E+00  0.00000000000E+00  0.32737785626E+03  0.32737785630E+03  0.50400001928E-02 0.  1.
        1   -1    0    0  501    0  0.00000000000E+00  0.00000000000E+00 -0.12692171004E+04  0.12692171004E+04  0.50400001928E-02 0. -1.
    10030    2    1    2    0    0  0.00000000000E+00  0.00000000000E+00 -0.94183924416E+03  0.15965949567E+04  0.12892068469E+04 0.  0.
        5    1    3    3  502    0 -0.38481945771E+03 -0.20147651387E+03  0.11888180302E+03  0.45037070704E+03  0.46999998093E+01 0.  1.
       -5    1    3    3    0  502  0.38481945771E+03  0.20147651387E+03 -0.10607210472E+04  0.11462242497E+04  0.46999998093E+01 0. -1.
</event>
<event>
 5   0  0.2334946E-03  0.1278624E+04  0.7818609E-02  0.9046690E-01
        2   -1    0    0  501    0  0.00000000000E+00  0.00000000000E+00  0.15535120588E+04  0.15535120588E+04  0.25500000920E-02 0.  1.
       -2   -1    0    0    0  501  0.00000000000E+00  0.00000000000E+00 -0.26309420815E+03  0.26309420816E+03  0.25500000920E-02 0. -1.
    10030    2    1    2    0    0  0.00000000000E+00  0.00000000000E+00  0.12904178507E+04  0.18166062670E+04  0.12786242997E+04 0.  0.
        1    1    3    3  502    0  0.59808589082E+03  0.38456830020E+02  0.32900216438E+03  0.68368712491E+03  0.50400001928E-02 0. -1.
       -1    1    3    3    0  502 -0.59808589082E+03 -0.38456830020E+02  0.96141568628E+03  0.11329191421E+04  0.50400001928E-02 0.  1.
</event>
<event>
 5   0  0.2312105E-03  0.1305772E+04  0.7818609E-02  0.9025001E-01
       -2   -1    0    0    0  501  0.00000000000E+00  0.00000000000E+00  0.28134742078E+03  0.28134742079E+03  0.25500000920E-02 0. -1.
        2   -1    0    0  501    0  0.00000000000E+00  0.00000000000E+00 -0.15150659428E+04  0.15150659428E+04  0.25500000920E-02 0.  1.
    10030    2    1    2    0    0  0.00000000000E+00  0.00000000000E+00 -0.12337185220E+04  0.17964133636E+04  0.13057716421E+04 0.  0.
        5    1    3    3  502    0  0.42957652252E+03 -0.20500483190E+03 -0.21061825934E+01  0.47601417605E+03  0.46999998093E+01 0. -1.
       -5    1    3    3    0  502 -0.42957652252E+03  0.20500483190E+03 -0.12316123394E+04  0.13203991875E+04  0.46999998093E+01 0.  1.
</event>
<event>
 5   0  0.2312105E-03  0.1305293E+04  0.7818609E-02  0.9025379E-01
        2   -1    0    0  501    0  0.00000000000E+00  0.00000000000E+00  0.10910641910E+04  0.10910641910E+04  0.25500000920E-02 0. -1.
       -2   -1    0    0    0  501  0.00000000000E+00  0.00000000000E+00 -0.39039610918E+03  0.39039610919E+03  0.25500000920E-02 0.  1.
    10030    2    1    2    0    0  0.00000000000E+00  0.00000000000E+00  0.70066808185E+03  0.14814603002E+04  0.13052926339E+04 0.  0.
        5    1    3    3  502    0 -0.35208770950E+03 -0.19198078289E+03 -0.23403775386E+03  0.46434700000E+03  0.46999998093E+01 0.  1.
       -5    1    3    3    0  502  0.35208770950E+03  0.19198078289E+03  0.93470583571E+03  0.10171133002E+04  0.46999998093E+01 0. -1.
</event>
<event>
 5   0  0.1387622E-03  0.1272143E+04  0.7818609E-02  0.9051953E-01
        1   -1    0    0  501    0  0.00000000000E+00  0.00000000000E+00  0.86508767420E+03  0.86508767421E+03  0.50400001928E-02 0.  1.
       -1   -1    0    0    0  501  0.00000000000E+00  0.00000000000E+00 -0.46768294611E+03  0.46768294614E+03  0.50400001928E-02 0. -1.
    10030    2    1    2    0    0  0.00000000000E+00  0.00000000000E+00  0.39740472809E+03  0.13327706203E+04  0.12721426840E+04 0.  0.
        3    1    3    3  502    0  0.62964784778E+03 -0.74062062638E+02  0.14482033188E+03  0.65031879879E+03  0.10100000352E+00 0. -1.
       -3    1    3    3    0  502 -0.62964784778E+03  0.74062062638E+02  0.25258439621E+03  0.68245182156E+03  0.10100000352E+00 0.  1.
</event>
<event>
 5   0  0.1332630E-03  0.1289455E+04  0.7818609E-02  0.9037969E-01
        1   -1    0    0  501    0  0.00000000000E+00  0.00000000000E+00  0.96500422573E+03  0.96500422574E+03  0.50400001928E-02 0. -1.
       -1   -1    0    0    0  501  0.00000000000E+00  0.00000000000E+00 -0.43074819019E+03  0.43074819022E+03  0.50400001928E-02 0.  1.
    10030    2    1    2    0    0  0.00000000000E+00  0.00000000000E+00  0.53425603554E+03  0.13957524160E+04  0.12894554258E+04 0.  0.
        5    1    3    3  502    0  0.40377887726E+03  0.37610127795E+03  0.62802278363E+03  0.83601690159E+03  0.46999998093E+01 0. -1.
       -5    1    3    3    0  502 -0.40377887726E+03 -0.37610127795E+03 -0.93766748094E+02  0.55973551436E+03  0.46999998093E+01 0.  1.
</event>
<event>
 5   0  0.2312105E-03  0.1309898E+04  0.7818609E-02  0.9021753E-01
       -2   -1    0    0    0  501  0.00000000000E+00  0.00000000000E+00  0.78756169895E+03  0.78756169895E+03  0.25500000920E-02 0. -1.
        2   -1    0    0  501    0  0.00000000000E+00  0.00000000000E+00 -0.54466608661E+03  0.54466608661E+03  0.25500000920E-02 0.  1.
    10030    2    1    2    0    0  0.00000000000E+00  0.00000000000E+00  0.24289561234E+03  0.13322277856E+04  0.13098979327E+04 0.  0.
        5    1    3    3  502    0  0.32282714379E+03  0.39923257701E+03  0.53498973304E+03  0.74151204965E+03  0.46999998093E+01 0. -1.
       -5    1    3    3    0  502 -0.32282714379E+03 -0.39923257701E+03 -0.29209412069E+03  0.59071573592E+03  0.46999998093E+01 0.  1.
</event>
<event>
 5   0  0.1346593E-03  0.1297472E+04  0.7818609E-02  0.9031572E-01
       -1   -1    0    0    0  501  0.00000000000E+00  0.00000000000E+00  0.49294812036E+03  0.49294812039E+03  0.50400001928E-02 0.  1.
        1   -1    0    0  501    0  0.00000000000E+00  0.00000000000E+00 -0.85375789269E+03  0.85375789271E+03  0.50400001928E-02 0. -1.
    10030    2    1    2    0    0  0.00000000000E+00  0.00000000000E+00 -0.36080977233E+03  0.13467060131E+04  0.12974719241E+04 0.  0.
        2    1    3    3  502    0 -0.56482654035E+03 -0.23624061547E+03 -0.40306720062E+03  0.73300874299E+03  0.25500000920E-02 0. -1.
       -2    1    3    3    0  502  0.56482654035E+03  0.23624061547E+03  0.42257428287E+02  0.61369727011E+03  0.25500000920E-02 0.  1.
</event>
<event>
 5   0  0.2334946E-03  0.1321997E+04  0.7818609E-02  0.9012301E-01
        2   -1    0    0  501    0  0.00000000000E+00  0.00000000000E+00  0.17080769554E+04  0.17080769554E+04  0.25500000920E-02 0.  1.
       -2   -1    0    0    0  501  0.00000000000E+00  0.00000000000E+00 -0.25579569967E+03  0.25579569968E+03  0.25500000920E-02 0. -1.
    10030    2    1    2    0    0  0.00000000000E+00  0.00000000000E+00  0.14522812557E+04  0.19638726551E+04  0.13219965808E+04 0.  0.
        1    1    3    3  502    0 -0.38723339395E+03 -0.13151077578E+03  0.14975812303E+04  0.15524156425E+04  0.50400001928E-02 0.  1.
       -1    1    3    3    0  502  0.38723339395E+03  0.13151077578E+03 -0.45299974572E+02  0.41145701264E+03  0.50400001928E-02 0. -1.
</event>
<event>
 5   0  0.1332630E-03  0.1213500E+04  0.7818609E-02  0.9101121E-01
       -1   -1    0    0    0  501  0.00000000000E+00  0.00000000000E+00  0.38417850597E+03  0.38417850600E+03  0.50400001928E-02 0.  1.
        1   -1    0    0  501    0  0.00000000000E+00  0.00000000000E+00 -0.95826698412E+03  0.95826698413E+03  0.50400001928E-02 0. -1.
    10030    2    1    2    0    0  0.00000000000E+00  0.00000000000E+00 -0.57408847815E+03  0.13424454901E+04  0.12135000261E+04 0.  0.
        5    1    3    3  502    0  0.43124752091E+03 -0.36813099909E+02  0.18333561004E+03  0.47006772334E+03  0.46999998093E+01 0.  1.
       -5    1    3    3    0  502 -0.43124752091E+03  0.36813099909E+02 -0.75742408820E+03  0.87237776679E+03  0.46999998093E+01 0. -1.
</event>
<event>
 5   0  0.1324721E-03  0.1290537E+04  0.7818609E-02  0.9037103E-01
       -1   -1    0    0    0  501  0.00000000000E+00  0.00000000000E+00  0.64981203201E+03  0.64981203203E+03  0.50400001928E-02 0. -1.
        1   -1    0    0  501    0  0.00000000000E+00  0.00000000000E+00 -0.64075646400E+03  0.64075646402E+03  0.50400001928E-02 0.  1.
    10030    2    1    2    0    0  0.00000000000E+00  0.00000000000E+00  0.90555680071E+01  0.12905684960E+04  0.12905367254E+04 0.  0.
        1    1    3    3  502    0 -0.31666455832E+03  0.11475527209E+03 -0.54587294280E+03  0.64142223587E+03  0.50400001928E-02 0.  1.
       -1    1    3    3    0  502  0.31666455832E+03 -0.11475527209E+03  0.55492851081E+03  0.64914626017E+03  0.50400001928E-02 0. -1.
</event>
<event>
 5   0  0.1324721E-03  0.1292629E+04  0.7818609E-02  0.9035431E-01
       -1   -1    0    0    0  501  0.00000000000E+00  0.00000000000E+00  0.34992107765E+03  0.34992107769E+03  0.50400001928E-02 0. -1.
        1   -1    0    0  501    0  0.00000000000E+00  0.00000000000E+00 -0.11937619428E+04  0.11937619428E+04  0.50400001928E-02 0.  1.
    10030    2    1    2    0    0  0.00000000000E+00  0.00000000000E+00 -0.84384086514E+03  0.15436830205E+04  0.12926290505E+04 0.  0.
        1    1    3    3  502    0  0.64323637878E+02  0.58473914876E+03 -0.74161698929E+03  0.94660084583E+03  0.50400001928E-02 0.  1.
       -1    1    3    3    0  502 -0.64323637878E+02 -0.58473914876E+03 -0.10222387584E+03  0.59708217467E+03  0.50400001928E-02 0. -1.
</event>
<event>
 5   0  0.1310461E-03  0.1292279E+04  0.7818609E-02  0.9035710E-01
       -1   -1    0    0    0  501  0.00000000000E+00  0.00000000000E+00  0.23256094344E+03  0.23256094350E+03  0.50400001928E-02 0. -1.
        1   -1    0    0  501    0  0.00000000000E+00  0.00000000000E+00 -0.17952124992E+04  0.17952124992E+04  0.50400001928E-02 0.  1.
    10030    2    1    2    0    0  0.00000000000E+00  0.00000000000E+00 -0.15626515558E+04  0.20277734427E+04  0.12922790915E+04 0.  0.
        4    1    3    3  502    0 -0.10635431240E+02 -0.62973963997E+03 -0.55496837689E+03  0.83945020031E+03  0.12699999809E+01 0. -1.
       -4    1    3    3    0  502  0.10635431240E+02  0.62973963997E+03 -0.10076831789E+04  0.11883232424E+04  0.12699999809E+01 0.  1.
</event>
<event>
 5   0  0.2401211E-03  0.1279420E+04  0.7818609E-02  0.9046046E-01
       -2   -1    0    0    0  501  0.00000000000E+00  0.00000000000E+00  0.89746632195E+03  0.89746632196E+03  0.25500000920E-02 0. -1.
        2   -1    0    0  501    0  0.00000000000E+00  0.00000000000E+00 -0.45598248916E+03  0.45598248916E+03  0.25500000920E-02 0.  1.
    10030    2    1    2    0    0  0.00000000000E+00  0.00000000000E+00  0.44148383280E+03  0.13534488111E+04  0.12794200677E+04 0.  0.
        4    1    3    3  502    0 -0.99523116992E+02  0.79543072044E+02 -0.44242429385E+03  0.46040506058E+03  0.12699999809E+01 0.  1.
       -4    1    3    3    0  502  0.99523116992E+02 -0.79543072044E+02  0.88390812664E+03  0.89304375054E+03  0.12699999809E+01 0. -1.
</event>
<event>
 5   0  0.2334946E-03  0.1308976E+04  0.7818609E-02  0.9022477E-01
       -2   -1    0    0    0  501  0.00000000000E+00  0.00000000000E+00  0.43456682149E+03  0.43456682150E+03  0.25500000920E-02 0.  1.
        2   -1    0    0  501    0  0.00000000000E+00  0.00000000000E+00 -0.98570420159E+03  0.98570420160E+03  0.25500000920E-02 0. -1.
    10030    2    1    2    0    0  0.00000000000E+00  0.00000000000E+00 -0.55113738010E+03  0.14202710231E+04  0.13089756939E+04 0.  0.
        1    1    3    3  502    0  0.50881786499E+03 -0.62404457653E+02  0.16592360789E+03  0.53881404933E+03  0.50400001928E-02 0.  1.
       -1    1    3    3    0  502 -0.50881786499E+03  0.62404457653E+02 -0.71706098800E+03  0.88145697377E+03  0.50400001928E-02 0. -1.
</event>
<event>
 5   0  0.1310461E-03  0.1297449E+04  0.7818609E-02  0.9031590E-01
        1   -1    0    0  501    0  0.00000000000E+00  0.00000000000E+00  0.79254346039E+03  0.79254346040E+03  0.50400001928E-02 0. -1.
       -1   -1    0    0    0  501  0.00000000000E+00  0.00000000000E+00 -0.53100377582E+03  0.53100377585E+03  0.50400001928E-02 0.  1.
    10030    2    1    2    0    0  0.00000000000E+00  0.00000000000E+00  0.26153968457E+03  0.13235472362E+04  0.12974491435E+04 0.  0.
        4    1    3    3  502    0  0.54432043013E+03  0.34153650403E+03  0.22149725369E+03  0.67970181737E+03  0.12699999809E+01 0. -1.
       -4    1    3    3    0  502 -0.54432043013E+03 -0.34153650403E+03  0.40042430880E+02  0.64384541888E+03  0.12699999809E+01 0.  1.
</event>
<event>
 5   0  0.2312105E-03  0.1311884E+04  0.7818609E-02  0.9020194E-01
       -2   -1    0    0    0  501  0.00000000000E+00  0.00000000000E+00  0.34460044851E+03  0.34460044852E+03  0.25500000920E-02 0. -1.
        2   -1    0    0  501    0  0.00000000000E+00  0.00000000000E+00 -0.12485763893E+04  0.12485763893E+04  0.25500000920E-02 0.  1.
    10030    2    1    2    0    0  0.00000000000E+00  0.00000000000E+00 -0.90397594078E+03  0.15931768378E+04  0.13118841165E+04 0.  0.
        5    1    3    3  502    0 -0.58071149847E+03 -0.96953591815E+01 -0.82217274435E+03  0.10066329798E+04  0.46999998093E+01 0.  1.
       -5    1    3    3    0  502  0.58071149847E+03  0.96953591815E+01 -0.81803196432E+02  0.58654385803E+03  0.46999998093E+01 0. -1.
</event>
<event>
 5   0  0.2478236E-03  0.1334440E+04  0.7818609E-02  0.9002691E-01
       -2   -1    0    0    0  501  0.00000000000E+00  0.00000000000E+00  0.34231881923E+03  0.34231881924E+03  0.25500000920E-02 0.  1.
        2   -1    0    0  501    0  0.00000000000E+00  0.00000000000E+00 -0.13004904952E+04  0.13004904952E+04  0.25500000920E-02 0. -1.
    10030    2    1    2    0    0  0.00000000000E+00  0.00000000000E+00 -0.95817167602E+03  0.16428093145E+04  0.13344397637E+04 0.  0.
        3    1    3    3  502    0 -0.28107476622E+03  0.14669577707E+03 -0.12018280583E+04  0.12429454401E+04  0.10100000352E+00 0. -1.
       -3    1    3    3    0  502  0.28107476622E+03 -0.14669577707E+03  0.24365638226E+03  0.39986387438E+03  0.10100000352E+00 0.  1.
</event>
<event>
 5   0  0.2401211E-03  0.1283729E+04  0.7818609E-02  0.9042569E-01
        2   -1    0    0  501    0  0.00000000000E+00  0.00000000000E+00  0.15640079883E+04  0.15640079883E+04  0.25500000920E-02 0. -1.
       -2   -1    0    0    0  501  0.00000000000E+00  0.00000000000E+00 -0.26341933786E+03  0.26341933787E+03  0.25500000920E-02 0.  1.
    10030    2    1    2    0    0  0.00000000000E+00  0.00000000000E+00  0.13005886504E+04  0.18274273261E+04  0.12837288634E+04 0.  0.
        4    1    3    3  502    0  0.52582891864E+03  0.19802989465E+03  0.20859490271E+03  0.59935410000E+03  0.12699999809E+01 0.  1.
       -4    1    3    3    0  502 -0.52582891864E+03 -0.19802989465E+03  0.10919937477E+04  0.12280732261E+04  0.12699999809E+01 0. -1.
</event>
<event>
 5   0  0.2361043E-03  0.1293379E+04  0.7818609E-02  0.9034832E-01
       -2   -1    0    0    0  501  0.00000000000E+00  0.00000000000E+00  0.24719472553E+03  0.24719472554E+03  0.25500000920E-02 0. -1.
        2   -1    0    0  501    0  0.00000000000E+00  0.00000000000E+00 -0.16918129407E+04  0.16918129407E+04  0.25500000920E-02 0.  1.
    10030    2    1    2    0    0  0.00000000000E+00  0.00000000000E+00 -0.14446182151E+04  0.19390076662E+04  0.12933788858E+04 0.  0.
        2    1    3    3  502    0  0.50555742912E+03  0.39594941642E+03 -0.60771270164E+03  0.88412611218E+03  0.25500000920E-02 0.  1.
       -2    1    3    3    0  502 -0.50555742912E+03 -0.39594941642E+03 -0.83690551351E+03  0.10548815540E+04  0.25500000920E-02 0. -1.
</event>
<event>
 5   0  0.2361043E-03  0.1304888E+04  0.7818609E-02  0.9025698E-01
        2   -1    0    0  501    0  0.00000000000E+00  0.00000000000E+00  0.13584186386E+04  0.13584186386E+04  0.25500000920E-02 0.  1.
       -2   -1    0    0    0  501  0.00000000000E+00  0.00000000000E+00 -0.31336669376E+03  0.31336669377E+03  0.25500000920E-02 0. -1.
    10030    2    1    2    0    0  0.00000000000E+00  0.00000000000E+00  0.10450519449E+04  0.16717853324E+04  0.13048879761E+04 0.  0.
        2    1    3    3  502    0 -0.21775789448E+03  0.58421845439E+03  0.76880918094E+03  0.98984708908E+03  0.25500000920E-02 0.  1.
       -2    1    3    3    0  502  0.21775789448E+03 -0.58421845439E+03  0.27624276392E+03  0.68193824331E+03  0.25500000920E-02 0. -1.
</event>
<event>
 5   0  0.2361043E-03  0.1450352E+04  0.7818609E-02  0.8918156E-01
        2   -1    0    0  501    0  0.00000000000E+00  0.00000000000E+00  0.93790182158E+03  0.93790182159E+03  0.25500000920E-02 0.  1.
       -2   -1    0    0    0  501  0.00000000000E+00  0.00000000000E+00 -0.56069897183E+03  0.56069897184E+03  0.25500000920E-02 0. -1.
    10030    2    1    2    0    0  0.00000000000E+00  0.00000000000E+00  0.37720284975E+03  0.14986007934E+04  0.14503524910E+04 0.  0.
        2    1    3    3  502    0  0.32663259925E+03  0.44766900166E+03  0.67190540062E+03  0.87094962961E+03  0.25500000920E-02 0.  1.
       -2    1    3    3    0  502 -0.32663259925E+03 -0.44766900166E+03 -0.29470255087E+03  0.62765116381E+03  0.25500000920E-02 0. -1.
</event>
<event>
 5   0  0.2478236E-03  0.1288763E+04  0.7818609E-02  0.9038524E-01
       -2   -1    0    0    0  501  0.00000000000E+00  0.00000000000E+00  0.11687609466E+04  0.11687609466E+04  0.25500000920E-02 0.  1.
        2   -1    0    0  501    0  0.00000000000E+00  0.00000000000E+00 -0.35527158470E+03  0.35527158470E+03  0.25500000920E-02 0. -1.
    10030    2    1    2    0    0  0.00000000000E+00  0.00000000000E+00  0.81348936187E+03  0.15240325313E+04  0.12887630560E+04 0.  0.
        3    1    3    3  502    0 -0.17198649577E+03 -0.32725436404E+03  0.10308744536E+04  0.10951606835E+04  0.10100000352E+00 0.  1.
       -3    1    3    3    0  502  0.17198649577E+03  0.32725436404E+03 -0.21738509169E+03  0.42887184776E+03  0.10100000352E+00 0. -1.
</event>
<event>
 5   0  0.2401211E-03  0.1292381E+04  0.7818609E-02  0.9035629E-01
       -2   -1    0    0    0  501  0.00000000000E+00  0.00000000000E+00  0.18280029643E+04  0.18280029643E+04  0.25500000920E-02 0.  1.
        2   -1    0    0  501    0  0.00000000000E+00  0.00000000000E+00 -0.22842522025E+03  0.22842522027E+03  0.25500000920E-02 0. -1.
    10030    2    1    2    0    0  0.00000000000E+00  0.00000000000E+00  0.15995777441E+04  0.20564281846E+04  0.12923807175E+04 0.  0.
        4    1    3    3  502    0 -0.18433013352E+03  0.84486138139E+02 -0.17648971594E+03  0.26882287550E+03  0.12699999809E+01 0. -1.
       -4    1    3    3    0  502  0.18433013352E+03 -0.84486138139E+02  0.17760674600E+04  0.17876053091E+04  0.12699999809E+01 0.  1.
</event>
<event>
 5   0  0.2334946E-03  0.1308881E+04  0.7818609E-02  0.9022552E-01
        2   -1    0    0  501    0  0.00000000000E+00  0.00000000000E+00  0.23103890390E+04  0.23103890390E+04  0.25500000920E-02 0.  1.
       -2   -1    0    0    0  501  0.00000000000E+00  0.00000000000E+00 -0.18537662160E+03  0.18537662162E+03  0.25500000920E-02 0. -1.
    10030    2    1    2    0    0  0.00000000000E+00  0.00000000000E+00  0.21250124174E+04  0.24957656606E+04  0.13088806128E+04 0.  0.
        1    1    3    3  502    0  0.23579001950E+03 -0.33033227122E+03  0.20414471986E+04  0.20813992907E+04  0.50400001928E-02 0.  1.
       -1    1    3    3    0  502 -0.23579001950E+03  0.33033227122E+03  0.83565218831E+02  0.41436636993E+03  0.50400001928E-02 0. -1.
</event>
<event>
 5   0  0.1324721E-03  0.1315053E+04  0.7818609E-02  0.9017713E-01
        1   -1    0    0  501    0  0.00000000000E+00  0.00000000000E+00  0.71426891276E+03  0.71426891278E+03  0.50400001928E-02 0.  1.
       -1   -1    0    0    0  501  0.00000000000E+00  0.00000000000E+00 -0.60529145582E+03  0.60529145584E+03  0.50400001928E-02 0. -1.
    10030    2    1    2    0    0  0.00000000000E+00  0.00000000000E+00  0.10897745695E+03  0.13195603686E+04  0.13150526531E+04 0.  0.
        1    1    3    3  502    0 -0.39710284024E+03  0.38710751286E+03  0.40896722572E+03  0.68905521112E+03  0.50400001928E-02 0.  1.
       -1    1    3    3    0  502  0.39710284024E+03 -0.38710751286E+03 -0.29998976878E+03  0.63050515750E+03  0.50400001928E-02 0. -1.
</event>
<event>
 5   0  0.1387622E-03  0.1307614E+04  0.7818609E-02  0.9023549E-01
       -1   -1    0    0    0  501  0.00000000000E+00  0.00000000000E+00  0.11086953083E+04  0.11086953083E+04  0.50400001928E-02 0.  1.
        1   -1    0    0  501    0  0.00000000000E+00  0.00000000000E+00 -0.38555543567E+03  0.38555543571E+03  0.50400001928E-02 0. -1.
    10030    2    1    2    0    0  0.00000000000E+00  0.00000000000E+00  0.72313987264E+03  0.14942507440E+04  0.13076138614E+04 0.  0.
        3    1    3    3  502    0  0.10852074537E+03  0.31243673736E+02 -0.37432619368E+03  0.39098980652E+03  0.10100000352E+00 0. -1.
       -3    1    3    3    0  502 -0.10852074537E+03 -0.31243673736E+02  0.10974660663E+04  0.11032609375E+04  0.10100000352E+00 0.  1.
</event>
<event>
 5   0  0.1324721E-03  0.1298711E+04  0.7818609E-02  0.9030588E-01
        1   -1    0    0  501    0  0.00000000000E+00  0.00000000000E+00  0.12038545213E+04  0.12038545213E+04  0.50400001928E-02 0.  1.
       -1   -1    0    0    0  501  0.00000000000E+00  0.00000000000E+00 -0.35026044705E+03  0.35026044708E+03  0.50400001928E-02 0. -1.
    10030    2    1    2    0    0  0.00000000000E+00  0.00000000000E+00  0.85359407428E+03  0.15541149684E+04  0.12987110885E+04 0.  0.
        1    1    3    3  502    0 -0.29907910162E+03 -0.56019109987E+03  0.58912091255E+03  0.86621349968E+03  0.50400001928E-02 0.  1.
       -1    1    3    3    0  502  0.29907910162E+03  0.56019109987E+03  0.26447316173E+03  0.68790146874E+03  0.50400001928E-02 0. -1.
</event>
<event>
 5   0  0.2401211E-03  0.1302523E+04  0.7818609E-02  0.9027567E-01
        2   -1    0    0  501    0  0.00000000000E+00  0.00000000000E+00  0.83733707361E+03  0.83733707361E+03  0.25500000920E-02 0.  1.
       -2   -1    0    0    0  501  0.00000000000E+00  0.00000000000E+00 -0.50653637106E+03  0.50653637107E+03  0.25500000920E-02 0. -1.
    10030    2    1    2    0    0  0.00000000000E+00  0.00000000000E+00  0.33080070255E+03  0.13438734447E+04  0.13025232169E+04 0.  0.
        4    1    3    3  502    0  0.56249292709E+03  0.89332823482E+02  0.49127773242E+03  0.75215295629E+03  0.12699999809E+01 0.  1.
       -4    1    3    3    0  502 -0.56249292709E+03 -0.89332823482E+02 -0.16047702988E+03  0.59172048840E+03  0.12699999809E+01 0. -1.
</event>
<event>
 5   0  0.2361043E-03  0.1311856E+04  0.7818609E-02  0.9020216E-01
        2   -1    0    0  501    0  0.00000000000E+00  0.00000000000E+00  0.10429817199E+04  0.10429817200E+04  0.25500000920E-02 0.  1.
       -2   -1    0    0    0  501  0.00000000000E+00  0.00000000000E+00 -0.41251128891E+03  0.41251128892E+03  0.25500000920E-02 0. -1.
    10030    2    1    2    0    0  0.00000000000E+00  0.00000000000E+00  0.63047043103E+03  0.14554930089E+04  0.13118562934E+04 0.  0.
        2    1    3    3  502    0  0.58721061668E+03  0.14141147055E+03  0.59903131196E+03  0.85067739188E+03  0.25500000920E-02 0.  1.
       -2    1    3    3    0  502 -0.58721061668E+03 -0.14141147055E+03  0.31439119074E+02  0.60481561699E+03  0.25500000920E-02 0. -1.
</event>
<event>
 5   0  0.2361043E-03  0.1306409E+04  0.7818609E-02  0.9024498E-01
        2   -1    0    0  501    0  0.00000000000E+00  0.00000000000E+00  0.62078745267E+03  0.62078745268E+03  0.25500000920E-02 0. -1.
       -2   -1    0    0    0  501  0.00000000000E+00  0.00000000000E+00 -0.68731434603E+03  0.68731434604E+03  0.25500000920E-02 0.  1.
    10030    2    1    2    0    0  0.00000000000E+00  0.00000000000E+00 -0.66526893357E+02  0.13081017987E+04  0.13064090050E+04 0.  0.
        2    1    3    3  502    0 -0.53700200584E+03 -0.14339696742E+03  0.31031712159E+03  0.63657722273E+03  0.25500000920E-02 0.  1.
       -2    1    3    3    0  502  0.53700200584E+03  0.14339696742E+03 -0.37684401495E+03  0.67152457598E+03  0.25500000920E-02 0. -1.
</event>
<event>
 5   0  0.2334946E-03  0.1301163E+04  0.7818609E-02  0.9028644E-01
        2   -1    0    0  501    0  0.00000000000E+00  0.00000000000E+00  0.22298188433E+04  0.22298188433E+04  0.25500000920E-02 0.  1.
       -2   -1    0    0    0  501  0.00000000000E+00  0.00000000000E+00 -0.18981633721E+03  0.18981633723E+03  0.25500000920E-02 0. -1.
    10030    2    1    2    0    0  0.00000000000E+00  0.00000000000E+00  0.20400025061E+04  0.24196351805E+04  0.13011626270E+04 0.  0.
        1    1    3    3  502    0 -0.23853425727E+03 -0.60419826374E+03  0.95290333099E+03  0.11532471080E+04  0.50400001928E-02 0. -1.
       -1    1    3    3    0  502  0.23853425727E+03  0.60419826374E+03  0.10870991751E+04  0.12663880726E+04  0.50400001928E-02 0.  1.
</event>
<event>
 5   0  0.2312105E-03  0.1289285E+04  0.7818609E-02  0.9038106E-01
       -2   -1    0    0    0  501  0.00000000000E+00  0.00000000000E+00  0.34760430248E+03  0.34760430249E+03  0.25500000920E-02 0. -1.
        2   -1    0    0  501    0  0.00000000000E+00  0.00000000000E+00 -0.11955082304E+04  0.11955082304E+04  0.25500000920E-02 0.  1.
    10030    2    1    2    0    0  0.00000000000E+00  0.00000000000E+00 -0.84790392792E+03  0.15431125329E+04  0.12892847700E+04 0.  0.
        5    1    3    3  502    0 -0.34002696338E+03  0.29565868512E+03  0.12779218651E+03  0.46838587387E+03  0.46999998093E+01 0. -1.
       -5    1    3    3    0  502  0.34002696338E+03 -0.29565868512E+03 -0.97569611443E+03  0.10747266590E+04  0.46999998093E+01 0.  1.
</event>
<event>
 5   0  0.1346593E-03  0.1419944E+04  0.7818609E-02  0.8939507E-01
        1   -1    0    0  501    0  0.00000000000E+00  0.00000000000E+00  0.80014122366E+03  0.80014122368E+03  0.50400001928E-02 0. -1.
       -1   -1    0    0    0  501  0.00000000000E+00  0.00000000000E+00 -0.62996448182E+03  0.62996448184E+03  0.50400001928E-02 0.  1.
    10030    2    1    2    0    0  0.00000000000E+00  0.00000000000E+00  0.17017674184E+03  0.14301057055E+04  0.14199444375E+04 0.  0.
        2    1    3    3  502    0 -0.64277875585E+03 -0.27194744963E+03 -0.45999126605E+02  0.69945397560E+03  0.25500000920E-02 0.  1.
       -2    1    3    3    0  502  0.64277875585E+03  0.27194744963E+03  0.21617586845E+03  0.73065172992E+03  0.25500000920E-02 0. -1.
</event>
<event>
 5   0  0.1387622E-03  0.1294941E+04  0.7818609E-02  0.9033587E-01
        1   -1    0    0  501    0  0.00000000000E+00  0.00000000000E+00  0.11113389191E+04  0.11113389191E+04  0.50400001928E-02 0. -1.
       -1   -1    0    0    0  501  0.00000000000E+00  0.00000000000E+00 -0.37721876167E+03  0.37721876170E+03  0.50400001928E-02 0.  1.
    10030    2    1    2    0    0  0.00000000000E+00  0.00000000000E+00  0.73412015740E+03  0.14885576808E+04  0.12949407568E+04 0.  0.
        3    1    3    3  502    0  0.12031042481E+03 -0.35748161397E+03 -0.23788589743E+03  0.44593431472E+03  0.10100000352E+00 0.  1.
       -3    1    3    3    0  502 -0.12031042481E+03  0.35748161397E+03  0.97200605483E+03  0.10426233661E+04  0.10100000352E+00 0. -1.
</event>
<event>
 5   0  0.1324721E-03  0.1307140E+04  0.7818609E-02  0.9023922E-01
       -1   -1    0    0    0  501  0.00000000000E+00  0.00000000000E+00  0.39559191431E+03  0.39559191434E+03  0.50400001928E-02 0. -1.
        1   -1    0    0  501    0  0.00000000000E+00  0.00000000000E+00 -0.10797840419E+04  0.10797840420E+04  0.50400001928E-02 0.  1.
    10030    2    1    2    0    0  0.00000000000E+00  0.00000000000E+00 -0.68419212763E+03  0.14753759563E+04  0.13071401397E+04 0.  0.
        1    1    3    3  502    0 -0.76734479669E+02  0.62378334778E+03 -0.54450911375E+03  0.83155518176E+03  0.50400001928E-02 0.  1.
       -1    1    3    3    0  502  0.76734479669E+02 -0.62378334778E+03 -0.13968301388E+03  0.64382077454E+03  0.50400001928E-02 0. -1.
</event>
<event>
 5   0  0.1346593E-03  0.1303170E+04  0.7818609E-02  0.9027055E-01
       -1   -1    0    0    0  501  0.00000000000E+00  0.00000000000E+00  0.68335763718E+03  0.68335763720E+03  0.50400001928E-02 0.  1.
        1   -1    0    0  501    0  0.00000000000E+00  0.00000000000E+00 -0.62128971211E+03  0.62128971213E+03  0.50400001928E-02 0. -1.
    10030    2    1    2    0    0  0.00000000000E+00  0.00000000000E+00  0.62067925077E+02  0.13046473493E+04  0.13031700882E+04 0.  0.
        2    1    3    3  502    0  0.19655028053E+02  0.14254374984E+03  0.66725260978E+03  0.68259144883E+03  0.25500000920E-02 0.  1.
       -2    1    3    3    0  502 -0.19655028053E+02 -0.14254374984E+03 -0.60518468470E+03  0.62205590050E+03  0.25500000920E-02 0. -1.
</event>
<event>
 5   0  0.2478236E-03  0.1270929E+04  0.7818609E-02  0.9052942E-01
       -2   -1    0    0    0  501  0.00000000000E+00  0.00000000000E+00  0.44194118294E+03  0.44194118295E+03  0.25500000920E-02 0. -1.
        2   -1    0    0  501    0  0.00000000000E+00  0.00000000000E+00 -0.91373048462E+03  0.91373048462E+03  0.25500000920E-02 0.  1.
    10030    2    1    2    0    0  0.00000000000E+00  0.00000000000E+00 -0.47178930167E+03  0.13556716676E+04  0.12709290008E+04 0.  0.
        3    1    3    3  502    0 -0.25332526707E+03 -0.28297567453E+03 -0.77934177847E+03  0.86696167227E+03  0.10100000352E+00 0.  1.
       -3    1    3    3    0  502  0.25332526707E+03  0.28297567453E+03  0.30755247680E+03  0.48870999530E+03  0.10100000352E+00 0. -1.
</event>
<event>
 5   0  0.1346593E-03  0.1295973E+04  0.7818609E-02  0.9032765E-01
       -1   -1    0    0    0  501  0.00000000000E+00  0.00000000000E+00  0.61409474528E+03  0.61409474530E+03  0.50400001928E-02 0. -1.
        1   -1    0    0  501    0  0.00000000000E+00  0.00000000000E+00 -0.68374882428E+03  0.68374882429E+03  0.50400001928E-02 0.  1.
    10030    2    1    2    0    0  0.00000000000E+00  0.00000000000E+00 -0.69654078999E+02  0.12978435696E+04  0.12959730863E+04 0.  0.
        2    1    3    3  502    0 -0.28379449583E+03 -0.50485872222E+03  0.25622090827E+03  0.63330150727E+03  0.25500000920E-02 0. -1.
       -2    1    3    3    0  502  0.28379449583E+03  0.50485872222E+03 -0.32587498727E+03  0.66454206232E+03  0.25500000920E-02 0.  1.
</event>
<event>
 5   0  0.2312105E-03  0.1297286E+04  0.7818609E-02  0.9031720E-01
       -2   -1    0    0    0  501  0.00000000000E+00  0.00000000000E+00  0.41520856150E+03  0.41520856151E+03  0.25500000920E-02 0.  1.
        2   -1    0    0  501    0  0.00000000000E+00  0.00000000000E+00 -0.10133166943E+04  0.10133166943E+04  0.25500000920E-02 0. -1.
    10030    2    1    2    0    0  0.00000000000E+00  0.00000000000E+00 -0.59810813278E+03  0.14285252558E+04  0.12972860394E+04 0.  0.
        5    1    3    3  502    0 -0.41148063614E+03 -0.67333382633E+02 -0.84617388649E+03  0.94333580156E+03  0.46999998093E+01 0. -1.
       -5    1    3    3    0  502  0.41148063614E+03  0.67333382633E+02  0.24806575371E+03  0.48518945423E+03  0.46999998093E+01 0.  1.
</event>
<event>
 5   0  0.2334946E-03  0.1103243E+04  0.7818609E-02  0.9202037E-01
        2   -1    0    0  501    0  0.00000000000E+00  0.00000000000E+00  0.21061697400E+04  0.21061697400E+04  0.25500000920E-02 0.  1.
       -2   -1    0    0    0  501  0.00000000000E+00  0.00000000000E+00 -0.14447366665E+03  0.14447366668E+03  0.25500000920E-02 0. -1.
    10030    2    1    2    0    0  0.00000000000E+00  0.00000000000E+00  0.19616960733E+04  0.22506434067E+04  0.11032426115E+04 0.  0.
        1    1    3    3  502    0 -0.36311334280E+03  0.38531130488E+03  0.12966896503E+04  0.14006142047E+04  0.50400001928E-02 0.  1.
       -1    1    3    3    0  502  0.36311334280E+03 -0.38531130488E+03  0.66500642309E+03  0.85002920195E+03  0.50400001928E-02 0. -1.
</event>
<event>
 5   0  0.1332630E-03  0.1311887E+04  0.7818609E-02  0.9020191E-01
       -1   -1    0    0    0  501  0.00000000000E+00  0.00000000000E+00  0.14224699078E+04  0.14224699078E+04  0.50400001928E-02 0.  1.
        1   -1    0    0  501    0  0.00000000000E+00  0.00000000000E+00 -0.30247541149E+03  0.30247541153E+03  0.50400001928E-02 0. -1.
    10030    2    1    2    0    0  0.00000000000E+00  0.00000000000E+00  0.11199944963E+04  0.17249453194E+04  0.13118874506E+04 0.  0.
        5    1    3    3  502    0  0.60891126780E+03 -0.17114205869E+03  0.78841018821E+03  0.10107795265E+04  0.46999998093E+01 0.  1.
       -5    1    3    3    0  502 -0.60891126780E+03  0.17114205869E+03  0.33158430812E+03  0.71416579286E+03  0.46999998093E+01 0. -1.
</event>
<event>
 5   0  0.1387622E-03  0.1288305E+04  0.7818609E-02  0.9038891E-01
        1   -1    0    0  501    0  0.00000000000E+00  0.00000000000E+00  0.81106470163E+03  0.81106470165E+03  0.50400001928E-02 0. -1.
       -1   -1    0    0    0  501  0.00000000000E+00  0.00000000000E+00 -0.51159009427E+03  0.51159009429E+03  0.50400001928E-02 0.  1.
    10030    2    1    2    0    0  0.00000000000E+00  0.00000000000E+00  0.29947460737E+03  0.13226547959E+04  0.12883053476E+04 0.  0.
        3    1    3    3  502    0  0.61359568473E+03 -0.61384440706E+02  0.34088670731E+03  0.70460731709E+03  0.10100000352E+00 0. -1.
       -3    1    3    3    0  502 -0.61359568473E+03  0.61384440706E+02 -0.41412099945E+02  0.61804747884E+03  0.10100000352E+00 0.  1.
</event>
<event>
 5   0  0.1310461E-03  0.1292037E+04  0.7818609E-02  0.9035904E-01
        1   -1    0    0  501    0  0.00000000000E+00  0.00000000000E+00  0.16537782409E+04  0.16537782409E+04  0.50400001928E-02 0.  1.
       -1   -1    0    0    0  501  0.00000000000E+00  0.00000000000E+00 -0.25235534412E+03  0.25235534417E+03  0.50400001928E-02 0. -1.
    10030    2    1    2    0    0  0.00000000000E+00  0.00000000000E+00  0.14014228967E+04  0.19061335850E+04  0.12920368062E+04 0.  0.
        4    1    3    3  502    0  0.38259180989E+03 -0.11353341012E+03  0.14501719573E+04  0.15040833245E+04  0.12699999809E+01 0.  1.
       -4    1    3    3    0  502 -0.38259180989E+03  0.11353341012E+03 -0.48749060602E+02  0.40205026056E+03  0.12699999809E+01 0. -1.
</event>
<event>
 5   0  0.1332630E-03  0.1302852E+04  0.7818609E-02  0.9027307E-01
       -1   -1    0    0    0  501  0.00000000000E+00  0.00000000000E+00  0.36812913463E+03  0.36812913466E+03  0.50400001928E-02 0. -1.
        1   -1    0    0  501    0  0.00000000000E+00  0.00000000000E+00 -0.11527357672E+04  0.11527357673E+04  0.50400001928E-02 0.  1.
    10030    2    1    2    0    0  0.00000000000E+00  0.00000000000E+00 -0.78460663262E+03  0.15208649019E+04  0.13028516730E+04 0.  0.
        5    1    3    3  502    0 -0.62708258685E+03 -0.17574090232E+03 -0.37514328694E+03  0.75157967723E+03  0.46999998093E+01 0. -1.
       -5    1    3    3    0  502  0.62708258685E+03  0.17574090232E+03 -0.40946334568E+03  0.76928522469E+03  0.46999998093E+01 0.  1.
</event>
<event>
 5   0  0.2361043E-03  0.1316802E+04  0.7818609E-02  0.9016346E-01
        2   -1    0    0  501    0  0.00000000000E+00  0.00000000000E+00  0.37692518691E+03  0.37692518692E+03  0.25500000920E-02 0.  1.
       -2   -1    0    0    0  501  0.00000000000E+00  0.00000000000E+00 -0.11500735064E+04  0.11500735064E+04  0.25500000920E-02 0. -1.
    10030    2    1    2    0    0  0.00000000000E+00  0.00000000000E+00 -0.77314831953E+03  0.15269986934E+04  0.13168016880E+04 0.  0.
        2    1    3    3  502    0 -0.19785893352E+02 -0.63180625523E+03 -0.17299793450E+03  0.65536166433E+03  0.25500000920E-02 0.  1.
       -2    1    3    3    0  502  0.19785893352E+02  0.63180625523E+03 -0.60015038503E+03  0.87163702903E+03  0.25500000920E-02 0. -1.
</event>
<event>
 5   0  0.1346593E-03  0.1298892E+04  0.7818609E-02  0.9030445E-01
        1   -1    0    0  501    0  0.00000000000E+00  0.00000000000E+00  0.17104333724E+04  0.17104333724E+04  0.50400001928E-02 0. -1.
       -1   -1    0    0    0  501  0.00000000000E+00  0.00000000000E+00 -0.24659239345E+03  0.24659239350E+03  0.50400001928E-02 0.  1.
    10030    2    1    2    0    0  0.00000000000E+00  0.00000000000E+00  0.14638409789E+04  0.19570257659E+04  0.12988916186E+04 0.  0.
        2    1    3    3  502    0  0.33560731401E+03 -0.21882672202E+02  0.15690062470E+04  0.16046469156E+04  0.25500000920E-02 0. -1.
       -2    1    3    3    0  502 -0.33560731401E+03  0.21882672202E+02 -0.10516526804E+03  0.35237885034E+03  0.25500000920E-02 0.  1.
</event>
<event>
 5   0  0.2312105E-03  0.9982427E+03  0.7818609E-02  0.9310474E-01
        2   -1    0    0  501    0  0.00000000000E+00  0.00000000000E+00  0.13991182336E+04  0.13991182337E+04  0.25500000920E-02 0.  1.
       -2   -1    0    0    0  501  0.00000000000E+00  0.00000000000E+00 -0.17805650693E+03  0.17805650695E+03  0.25500000920E-02 0. -1.
    10030    2    1    2    0    0  0.00000000000E+00  0.00000000000E+00  0.12210617267E+04  0.15771747406E+04  0.99824266685E+03 0.  0.
        5    1    3    3  502    0  0.29860249305E+03 -0.35294405990E+03  0.90765856725E+03  0.10186260958E+04  0.46999998093E+01 0.  1.
       -5    1    3    3    0  502 -0.29860249305E+03  0.35294405990E+03  0.31340315947E+03  0.55854864483E+03  0.46999998093E+01 0. -1.
</event>
<event>
 5   0  0.1324721E-03  0.1304359E+04  0.7818609E-02  0.9026115E-01
       -1   -1    0    0    0  501  0.00000000000E+00  0.00000000000E+00  0.39616440245E+03  0.39616440248E+03  0.50400001928E-02 0. -1.
        1   -1    0    0  501    0  0.00000000000E+00  0.00000000000E+00 -0.10736406642E+04  0.10736406642E+04  0.50400001928E-02 0.  1.
    10030    2    1    2    0    0  0.00000000000E+00  0.00000000000E+00 -0.67747626172E+03  0.14698050667E+04  0.13043591717E+04 0.  0.
        1    1    3    3  502    0  0.96111158605E+02  0.48860182023E+03  0.13583325368E+03  0.51615866395E+03  0.50400001928E-02 0. -1.
       -1    1    3    3    0  502 -0.96111158605E+02 -0.48860182023E+03 -0.81330951540E+03  0.95364640271E+03  0.50400001928E-02 0.  1.
</event>
<event>
 5   0  0.2478236E-03  0.1294878E+04  0.7818609E-02  0.9033637E-01
        2   -1    0    0  501    0  0.00000000000E+00  0.00000000000E+00  0.13237216036E+04  0.13237216036E+04  0.25500000920E-02 0.  1.
       -2   -1    0    0    0  501  0.00000000000E+00  0.00000000000E+00 -0.31666574518E+03  0.31666574519E+03  0.25500000920E-02 0. -1.
    10030    2    1    2    0    0  0.00000000000E+00  0.00000000000E+00  0.10070558584E+04  0.16403873487E+04  0.12948780452E+04 0.  0.
        3    1    3    3  502    0 -0.51214456221E+03 -0.19093954048E+03  0.94315056857E+03  0.10900839261E+04  0.10100000352E+00 0.  1.
       -3    1    3    3    0  502  0.51214456221E+03  0.19093954048E+03  0.63905289806E+02  0.55030342266E+03  0.10100000352E+00 0. -1.
</event>
<event>
 5   0  0.2312105E-03  0.1357199E+04  0.7818609E-02  0.8985397E-01
       -2   -1    0    0    0  501  0.00000000000E+00  0.00000000000E+00  0.40073242487E+03  0.40073242488E+03  0.25500000920E-02 0.  1.
        2   -1    0    0  501    0  0.00000000000E+00  0.00000000000E+00 -0.11491387600E+04  0.11491387600E+04  0.25500000920E-02 0. -1.
    10030    2    1    2    0    0  0.00000000000E+00  0.00000000000E+00 -0.74840633514E+03  0.15498711849E+04  0.13571988238E+04 0.  0.
        5    1    3    3  502    0  0.39705769904E+03 -0.42080756075E+03  0.30737150811E+02  0.57939682601E+03  0.46999998093E+01 0.  1.
       -5    1    3    3    0  502 -0.39705769904E+03  0.42080756075E+03 -0.77914348596E+03  0.97047435889E+03  0.46999998093E+01 0. -1.
</event>
<event>
 5   0  0.2312105E-03  0.1286315E+04  0.7818609E-02  0.9040488E-01
       -2   -1    0    0    0  501  0.00000000000E+00  0.00000000000E+00  0.59471270611E+03  0.59471270611E+03  0.25500000920E-02 0.  1.
        2   -1    0    0  501    0  0.00000000000E+00  0.00000000000E+00 -0.69554847881E+03  0.69554847882E+03  0.25500000920E-02 0. -1.
    10030    2    1    2    0    0  0.00000000000E+00  0.00000000000E+00 -0.10083577271E+03  0.12902611849E+04  0.12863149196E+04 0.  0.
        5    1    3    3  502    0 -0.28567790901E+03  0.37751350204E+03 -0.48707064854E+03  0.67925563567E+03  0.46999998093E+01 0. -1.
       -5    1    3    3    0  502  0.28567790901E+03 -0.37751350204E+03  0.38623487583E+03  0.61100554926E+03  0.46999998093E+01 0.  1.
</event>
<event>
 5   0  0.2478236E-03  0.1320969E+04  0.7818609E-02  0.9013100E-01
       -2   -1    0    0    0  501  0.00000000000E+00  0.00000000000E+00  0.20290960039E+03  0.20290960040E+03  0.25500000920E-02 0.  1.
        2   -1    0    0  501    0  0.00000000000E+00  0.00000000000E+00 -0.21499205857E+04  0.21499205857E+04  0.25500000920E-02 0. -1.
    10030    2    1    2    0    0  0.00000000000E+00  0.00000000000E+00 -0.19470109853E+04  0.23528301861E+04  0.13209686248E+04 0.  0.
        3    1    3    3  502    0 -0.22685466786E+03 -0.38494441275E+03 -0.10714189294E+03  0.45948301020E+03  0.10100000352E+00 0.  1.
       -3    1    3    3    0  502  0.22685466786E+03  0.38494441275E+03 -0.18398690924E+04  0.18933471759E+04  0.10100000352E+00 0. -1.
</event>
<event>
 5   0  0.1324721E-03  0.1324924E+04  0.7818609E-02  0.9010031E-01
        1   -1    0    0  501    0  0.00000000000E+00  0.00000000000E+00  0.10426438787E+04  0.10426438787E+04  0.50400001928E-02 0.  1.
       -1   -1    0    0    0  501  0.00000000000E+00  0.00000000000E+00 -0.42090658148E+03  0.42090658151E+03  0.50400001928E-02 0. -1.
    10030    2    1    2    0    0  0.00000000000E+00  0.00000000000E+00  0.62173729721E+03  0.14635504602E+04  0.13249236517E+04 0.  0.
        1    1    3    3  502    0 -0.28666182013E+02 -0.20346948290E+03  0.10065524112E+04  0.10273117039E+04  0.50400001928E-02 0.  1.
       -1    1    3    3    0  502  0.28666182013E+02  0.20346948290E+03 -0.38481511403E+03  0.43623875627E+03  0.50400001928E-02 0. -1.
</event>
<event>
 5   0  0.1346593E-03  0.1309901E+04  0.7818609E-02  0.9021750E-01
       -1   -1    0    0    0  501  0.00000000000E+00  0.00000000000E+00  0.97091387650E+03  0.97091387652E+03  0.50400001928E-02 0. -1.
        1   -1    0    0  501    0  0.00000000000E+00  0.00000000000E+00 -0.44181103896E+03  0.44181103899E+03  0.50400001928E-02 0.  1.
    10030    2    1    2    0    0  0.00000000000E+00  0.00000000000E+00  0.52910283754E+03  0.14127249155E+04  0.13099014750E+04 0.  0.
        2    1    3    3  502    0 -0.44314786864E+03  0.44410857657E+03  0.61782473846E+02  0.63042012606E+03  0.25500000920E-02 0.  1.
       -2    1    3    3    0  502  0.44314786864E+03 -0.44410857657E+03  0.46732036370E+03  0.78230478945E+03  0.25500000920E-02 0. -1.
</event>
<event>
 5   0  0.1332630E-03  0.1307522E+04  0.7818609E-02  0.9023621E-01
        1   -1    0    0  501    0  0.00000000000E+00  0.00000000000E+00  0.87479551374E+03  0.87479551375E+03  0.50400001928E-02 0. -1.
       -1   -1    0    0    0  501  0.00000000000E+00  0.00000000000E+00 -0.48857535088E+03  0.48857535090E+03  0.50400001928E-02 0.  1.
    10030    2    1    2    0    0  0.00000000000E+00  0.00000000000E+00  0.38622016286E+03  0.13633708647E+04  0.13075221223E+04 0.  0.
        5    1    3    3  502    0 -0.12280019719E+03 -0.19832228124E+03 -0.44368809117E+03  0.50129116081E+03  0.46999998093E+01 0.  1.
       -5    1    3    3    0  502  0.12280019719E+03  0.19832228124E+03  0.82990825403E+03  0.86207970384E+03  0.46999998093E+01 0. -1.
</event>
<event>
 5   0  0.2361043E-03  0.1290511E+04  0.7818609E-02  0.9037124E-01
       -2   -1    0    0    0  501  0.00000000000E+00  0.00000000000E+00  0.19350505156E+03  0.19350505158E+03  0.25500000920E-02 0.  1.
        2   -1    0    0  501    0  0.00000000000E+00  0.00000000000E+00 -0.21516484425E+04  0.21516484425E+04  0.25500000920E-02 0. -1.
    10030    2    1    2    0    0  0.00000000000E+00  0.00000000000E+00 -0.19581433910E+04  0.23451534941E+04  0.12905112829E+04 0.  0.
        2    1    3    3  502    0 -0.61986444173E+03  0.11769579444E+03 -0.73343905858E+03  0.96747975627E+03  0.25500000920E-02 0. -1.
       -2    1    3    3    0  502  0.61986444173E+03 -0.11769579444E+03 -0.12247043324E+04  0.13776737378E+04  0.25500000920E-02 0.  1.
</event>
<event>
 5   0  0.1387622E-03  0.1270773E+04  0.7818609E-02  0.9053069E-01
        1   -1    0    0  501    0  0.00000000000E+00  0.00000000000E+00  0.99729307151E+03  0.99729307153E+03  0.50400001928E-02 0.  1.
       -1   -1    0    0    0  501  0.00000000000E+00  0.00000000000E+00 -0.40481172772E+03  0.40481172775E+03  0.50400001928E-02 0. -1.
    10030    2    1    2    0    0  0.00000000000E+00  0.00000000000E+00  0.59248134379E+03  0.14021047993E+04  0.12707728851E+04 0.  0.
        3    1    3    3  502    0  0.34230203757E+03 -0.90258816836E+02  0.87840561023E+03  0.94705531265E+03  0.10100000352E+00 0.  1.
       -3    1    3    3    0  502 -0.34230203757E+03  0.90258816836E+02 -0.28592426644E+03  0.45504948663E+03  0.10100000352E+00 0. -1.
</event>
<event>
 5   0  0.1310461E-03  0.1276479E+04  0.7818609E-02  0.9048429E-01
        1   -1    0    0  501    0  0.00000000000E+00  0.00000000000E+00  0.15454911123E+04  0.15454911123E+04  0.50400001928E-02 0. -1.
       -1   -1    0    0    0  501  0.00000000000E+00  0.00000000000E+00 -0.26357284111E+03  0.26357284116E+03  0.50400001928E-02 0.  1.
    10030    2    1    2    0    0  0.00000000000E+00  0.00000000000E+00  0.12819182711E+04  0.18090639534E+04  0.12764787243E+04 0.  0.
        4    1    3    3  502    0  0.40651776181E+03  0.59676792696E+02  0.13331274529E+04  0.13950083974E+04  0.12699999809E+01 0. -1.
       -4    1    3    3    0  502 -0.40651776181E+03 -0.59676792696E+02 -0.51209181782E+02  0.41405555600E+03  0.12699999809E+01 0.  1.
</event>
<event>
 5   0  0.2401211E-03  0.1343980E+04  0.7818609E-02  0.8995398E-01
        2   -1    0    0  501    0  0.00000000000E+00  0.00000000000E+00  0.15307671503E+04  0.15307671503E+04  0.25500000920E-02 0.  1.
       -2   -1    0    0    0  501  0.00000000000E+00  0.00000000000E+00 -0.29499615677E+03  0.29499615678E+03  0.25500000920E-02 0. -1.
    10030    2    1    2    0    0  0.00000000000E+00  0.00000000000E+00  0.12357709935E+04  0.18257633071E+04  0.13439798008E+04 0.  0.
        4    1    3    3  502    0 -0.54512632067E+03  0.11497213513E+03  0.11283315872E+04  0.12583779563E+04  0.12699999809E+01 0.  1.
       -4    1    3    3    0  502  0.54512632067E+03 -0.11497213513E+03  0.10743940635E+03  0.56738535078E+03  0.12699999809E+01 0. -1.
</event>
<event>
 5   0  0.9131250E-04  0.1287795E+04  0.7818609E-02  0.9039300E-01
       -3   -1    0    0    0  501  0.00000000000E+00  0.00000000000E+00  0.43127620222E+03  0.43127621405E+03  0.10100000352E+00 0.  1.
        3   -1    0    0  501    0  0.00000000000E+00  0.00000000000E+00 -0.96134197476E+03  0.96134198006E+03  0.10100000352E+00 0. -1.
    10030    2    1    2    0    0  0.00000000000E+00  0.00000000000E+00 -0.53006577254E+03  0.13926181941E+04  0.12877949027E+04 0.  0.
        5    1    3    3  502    0  0.38636068825E+03  0.13772526658E+03  0.27169227676E+03  0.49201789981E+03  0.46999998093E+01 0.  1.
       -5    1    3    3    0  502 -0.38636068825E+03 -0.13772526658E+03 -0.80175804930E+03  0.90060029430E+03  0.46999998093E+01 0. -1.
</event>
<event>
 5   0  0.1310461E-03  0.1327346E+04  0.7818609E-02  0.9008156E-01
        1   -1    0    0  501    0  0.00000000000E+00  0.00000000000E+00  0.12508950732E+04  0.12508950732E+04  0.50400001928E-02 0.  1.
       -1   -1    0    0    0  501  0.00000000000E+00  0.00000000000E+00 -0.35211752183E+03  0.35211752187E+03  0.50400001928E-02 0. -1.
    10030    2    1    2    0    0  0.00000000000E+00  0.00000000000E+00  0.89877755136E+03  0.16030125951E+04  0.13273463350E+04 0.  0.
        4    1    3    3  502    0 -0.19112330229E+03  0.63545472765E+03  0.43563853992E+03  0.79379681150E+03  0.12699999809E+01 0.  1.
       -4    1    3    3    0  502  0.19112330229E+03 -0.63545472765E+03  0.46313901144E+03  0.80921578358E+03  0.12699999809E+01 0. -1.
</event>
<event>
 5   0  0.1310461E-03  0.1296504E+04  0.7818609E-02  0.9032342E-01
        1   -1    0    0  501    0  0.00000000000E+00  0.00000000000E+00  0.57309694478E+03  0.57309694480E+03  0.50400001928E-02 0.  1.
       -1   -1    0    0    0  501  0.00000000000E+00  0.00000000000E+00 -0.73326278380E+03  0.73326278382E+03  0.50400001928E-02 0. -1.
    10030    2    1    2    0    0  0.00000000000E+00  0.00000000000E+00 -0.16016583902E+03  0.13063597286E+04  0.12965040087E+04 0.  0.
        4    1    3    3  502    0 -0.18670312519E+03 -0.24691569488E+03 -0.65397703698E+03  0.72354197883E+03  0.12699999809E+01 0. -1.
       -4    1    3    3    0  502  0.18670312519E+03  0.24691569488E+03  0.49381119796E+03  0.58281774978E+03  0.12699999809E+01 0.  1.
</event>
<event>
 5   0  0.1324721E-03  0.1349712E+04  0.7818609E-02  0.8991046E-01
        1   -1    0    0  501    0  0.00000000000E+00  0.00000000000E+00  0.12787074669E+04  0.12787074669E+04  0.50400001928E-02 0.  1.
       -1   -1    0    0    0  501  0.00000000000E+00  0.00000000000E+00 -0.35616466380E+03  0.35616466383E+03  0.50400001928E-02 0. -1.
    10030    2    1    2    0    0  0.00000000000E+00  0.00000000000E+00  0.92254280309E+03  0.16348721307E+04  0.13497116952E+04 0.  0.
        1    1    3    3  502    0 -0.15851981581E+03  0.40607311368E+03 -0.16274867816E+03  0.46530746601E+03  0.50400001928E-02 0. -1.
       -1    1    3    3    0  502  0.15851981581E+03 -0.40607311368E+03  0.10852914812E+04  0.11695646647E+04  0.50400001928E-02 0.  1.
</event>
<event>
 5   0  0.2334946E-03  0.1367615E+04  0.7818609E-02  0.8977600E-01
        2   -1    0    0  501    0  0.00000000000E+00  0.00000000000E+00  0.11512513811E+04  0.11512513811E+04  0.25500000920E-02 0.  1.
       -2   -1    0    0    0  501  0.00000000000E+00  0.00000000000E+00 -0.40616047167E+03  0.40616047168E+03  0.25500000920E-02 0. -1.
    10030    2    1    2    0    0  0.00000000000E+00  0.00000000000E+00  0.74509090942E+03  0.15574118528E+04  0.13676151564E+04 0.  0.
        1    1    3    3  502    0  0.10810686928E+03  0.56323450246E+03 -0.51521963183E+02  0.57582524490E+03  0.50400001928E-02 0. -1.
       -1    1    3    3    0  502 -0.10810686928E+03 -0.56323450246E+03  0.79661287261E+03  0.98158660788E+03  0.50400001928E-02 0.  1.
</event>
<event>
 5   0  0.1387622E-03  0.1291448E+04  0.7818609E-02  0.9036374E-01
       -1   -1    0    0    0  501  0.00000000000E+00  0.00000000000E+00  0.36012536370E+03  0.36012536374E+03  0.50400001928E-02 0. -1.
        1   -1    0    0  501    0  0.00000000000E+00  0.00000000000E+00 -0.11578184823E+04  0.11578184823E+04  0.50400001928E-02 0.  1.
    10030    2    1    2    0    0  0.00000000000E+00  0.00000000000E+00 -0.79769311855E+03  0.15179438460E+04  0.12914484923E+04 0.  0.
        3    1    3    3  502    0  0.21027477208E+03  0.22230872162E+03  0.26949276168E+03  0.40775360977E+03  0.10100000352E+00 0. -1.
       -3    1    3    3    0  502 -0.21027477208E+03 -0.22230872162E+03 -0.10671858802E+04  0.11101902362E+04  0.10100000352E+00 0.  1.
</event>
<event>
 5   0  0.2361043E-03  0.1304546E+04  0.7818609E-02  0.9025968E-01
       -2   -1    0    0    0  501  0.00000000000E+00  0.00000000000E+00  0.28895347271E+03  0.28895347272E+03  0.25500000920E-02 0.  1.
        2   -1    0    0  501    0  0.00000000000E+00  0.00000000000E+00 -0.14724173088E+04  0.14724173088E+04  0.25500000920E-02 0. -1.
    10030    2    1    2    0    0  0.00000000000E+00  0.00000000000E+00 -0.11834638361E+04  0.17613707815E+04  0.13045460431E+04 0.  0.
        2    1    3    3  502    0 -0.31923882355E+03 -0.26100956323E+03 -0.12741010946E+04  0.13391687787E+04  0.25500000920E-02 0. -1.
       -2    1    3    3    0  502  0.31923882355E+03  0.26100956323E+03  0.90637258511E+02  0.42220200283E+03  0.25500000920E-02 0.  1.
</event>
<event>
 5   0  0.2478236E-03  0.1301673E+04  0.7818609E-02  0.9028239E-01
        2   -1    0    0  501    0  0.00000000000E+00  0.00000000000E+00  0.25429274756E+04  0.25429274756E+04  0.25500000920E-02 0. -1.
       -2   -1    0    0    0  501  0.00000000000E+00  0.00000000000E+00 -0.16657501699E+03  0.16657501701E+03  0.25500000920E-02 0.  1.
    10030    2    1    2    0    0  0.00000000000E+00  0.00000000000E+00  0.23763524586E+04  0.27095024926E+04  0.13016730580E+04 0.  0.
        3    1    3    3  502    0  0.57286185079E+03  0.20505363803E+03  0.16690578785E+04  0.17765055323E+04  0.10100000352E+00 0. -1.
       -3    1    3    3    0  502 -0.57286185079E+03 -0.20505363803E+03  0.70729458013E+03  0.93299696025E+03  0.10100000352E+00 0.  1.
</event>
<event>
 5   0  0.9131250E-04  0.1307204E+04  0.7818609E-02  0.9023872E-01
        3   -1    0    0  501    0  0.00000000000E+00  0.00000000000E+00  0.19181107010E+04  0.19181107036E+04  0.10100000352E+00 0. -1.
       -3   -1    0    0    0  501  0.00000000000E+00  0.00000000000E+00 -0.22271683178E+03  0.22271685468E+03  0.10100000352E+00 0.  1.
    10030    2    1    2    0    0  0.00000000000E+00  0.00000000000E+00  0.16953938692E+04  0.21408275583E+04  0.13072039867E+04 0.  0.
        4    1    3    3  502    0  0.64122222854E+03  0.15738360999E+02  0.64196766036E+03  0.90748979731E+03  0.12699999809E+01 0.  1.
       -4    1    3    3    0  502 -0.64122222854E+03 -0.15738360999E+02  0.10534262088E+04  0.12333377610E+04  0.12699999809E+01 0. -1.
</event>
<event>
 5   0  0.1332630E-03  0.1293591E+04  0.7818609E-02  0.9034663E-01
        1   -1    0    0  501    0  0.00000000000E+00  0.00000000000E+00  0.11134754751E+04  0.11134754752E+04  0.50400001928E-02 0. -1.
       -1   -1    0    0    0  501  0.00000000000E+00  0.00000000000E+00 -0.37571072719E+03  0.37571072722E+03  0.50400001928E-02 0.  1.
    10030    2    1    2    0    0  0.00000000000E+00  0.00000000000E+00  0.73776474796E+03  0.14891862024E+04  0.12935914046E+04 0.  0.
        5    1    3    3  502    0  0.52513941590E+03  0.33341498456E+03  0.57282937557E+03  0.84563144548E+03  0.46999998093E+01 0. -1.
       -5    1    3    3    0  502 -0.52513941590E+03 -0.33341498456E+03  0.16493537239E+03  0.64355475690E+03  0.46999998093E+01 0.  1.
</event>
<event>
 5   0  0.2401211E-03  0.1308103E+04  0.7818609E-02  0.9023164E-01
        2   -1    0    0  501    0  0.00000000000E+00  0.00000000000E+00  0.64275854489E+03  0.64275854489E+03  0.25500000920E-02 0.  1.
       -2   -1    0    0    0  501  0.00000000000E+00  0.00000000000E+00 -0.66554271728E+03  0.66554271729E+03  0.25500000920E-02 0. -1.
    10030    2    1    2    0    0  0.00000000000E+00  0.00000000000E+00 -0.22784172398E+02  0.13083012622E+04  0.13081028530E+04 0.  0.
        4    1    3    3  502    0  0.66311912612E+01 -0.47288379793E+03 -0.46325547427E+03  0.66201986857E+03  0.12699999809E+01 0. -1.
       -4    1    3    3    0  502 -0.66311912612E+01  0.47288379793E+03  0.44047130188E+03  0.64628139360E+03  0.12699999809E+01 0.  1.
</event>
<event>
 5   0  0.2401211E-03  0.1288585E+04  0.7818609E-02  0.9038667E-01
       -2   -1    0    0    0  501  0.00000000000E+00  0.00000000000E+00  0.32313497213E+03  0.32313497214E+03  0.25500000920E-02 0.  1.
        2   -1    0    0  501    0  0.00000000000E+00  0.00000000000E+00 -0.12846419891E+04  0.12846419891E+04  0.25500000920E-02 0. -1.
    10030    2    1    2    0    0  0.00000000000E+00  0.00000000000E+00 -0.96150701696E+03  0.16077769612E+04  0.12885848879E+04 0.  0.
        4    1    3    3  502    0 -0.87435199774E+01  0.12877982628E+03 -0.12683430253E+04  0.12748946371E+04  0.12699999809E+01 0. -1.
       -4    1    3    3    0  502  0.87435199774E+01 -0.12877982628E+03  0.30683600839E+03  0.33288232417E+03  0.12699999809E+01 0.  1.
</event>
<event>
 5   0  0.2361043E-03  0.1072538E+04  0.7818609E-02  0.9232380E-01
        2   -1    0    0  501    0  0.00000000000E+00  0.00000000000E+00  0.10156937005E+04  0.10156937005E+04  0.25500000920E-02 0.  1.
       -2   -1    0    0    0  501  0.00000000000E+00  0.00000000000E+00 -0.28314077414E+03  0.28314077415E+03  0.25500000920E-02 0. -1.
    10030    2    1    2    0    0  0.00000000000E+00  0.00000000000E+00  0.73255292640E+03  0.12988344747E+04  0.10725377395E+04 0.  0.
        2    1    3    3  502    0  0.17076861462E+03  0.85925218366E+02 -0.24047667132E+03  0.30720366591E+03  0.25500000920E-02 0. -1.
       -2    1    3    3    0  502 -0.17076861462E+03 -0.85925218366E+02  0.97302959772E+03  0.99163080879E+03  0.25500000920E-02 0.  1.
</event>
<event>
 5   0  0.1387622E-03  0.1299101E+04  0.7818609E-02  0.9030278E-01
        1   -1    0    0  501    0  0.00000000000E+00  0.00000000000E+00  0.79051475301E+03  0.79051475303E+03  0.50400001928E-02 0.  1.
       -1   -1    0    0    0  501  0.00000000000E+00  0.00000000000E+00 -0.53372301718E+03  0.53372301720E+03  0.50400001928E-02 0. -1.
    10030    2    1    2    0    0  0.00000000000E+00  0.00000000000E+00  0.25679173583E+03  0.13242377702E+04  0.12991011033E+04 0.  0.
        3    1    3    3  502    0  0.30543648453E+03  0.56103452770E+03  0.24842276959E+03  0.68539409831E+03  0.10100000352E+00 0.  1.
       -3    1    3    3    0  502 -0.30543648453E+03 -0.56103452770E+03  0.83689662388E+01  0.63884367192E+03  0.10100000352E+00 0. -1.
</event>
<event>
 5   0  0.2478236E-03  0.1314828E+04  0.7818609E-02  0.9017888E-01
        2   -1    0    0  501    0  0.00000000000E+00  0.00000000000E+00  0.12157966807E+04  0.12157966807E+04  0.25500000920E-02 0. -1.
       -2   -1    0    0    0  501  0.00000000000E+00  0.00000000000E+00 -0.35548157125E+03  0.35548157126E+03  0.25500000920E-02 0.  1.
    10030    2    1    2    0    0  0.00000000000E+00  0.00000000000E+00  0.86031510944E+03  0.15712782520E+04  0.13148282236E+04 0.  0.
        3    1    3    3  502    0  0.47499416301E+03  0.21549553891E+03 -0.48062650496E+02  0.52380130847E+03  0.10100000352E+00 0.  1.
       -3    1    3    3    0  502 -0.47499416301E+03 -0.21549553891E+03  0.90837775993E+03  0.10474769435E+04  0.10100000352E+00 0. -1.
</event>
<event>
 5   0  0.1332630E-03  0.1303251E+04  0.7818609E-02  0.9026991E-01
        1   -1    0    0  501    0  0.00000000000E+00  0.00000000000E+00  0.50880203467E+03  0.50880203469E+03  0.50400001928E-02 0. -1.
       -1   -1    0    0    0  501  0.00000000000E+00  0.00000000000E+00 -0.83454002415E+03  0.83454002417E+03  0.50400001928E-02 0.  1.
    10030    2    1    2    0    0  0.00000000000E+00  0.00000000000E+00 -0.32573798948E+03  0.13433420589E+04  0.13032508006E+04 0.  0.
        5    1    3    3  502    0 -0.26847619710E+03 -0.39143033588E+03  0.29729044394E+03  0.56009005911E+03  0.46999998093E+01 0. -1.
       -5    1    3    3    0  502  0.26847619710E+03  0.39143033588E+03 -0.62302843342E+03  0.78325199975E+03  0.46999998093E+01 0.  1.
</event>
<event>
 5   0  0.1387622E-03  0.1224925E+04  0.7818609E-02  0.9091315E-01
        1   -1    0    0  501    0  0.00000000000E+00  0.00000000000E+00  0.25025344390E+04  0.25025344390E+04  0.50400001928E-02 0. -1.
       -1   -1    0    0    0  501  0.00000000000E+00  0.00000000000E+00 -0.14989210777E+03  0.14989210786E+03  0.50400001928E-02 0.  1.
    10030    2    1    2    0    0  0.00000000000E+00  0.00000000000E+00  0.23526423312E+04  0.26524265468E+04  0.12249247519E+04 0.  0.
        3    1    3    3  502    0  0.42258700808E+03  0.26851621547E+03  0.41249332470E+03  0.64871526149E+03  0.10100000352E+00 0.  1.
       -3    1    3    3    0  502 -0.42258700808E+03 -0.26851621547E+03  0.19401490065E+04  0.20037112854E+04  0.10100000352E+00 0. -1.
</event>
<event>
 5   0  0.1332630E-03  0.1170643E+04  0.7818609E-02  0.9138948E-01
        1   -1    0    0  501    0  0.00000000000E+00  0.00000000000E+00  0.94539666405E+03  0.94539666406E+03  0.50400001928E-02 0.  1.
       -1   -1    0    0    0  501  0.00000000000E+00  0.00000000000E+00 -0.36238862098E+03  0.36238862101E+03  0.50400001928E-02 0. -1.
    10030    2    1    2    0    0  0.00000000000E+00  0.00000000000E+00  0.58300804307E+03  0.13077852851E+04  0.11706425473E+04 0.  0.
        5    1    3    3  502    0 -0.42514157698E+02 -0.33252462807E+03 -0.24449462104E+03  0.41494552846E+03  0.46999998093E+01 0. -1.
       -5    1    3    3    0  502  0.42514157698E+02  0.33252462807E+03  0.82750266411E+03  0.89283975661E+03  0.46999998093E+01 0.  1.
</event>
<event>
 5   0  0.2401211E-03  0.1318114E+04  0.7818609E-02  0.9015323E-01
       -2   -1    0    0    0  501  0.00000000000E+00  0.00000000000E+00  0.23678595551E+03  0.23678595552E+03  0.25500000920E-02 0.  1.
        2   -1    0    0  501    0  0.00000000000E+00  0.00000000000E+00 -0.18343826347E+04  0.18343826347E+04  0.25500000920E-02 0. -1.
    10030    2    1    2    0    0  0.00000000000E+00  0.00000000000E+00 -0.15975966791E+04  0.20711685902E+04  0.13181138721E+04 0.  0.
        4    1    3    3  502    0 -0.54295815006E+03  0.37101178258E+03 -0.73028594136E+03  0.98273723069E+03  0.12699999809E+01 0.  1.
       -4    1    3    3    0  502  0.54295815006E+03 -0.37101178258E+03 -0.86731073779E+03  0.10884313595E+04  0.12699999809E+01 0. -1.
</event>
<event>
 5   0  0.1310461E-03  0.1297225E+04  0.7818609E-02  0.9031769E-01
        1   -1    0    0  501    0  0.00000000000E+00  0.00000000000E+00  0.38078657880E+03  0.38078657883E+03  0.50400001928E-02 0. -1.
       -1   -1    0    0    0  501  0.00000000000E+00  0.00000000000E+00 -0.11048129080E+04  0.11048129080E+04  0.50400001928E-02 0.  1.
    10030    2    1    2    0    0  0.00000000000E+00  0.00000000000E+00 -0.72402632916E+03  0.14855994868E+04  0.12972246181E+04 0.  0.
        4    1    3    3  502    0  0.26323808685E+03 -0.41521659855E+03 -0.84653089936E+03  0.97893579490E+03  0.12699999809E+01 0.  1.
       -4    1    3    3    0  502 -0.26323808685E+03  0.41521659855E+03  0.12250457019E+03  0.50666369191E+03  0.12699999809E+01 0. -1.
</event>
<event>
 5   0  0.1387622E-03  0.1299458E+04  0.7818609E-02  0.9029995E-01
       -1   -1    0    0    0  501  0.00000000000E+00  0.00000000000E+00  0.39306080563E+03  0.39306080566E+03  0.50400001928E-02 0.  1.
        1   -1    0    0  501    0  0.00000000000E+00  0.00000000000E+00 -0.10740011722E+04  0.10740011722E+04  0.50400001928E-02 0. -1.
    10030    2    1    2    0    0  0.00000000000E+00  0.00000000000E+00 -0.68094036658E+03  0.14670619779E+04  0.12994579886E+04 0.  0.
        3    1    3    3  502    0  0.54942612801E+03 -0.18745658012E+03 -0.66989003468E+03  0.88643200999E+03  0.10100000352E+00 0. -1.
       -3    1    3    3    0  502 -0.54942612801E+03  0.18745658012E+03 -0.11050331901E+02  0.58062996789E+03  0.10100000352E+00 0.  1.
</event>
<event>
 5   0  0.2361043E-03  0.1306494E+04  0.7818609E-02  0.9024431E-01
       -2   -1    0    0    0  501  0.00000000000E+00  0.00000000000E+00  0.24202899122E+03  0.24202899124E+03  0.25500000920E-02 0.  1.
        2   -1    0    0  501    0  0.00000000000E+00  0.00000000000E+00 -0.17631422361E+04  0.17631422361E+04  0.25500000920E-02 0. -1.
    10030    2    1    2    0    0  0.00000000000E+00  0.00000000000E+00 -0.15211132449E+04  0.20051712274E+04  0.13064938374E+04 0.  0.
        2    1    3    3  502    0  0.44576158607E+03  0.45896871319E+03 -0.55824663569E+03  0.84911423117E+03  0.25500000920E-02 0.  1.
       -2    1    3    3    0  502 -0.44576158607E+03 -0.45896871319E+03 -0.96286660920E+03  0.11560569962E+04  0.25500000920E-02 0. -1.
</event>
<event>
 5   0  0.1387622E-03  0.1286961E+04  0.7818609E-02  0.9039969E-01
       -1   -1    0    0    0  501  0.00000000000E+00  0.00000000000E+00  0.24288397121E+03  0.24288397127E+03  0.50400001928E-02 0. -1.
        1   -1    0    0  501    0  0.00000000000E+00  0.00000000000E+00 -0.17047951261E+04  0.17047951261E+04  0.50400001928E-02 0.  1.
    10030    2    1    2    0    0  0.00000000000E+00  0.00000000000E+00 -0.14619111549E+04  0.19476790974E+04  0.12869613986E+04 0.  0.
        3    1    3    3  502    0 -0.55806248466E+03  0.62009538735E+02 -0.25528637309E+03  0.61680634089E+03  0.10100000352E+00 0. -1.
       -3    1    3    3    0  502  0.55806248466E+03 -0.62009538735E+02 -0.12066247818E+04  0.13308727565E+04  0.10100000352E+00 0.  1.
</event>
<event>
 5   0  0.2401211E-03  0.1238053E+04  0.7818609E-02  0.9080185E-01
        2   -1    0    0  501    0  0.00000000000E+00  0.00000000000E+00  0.25166456282E+04  0.25166456282E+04  0.25500000920E-02 0.  1.
       -2   -1    0    0    0  501  0.00000000000E+00  0.00000000000E+00 -0.15226377839E+03  0.15226377841E+03  0.25500000920E-02 0. -1.
    10030    2    1    2    0    0  0.00000000000E+00  0.00000000000E+00  0.23643818498E+04  0.26689094066E+04  0.12380532658E+04 0.  0.
        4    1    3    3  502    0  0.18463277723E+03 -0.43468545984E+03  0.31949011024E+03  0.57018966570E+03  0.12699999809E+01 0. -1.
       -4    1    3    3    0  502 -0.18463277723E+03  0.43468545984E+03  0.20448917395E+04  0.20987197409E+04  0.12699999809E+01 0.  1.
</event>
<event>
 5   0  0.2334946E-03  0.1307779E+04  0.7818609E-02  0.9023419E-01
       -2   -1    0    0    0  501  0.00000000000E+00  0.00000000000E+00  0.36808788122E+03  0.36808788123E+03  0.25500000920E-02 0.  1.
        2   -1    0    0  501    0  0.00000000000E+00  0.00000000000E+00 -0.11616015215E+04  0.11616015215E+04  0.25500000920E-02 0. -1.
    10030    2    1    2    0    0  0.00000000000E+00  0.00000000000E+00 -0.79351364030E+03  0.15296894027E+04  0.13077789460E+04 0.  0.
        1    1    3    3  502    0 -0.50990088176E+03  0.36650002118E+03 -0.18346878549E+03  0.65420330939E+03  0.50400001928E-02 0.  1.
       -1    1    3    3    0  502  0.50990088176E+03 -0.36650002118E+03 -0.61004485481E+03  0.87548609335E+03  0.50400001928E-02 0. -1.
</event>
<event>
 5   0  0.2334946E-03  0.1303984E+04  0.7818609E-02  0.9026412E-01
        2   -1    0    0  501    0  0.00000000000E+00  0.00000000000E+00  0.11735083052E+04  0.11735083052E+04  0.25500000920E-02 0. -1.
       -2   -1    0    0    0  501  0.00000000000E+00  0.00000000000E+00 -0.36224176366E+03  0.36224176367E+03  0.25500000920E-02 0.  1.
    10030    2    1    2    0    0  0.00000000000E+00  0.00000000000E+00  0.81126654149E+03  0.15357500688E+04  0.13039842302E+04 0.  0.
        1    1    3    3  502    0  0.97142524266E+02 -0.16551114020E+03  0.11394899798E+04  0.11555379793E+04  0.50400001928E-02 0. -1.
       -1    1    3    3    0  502 -0.97142524266E+02  0.16551114020E+03 -0.32822343829E+03  0.38021208953E+03  0.50400001928E-02 0.  1.
</event>
<event>
 5   0  0.2478236E-03  0.1257647E+04  0.7818609E-02  0.9063843E-01
        2   -1    0    0  501    0  0.00000000000E+00  0.00000000000E+00  0.23648708152E+04  0.23648708152E+04  0.25500000920E-02 0. -1.
       -2   -1    0    0    0  501  0.00000000000E+00  0.00000000000E+00 -0.16720524180E+03  0.16720524182E+03  0.25500000920E-02 0.  1.
    10030    2    1    2    0    0  0.00000000000E+00  0.00000000000E+00  0.21976655734E+04  0.25320760570E+04  0.12576466857E+04 0.  0.
        3    1    3    3  502    0  0.84092426634E+02  0.16643294946E+03  0.23079250791E+04  0.23154458845E+04  0.10100000352E+00 0. -1.
       -3    1    3    3    0  502 -0.84092426634E+02 -0.16643294946E+03 -0.11025950568E+03  0.21663017259E+03  0.10100000352E+00 0.  1.
</event>
<event>
 5   0  0.2312105E-03  0.1604783E+04  0.7818609E-02  0.8817615E-01
        2   -1    0    0  501    0  0.00000000000E+00  0.00000000000E+00  0.48690776423E+03  0.48690776424E+03  0.25500000920E-02 0. -1.
       -2   -1    0    0    0  501  0.00000000000E+00  0.00000000000E+00 -0.13222875648E+04  0.13222875648E+04  0.25500000920E-02 0.  1.
    10030    2    1    2    0    0  0.00000000000E+00  0.00000000000E+00 -0.83537980059E+03  0.18091953291E+04  0.16047829534E+04 0.  0.
        5    1    3    3  502    0 -0.74627415701E+03  0.27307014312E+03 -0.54281133030E+03  0.96237136844E+03  0.46999998093E+01 0. -1.
       -5    1    3    3    0  502  0.74627415701E+03 -0.27307014312E+03 -0.29256847029E+03  0.84682396063E+03  0.46999998093E+01 0.  1.
</event>
<event>
 5   0  0.1387622E-03  0.1306506E+04  0.7818609E-02  0.9024422E-01
        1   -1    0    0  501    0  0.00000000000E+00  0.00000000000E+00  0.45294462383E+03  0.45294462385E+03  0.50400001928E-02 0. -1.
       -1   -1    0    0    0  501  0.00000000000E+00  0.00000000000E+00 -0.94214529634E+03  0.94214529636E+03  0.50400001928E-02 0.  1.
    10030    2    1    2    0    0  0.00000000000E+00  0.00000000000E+00 -0.48920067252E+03  0.13950899202E+04  0.13065062524E+04 0.  0.
        3    1    3    3  502    0  0.22674254157E+03  0.34212566615E+03  0.29806737636E+03  0.50725370639E+03  0.10100000352E+00 0. -1.
       -3    1    3    3    0  502 -0.22674254157E+03 -0.34212566615E+03 -0.78726804887E+03  0.88783621382E+03  0.10100000352E+00 0.  1.
</event>
<event>
 5   0  0.1310461E-03  0.1228892E+04  0.7818609E-02  0.9087937E-01
        1   -1    0    0  501    0  0.00000000000E+00  0.00000000000E+00  0.11188414247E+04  0.11188414247E+04  0.50400001928E-02 0.  1.
       -1   -1    0    0    0  501  0.00000000000E+00  0.00000000000E+00 -0.33744158036E+03  0.33744158040E+03  0.50400001928E-02 0. -1.
    10030    2    1    2    0    0  0.00000000000E+00  0.00000000000E+00  0.78139984432E+03  0.14562830051E+04  0.12288915632E+04 0.  0.
        4    1    3    3  502    0  0.51135613491E+03  0.31421272888E+03  0.23470973132E+03  0.64444162387E+03  0.12699999809E+01 0. -1.
       -4    1    3    3    0  502 -0.51135613491E+03 -0.31421272888E+03  0.54669011300E+03  0.81184138122E+03  0.12699999809E+01 0.  1.
</event>
<event>
 5   0  0.2401211E-03  0.1316600E+04  0.7818609E-02  0.9016504E-01
        2   -1    0    0  501    0  0.00000000000E+00  0.00000000000E+00  0.24527914673E+04  0.24527914673E+04  0.25500000920E-02 0.  1.
       -2   -1    0    0    0  501  0.00000000000E+00  0.00000000000E+00 -0.17667991994E+03  0.17667991996E+03  0.25500000920E-02 0. -1.
    10030    2    1    2    0    0  0.00000000000E+00  0.00000000000E+00  0.22761115474E+04  0.26294713873E+04  0.13166001673E+04 0.  0.
        4    1    3    3  502    0 -0.49349994027E+03 -0.35651561398E+03  0.16381930472E+04  0.17476623377E+04  0.12699999809E+01 0.  1.
       -4    1    3    3    0  502  0.49349994027E+03  0.35651561398E+03  0.63791850023E+03  0.88180904957E+03  0.12699999809E+01 0. -1.
</event>
<event>
 5   0  0.1387622E-03  0.1277380E+04  0.7818609E-02  0.9047698E-01
        1   -1    0    0  501    0  0.00000000000E+00  0.00000000000E+00  0.77493502221E+03  0.77493502223E+03  0.50400001928E-02 0.  1.
       -1   -1    0    0    0  501  0.00000000000E+00  0.00000000000E+00 -0.52639906416E+03  0.52639906418E+03  0.50400001928E-02 0. -1.
    10030    2    1    2    0    0  0.00000000000E+00  0.00000000000E+00  0.24853595805E+03  0.13013340864E+04  0.12773802417E+04 0.  0.
        3    1    3    3  502    0  0.42016378775E+03 -0.34885826937E+03  0.46166632026E+03  0.71510523848E+03  0.10100000352E+00 0.  1.
       -3    1    3    3    0  502 -0.42016378775E+03  0.34885826937E+03 -0.21313036220E+03  0.58622884793E+03  0.10100000352E+00 0. -1.
</event>
<event>
 5   0  0.1346593E-03  0.1336901E+04  0.7818609E-02  0.9000803E-01
        1   -1    0    0  501    0  0.00000000000E+00  0.00000000000E+00  0.11972755159E+04  0.11972755159E+04  0.50400001928E-02 0.  1.
       -1   -1    0    0    0  501  0.00000000000E+00  0.00000000000E+00 -0.37320256533E+03  0.37320256537E+03  0.50400001928E-02 0. -1.
    10030    2    1    2    0    0  0.00000000000E+00  0.00000000000E+00  0.82407295058E+03  0.15704780813E+04  0.13369013337E+04 0.  0.
        2    1    3    3  502    0  0.28972096590E+03  0.58058794474E+03  0.22332848164E+03  0.68621877734E+03  0.25500000920E-02 0.  1.
       -2    1    3    3    0  502 -0.28972096590E+03 -0.58058794474E+03  0.60074446894E+03  0.88425930395E+03  0.25500000920E-02 0. -1.
</event>
<event>
 5   0  0.1387622E-03  0.1304961E+04  0.7818609E-02  0.9025641E-01
        1   -1    0    0  501    0  0.00000000000E+00  0.00000000000E+00  0.56184020683E+03  0.56184020685E+03  0.50400001928E-02 0.  1.
       -1   -1    0    0    0  501  0.00000000000E+00  0.00000000000E+00 -0.75774319826E+03  0.75774319828E+03  0.50400001928E-02 0. -1.
    10030    2    1    2    0    0  0.00000000000E+00  0.00000000000E+00 -0.19590299143E+03  0.13195834051E+04  0.13049606818E+04 0.  0.
        3    1    3    3  502    0  0.62070211983E+03 -0.96835645293E+02  0.80325842565E+02  0.63332496788E+03  0.10100000352E+00 0.  1.
       -3    1    3    3    0  502 -0.62070211983E+03  0.96835645293E+02 -0.27622883399E+03  0.68625843724E+03  0.10100000352E+00 0. -1.
</event>
<event>
 5   0  0.1387622E-03  0.1262134E+04  0.7818609E-02  0.9060144E-01
       -1   -1    0    0    0  501  0.00000000000E+00  0.00000000000E+00  0.45011378638E+03  0.45011378641E+03  0.50400001928E-02 0.  1.
        1   -1    0    0  501    0  0.00000000000E+00  0.00000000000E+00 -0.88476613405E+03  0.88476613407E+03  0.50400001928E-02 0. -1.
    10030    2    1    2    0    0  0.00000000000E+00  0.00000000000E+00 -0.43465234767E+03  0.13348799205E+04  0.12621338038E+04 0.  0.
        3    1    3    3  502    0 -0.41029425143E+03 -0.31487556568E+03 -0.59977205631E+03  0.79196876476E+03  0.10100000352E+00 0. -1.
       -3    1    3    3    0  502  0.41029425143E+03  0.31487556568E+03  0.16511970864E+03  0.54291115572E+03  0.10100000352E+00 0.  1.
</event>
<event>
 5   0  0.1332630E-03  0.1305080E+04  0.7818609E-02  0.9025546E-01
        1   -1    0    0  501    0  0.00000000000E+00  0.00000000000E+00  0.15237318282E+04  0.15237318282E+04  0.50400001928E-02 0. -1.
       -1   -1    0    0    0  501  0.00000000000E+00  0.00000000000E+00 -0.27945098277E+03  0.27945098282E+03  0.50400001928E-02 0.  1.
    10030    2    1    2    0    0  0.00000000000E+00  0.00000000000E+00  0.12442808455E+04  0.18031828111E+04  0.13050798549E+04 0.  0.
        5    1    3    3  502    0  0.61197583818E+03 -0.12961638891E+03  0.87866698209E+03  0.10786067820E+04  0.46999998093E+01 0. -1.
       -5    1    3    3    0  502 -0.61197583818E+03  0.12961638891E+03  0.36561386337E+03  0.72457602905E+03  0.46999998093E+01 0.  1.
</event>
<event>
 5   0  0.1346593E-03  0.1297793E+04  0.7818609E-02  0.9031317E-01
       -1   -1    0    0    0  501  0.00000000000E+00  0.00000000000E+00  0.79657627216E+03  0.79657627218E+03  0.50400001928E-02 0.  1.
        1   -1    0    0  501    0  0.00000000000E+00  0.00000000000E+00 -0.52859594291E+03  0.52859594294E+03  0.50400001928E-02 0. -1.
    10030    2    1    2    0    0  0.00000000000E+00  0.00000000000E+00  0.26798032925E+03  0.13251722151E+04  0.12977934901E+04 0.  0.
        2    1    3    3  502    0  0.23818044349E+02  0.50343033253E+03  0.55133960151E+03  0.74698377168E+03  0.25500000920E-02 0.  1.
       -2    1    3    3    0  502 -0.23818044349E+02 -0.50343033253E+03 -0.28335927226E+03  0.57818844344E+03  0.25500000920E-02 0. -1.
</event>
<event>
 5   0  0.9131250E-04  0.1309703E+04  0.7818609E-02  0.9021906E-01
        3   -1    0    0  501    0  0.00000000000E+00  0.00000000000E+00  0.49160025447E+03  0.49160026485E+03  0.10100000352E+00 0.  1.
       -3   -1    0    0    0  501  0.00000000000E+00  0.00000000000E+00 -0.87231522969E+03  0.87231523554E+03  0.10100000352E+00 0. -1.
    10030    2    1    2    0    0  0.00000000000E+00  0.00000000000E+00 -0.38071497522E+03  0.13639155004E+04  0.13097028670E+04 0.  0.
        4    1    3    3  502    0  0.17125606762E+03 -0.62885249271E+03 -0.12412710836E+03  0.66347060991E+03  0.12699999809E+01 0.  1.
       -4    1    3    3    0  502 -0.17125606762E+03  0.62885249271E+03 -0.25658786686E+03  0.70044489048E+03  0.12699999809E+01 0. -1.
</event>
<event>
 5   0  0.9131250E-04  0.1288558E+04  0.7818609E-02  0.9038689E-01
       -4   -1    0    0    0  501  0.00000000000E+00  0.00000000000E+00  0.54256977452E+03  0.54257126087E+03  0.12699999809E+01 0. -1.
        4   -1    0    0  501    0  0.00000000000E+00  0.00000000000E+00 -0.76505094057E+03  0.76505199469E+03  0.12699999809E+01 0.  1.
    10030    2    1    2    0    0  0.00000000000E+00  0.00000000000E+00 -0.22248116606E+03  0.13076232556E+04  0.12885576080E+04 0.  0.
        3    1    3    3  502    0 -0.31544710674E+03  0.26180232918E+03 -0.61563389378E+03  0.73962993320E+03  0.10100000352E+00 0.  1.
       -3    1    3    3    0  502  0.31544710674E+03 -0.26180232918E+03  0.39315272773E+03  0.56799332235E+03  0.10100000352E+00 0. -1.
</event>
<event>
 5   0  0.2312105E-03  0.1297275E+04  0.7818609E-02  0.9031729E-01
       -2   -1    0    0    0  501  0.00000000000E+00  0.00000000000E+00  0.35175483532E+03  0.35175483532E+03  0.25500000920E-02 0.  1.
        2   -1    0    0  501    0  0.00000000000E+00  0.00000000000E+00 -0.11960897604E+04  0.11960897604E+04  0.25500000920E-02 0. -1.
    10030    2    1    2    0    0  0.00000000000E+00  0.00000000000E+00 -0.84433492504E+03  0.15478445957E+04  0.12972746150E+04 0.  0.
        5    1    3    3  502    0 -0.35490911516E+03  0.33693667859E+03 -0.93009323441E+03  0.10509911132E+04  0.46999998093E+01 0. -1.
       -5    1    3    3    0  502  0.35490911516E+03 -0.33693667859E+03  0.85758309368E+02  0.49685348245E+03  0.46999998093E+01 0.  1.
</event>
<event>
 5   0  0.1324721E-03  0.1315568E+04  0.7818609E-02  0.9017310E-01
       -1   -1    0    0    0  501  0.00000000000E+00  0.00000000000E+00  0.10284930134E+04  0.10284930134E+04  0.50400001928E-02 0.  1.
        1   -1    0    0  501    0  0.00000000000E+00  0.00000000000E+00 -0.42069282183E+03  0.42069282186E+03  0.50400001928E-02 0. -1.
    10030    2    1    2    0    0  0.00000000000E+00  0.00000000000E+00  0.60780019155E+03  0.14491858352E+04  0.13155677528E+04 0.  0.
        1    1    3    3  502    0  0.55899535955E+03  0.14625842054E+03  0.65017127352E+03  0.86982183378E+03  0.50400001928E-02 0.  1.
       -1    1    3    3    0  502 -0.55899535955E+03 -0.14625842054E+03 -0.42371081974E+02  0.57936400147E+03  0.50400001928E-02 0. -1.
</event>
<event>
 5   0  0.2312105E-03  0.1324388E+04  0.7818609E-02  0.9010446E-01
        2   -1    0    0  501    0  0.00000000000E+00  0.00000000000E+00  0.25647073017E+04  0.25647073018E+04  0.25500000920E-02 0.  1.
       -2   -1    0    0    0  501  0.00000000000E+00  0.00000000000E+00 -0.17097503959E+03  0.17097503961E+03  0.25500000920E-02 0. -1.
    10030    2    1    2    0    0  0.00000000000E+00  0.00000000000E+00  0.23937322622E+04  0.27356823414E+04  0.13243880587E+04 0.  0.
        5    1    3    3  502    0 -0.54495927269E+03 -0.34321498309E+03  0.87885652302E+03  0.10895815764E+04  0.46999998093E+01 0. -1.
       -5    1    3    3    0  502  0.54495927269E+03  0.34321498309E+03  0.15148757391E+04  0.16461007650E+04  0.46999998093E+01 0.  1.
</event>
<event>
 5   0  0.1387622E-03  0.1298312E+04  0.7818609E-02  0.9030905E-01
        1   -1    0    0  501    0  0.00000000000E+00  0.00000000000E+00  0.97482131273E+03  0.97482131274E+03  0.50400001928E-02 0. -1.
       -1   -1    0    0    0  501  0.00000000000E+00  0.00000000000E+00 -0.43228802272E+03  0.43228802275E+03  0.50400001928E-02 0.  1.
    10030    2    1    2    0    0  0.00000000000E+00  0.00000000000E+00  0.54253329001E+03  0.14071093355E+04  0.12983121009E+04 0.  0.
        3    1    3    3  502    0 -0.39470063032E+03 -0.35320173475E+03 -0.13550249705E+03  0.54671838264E+03  0.10100000352E+00 0.  1.
       -3    1    3    3    0  502  0.39470063032E+03  0.35320173475E+03  0.67803578706E+03  0.86039095285E+03  0.10100000352E+00 0. -1.
</event>
<event>
 5   0  0.2401211E-03  0.1307898E+04  0.7818609E-02  0.9023325E-01
       -2   -1    0    0    0  501  0.00000000000E+00  0.00000000000E+00  0.78876627483E+03  0.78876627483E+03  0.25500000920E-02 0. -1.
        2   -1    0    0  501    0  0.00000000000E+00  0.00000000000E+00 -0.54217529135E+03  0.54217529136E+03  0.25500000920E-02 0.  1.
    10030    2    1    2    0    0  0.00000000000E+00  0.00000000000E+00  0.24659098348E+03  0.13309415662E+04  0.13078984439E+04 0.  0.
        4    1    3    3  502    0  0.58617779452E+02 -0.14116856578E+03 -0.52373969795E+03  0.54559095679E+03  0.12699999809E+01 0.  1.
       -4    1    3    3    0  502 -0.58617779452E+02  0.14116856578E+03  0.77033068142E+03  0.78535060939E+03  0.12699999809E+01 0. -1.
</event>
<event>
 5   0  0.1310461E-03  0.1271746E+04  0.7818609E-02  0.9052276E-01
        1   -1    0    0  501    0  0.00000000000E+00  0.00000000000E+00  0.12061188824E+04  0.12061188824E+04  0.50400001928E-02 0.  1.
       -1   -1    0    0    0  501  0.00000000000E+00  0.00000000000E+00 -0.33523596997E+03  0.33523597001E+03  0.50400001928E-02 0. -1.
    10030    2    1    2    0    0  0.00000000000E+00  0.00000000000E+00  0.87088291243E+03  0.15413548524E+04  0.12717459392E+04 0.  0.
        4    1    3    3  502    0  0.92062509420E+01  0.62836600002E+03  0.55297559337E+03  0.83708554211E+03  0.12699999809E+01 0. -1.
       -4    1    3    3    0  502 -0.92062509420E+01 -0.62836600002E+03  0.31790731906E+03  0.70426931031E+03  0.12699999809E+01 0.  1.
</event>
<event>
 5   0  0.2401211E-03  0.1305156E+04  0.7818609E-02  0.9025486E-01
       -2   -1    0    0    0  501  0.00000000000E+00  0.00000000000E+00  0.31833145320E+03  0.31833145321E+03  0.25500000920E-02 0.  1.
        2   -1    0    0  501    0  0.00000000000E+00  0.00000000000E+00 -0.13377818233E+04  0.13377818233E+04  0.25500000920E-02 0. -1.
    10030    2    1    2    0    0  0.00000000000E+00  0.00000000000E+00 -0.10194503701E+04  0.16561132765E+04  0.13051559782E+04 0.  0.
        4    1    3    3  502    0  0.26886746801E+03  0.46445964873E+03 -0.98083424704E+03  0.11180563106E+04  0.12699999809E+01 0. -1.
       -4    1    3    3    0  502 -0.26886746801E+03 -0.46445964873E+03 -0.38616123033E+02  0.53805696586E+03  0.12699999809E+01 0.  1.
</event>
<event>
 5   0  0.2361043E-03  0.1279176E+04  0.7818609E-02  0.9046243E-01
       -2   -1    0    0    0  501  0.00000000000E+00  0.00000000000E+00  0.54921723439E+03  0.54921723440E+03  0.25500000920E-02 0. -1.
        2   -1    0    0  501    0  0.00000000000E+00  0.00000000000E+00 -0.74482935532E+03  0.74482935533E+03  0.25500000920E-02 0.  1.
    10030    2    1    2    0    0  0.00000000000E+00  0.00000000000E+00 -0.19561212093E+03  0.12940465897E+04  0.12791764829E+04 0.  0.
        2    1    3    3  502    0  0.56337853741E+01  0.40896824609E+03 -0.59523991368E+03  0.72221694849E+03  0.25500000920E-02 0.  1.
       -2    1    3    3    0  502 -0.56337853741E+01 -0.40896824609E+03  0.39962779275E+03  0.57182964123E+03  0.25500000920E-02 0. -1.
</event>
<event>
 5   0  0.1324721E-03  0.1297935E+04  0.7818609E-02  0.9031205E-01
        1   -1    0    0  501    0  0.00000000000E+00  0.00000000000E+00  0.11078522756E+04  0.11078522757E+04  0.50400001928E-02 0. -1.
       -1   -1    0    0    0  501  0.00000000000E+00  0.00000000000E+00 -0.38015778098E+03  0.38015778101E+03  0.50400001928E-02 0.  1.
    10030    2    1    2    0    0  0.00000000000E+00  0.00000000000E+00  0.72769449467E+03  0.14880100567E+04  0.12979347638E+04 0.  0.
        1    1    3    3  502    0 -0.50193961082E+03 -0.41134756082E+03  0.36050991909E+03  0.74237294569E+03  0.50400001928E-02 0.  1.
       -1    1    3    3    0  502  0.50193961082E+03  0.41134756082E+03  0.36718457557E+03  0.74563711098E+03  0.50400001928E-02 0. -1.
</event>
<event>
 5   0  0.9131250E-04  0.1323754E+04  0.7818609E-02  0.9010938E-01
        3   -1    0    0  501    0  0.00000000000E+00  0.00000000000E+00  0.12249541901E+04  0.12249541942E+04  0.10100000352E+00 0. -1.
       -3   -1    0    0    0  501  0.00000000000E+00  0.00000000000E+00 -0.35763044645E+03  0.35763046071E+03  0.10100000352E+00 0.  1.
    10030    2    1    2    0    0  0.00000000000E+00  0.00000000000E+00  0.86732374363E+03  0.15825846550E+04  0.13237536455E+04 0.  0.
        2    1    3    3  502    0 -0.39726696969E+03 -0.51006773179E+03  0.26420534042E+03  0.69842293643E+03  0.25500000920E-02 0.  1.
       -2    1    3    3    0  502  0.39726696969E+03  0.51006773179E+03  0.60311840321E+03  0.88416171853E+03  0.25500000920E-02 0. -1.
</event>
<event>
 5   0  0.1324721E-03  0.1307574E+04  0.7818609E-02  0.9023581E-01
       -1   -1    0    0    0  501  0.00000000000E+00  0.00000000000E+00  0.69157044471E+03  0.69157044473E+03  0.50400001928E-02 0. -1.
        1   -1    0    0  501    0  0.00000000000E+00  0.00000000000E+00 -0.61806740283E+03  0.61806740285E+03  0.50400001928E-02 0.  1.
    10030    2    1    2    0    0  0.00000000000E+00  0.00000000000E+00  0.73503041878E+02  0.13096378476E+04  0.13075735523E+04 0.  0.
        1    1    3    3  502    0 -0.22072605524E+03  0.16754194416E+03 -0.55633774380E+03  0.62153196194E+03  0.50400001928E-02 0.  1.
       -1    1    3    3    0  502  0.22072605524E+03 -0.16754194416E+03  0.62984078568E+03  0.68810588564E+03  0.50400001928E-02 0. -1.
</event>
<event>
 5   0  0.2312105E-03  0.1288085E+04  0.7818609E-02  0.9039067E-01
       -2   -1    0    0    0  501  0.00000000000E+00  0.00000000000E+00  0.16612674645E+04  0.16612674645E+04  0.25500000920E-02 0.  1.
        2   -1    0    0  501    0  0.00000000000E+00  0.00000000000E+00 -0.24968348132E+03  0.24968348134E+03  0.25500000920E-02 0. -1.
    10030    2    1    2    0    0  0.00000000000E+00  0.00000000000E+00  0.14115839832E+04  0.19109509459E+04  0.12880854692E+04 0.  0.
        5    1    3    3  502    0 -0.32991404567E+03 -0.16158312107E+03  0.14905605112E+04  0.15351694076E+04  0.46999998093E+01 0.  1.
       -5    1    3    3    0  502  0.32991404567E+03  0.16158312107E+03 -0.78976527963E+02  0.37578153828E+03  0.46999998093E+01 0. -1.
</event>
<event>
 5   0  0.2478236E-03  0.1291575E+04  0.7818609E-02  0.9036273E-01
       -2   -1    0    0    0  501  0.00000000000E+00  0.00000000000E+00  0.31963464086E+03  0.31963464087E+03  0.25500000920E-02 0.  1.
        2   -1    0    0  501    0  0.00000000000E+00  0.00000000000E+00 -0.13047452436E+04  0.13047452436E+04  0.25500000920E-02 0. -1.
    10030    2    1    2    0    0  0.00000000000E+00  0.00000000000E+00 -0.98511060277E+03  0.16243798845E+04  0.12915754370E+04 0.  0.
        3    1    3    3  502    0 -0.12856385527E+02 -0.61321312322E+03 -0.23837413485E+03  0.65804092540E+03  0.10100000352E+00 0.  1.
       -3    1    3    3    0  502  0.12856385527E+02  0.61321312322E+03 -0.74673646791E+03  0.96633895909E+03  0.10100000352E+00 0. -1.
</event>
<event>
 5   0  0.2312105E-03  0.1308120E+04  0.7818609E-02  0.9023151E-01
        2   -1    0    0  501    0  0.00000000000E+00  0.00000000000E+00  0.46010313310E+03  0.46010313310E+03  0.25500000920E-02 0.  1.
       -2   -1    0    0    0  501  0.00000000000E+00  0.00000000000E+00 -0.92977962740E+03  0.92977962740E+03  0.25500000920E-02 0. -1.
    10030    2    1    2    0    0  0.00000000000E+00  0.00000000000E+00 -0.46967649430E+03  0.13898827605E+04  0.13081200551E+04 0.  0.
        5    1    3    3  502    0  0.60864256235E+03 -0.20199257720E+03 -0.37142543610E+03  0.74109764170E+03  0.46999998093E+01 0. -1.
       -5    1    3    3    0  502 -0.60864256235E+03  0.20199257720E+03 -0.98251058200E+02  0.64878511881E+03  0.46999998093E+01 0.  1.
</event>
<event>
 5   0  0.1346593E-03  0.1276577E+04  0.7818609E-02  0.9048349E-01
        1   -1    0    0  501    0  0.00000000000E+00  0.00000000000E+00  0.18170419799E+04  0.18170419799E+04  0.50400001928E-02 0.  1.
       -1   -1    0    0    0  501  0.00000000000E+00  0.00000000000E+00 -0.22421737520E+03  0.22421737525E+03  0.50400001928E-02 0. -1.
    10030    2    1    2    0    0  0.00000000000E+00  0.00000000000E+00  0.15928246047E+04  0.20412593551E+04  0.12765772729E+04 0.  0.
        2    1    3    3  502    0 -0.29470502113E+03  0.56188045341E+03  0.68503476724E+03  0.93372015386E+03  0.25500000920E-02 0. -1.
       -2    1    3    3    0  502  0.29470502113E+03 -0.56188045341E+03  0.90778983745E+03  0.11075392013E+04  0.25500000920E-02 0.  1.
</event>
<event>
 5   0  0.2401211E-03  0.1296607E+04  0.7818609E-02  0.9032260E-01
        2   -1    0    0  501    0  0.00000000000E+00  0.00000000000E+00  0.60549554055E+03  0.60549554055E+03  0.25500000920E-02 0.  1.
       -2   -1    0    0    0  501  0.00000000000E+00  0.00000000000E+00 -0.69413771045E+03  0.69413771045E+03  0.25500000920E-02 0. -1.
    10030    2    1    2    0    0  0.00000000000E+00  0.00000000000E+00 -0.88642169902E+02  0.12996332510E+04  0.12966067842E+04 0.  0.
        4    1    3    3  502    0 -0.36521776188E+03  0.54919280235E+02  0.48974107169E+03  0.61339063502E+03  0.12699999809E+01 0.  1.
       -4    1    3    3    0  502  0.36521776188E+03 -0.54919280235E+02 -0.57838324159E+03  0.68624261598E+03  0.12699999809E+01 0. -1.
</event>
<event>
 5   0  0.1324721E-03  0.1553536E+04  0.7818609E-02  0.8849612E-01
       -1   -1    0    0    0  501  0.00000000000E+00  0.00000000000E+00  0.62932927599E+03  0.62932927601E+03  0.50400001928E-02 0. -1.
        1   -1    0    0  501    0  0.00000000000E+00  0.00000000000E+00 -0.95874824050E+03  0.95874824051E+03  0.50400001928E-02 0.  1.
    10030    2    1    2    0    0  0.00000000000E+00  0.00000000000E+00 -0.32941896451E+03  0.15880775165E+04  0.15535357557E+04 0.  0.
        1    1    3    3  502    0 -0.54004664079E+03 -0.48163522311E+03 -0.45338068715E+03  0.85391856162E+03  0.50400001928E-02 0.  1.
       -1    1    3    3    0  502  0.54004664079E+03  0.48163522311E+03  0.12396172264E+03  0.73415895491E+03  0.50400001928E-02 0. -1.
</event>
<event>
 5   0  0.2478236E-03  0.1309370E+04  0.7818609E-02  0.9022167E-01
        2   -1    0    0  501    0  0.00000000000E+00  0.00000000000E+00  0.10788849297E+04  0.10788849297E+04  0.25500000920E-02 0. -1.
       -2   -1    0    0    0  501  0.00000000000E+00  0.00000000000E+00 -0.39727383231E+03  0.39727383232E+03  0.25500000920E-02 0.  1.
    10030    2    1    2    0    0  0.00000000000E+00  0.00000000000E+00  0.68161109741E+03  0.14761587620E+04  0.13093704604E+04 0.  0.
        3    1    3    3  502    0  0.37110238158E+03 -0.25902388995E+03 -0.19253289236E+03  0.49181223859E+03  0.10100000352E+00 0.  1.
       -3    1    3    3    0  502 -0.37110238158E+03  0.25902388995E+03  0.87414398977E+03  0.98434652346E+03  0.10100000352E+00 0. -1.
</event>
<event>
 5   0  0.1324721E-03  0.1290011E+04  0.7818609E-02  0.9037524E-01
        1   -1    0    0  501    0  0.00000000000E+00  0.00000000000E+00  0.93175150738E+03  0.93175150739E+03  0.50400001928E-02 0.  1.
       -1   -1    0    0    0  501  0.00000000000E+00  0.00000000000E+00 -0.44650554608E+03  0.44650554610E+03  0.50400001928E-02 0. -1.
    10030    2    1    2    0    0  0.00000000000E+00  0.00000000000E+00  0.48524596130E+03  0.13782570535E+04  0.12900111870E+04 0.  0.
        1    1    3    3  502    0  0.60687122903E+03 -0.12716270670E+02  0.47566757438E+03  0.77117704420E+03  0.50400001928E-02 0.  1.
       -1    1    3    3    0  502 -0.60687122903E+03  0.12716270670E+02  0.95783869204E+01  0.60708000929E+03  0.50400001928E-02 0. -1.
</event>
<event>
 5   0  0.2312105E-03  0.1288467E+04  0.7818609E-02  0.9038761E-01
        2   -1    0    0  501    0  0.00000000000E+00  0.00000000000E+00  0.54323774603E+03  0.54323774603E+03  0.25500000920E-02 0. -1.
       -2   -1    0    0    0  501  0.00000000000E+00  0.00000000000E+00 -0.76400578498E+03  0.76400578498E+03  0.25500000920E-02 0.  1.
    10030    2    1    2    0    0  0.00000000000E+00  0.00000000000E+00 -0.22076803895E+03  0.13072435310E+04  0.12884669660E+04 0.  0.
        5    1    3    3  502    0 -0.57676813790E+02  0.63274805152E+03 -0.21832035153E+03  0.67185011531E+03  0.46999998093E+01 0. -1.
       -5    1    3    3    0  502  0.57676813790E+02 -0.63274805152E+03 -0.24476874146E+01  0.63539341571E+03  0.46999998093E+01 0.  1.
</event>
<event>
 5   0  0.9131250E-04  0.1334599E+04  0.7818609E-02  0.9002569E-01
       -3   -1    0    0    0  501  0.00000000000E+00  0.00000000000E+00  0.45348722524E+03  0.45348723649E+03  0.10100000352E+00 0. -1.
        3   -1    0    0  501    0  0.00000000000E+00  0.00000000000E+00 -0.98192050781E+03  0.98192051300E+03  0.10100000352E+00 0.  1.
    10030    2    1    2    0    0  0.00000000000E+00  0.00000000000E+00 -0.52843328256E+03  0.14354077495E+04  0.13345986937E+04 0.  0.
        4    1    3    3  502    0  0.83679574030E+02  0.65212228891E+03 -0.38694577563E+03  0.76288557267E+03  0.12699999809E+01 0.  1.
       -4    1    3    3    0  502 -0.83679574030E+02 -0.65212228891E+03 -0.14148750693E+03  0.67252217683E+03  0.12699999809E+01 0. -1.
</event>
<event>
 5   0  0.1310461E-03  0.1305898E+04  0.7818609E-02  0.9024901E-01
       -1   -1    0    0    0  501  0.00000000000E+00  0.00000000000E+00  0.86231225083E+03  0.86231225085E+03  0.50400001928E-02 0.  1.
        1   -1    0    0  501    0  0.00000000000E+00  0.00000000000E+00 -0.49441735583E+03  0.49441735585E+03  0.50400001928E-02 0. -1.
    10030    2    1    2    0    0  0.00000000000E+00  0.00000000000E+00  0.36789489501E+03  0.13567296067E+04  0.13058976116E+04 0.  0.
        4    1    3    3  502    0 -0.52523523942E+03  0.20644956767E+03 -0.15723627912E+03  0.58584839429E+03  0.12699999809E+01 0.  1.
       -4    1    3    3    0  502  0.52523523942E+03 -0.20644956767E+03  0.52513117412E+03  0.77088121241E+03  0.12699999809E+01 0. -1.
</event>
<event>
 5   0  0.2361043E-03  0.1325436E+04  0.7818609E-02  0.9009634E-01
        2   -1    0    0  501    0  0.00000000000E+00  0.00000000000E+00  0.91458056024E+03  0.91458056025E+03  0.25500000920E-02 0. -1.
       -2   -1    0    0    0  501  0.00000000000E+00  0.00000000000E+00 -0.48021484024E+03  0.48021484025E+03  0.25500000920E-02 0.  1.
    10030    2    1    2    0    0  0.00000000000E+00  0.00000000000E+00  0.43436572000E+03  0.13947954005E+04  0.13254360153E+04 0.  0.
        2    1    3    3  502    0  0.11453948920E+03  0.28552485463E+03  0.83488451034E+03  0.88976170002E+03  0.25500000920E-02 0. -1.
       -2    1    3    3    0  502 -0.11453948920E+03 -0.28552485463E+03 -0.40051879034E+03  0.50503370048E+03  0.25500000920E-02 0.  1.
</event>
<event>
 5   0  0.2478236E-03  0.1265773E+04  0.7818609E-02  0.9057157E-01
       -2   -1    0    0    0  501  0.00000000000E+00  0.00000000000E+00  0.31889179869E+03  0.31889179870E+03  0.25500000920E-02 0. -1.
        2   -1    0    0  501    0  0.00000000000E+00  0.00000000000E+00 -0.12560537124E+04  0.12560537124E+04  0.25500000920E-02 0.  1.
    10030    2    1    2    0    0  0.00000000000E+00  0.00000000000E+00 -0.93716191368E+03  0.15749455111E+04  0.12657728510E+04 0.  0.
        3    1    3    3  502    0 -0.30002143539E+03  0.50925494591E+03 -0.18706062282E+03  0.61995576329E+03  0.10100000352E+00 0. -1.
       -3    1    3    3    0  502  0.30002143539E+03 -0.50925494591E+03 -0.75010129085E+03  0.95498974778E+03  0.10100000352E+00 0.  1.
</event>
<event>
 5   0  0.1332630E-03  0.1299986E+04  0.7818609E-02  0.9029576E-01
        1   -1    0    0  501    0  0.00000000000E+00  0.00000000000E+00  0.39484701550E+03  0.39484701553E+03  0.50400001928E-02 0. -1.
       -1   -1    0    0    0  501  0.00000000000E+00  0.00000000000E+00 -0.10700113438E+04  0.10700113438E+04  0.50400001928E-02 0.  1.
    10030    2    1    2    0    0  0.00000000000E+00  0.00000000000E+00 -0.67516432831E+03  0.14648583594E+04  0.12999858241E+04 0.  0.
        5    1    3    3  502    0  0.56932654464E+03  0.90584846168E+02  0.71050507434E+00  0.57650752258E+03  0.46999998093E+01 0. -1.
       -5    1    3    3    0  502 -0.56932654464E+03 -0.90584846168E+02 -0.67587483339E+03  0.88835083677E+03  0.46999998093E+01 0.  1.
</event>
<event>
 5   0  0.2312105E-03  0.1323322E+04  0.7818609E-02  0.9011272E-01
        2   -1    0    0  501    0  0.00000000000E+00  0.00000000000E+00  0.51026086329E+03  0.51026086330E+03  0.25500000920E-02 0. -1.
       -2   -1    0    0    0  501  0.00000000000E+00  0.00000000000E+00 -0.85798345245E+03  0.85798345246E+03  0.25500000920E-02 0.  1.
    10030    2    1    2    0    0  0.00000000000E+00  0.00000000000E+00 -0.34772258916E+03  0.13682443158E+04  0.13233221485E+04 0.  0.
        5    1    3    3  502    0  0.59815806048E+03  0.66646981564E+02 -0.45803374151E+03  0.75634111605E+03  0.46999998093E+01 0.  1.
       -5    1    3    3    0  502 -0.59815806048E+03 -0.66646981564E+02  0.11031115235E+03  0.61190319970E+03  0.46999998093E+01 0. -1.
</event>
<event>
 5   0  0.2401211E-03  0.1312884E+04  0.7818609E-02  0.9019410E-01
        2   -1    0    0  501    0  0.00000000000E+00  0.00000000000E+00  0.14257591135E+04  0.14257591135E+04  0.25500000920E-02 0. -1.
       -2   -1    0    0    0  501  0.00000000000E+00  0.00000000000E+00 -0.30223643708E+03  0.30223643709E+03  0.25500000920E-02 0.  1.
    10030    2    1    2    0    0  0.00000000000E+00  0.00000000000E+00  0.11235226764E+04  0.17279955506E+04  0.13128843888E+04 0.  0.
        4    1    3    3  502    0  0.38442726318E+03 -0.31412801801E+03  0.11270368676E+04  0.12315333719E+04  0.12699999809E+01 0. -1.
       -4    1    3    3    0  502 -0.38442726318E+03  0.31412801801E+03 -0.35141911912E+01  0.49646217864E+03  0.12699999809E+01 0.  1.
</event>
<event>
 5   0  0.2361043E-03  0.1272885E+04  0.7818609E-02  0.9051349E-01
       -2   -1    0    0    0  501  0.00000000000E+00  0.00000000000E+00  0.69430418151E+03  0.69430418151E+03  0.25500000920E-02 0. -1.
        2   -1    0    0  501    0  0.00000000000E+00  0.00000000000E+00 -0.58340250014E+03  0.58340250015E+03  0.25500000920E-02 0.  1.
    10030    2    1    2    0    0  0.00000000000E+00  0.00000000000E+00  0.11090168137E+03  0.12777066817E+04  0.12728845908E+04 0.  0.
        2    1    3    3  502    0 -0.30345724809E+03 -0.38870899349E+03 -0.34841377097E+03  0.60379892253E+03  0.25500000920E-02 0.  1.
       -2    1    3    3    0  502  0.30345724809E+03  0.38870899349E+03  0.45931545234E+03  0.67390775912E+03  0.25500000920E-02 0. -1.
</event>
<event>
 5   0  0.1346593E-03  0.1308293E+04  0.7818609E-02  0.9023015E-01
       -1   -1    0    0    0  501  0.00000000000E+00  0.00000000000E+00  0.79835273880E+03  0.79835273881E+03  0.50400001928E-02 0.  1.
        1   -1    0    0  501    0  0.00000000000E+00  0.00000000000E+00 -0.53598809046E+03  0.53598809048E+03  0.50400001928E-02 0. -1.
    10030    2    1    2    0    0  0.00000000000E+00  0.00000000000E+00  0.26236464834E+03  0.13343408293E+04  0.13082928724E+04 0.  0.
        2    1    3    3  502    0  0.34132830560E+03 -0.54930948827E+03  0.23143294897E+03  0.68688218494E+03  0.25500000920E-02 0. -1.
       -2    1    3    3    0  502 -0.34132830560E+03  0.54930948827E+03  0.30931699370E+02  0.64745864435E+03  0.25500000920E-02 0.  1.
</event>
<event>
 5   0  0.2361043E-03  0.1287363E+04  0.7818609E-02  0.9039647E-01
       -2   -1    0    0    0  501  0.00000000000E+00  0.00000000000E+00  0.10338274035E+04  0.10338274035E+04  0.25500000920E-02 0. -1.
        2   -1    0    0  501    0  0.00000000000E+00  0.00000000000E+00 -0.40076899264E+03  0.40076899265E+03  0.25500000920E-02 0.  1.
    10030    2    1    2    0    0  0.00000000000E+00  0.00000000000E+00  0.63305841082E+03  0.14345963961E+04  0.12873631454E+04 0.  0.
        2    1    3    3  502    0 -0.37003922509E+03  0.50755448802E+03  0.15978161682E+03  0.64812865350E+03  0.25500000920E-02 0.  1.
       -2    1    3    3    0  502  0.37003922509E+03 -0.50755448802E+03  0.47327679400E+03  0.78646774260E+03  0.25500000920E-02 0. -1.
</event>
<event>
 5   0  0.2312105E-03  0.1300413E+04  0.7818609E-02  0.9029237E-01
        2   -1    0    0  501    0  0.00000000000E+00  0.00000000000E+00  0.48458804236E+03  0.48458804236E+03  0.25500000920E-02 0.  1.
       -2   -1    0    0    0  501  0.00000000000E+00  0.00000000000E+00 -0.87242926408E+03  0.87242926408E+03  0.25500000920E-02 0. -1.
    10030    2    1    2    0    0  0.00000000000E+00  0.00000000000E+00 -0.38784122172E+03  0.13570173064E+04  0.13004134561E+04 0.  0.
        5    1    3    3  502    0 -0.41190940203E+03 -0.50245964203E+03 -0.16811250852E+03  0.67113258963E+03  0.46999998093E+01 0.  1.
       -5    1    3    3    0  502  0.41190940203E+03  0.50245964203E+03 -0.21972871320E+03  0.68588471681E+03  0.46999998093E+01 0. -1.
</event>
<event>
 5   0  0.2401211E-03  0.1303664E+04  0.7818609E-02  0.9026665E-01
       -2   -1    0    0    0  501  0.00000000000E+00  0.00000000000E+00  0.27240378688E+03  0.27240378689E+03  0.25500000920E-02 0.  1.
        2   -1    0    0  501    0  0.00000000000E+00  0.00000000000E+00 -0.15597616131E+04  0.15597616131E+04  0.25500000920E-02 0. -1.
    10030    2    1    2    0    0  0.00000000000E+00  0.00000000000E+00 -0.12873578262E+04  0.18321654000E+04  0.13036640212E+04 0.  0.
        4    1    3    3  502    0 -0.58253412699E+03 -0.23936275720E+03 -0.40749353099E+03  0.75012874185E+03  0.12699999809E+01 0.  1.
       -4    1    3    3    0  502  0.58253412699E+03  0.23936275720E+03 -0.87986429524E+03  0.10820366582E+04  0.12699999809E+01 0. -1.
</event>
<event>
 5   0  0.2361043E-03  0.1299041E+04  0.7818609E-02  0.9030326E-01
        2   -1    0    0  501    0  0.00000000000E+00  0.00000000000E+00  0.51355176747E+03  0.51355176748E+03  0.25500000920E-02 0.  1.
       -2   -1    0    0    0  501  0.00000000000E+00  0.00000000000E+00 -0.82148837748E+03  0.82148837749E+03  0.25500000920E-02 0. -1.
    10030    2    1    2    0    0  0.00000000000E+00  0.00000000000E+00 -0.30793661001E+03  0.13350401450E+04  0.12990408896E+04 0.  0.
        2    1    3    3  502    0  0.43354536017E+03 -0.48050031806E+03 -0.97353831741E+02  0.65446153710E+03  0.25500000920E-02 0. -1.
       -2    1    3    3    0  502 -0.43354536017E+03  0.48050031806E+03 -0.21058277827E+03  0.68057860787E+03  0.25500000920E-02 0.  1.
</event>
<event>
 5   0  0.2312105E-03  0.1304291E+04  0.7818609E-02  0.9026169E-01
       -2   -1    0    0    0  501  0.00000000000E+00  0.00000000000E+00  0.18819778855E+03  0.18819778856E+03  0.25500000920E-02 0. -1.
        2   -1    0    0  501    0  0.00000000000E+00  0.00000000000E+00 -0.22598235225E+04  0.22598235225E+04  0.25500000920E-02 0.  1.
    10030    2    1    2    0    0  0.00000000000E+00  0.00000000000E+00 -0.20716257339E+04  0.24480213110E+04  0.13042910556E+04 0.  0.
        5    1    3    3  502    0  0.47279240908E+03  0.26149637208E+03 -0.17212242772E+04  0.18040366174E+04  0.46999998093E+01 0.  1.
       -5    1    3    3    0  502 -0.47279240908E+03 -0.26149637208E+03 -0.35040145674E+03  0.64398469359E+03  0.46999998093E+01 0. -1.
</event>
<event>
 5   0  0.1324721E-03  0.1295441E+04  0.7818609E-02  0.9033188E-01
        1   -1    0    0  501    0  0.00000000000E+00  0.00000000000E+00  0.79927182926E+03  0.79927182927E+03  0.50400001928E-02 0.  1.
       -1   -1    0    0    0  501  0.00000000000E+00  0.00000000000E+00 -0.52490505527E+03  0.52490505529E+03  0.50400001928E-02 0. -1.
    10030    2    1    2    0    0  0.00000000000E+00  0.00000000000E+00  0.27436677399E+03  0.13241768846E+04  0.12954409654E+04 0.  0.
        1    1    3    3  502    0 -0.41684196841E+03  0.29083246067E+03  0.54758810544E+03  0.74712347041E+03  0.50400001928E-02 0.  1.
       -1    1    3    3    0  502  0.41684196841E+03 -0.29083246067E+03 -0.27322133145E+03  0.57705341415E+03  0.50400001928E-02 0. -1.
</event>
<event>
 5   0  0.2478236E-03  0.1299949E+04  0.7818609E-02  0.9029606E-01
        2   -1    0    0  501    0  0.00000000000E+00  0.00000000000E+00  0.10300284305E+04  0.10300284305E+04  0.25500000920E-02 0.  1.
       -2   -1    0    0    0  501  0.00000000000E+00  0.00000000000E+00 -0.41015042302E+03  0.41015042303E+03  0.25500000920E-02 0. -1.
    10030    2    1    2    0    0  0.00000000000E+00  0.00000000000E+00  0.61987800751E+03  0.14401788536E+04  0.12999486090E+04 0.  0.
        3    1    3    3  502    0  0.45157214826E+03 -0.23415923783E+03 -0.13833060952E+03  0.52714639473E+03  0.10100000352E+00 0. -1.
       -3    1    3    3    0  502 -0.45157214826E+03  0.23415923783E+03  0.75820861704E+03  0.91303245884E+03  0.10100000352E+00 0.  1.
</event>
<event>
 5   0  0.1324721E-03  0.1300485E+04  0.7818609E-02  0.9029181E-01
        1   -1    0    0  501    0  0.00000000000E+00  0.00000000000E+00  0.87786474473E+03  0.87786474474E+03  0.50400001928E-02 0.  1.
       -1   -1    0    0    0  501  0.00000000000E+00  0.00000000000E+00 -0.48164045040E+03  0.48164045042E+03  0.50400001928E-02 0. -1.
    10030    2    1    2    0    0  0.00000000000E+00  0.00000000000E+00  0.39622429433E+03  0.13595051952E+04  0.13004847882E+04 0.  0.
        1    1    3    3  502    0  0.83018896515E+02 -0.30737802114E+03  0.79080100264E+03  0.85249024092E+03  0.50400001928E-02 0.  1.
       -1    1    3    3    0  502 -0.83018896515E+02  0.30737802114E+03 -0.39457670831E+03  0.50701495424E+03  0.50400001928E-02 0. -1.
</event>
<event>
 5   0  0.2361043E-03  0.1297731E+04  0.7818609E-02  0.9031367E-01
        2   -1    0    0  501    0  0.00000000000E+00  0.00000000000E+00  0.58242027969E+03  0.58242027970E+03  0.25500000920E-02 0. -1.
       -2   -1    0    0    0  501  0.00000000000E+00  0.00000000000E+00 -0.72289094392E+03  0.72289094393E+03  0.25500000920E-02 0.  1.
    10030    2    1    2    0    0  0.00000000000E+00  0.00000000000E+00 -0.14047066423E+03  0.13053112236E+04  0.12977308592E+04 0.  0.
        2    1    3    3  502    0 -0.58503642863E+03  0.60253709970E+02 -0.34593165310E+03  0.68232458625E+03  0.25500000920E-02 0.  1.
       -2    1    3    3    0  502  0.58503642863E+03 -0.60253709970E+02  0.20546098887E+03  0.62298663737E+03  0.25500000920E-02 0. -1.
</event>
<event>
 5   0  0.2312105E-03  0.1310567E+04  0.7818609E-02  0.9021227E-01
        2   -1    0    0  501    0  0.00000000000E+00  0.00000000000E+00  0.63440530009E+03  0.63440530010E+03  0.25500000920E-02 0. -1.
       -2   -1    0    0    0  501  0.00000000000E+00  0.00000000000E+00 -0.67684899900E+03  0.67684899901E+03  0.25500000920E-02 0.  1.
    10030    2    1    2    0    0  0.00000000000E+00  0.00000000000E+00 -0.42443698907E+02  0.13112542991E+04  0.13105671938E+04 0.  0.
        5    1    3    3  502    0  0.38543653977E+03  0.21461631898E+03  0.46354534141E+03  0.63993582812E+03  0.46999998093E+01 0. -1.
       -5    1    3    3    0  502 -0.38543653977E+03 -0.21461631898E+03 -0.50598904032E+03  0.67131847099E+03  0.46999998093E+01 0.  1.
</event>
<event>
 5   0  0.1324721E-03  0.1315012E+04  0.7818609E-02  0.9017744E-01
        1   -1    0    0  501    0  0.00000000000E+00  0.00000000000E+00  0.10603350877E+04  0.10603350877E+04  0.50400001928E-02 0. -1.
       -1   -1    0    0    0  501  0.00000000000E+00  0.00000000000E+00 -0.40771467938E+03  0.40771467941E+03  0.50400001928E-02 0.  1.
    10030    2    1    2    0    0  0.00000000000E+00  0.00000000000E+00  0.65262040833E+03  0.14680497671E+04  0.13150120613E+04 0.  0.
        1    1    3    3  502    0 -0.34615926827E+03 -0.55893433020E+03  0.31630283842E+03  0.72957611673E+03  0.50400001928E-02 0.  1.
       -1    1    3    3    0  502  0.34615926827E+03  0.55893433020E+03  0.33631756991E+03  0.73847365040E+03  0.50400001928E-02 0. -1.
</event>
<event>
 5   0  0.1310461E-03  0.1165077E+04  0.7818609E-02  0.9143986E-01
       -1   -1    0    0    0  501  0.00000000000E+00  0.00000000000E+00  0.15762704042E+03  0.15762704050E+03  0.50400001928E-02 0.  1.
        1   -1    0    0  501    0  0.00000000000E+00  0.00000000000E+00 -0.21528735190E+04  0.21528735190E+04  0.50400001928E-02 0. -1.
    10030    2    1    2    0    0  0.00000000000E+00  0.00000000000E+00 -0.19952464786E+04  0.23105005595E+04  0.11650769611E+04 0.  0.
        4    1    3    3  502    0  0.18521606902E+03  0.42323458024E+02 -0.20897025025E+04  0.20983218125E+04  0.12699999809E+01 0. -1.
       -4    1    3    3    0  502 -0.18521606902E+03 -0.42323458024E+02  0.94456023864E+02  0.21217874697E+03  0.12699999809E+01 0.  1.
</event>
<event>
 5   0  0.1387622E-03  0.1299362E+04  0.7818609E-02  0.9030071E-01
       -1   -1    0    0    0  501  0.00000000000E+00  0.00000000000E+00  0.38418626998E+03  0.38418627001E+03  0.50400001928E-02 0. -1.
        1   -1    0    0  501    0  0.00000000000E+00  0.00000000000E+00 -0.10986475617E+04  0.10986475617E+04  0.50400001928E-02 0.  1.
    10030    2    1    2    0    0  0.00000000000E+00  0.00000000000E+00 -0.71446129173E+03  0.14828338317E+04  0.12993618569E+04 0.  0.
        3    1    3    3  502    0 -0.21759199741E+03  0.53003131775E+03 -0.70675486364E+03  0.90982521542E+03  0.10100000352E+00 0.  1.
       -3    1    3    3    0  502  0.21759199741E+03 -0.53003131775E+03 -0.77064280882E+01  0.57300861632E+03  0.10100000352E+00 0. -1.
</event>
<event>
 5   0  0.9131250E-04  0.1186648E+04  0.7818609E-02  0.9124624E-01
        3   -1    0    0  501    0  0.00000000000E+00  0.00000000000E+00  0.24997041976E+03  0.24997044017E+03  0.10100000352E+00 0.  1.
       -3   -1    0    0    0  501  0.00000000000E+00  0.00000000000E+00 -0.14083005783E+04  0.14083005820E+04  0.10100000352E+00 0. -1.
    10030    2    1    2    0    0  0.00000000000E+00  0.00000000000E+00 -0.11583301586E+04  0.16582710221E+04  0.11866482320E+04 0.  0.
        4    1    3    3  502    0 -0.57403187605E+02  0.18737253783E+03  0.20343725149E+03  0.28247463970E+03  0.12699999809E+01 0.  1.
       -4    1    3    3    0  502  0.57403187605E+02 -0.18737253783E+03 -0.13617674101E+04  0.13757963824E+04  0.12699999809E+01 0. -1.
</event>
<event>
 5   0  0.1332630E-03  0.1269976E+04  0.7818609E-02  0.9053719E-01
       -1   -1    0    0    0  501  0.00000000000E+00  0.00000000000E+00  0.64284751983E+03  0.64284751984E+03  0.50400001928E-02 0. -1.
        1   -1    0    0  501    0  0.00000000000E+00  0.00000000000E+00 -0.62722461415E+03  0.62722461417E+03  0.50400001928E-02 0.  1.
    10030    2    1    2    0    0  0.00000000000E+00  0.00000000000E+00  0.15622905675E+02  0.12700721340E+04  0.12699760432E+04 0.  0.
        5    1    3    3  502    0  0.50368155113E+03 -0.19478468162E+03  0.34183001797E+03  0.63914476320E+03  0.46999998093E+01 0. -1.
       -5    1    3    3    0  502 -0.50368155113E+03  0.19478468162E+03 -0.32620711229E+03  0.63092737082E+03  0.46999998093E+01 0.  1.
</event>
<event>
 5   0  0.1387622E-03  0.1264559E+04  0.7818609E-02  0.9058152E-01
       -1   -1    0    0    0  501  0.00000000000E+00  0.00000000000E+00  0.32017605391E+03  0.32017605395E+03  0.50400001928E-02 0.  1.
        1   -1    0    0  501    0  0.00000000000E+00  0.00000000000E+00 -0.12486171766E+04  0.12486171766E+04  0.50400001928E-02 0. -1.
    10030    2    1    2    0    0  0.00000000000E+00  0.00000000000E+00 -0.92844112270E+03  0.15687932306E+04  0.12645589278E+04 0.  0.
        3    1    3    3  502    0  0.38575157422E+03  0.49881848096E+03 -0.40665477841E+03  0.75032811021E+03  0.10100000352E+00 0. -1.
       -3    1    3    3    0  502 -0.38575157422E+03 -0.49881848096E+03 -0.52178634429E+03  0.81846512036E+03  0.10100000352E+00 0.  1.
</event>
<event>
 5   0  0.2312105E-03  0.1254502E+04  0.7818609E-02  0.9066444E-01
        2   -1    0    0  501    0  0.00000000000E+00  0.00000000000E+00  0.18084514634E+04  0.18084514634E+04  0.25500000920E-02 0.  1.
       -2   -1    0    0    0  501  0.00000000000E+00  0.00000000000E+00 -0.21755847251E+03  0.21755847253E+03  0.25500000920E-02 0. -1.
    10030    2    1    2    0    0  0.00000000000E+00  0.00000000000E+00  0.15908929909E+04  0.20260099359E+04  0.12545021929E+04 0.  0.
        5    1    3    3  502    0  0.50568325460E+03 -0.22472262690E+01  0.13947393201E+04  0.14835903966E+04  0.46999998093E+01 0.  1.
       -5    1    3    3    0  502 -0.50568325460E+03  0.22472262690E+01  0.19615367076E+03  0.54241953925E+03  0.46999998093E+01 0. -1.
</event>
<event>
 5   0  0.1332630E-03  0.1312637E+04  0.7818609E-02  0.9019604E-01
       -1   -1    0    0    0  501  0.00000000000E+00  0.00000000000E+00  0.14056454626E+04  0.14056454627E+04  0.50400001928E-02 0. -1.
        1   -1    0    0  501    0  0.00000000000E+00  0.00000000000E+00 -0.30644559966E+03  0.30644559970E+03  0.50400001928E-02 0.  1.
    10030    2    1    2    0    0  0.00000000000E+00  0.00000000000E+00  0.10991998630E+04  0.17120910623E+04  0.13126368374E+04 0.  0.
        5    1    3    3  502    0  0.35321847097E+03  0.12767533636E+02 -0.17168175079E+03  0.39296693461E+03  0.46999998093E+01 0.  1.
       -5    1    3    3    0  502 -0.35321847097E+03 -0.12767533636E+02  0.12708816138E+04  0.13191241277E+04  0.46999998093E+01 0. -1.
</event>
<event>
 5   0  0.2312105E-03  0.1326108E+04  0.7818609E-02  0.9009114E-01
       -2   -1    0    0    0  501  0.00000000000E+00  0.00000000000E+00  0.10781179233E+04  0.10781179233E+04  0.25500000920E-02 0.  1.
        2   -1    0    0  501    0  0.00000000000E+00  0.00000000000E+00 -0.40778516568E+03  0.40778516569E+03  0.25500000920E-02 0. -1.
    10030    2    1    2    0    0  0.00000000000E+00  0.00000000000E+00  0.67033275761E+03  0.14859030890E+04  0.13261078327E+04 0.  0.
        5    1    3    3  502    0 -0.16897840815E+03 -0.57313324802E+03  0.65716716335E+03  0.88821517269E+03  0.46999998093E+01 0. -1.
       -5    1    3    3    0  502  0.16897840815E+03  0.57313324802E+03  0.13165594253E+02  0.59768791629E+03  0.46999998093E+01 0.  1.
</event>
<event>
 5   0  0.1310461E-03  0.1301306E+04  0.7818609E-02  0.9028530E-01
       -1   -1    0    0    0  501  0.00000000000E+00  0.00000000000E+00  0.48417881536E+03  0.48417881538E+03  0.50400001928E-02 0.  1.
        1   -1    0    0  501    0  0.00000000000E+00  0.00000000000E+00 -0.87436534984E+03  0.87436534986E+03  0.50400001928E-02 0. -1.
    10030    2    1    2    0    0  0.00000000000E+00  0.00000000000E+00 -0.39018653448E+03  0.13585441652E+04  0.13013057739E+04 0.  0.
        4    1    3    3  502    0 -0.40293770442E+03  0.81704050740E+02  0.33138309127E+03  0.52806317012E+03  0.12699999809E+01 0.  1.
       -4    1    3    3    0  502  0.40293770442E+03 -0.81704050740E+02 -0.72156962575E+03  0.83048099512E+03  0.12699999809E+01 0. -1.
</event>
<event>
 5   0  0.1332630E-03  0.1309074E+04  0.7818609E-02  0.9022401E-01
       -1   -1    0    0    0  501  0.00000000000E+00  0.00000000000E+00  0.31143752770E+03  0.31143752775E+03  0.50400001928E-02 0.  1.
        1   -1    0    0  501    0  0.00000000000E+00  0.00000000000E+00 -0.13756159242E+04  0.13756159242E+04  0.50400001928E-02 0. -1.
    10030    2    1    2    0    0  0.00000000000E+00  0.00000000000E+00 -0.10641783965E+04  0.16870534519E+04  0.13090736000E+04 0.  0.
        5    1    3    3  502    0 -0.22348400318E+03  0.18948943155E+03 -0.12863535581E+04  0.13193100131E+04  0.46999998093E+01 0. -1.
       -5    1    3    3    0  502  0.22348400318E+03 -0.18948943155E+03  0.22217516161E+03  0.36774343880E+03  0.46999998093E+01 0.  1.
</event>
<event>
 5   0  0.2478236E-03  0.1291576E+04  0.7818609E-02  0.9036273E-01
        2   -1    0    0  501    0  0.00000000000E+00  0.00000000000E+00  0.58597344846E+03  0.58597344847E+03  0.25500000920E-02 0. -1.
       -2   -1    0    0    0  501  0.00000000000E+00  0.00000000000E+00 -0.71170777770E+03  0.71170777771E+03  0.25500000920E-02 0.  1.
    10030    2    1    2    0    0  0.00000000000E+00  0.00000000000E+00 -0.12573432924E+03  0.12976812262E+04  0.12915755662E+04 0.  0.
        3    1    3    3  502    0 -0.26057205393E+03  0.58632703708E+03  0.10722926216E+02  0.64171035604E+03  0.10100000352E+00 0.  1.
       -3    1    3    3    0  502  0.26057205393E+03 -0.58632703708E+03 -0.13645725546E+03  0.65597087014E+03  0.10100000352E+00 0. -1.
</event>
<event>
 5   0  0.2312105E-03  0.1314538E+04  0.7818609E-02  0.9018115E-01
       -2   -1    0    0    0  501  0.00000000000E+00  0.00000000000E+00  0.56036978792E+03  0.56036978793E+03  0.25500000920E-02 0.  1.
        2   -1    0    0  501    0  0.00000000000E+00  0.00000000000E+00 -0.77092410807E+03  0.77092410807E+03  0.25500000920E-02 0. -1.
    10030    2    1    2    0    0  0.00000000000E+00  0.00000000000E+00 -0.21055432015E+03  0.13312938960E+04  0.13145380618E+04 0.  0.
        5    1    3    3  502    0  0.47816187920E+03  0.31476648758E+03  0.22173769092E+03  0.61392704615E+03  0.46999998093E+01 0.  1.
       -5    1    3    3    0  502 -0.47816187920E+03 -0.31476648758E+03 -0.43229201107E+03  0.71736684985E+03  0.46999998093E+01 0. -1.
</event>
<event>
 5   0  0.1332630E-03  0.1453686E+04  0.7818609E-02  0.8915849E-01
       -1   -1    0    0    0  501  0.00000000000E+00  0.00000000000E+00  0.40431582573E+03  0.40431582576E+03  0.50400001928E-02 0. -1.
        1   -1    0    0  501    0  0.00000000000E+00  0.00000000000E+00 -0.13066538383E+04  0.13066538383E+04  0.50400001928E-02 0.  1.
    10030    2    1    2    0    0  0.00000000000E+00  0.00000000000E+00 -0.90233801255E+03  0.17109696640E+04  0.14536861086E+04 0.  0.
        5    1    3    3  502    0 -0.11464370228E+03 -0.38580032560E+03 -0.11635074341E+04  0.12311607162E+04  0.46999998093E+01 0.  1.
       -5    1    3    3    0  502  0.11464370228E+03  0.38580032560E+03  0.26116942159E+03  0.47980894789E+03  0.46999998093E+01 0. -1.
</event>
<event>
 5   0  0.2401211E-03  0.1302835E+04  0.7818609E-02  0.9027320E-01
       -2   -1    0    0    0  501  0.00000000000E+00  0.00000000000E+00  0.10662697691E+04  0.10662697692E+04  0.25500000920E-02 0. -1.
        2   -1    0    0  501    0  0.00000000000E+00  0.00000000000E+00 -0.39797140882E+03  0.39797140882E+03  0.25500000920E-02 0.  1.
    10030    2    1    2    0    0  0.00000000000E+00  0.00000000000E+00  0.66829836033E+03  0.14642411780E+04  0.13028351887E+04 0.  0.
        4    1    3    3  502    0 -0.46510702663E+03 -0.39307614604E+03  0.59412925822E+03  0.85077881449E+03  0.12699999809E+01 0. -1.
       -4    1    3    3    0  502  0.46510702663E+03  0.39307614604E+03  0.74169102114E+02  0.61346236349E+03  0.12699999809E+01 0.  1.
</event>
<event>
 5   0  0.1324721E-03  0.1311966E+04  0.7818609E-02  0.9020129E-01
        1   -1    0    0  501    0  0.00000000000E+00  0.00000000000E+00  0.80388217623E+03  0.80388217625E+03  0.50400001928E-02 0.  1.
       -1   -1    0    0    0  501  0.00000000000E+00  0.00000000000E+00 -0.53529466064E+03  0.53529466066E+03  0.50400001928E-02 0. -1.
    10030    2    1    2    0    0  0.00000000000E+00  0.00000000000E+00  0.26858751560E+03  0.13391768369E+04  0.13119662141E+04 0.  0.
        1    1    3    3  502    0 -0.65080392043E+03 -0.78454470307E+02  0.15956589421E+03  0.67465703982E+03  0.50400001928E-02 0. -1.
       -1    1    3    3    0  502  0.65080392043E+03  0.78454470307E+02  0.10902162139E+03  0.66451979709E+03  0.50400001928E-02 0.  1.
</event>
<event>
 5   0  0.1346593E-03  0.1324700E+04  0.7818609E-02  0.9010204E-01
       -1   -1    0    0    0  501  0.00000000000E+00  0.00000000000E+00  0.21811421468E+03  0.21811421473E+03  0.50400001928E-02 0.  1.
        1   -1    0    0  501    0  0.00000000000E+00  0.00000000000E+00 -0.20113661476E+04  0.20113661476E+04  0.50400001928E-02 0. -1.
    10030    2    1    2    0    0  0.00000000000E+00  0.00000000000E+00 -0.17932519329E+04  0.22294803623E+04  0.13247000382E+04 0.  0.
        2    1    3    3  502    0  0.18029061406E+02 -0.38724675045E+03 -0.18004848630E+04  0.18417466804E+04  0.25500000920E-02 0. -1.
       -2    1    3    3    0  502 -0.18029061406E+02  0.38724675045E+03  0.72329301488E+01  0.38773368189E+03  0.25500000920E-02 0.  1.
</event>
<event>
 5   0  0.1310461E-03  0.1251091E+04  0.7818609E-02  0.9069276E-01
       -1   -1    0    0    0  501  0.00000000000E+00  0.00000000000E+00  0.22359411598E+03  0.22359411604E+03  0.50400001928E-02 0. -1.
        1   -1    0    0  501    0  0.00000000000E+00  0.00000000000E+00 -0.17500773085E+04  0.17500773085E+04  0.50400001928E-02 0.  1.
    10030    2    1    2    0    0  0.00000000000E+00  0.00000000000E+00 -0.15264831925E+04  0.19736714245E+04  0.12510907062E+04 0.  0.
        4    1    3    3  502    0 -0.43330865800E+03 -0.39239724951E+03 -0.41199645398E+03  0.71517458394E+03  0.12699999809E+01 0. -1.
       -4    1    3    3    0  502  0.43330865800E+03  0.39239724951E+03 -0.11144867385E+04  0.12584968406E+04  0.12699999809E+01 0.  1.
</event>
<event>
 5   0  0.1310461E-03  0.1315029E+04  0.7818609E-02  0.9017731E-01
        1   -1    0    0  501    0  0.00000000000E+00  0.00000000000E+00  0.10582633713E+04  0.10582633713E+04  0.50400001928E-02 0. -1.
       -1   -1    0    0    0  501  0.00000000000E+00  0.00000000000E+00 -0.40852326179E+03  0.40852326182E+03  0.50400001928E-02 0.  1.
    10030    2    1    2    0    0  0.00000000000E+00  0.00000000000E+00  0.64974010946E+03  0.14667866331E+04  0.13150288275E+04 0.  0.
        4    1    3    3  502    0 -0.34977870828E+03  0.54383358564E+03  0.45789545335E+03  0.79231936284E+03  0.12699999809E+01 0. -1.
       -4    1    3    3    0  502  0.34977870828E+03 -0.54383358564E+03  0.19184465612E+03  0.67446727024E+03  0.12699999809E+01 0.  1.
</event>
<event>
 5   0  0.1324721E-03  0.1131513E+04  0.7818609E-02  0.9175010E-01
       -1   -1    0    0    0  501  0.00000000000E+00  0.00000000000E+00  0.41410179398E+03  0.41410179401E+03  0.50400001928E-02 0.  1.
        1   -1    0    0  501    0  0.00000000000E+00  0.00000000000E+00 -0.77295075877E+03  0.77295075879E+03  0.50400001928E-02 0. -1.
    10030    2    1    2    0    0  0.00000000000E+00  0.00000000000E+00 -0.35884896479E+03  0.11870525528E+04  0.11315127854E+04 0.  0.
        1    1    3    3  502    0  0.25220945566E+03  0.41152075199E+03 -0.48907570314E+03  0.68713461728E+03  0.50400001928E-02 0. -1.
       -1    1    3    3    0  502 -0.25220945566E+03 -0.41152075199E+03  0.13022673835E+03  0.49991793551E+03  0.50400001928E-02 0.  1.
</event>
<event>
 5   0  0.1332630E-03  0.1338222E+04  0.7818609E-02  0.8999792E-01
        1   -1    0    0  501    0  0.00000000000E+00  0.00000000000E+00  0.10882481638E+04  0.10882481638E+04  0.50400001928E-02 0.  1.
       -1   -1    0    0    0  501  0.00000000000E+00  0.00000000000E+00 -0.41140366581E+03  0.41140366584E+03  0.50400001928E-02 0. -1.
    10030    2    1    2    0    0  0.00000000000E+00  0.00000000000E+00  0.67684449795E+03  0.14996518296E+04  0.13382216317E+04 0.  0.
        5    1    3    3  502    0  0.27316060414E+03 -0.61059420137E+03  0.35597002941E+03  0.75774583222E+03  0.46999998093E+01 0. -1.
       -5    1    3    3    0  502 -0.27316060414E+03  0.61059420137E+03  0.32087446854E+03  0.74190599739E+03  0.46999998093E+01 0.  1.
</event>
<event>
 5   0  0.2401211E-03  0.1302584E+04  0.7818609E-02  0.9027518E-01
        2   -1    0    0  501    0  0.00000000000E+00  0.00000000000E+00  0.82790025950E+03  0.82790025951E+03  0.25500000920E-02 0.  1.
       -2   -1    0    0    0  501  0.00000000000E+00  0.00000000000E+00 -0.51235804966E+03  0.51235804967E+03  0.25500000920E-02 0. -1.
    10030    2    1    2    0    0  0.00000000000E+00  0.00000000000E+00  0.31554220984E+03  0.13402583092E+04  0.13025841428E+04 0.  0.
        4    1    3    3  502    0  0.18442086918E+03 -0.23097495415E+02 -0.48449028182E+03  0.51891906629E+03  0.12699999809E+01 0. -1.
       -4    1    3    3    0  502 -0.18442086918E+03  0.23097495415E+02  0.80003249166E+03  0.82133924288E+03  0.12699999809E+01 0.  1.
</event>
<event>
 5   0  0.1332630E-03  0.1289642E+04  0.7818609E-02  0.9037820E-01
        1   -1    0    0  501    0  0.00000000000E+00  0.00000000000E+00  0.44817540188E+03  0.44817540191E+03  0.50400001928E-02 0.  1.
       -1   -1    0    0    0  501  0.00000000000E+00  0.00000000000E+00 -0.92774892362E+03  0.92774892364E+03  0.50400001928E-02 0. -1.
    10030    2    1    2    0    0  0.00000000000E+00  0.00000000000E+00 -0.47957352175E+03  0.13759243255E+04  0.12896421933E+04 0.  0.
        5    1    3    3  502    0 -0.12441023381E+03 -0.12614360145E+03  0.42167822515E+03  0.45741089846E+03  0.46999998093E+01 0.  1.
       -5    1    3    3    0  502  0.12441023381E+03  0.12614360145E+03 -0.90125174689E+03  0.91851342709E+03  0.46999998093E+01 0. -1.
</event>
<event>
 5   0  0.2401211E-03  0.1042844E+04  0.7818609E-02  0.9262763E-01
        2   -1    0    0  501    0  0.00000000000E+00  0.00000000000E+00  0.37629261296E+03  0.37629261297E+03  0.25500000920E-02 0. -1.
       -2   -1    0    0    0  501  0.00000000000E+00  0.00000000000E+00 -0.72252533155E+03  0.72252533155E+03  0.25500000920E-02 0.  1.
    10030    2    1    2    0    0  0.00000000000E+00  0.00000000000E+00 -0.34623271858E+03  0.10988179445E+04  0.10428440822E+04 0.  0.
        4    1    3    3  502    0  0.18390641018E+03  0.48440975438E+03 -0.23460034315E+03  0.56878230611E+03  0.12699999809E+01 0.  1.
       -4    1    3    3    0  502 -0.18390641018E+03 -0.48440975438E+03 -0.11163237543E+03  0.53003563841E+03  0.12699999809E+01 0. -1.
</event>
<event>
 5   0  0.1324721E-03  0.1290075E+04  0.7818609E-02  0.9037473E-01
        1   -1    0    0  501    0  0.00000000000E+00  0.00000000000E+00  0.12146824021E+04  0.12146824021E+04  0.50400001928E-02 0. -1.
       -1   -1    0    0    0  501  0.00000000000E+00  0.00000000000E+00 -0.34253689307E+03  0.34253689310E+03  0.50400001928E-02 0.  1.
    10030    2    1    2    0    0  0.00000000000E+00  0.00000000000E+00  0.87214550904E+03  0.15572192952E+04  0.12900752476E+04 0.  0.
        1    1    3    3  502    0  0.42162163123E+03 -0.31840771681E+03  0.88273220176E+03  0.10287683967E+04  0.50400001928E-02 0.  1.
       -1    1    3    3    0  502 -0.42162163123E+03  0.31840771681E+03 -0.10586692713E+02  0.52845089851E+03  0.50400001928E-02 0. -1.
</event>
<event>
 5   0  0.9131250E-04  0.1302527E+04  0.7818609E-02  0.9027564E-01
       -3   -1    0    0    0  501  0.00000000000E+00  0.00000000000E+00  0.58590445511E+03  0.58590446381E+03  0.10100000352E+00 0.  1.
        3   -1    0    0  501    0  0.00000000000E+00  0.00000000000E+00 -0.72391362657E+03  0.72391363361E+03  0.10100000352E+00 0. -1.
    10030    2    1    2    0    0  0.00000000000E+00  0.00000000000E+00 -0.13800917146E+03  0.13098180974E+04  0.13025271271E+04 0.  0.
        5    1    3    3  502    0 -0.13198277194E+03  0.42263068325E+03 -0.54926137965E+03  0.70551137460E+03  0.46999998093E+01 0. -1.
       -5    1    3    3    0  502  0.13198277194E+03 -0.42263068325E+03  0.41125220819E+03  0.60430672283E+03  0.46999998093E+01 0.  1.
</event>
<event>
 5   0  0.2334946E-03  0.1253298E+04  0.7818609E-02  0.9067442E-01
        2   -1    0    0  501    0  0.00000000000E+00  0.00000000000E+00  0.18993028789E+04  0.18993028789E+04  0.25500000920E-02 0. -1.
       -2   -1    0    0    0  501  0.00000000000E+00  0.00000000000E+00 -0.20675441489E+03  0.20675441490E+03  0.25500000920E-02 0.  1.
    10030    2    1    2    0    0  0.00000000000E+00  0.00000000000E+00  0.16925484640E+04  0.21060572938E+04  0.12532984568E+04 0.  0.
        1    1    3    3  502    0 -0.26420144976E+03 -0.56544997526E+03  0.94063461665E+03  0.11288620654E+04  0.50400001928E-02 0.  1.
       -1    1    3    3    0  502  0.26420144976E+03  0.56544997526E+03  0.75191384736E+03  0.97719522842E+03  0.50400001928E-02 0. -1.
</event>
<event>
 5   0  0.1387622E-03  0.1320010E+04  0.7818609E-02  0.9013846E-01
       -1   -1    0    0    0  501  0.00000000000E+00  0.00000000000E+00  0.99510372709E+03  0.99510372710E+03  0.50400001928E-02 0. -1.
        1   -1    0    0  501    0  0.00000000000E+00  0.00000000000E+00 -0.43775009222E+03  0.43775009225E+03  0.50400001928E-02 0.  1.
    10030    2    1    2    0    0  0.00000000000E+00  0.00000000000E+00  0.55735363487E+03  0.14328538194E+04  0.13200102247E+04 0.  0.
        3    1    3    3  502    0  0.65253600602E+03  0.29403015727E+02  0.17604828291E+03  0.67650630788E+03  0.10100000352E+00 0. -1.
       -3    1    3    3    0  502 -0.65253600602E+03 -0.29403015727E+02  0.38130535195E+03  0.75634751147E+03  0.10100000352E+00 0.  1.
</event>
<event>
 5   0  0.2361043E-03  0.1284726E+04  0.7818609E-02  0.9041766E-01
       -2   -1    0    0    0  501  0.00000000000E+00  0.00000000000E+00  0.64635134481E+03  0.64635134481E+03  0.25500000920E-02 0. -1.
        2   -1    0    0  501    0  0.00000000000E+00  0.00000000000E+00 -0.63839968548E+03  0.63839968548E+03  0.25500000920E-02 0.  1.
    10030    2    1    2    0    0  0.00000000000E+00  0.00000000000E+00  0.79516593280E+01  0.12847510303E+04  0.12847264226E+04 0.  0.
        2    1    3    3  502    0 -0.41949812359E+03 -0.44474093436E+03 -0.19315054959E+03  0.64115544856E+03  0.25500000920E-02 0.  1.
       -2    1    3    3    0  502  0.41949812359E+03  0.44474093436E+03  0.20110220892E+03  0.64359558174E+03  0.25500000920E-02 0. -1.
</event>
<event>
 5   0  0.1324721E-03  0.1309649E+04  0.7818609E-02  0.9021948E-01
       -1   -1    0    0    0  501  0.00000000000E+00  0.00000000000E+00  0.18890924415E+04  0.18890924415E+04  0.50400001928E-02 0.  1.
        1   -1    0    0  501    0  0.00000000000E+00  0.00000000000E+00 -0.22698471639E+03  0.22698471645E+03  0.50400001928E-02 0. -1.
    10030    2    1    2    0    0  0.00000000000E+00  0.00000000000E+00  0.16621077251E+04  0.21160771580E+04  0.13096489792E+04 0.  0.
        1    1    3    3  502    0 -0.47459921624E+03 -0.31373820861E+03  0.30719141458E+03  0.64656217397E+03  0.50400001928E-02 0. -1.
       -1    1    3    3    0  502  0.47459921624E+03  0.31373820861E+03  0.13549163106E+04  0.14695149840E+04  0.50400001928E-02 0.  1.
</event>
<event>
 5   0  0.1387622E-03  0.1290041E+04  0.7818609E-02  0.9037500E-01
       -1   -1    0    0    0  501  0.00000000000E+00  0.00000000000E+00  0.10081186615E+04  0.10081186615E+04  0.50400001928E-02 0. -1.
        1   -1    0    0  501    0  0.00000000000E+00  0.00000000000E+00 -0.41270104008E+03  0.41270104011E+03  0.50400001928E-02 0.  1.
    10030    2    1    2    0    0  0.00000000000E+00  0.00000000000E+00  0.59541762138E+03  0.14208197016E+04  0.12900412709E+04 0.  0.
        3    1    3    3  502    0 -0.42561080514E+03 -0.16278795897E+03  0.80050462732E+03  0.92111462131E+03  0.10100000352E+00 0.  1.
       -3    1    3    3    0  502  0.42561080514E+03  0.16278795897E+03 -0.20508700594E+03  0.49970508027E+03  0.10100000352E+00 0. -1.
</event>
<event>
 5   0  0.1324721E-03  0.1293202E+04  0.7818609E-02  0.9034973E-01
       -1   -1    0    0    0  501  0.00000000000E+00  0.00000000000E+00  0.75664631630E+03  0.75664631631E+03  0.50400001928E-02 0. -1.
        1   -1    0    0  501    0  0.00000000000E+00  0.00000000000E+00 -0.55256075353E+03  0.55256075355E+03  0.50400001928E-02 0.  1.
    10030    2    1    2    0    0  0.00000000000E+00  0.00000000000E+00  0.20408556277E+03  0.13092070699E+04  0.12932023178E+04 0.  0.
        1    1    3    3  502    0 -0.14669426018E+03 -0.38022625106E+03  0.61025339729E+03  0.73382587641E+03  0.50400001928E-02 0. -1.
       -1    1    3    3    0  502  0.14669426018E+03  0.38022625106E+03 -0.40616783452E+03  0.57538119346E+03  0.50400001928E-02 0.  1.
</event>
<event>
 5   0  0.2312105E-03  0.1315881E+04  0.7818609E-02  0.9017066E-01
        2   -1    0    0  501    0  0.00000000000E+00  0.00000000000E+00  0.79139382838E+03  0.79139382838E+03  0.25500000920E-02 0.  1.
       -2   -1    0    0    0  501  0.00000000000E+00  0.00000000000E+00 -0.54699125317E+03  0.54699125318E+03  0.25500000920E-02 0. -1.
    10030    2    1    2    0    0  0.00000000000E+00  0.00000000000E+00  0.24440257521E+03  0.13383850816E+04  0.13158806966E+04 0.  0.
        5    1    3    3  502    0 -0.56735019235E+03 -0.12073364011E+03  0.43799563199E+03  0.72685976382E+03  0.46999998093E+01 0.  1.
       -5    1    3    3    0  502  0.56735019235E+03  0.12073364011E+03 -0.19359305678E+03  0.61152531775E+03  0.46999998093E+01 0. -1.
</event>
<event>
 5   0  0.2478236E-03  0.1292504E+04  0.7818609E-02  0.9035530E-01
       -2   -1    0    0    0  501  0.00000000000E+00  0.00000000000E+00  0.22626622562E+03  0.22626622563E+03  0.25500000920E-02 0. -1.
        2   -1    0    0  501    0  0.00000000000E+00  0.00000000000E+00 -0.18457985852E+04  0.18457985852E+04  0.25500000920E-02 0.  1.
    10030    2    1    2    0    0  0.00000000000E+00  0.00000000000E+00 -0.16195323596E+04  0.20720648108E+04  0.12925043584E+04 0.  0.
        3    1    3    3  502    0 -0.47281775746E+03 -0.43882001836E+03 -0.74721849094E+03  0.98714493550E+03  0.10100000352E+00 0. -1.
       -3    1    3    3    0  502  0.47281775746E+03  0.43882001836E+03 -0.87231386865E+03  0.10849198753E+04  0.10100000352E+00 0.  1.
</event>
<event>
 5   0  0.2334946E-03  0.1307440E+04  0.7818609E-02  0.9023686E-01
        2   -1    0    0  501    0  0.00000000000E+00  0.00000000000E+00  0.15663249551E+04  0.15663249551E+04  0.25500000920E-02 0.  1.
       -2   -1    0    0    0  501  0.00000000000E+00  0.00000000000E+00 -0.27283604068E+03  0.27283604069E+03  0.25500000920E-02 0. -1.
    10030    2    1    2    0    0  0.00000000000E+00  0.00000000000E+00  0.12934889144E+04  0.18391609958E+04  0.13074400930E+04 0.  0.
        1    1    3    3  502    0 -0.25311705566E+03 -0.58115391618E+03  0.42193036147E+03  0.76146789040E+03  0.50400001928E-02 0. -1.
       -1    1    3    3    0  502  0.25311705566E+03  0.58115391618E+03  0.87155855292E+03  0.10776931054E+04  0.50400001928E-02 0.  1.
</event>
<event>
 5   0  0.1346593E-03  0.1320322E+04  0.7818609E-02  0.9013603E-01
       -1   -1    0    0    0  501  0.00000000000E+00  0.00000000000E+00  0.90674069179E+03  0.90674069180E+03  0.50400001928E-02 0. -1.
        1   -1    0    0  501    0  0.00000000000E+00  0.00000000000E+00 -0.48063601654E+03  0.48063601656E+03  0.50400001928E-02 0.  1.
    10030    2    1    2    0    0  0.00000000000E+00  0.00000000000E+00  0.42610467525E+03  0.13873767084E+04  0.13203215278E+04 0.  0.
        2    1    3    3  502    0  0.40481793792E+03  0.46401934655E+02 -0.33273166598E+03  0.52606184423E+03  0.25500000920E-02 0.  1.
       -2    1    3    3    0  502 -0.40481793792E+03 -0.46401934655E+02  0.75883634123E+03  0.86131486413E+03  0.25500000920E-02 0. -1.
</event>
<event>
 5   0  0.1324721E-03  0.1343856E+04  0.7818609E-02  0.8995492E-01
       -1   -1    0    0    0  501  0.00000000000E+00  0.00000000000E+00  0.55959106049E+03  0.55959106052E+03  0.50400001928E-02 0. -1.
        1   -1    0    0  501    0  0.00000000000E+00  0.00000000000E+00 -0.80681666109E+03  0.80681666111E+03  0.50400001928E-02 0.  1.
    10030    2    1    2    0    0  0.00000000000E+00  0.00000000000E+00 -0.24722560060E+03  0.13664077216E+04  0.13438562290E+04 0.  0.
        1    1    3    3  502    0 -0.28112795836E+03  0.53412793657E+02  0.49453792380E+03  0.57136119364E+03  0.50400001928E-02 0. -1.
       -1    1    3    3    0  502  0.28112795836E+03 -0.53412793657E+02 -0.74176352440E+03  0.79504652798E+03  0.50400001928E-02 0.  1.
</event>
<event>
 5   0  0.2312105E-03  0.1299416E+04  0.7818609E-02  0.9030029E-01
       -2   -1    0    0    0  501  0.00000000000E+00  0.00000000000E+00  0.12012920284E+04  0.12012920284E+04  0.25500000920E-02 0.  1.
        2   -1    0    0  501    0  0.00000000000E+00  0.00000000000E+00 -0.35138847845E+03  0.35138847846E+03  0.25500000920E-02 0. -1.
    10030    2    1    2    0    0  0.00000000000E+00  0.00000000000E+00  0.84990354991E+03  0.15526805068E+04  0.12994155271E+04 0.  0.
        5    1    3    3  502    0  0.51852399808E+03 -0.37748387525E+03  0.30113684828E+03  0.70856665463E+03  0.46999998093E+01 0. -1.
       -5    1    3    3    0  502 -0.51852399808E+03  0.37748387525E+03  0.54876670164E+03  0.84411385220E+03  0.46999998093E+01 0.  1.
</event>
<event>
 5   0  0.1387622E-03  0.1296372E+04  0.7818609E-02  0.9032447E-01
        1   -1    0    0  501    0  0.00000000000E+00  0.00000000000E+00  0.77534818157E+03  0.77534818159E+03  0.50400001928E-02 0.  1.
       -1   -1    0    0    0  501  0.00000000000E+00  0.00000000000E+00 -0.54187903685E+03  0.54187903688E+03  0.50400001928E-02 0. -1.
    10030    2    1    2    0    0  0.00000000000E+00  0.00000000000E+00  0.23346914472E+03  0.13172272185E+04  0.12963717459E+04 0.  0.
        3    1    3    3  502    0  0.17644785490E+03  0.60004466593E+03 -0.56171975351E+02  0.62796715489E+03  0.10100000352E+00 0. -1.
       -3    1    3    3    0  502 -0.17644785490E+03 -0.60004466593E+03  0.28964112007E+03  0.68926006358E+03  0.10100000352E+00 0.  1.
</event>
<event>
 5   0  0.1310461E-03  0.1292124E+04  0.7818609E-02  0.9035834E-01
       -1   -1    0    0    0  501  0.00000000000E+00  0.00000000000E+00  0.23991954405E+03  0.23991954410E+03  0.50400001928E-02 0.  1.
        1   -1    0    0  501    0  0.00000000000E+00  0.00000000000E+00 -0.17397348183E+04  0.17397348183E+04  0.50400001928E-02 0. -1.
    10030    2    1    2    0    0  0.00000000000E+00  0.00000000000E+00 -0.14998152742E+04  0.19796543624E+04  0.12921244281E+04 0.  0.
        4    1    3    3  502    0  0.31806312041E+03 -0.47786876729E+03 -0.12040692761E+04  0.13339067216E+04  0.12699999809E+01 0. -1.
       -4    1    3    3    0  502 -0.31806312041E+03  0.47786876729E+03 -0.29574599817E+03  0.64574764084E+03  0.12699999809E+01 0.  1.
</event>
<event>
 5   0  0.2312105E-03  0.1266193E+04  0.7818609E-02  0.9056812E-01
       -2   -1    0    0    0  501  0.00000000000E+00  0.00000000000E+00  0.31460976785E+03  0.31460976786E+03  0.25500000920E-02 0.  1.
        2   -1    0    0  501    0  0.00000000000E+00  0.00000000000E+00 -0.12739952079E+04  0.12739952079E+04  0.25500000920E-02 0. -1.
    10030    2    1    2    0    0  0.00000000000E+00  0.00000000000E+00 -0.95938544001E+03  0.15886049757E+04  0.12661932500E+04 0.  0.
        5    1    3    3  502    0 -0.29591035063E+03 -0.54049075788E+03 -0.29746413024E+03  0.68425155736E+03  0.46999998093E+01 0.  1.
       -5    1    3    3    0  502  0.29591035063E+03  0.54049075788E+03 -0.66192130977E+03  0.90435341836E+03  0.46999998093E+01 0. -1.
</event>
<event>
 5   0  0.1332630E-03  0.1290683E+04  0.7818609E-02  0.9036987E-01
       -1   -1    0    0    0  501  0.00000000000E+00  0.00000000000E+00  0.54825063295E+03  0.54825063298E+03  0.50400001928E-02 0.  1.
        1   -1    0    0  501    0  0.00000000000E+00  0.00000000000E+00 -0.75962609509E+03  0.75962609511E+03  0.50400001928E-02 0. -1.
    10030    2    1    2    0    0  0.00000000000E+00  0.00000000000E+00 -0.21137546214E+03  0.13078767281E+04  0.12906827456E+04 0.  0.
        5    1    3    3  502    0 -0.11831389744E+03 -0.56402645548E+03  0.18855856286E+03  0.60638308224E+03  0.46999998093E+01 0. -1.
       -5    1    3    3    0  502  0.11831389744E+03  0.56402645548E+03 -0.39993402500E+03  0.70149364584E+03  0.46999998093E+01 0.  1.
</event>
<event>
 5   0  0.2312105E-03  0.1349619E+04  0.7818609E-02  0.8991117E-01
       -2   -1    0    0    0  501  0.00000000000E+00  0.00000000000E+00  0.24614441490E+03  0.24614441491E+03  0.25500000920E-02 0. -1.
        2   -1    0    0  501    0  0.00000000000E+00  0.00000000000E+00 -0.18500017831E+04  0.18500017831E+04  0.25500000920E-02 0.  1.
    10030    2    1    2    0    0  0.00000000000E+00  0.00000000000E+00 -0.16038573682E+04  0.20961461980E+04  0.13496186224E+04 0.  0.
        5    1    3    3  502    0  0.44707380171E+03 -0.14574776255E+03 -0.15536035447E+04  0.16232139288E+04  0.46999998093E+01 0.  1.
       -5    1    3    3    0  502 -0.44707380171E+03  0.14574776255E+03 -0.50253823442E+02  0.47293226918E+03  0.46999998093E+01 0. -1.
</event>
<event>
 5   0  0.2401211E-03  0.1287994E+04  0.7818609E-02  0.9039141E-01
        2   -1    0    0  501    0  0.00000000000E+00  0.00000000000E+00  0.91194350062E+03  0.91194350062E+03  0.25500000920E-02 0.  1.
       -2   -1    0    0    0  501  0.00000000000E+00  0.00000000000E+00 -0.45477833884E+03  0.45477833885E+03  0.25500000920E-02 0. -1.
    10030    2    1    2    0    0  0.00000000000E+00  0.00000000000E+00  0.45716516178E+03  0.13667218395E+04  0.12879940223E+04 0.  0.
        4    1    3    3  502    0 -0.51364098885E+03 -0.38187066545E+03  0.30420038250E+03  0.70865489215E+03  0.12699999809E+01 0. -1.
       -4    1    3    3    0  502  0.51364098885E+03  0.38187066545E+03  0.15296477928E+03  0.65806694732E+03  0.12699999809E+01 0.  1.
</event>
<event>
 5   0  0.2334946E-03  0.1318390E+04  0.7818609E-02  0.9015107E-01
       -2   -1    0    0    0  501  0.00000000000E+00  0.00000000000E+00  0.25220140749E+03  0.25220140750E+03  0.25500000920E-02 0.  1.
        2   -1    0    0  501    0  0.00000000000E+00  0.00000000000E+00 -0.17229807723E+04  0.17229807723E+04  0.25500000920E-02 0. -1.
    10030    2    1    2    0    0  0.00000000000E+00  0.00000000000E+00 -0.14707793648E+04  0.19751821798E+04  0.13183901939E+04 0.  0.
        1    1    3    3  502    0  0.18891787294E+01 -0.42062140679E+03  0.25017903368E+02  0.42136899786E+03  0.50400001928E-02 0.  1.
       -1    1    3    3    0  502 -0.18891787294E+01  0.42062140679E+03 -0.14957972682E+04  0.15538131819E+04  0.50400001928E-02 0. -1.
</event>
<event>
 5   0  0.2334946E-03  0.1311233E+04  0.7818609E-02  0.9020705E-01
        2   -1    0    0  501    0  0.00000000000E+00  0.00000000000E+00  0.11532354232E+04  0.11532354232E+04  0.25500000920E-02 0. -1.
       -2   -1    0    0    0  501  0.00000000000E+00  0.00000000000E+00 -0.37271900079E+03  0.37271900080E+03  0.25500000920E-02 0.  1.
    10030    2    1    2    0    0  0.00000000000E+00  0.00000000000E+00  0.78051642240E+03  0.15259544240E+04  0.13112326332E+04 0.  0.
        1    1    3    3  502    0  0.10711490269E+02 -0.32941331623E+03 -0.26929962521E+03  0.42561738345E+03  0.50400001928E-02 0.  1.
       -1    1    3    3    0  502 -0.10711490269E+02  0.32941331623E+03  0.10498160476E+04  0.11003370405E+04  0.50400001928E-02 0. -1.
</event>
<event>
 5   0  0.1346593E-03  0.1302821E+04  0.7818609E-02  0.9027331E-01
       -1   -1    0    0    0  501  0.00000000000E+00  0.00000000000E+00  0.37132552081E+03  0.37132552084E+03  0.50400001928E-02 0.  1.
        1   -1    0    0  501    0  0.00000000000E+00  0.00000000000E+00 -0.11427599639E+04  0.11427599639E+04  0.50400001928E-02 0. -1.
    10030    2    1    2    0    0  0.00000000000E+00  0.00000000000E+00 -0.77143444306E+03  0.15140854847E+04  0.13028214594E+04 0.  0.
        2    1    3    3  502    0 -0.38917519399E+03  0.17120584005E+03 -0.95927195111E+03  0.10492718654E+04  0.25500000920E-02 0. -1.
       -2    1    3    3    0  502  0.38917519399E+03 -0.17120584005E+03  0.18783750805E+03  0.46481361934E+03  0.25500000920E-02 0.  1.
</event>
<event>
 5   0  0.2334946E-03  0.1352914E+04  0.7818609E-02  0.8988625E-01
       -2   -1    0    0    0  501  0.00000000000E+00  0.00000000000E+00  0.30433495030E+03  0.30433495031E+03  0.25500000920E-02 0.  1.
        2   -1    0    0  501    0  0.00000000000E+00  0.00000000000E+00 -0.15035869614E+04  0.15035869614E+04  0.25500000920E-02 0. -1.
    10030    2    1    2    0    0  0.00000000000E+00  0.00000000000E+00 -0.11992520111E+04  0.18079219117E+04  0.13529139857E+04 0.  0.
        1    1    3    3  502    0 -0.56599093839E+03 -0.29273092641E+03 -0.90305214242E+03  0.11052331472E+04  0.50400001928E-02 0.  1.
       -1    1    3    3    0  502  0.56599093839E+03  0.29273092641E+03 -0.29619986870E+03  0.70268876457E+03  0.50400001928E-02 0. -1.
</event>
<event>
 5   0  0.1332630E-03  0.1247566E+04  0.7818609E-02  0.9072212E-01
        1   -1    0    0  501    0  0.00000000000E+00  0.00000000000E+00  0.10991555148E+04  0.10991555148E+04  0.50400001928E-02 0.  1.
       -1   -1    0    0    0  501  0.00000000000E+00  0.00000000000E+00 -0.35400366871E+03  0.35400366874E+03  0.50400001928E-02 0. -1.
    10030    2    1    2    0    0  0.00000000000E+00  0.00000000000E+00  0.74515184606E+03  0.14531591835E+04  0.12475657654E+04 0.  0.
        5    1    3    3  502    0  0.40238679896E+03 -0.98135827267E+01  0.92762464453E+03  0.10111978113E+04  0.46999998093E+01 0.  1.
       -5    1    3    3    0  502 -0.40238679896E+03  0.98135827267E+01 -0.18247279847E+03  0.44196137225E+03  0.46999998093E+01 0. -1.
</event>
<event>
 5   0  0.1387622E-03  0.1239735E+04  0.7818609E-02  0.9078770E-01
       -1   -1    0    0    0  501  0.00000000000E+00  0.00000000000E+00  0.18292663985E+04  0.18292663985E+04  0.50400001928E-02 0.  1.
        1   -1    0    0  501    0  0.00000000000E+00  0.00000000000E+00 -0.21004904115E+03  0.21004904121E+03  0.50400001928E-02 0. -1.
    10030    2    1    2    0    0  0.00000000000E+00  0.00000000000E+00  0.16192173573E+04  0.20393154397E+04  0.12397348960E+04 0.  0.
        3    1    3    3  502    0  0.61784385748E+03  0.40314615877E+02  0.85838786883E+03  0.10583884183E+04  0.10100000352E+00 0. -1.
       -3    1    3    3    0  502 -0.61784385748E+03 -0.40314615877E+02  0.76082948850E+03  0.98092702137E+03  0.10100000352E+00 0.  1.
</event>
<event>
 5   0  0.2401211E-03  0.1171168E+04  0.7818609E-02  0.9138474E-01
        2   -1    0    0  501    0  0.00000000000E+00  0.00000000000E+00  0.90150971445E+03  0.90150971445E+03  0.25500000920E-02 0. -1.
       -2   -1    0    0    0  501  0.00000000000E+00  0.00000000000E+00 -0.38037154936E+03  0.38037154937E+03  0.25500000920E-02 0.  1.
    10030    2    1    2    0    0  0.00000000000E+00  0.00000000000E+00  0.52113816509E+03  0.12818812638E+04  0.11711680441E+04 0.  0.
        4    1    3    3  502    0  0.25992868184E+03 -0.41544023158E+03 -0.90285341964E+02  0.49830368404E+03  0.12699999809E+01 0.  1.
       -4    1    3    3    0  502 -0.25992868184E+03  0.41544023158E+03  0.61142350706E+03  0.78357757978E+03  0.12699999809E+01 0. -1.
</event>
<event>
 5   0  0.1310461E-03  0.1304923E+04  0.7818609E-02  0.9025670E-01
        1   -1    0    0  501    0  0.00000000000E+00  0.00000000000E+00  0.92270585855E+03  0.92270585857E+03  0.50400001928E-02 0.  1.
       -1   -1    0    0    0  501  0.00000000000E+00  0.00000000000E+00 -0.46136707301E+03  0.46136707303E+03  0.50400001928E-02 0. -1.
    10030    2    1    2    0    0  0.00000000000E+00  0.00000000000E+00  0.46133878554E+03  0.13840729316E+04  0.13049231414E+04 0.  0.
        4    1    3    3  502    0  0.10863552462E+03 -0.36166551457E+03 -0.33367555540E+03  0.50392917241E+03  0.12699999809E+01 0. -1.
       -4    1    3    3    0  502 -0.10863552462E+03  0.36166551457E+03  0.79501434094E+03  0.88014375919E+03  0.12699999809E+01 0.  1.
</event>
<event>
 5   0  0.2478236E-03  0.1312432E+04  0.7818609E-02  0.9019764E-01
       -2   -1    0    0    0  501  0.00000000000E+00  0.00000000000E+00  0.37965773014E+03  0.37965773015E+03  0.25500000920E-02 0. -1.
        2   -1    0    0  501    0  0.00000000000E+00  0.00000000000E+00 -0.11342315149E+04  0.11342315149E+04  0.25500000920E-02 0.  1.
    10030    2    1    2    0    0  0.00000000000E+00  0.00000000000E+00 -0.75457378480E+03  0.15138892451E+04  0.13124324934E+04 0.  0.
        3    1    3    3  502    0 -0.53667830606E+03  0.37187607928E+03 -0.30160884921E+03  0.71922411713E+03  0.10100000352E+00 0. -1.
       -3    1    3    3    0  502  0.53667830606E+03 -0.37187607928E+03 -0.45296493559E+03  0.79466512797E+03  0.10100000352E+00 0.  1.
</event>
<event>
 5   0  0.2478236E-03  0.1203013E+04  0.7818609E-02  0.9110223E-01
        2   -1    0    0  501    0  0.00000000000E+00  0.00000000000E+00  0.69285360887E+03  0.69285360887E+03  0.25500000920E-02 0.  1.
       -2   -1    0    0    0  501  0.00000000000E+00  0.00000000000E+00 -0.52220263954E+03  0.52220263955E+03  0.25500000920E-02 0. -1.
    10030    2    1    2    0    0  0.00000000000E+00  0.00000000000E+00  0.17065096932E+03  0.12150562484E+04  0.12030128567E+04 0.  0.
        3    1    3    3  502    0  0.29357163254E+03  0.11168253123E+03 -0.43279410713E+03  0.53475979708E+03  0.10100000352E+00 0. -1.
       -3    1    3    3    0  502 -0.29357163254E+03 -0.11168253123E+03  0.60344507645E+03  0.68029645134E+03  0.10100000352E+00 0.  1.
</event>
<event>
 5   0  0.2478236E-03  0.1373007E+04  0.7818609E-02  0.8973593E-01
        2   -1    0    0  501    0  0.00000000000E+00  0.00000000000E+00  0.74328227995E+03  0.74328227996E+03  0.25500000920E-02 0.  1.
       -2   -1    0    0    0  501  0.00000000000E+00  0.00000000000E+00 -0.63406200302E+03  0.63406200302E+03  0.25500000920E-02 0. -1.
    10030    2    1    2    0    0  0.00000000000E+00  0.00000000000E+00  0.10922027694E+03  0.13773442830E+04  0.13730069938E+04 0.  0.
        3    1    3    3  502    0  0.68380701122E+03  0.56809272670E+02  0.76305268595E+02  0.69039251609E+03  0.10100000352E+00 0. -1.
       -3    1    3    3    0  502 -0.68380701122E+03 -0.56809272670E+02  0.32915008341E+02  0.68695176689E+03  0.10100000352E+00 0.  1.
</event>
<event>
 5   0  0.1346593E-03  0.1282173E+04  0.7818609E-02  0.9043823E-01
       -1   -1    0    0    0  501  0.00000000000E+00  0.00000000000E+00  0.38936801494E+03  0.38936801497E+03  0.50400001928E-02 0. -1.
        1   -1    0    0  501    0  0.00000000000E+00  0.00000000000E+00 -0.10555357661E+04  0.10555357661E+04  0.50400001928E-02 0.  1.
    10030    2    1    2    0    0  0.00000000000E+00  0.00000000000E+00 -0.66616775114E+03  0.14449037811E+04  0.12821729462E+04 0.  0.
        2    1    3    3  502    0  0.25902831731E+03  0.57667751725E+03 -0.21308304504E+03  0.66712593426E+03  0.25500000920E-02 0. -1.
       -2    1    3    3    0  502 -0.25902831731E+03 -0.57667751725E+03 -0.45308470610E+03  0.77777784680E+03  0.25500000920E-02 0.  1.
</event>
<event>
 5   0  0.2312105E-03  0.1318202E+04  0.7818609E-02  0.9015254E-01
        2   -1    0    0  501    0  0.00000000000E+00  0.00000000000E+00  0.19938221875E+04  0.19938221875E+04  0.25500000920E-02 0.  1.
       -2   -1    0    0    0  501  0.00000000000E+00  0.00000000000E+00 -0.21788007364E+03  0.21788007366E+03  0.25500000920E-02 0. -1.
    10030    2    1    2    0    0  0.00000000000E+00  0.00000000000E+00  0.17759421139E+04  0.22117022612E+04  0.13182019952E+04 0.  0.
        5    1    3    3  502    0  0.43245692842E+03  0.40794792861E+03  0.13653433643E+04  0.14891692650E+04  0.46999998093E+01 0.  1.
       -5    1    3    3    0  502 -0.43245692842E+03 -0.40794792861E+03  0.41059874955E+03  0.72253299615E+03  0.46999998093E+01 0. -1.
</event>
<event>
 5   0  0.2312105E-03  0.1276509E+04  0.7818609E-02  0.9048404E-01
        2   -1    0    0  501    0  0.00000000000E+00  0.00000000000E+00  0.15970290779E+04  0.15970290779E+04  0.25500000920E-02 0.  1.
       -2   -1    0    0    0  501  0.00000000000E+00  0.00000000000E+00 -0.25507903437E+03  0.25507903438E+03  0.25500000920E-02 0. -1.
    10030    2    1    2    0    0  0.00000000000E+00  0.00000000000E+00  0.13419500435E+04  0.18521081123E+04  0.12765087310E+04 0.  0.
        5    1    3    3  502    0  0.25731298112E+03  0.15526627742E+03 -0.14596845805E+03  0.33413540354E+03  0.46999998093E+01 0. -1.
       -5    1    3    3    0  502 -0.25731298112E+03 -0.15526627742E+03  0.14879185016E+04  0.15179727087E+04  0.46999998093E+01 0.  1.
</event>
<event>
 5   0  0.2401211E-03  0.1113131E+04  0.7818609E-02  0.9192487E-01
        2   -1    0    0  501    0  0.00000000000E+00  0.00000000000E+00  0.75531915436E+03  0.75531915436E+03  0.25500000920E-02 0. -1.
       -2   -1    0    0    0  501  0.00000000000E+00  0.00000000000E+00 -0.41011179604E+03  0.41011179604E+03  0.25500000920E-02 0.  1.
    10030    2    1    2    0    0  0.00000000000E+00  0.00000000000E+00  0.34520735832E+03  0.11654309504E+04  0.11131312501E+04 0.  0.
        4    1    3    3  502    0  0.27122119358E+03 -0.40683587338E+03  0.45096630546E+03  0.66516808799E+03  0.12699999809E+01 0. -1.
       -4    1    3    3    0  502 -0.27122119358E+03  0.40683587338E+03 -0.10575894714E+03  0.50026286242E+03  0.12699999809E+01 0.  1.
</event>
<event>
 5   0  0.2401211E-03  0.1277552E+04  0.7818609E-02  0.9047558E-01
       -2   -1    0    0    0  501  0.00000000000E+00  0.00000000000E+00  0.30991471675E+03  0.30991471676E+03  0.25500000920E-02 0.  1.
        2   -1    0    0  501    0  0.00000000000E+00  0.00000000000E+00 -0.13166042316E+04  0.13166042316E+04  0.25500000920E-02 0. -1.
    10030    2    1    2    0    0  0.00000000000E+00  0.00000000000E+00 -0.10066895148E+04  0.16265189483E+04  0.12775523903E+04 0.  0.
        4    1    3    3  502    0 -0.58921264369E+03  0.14469526909E+01 -0.81742860494E+03  0.10076531001E+04  0.12699999809E+01 0. -1.
       -4    1    3    3    0  502  0.58921264369E+03 -0.14469526909E+01 -0.18926090988E+03  0.61886584820E+03  0.12699999809E+01 0.  1.
</event>
<event>
 5   0  0.1346593E-03  0.9860083E+03  0.7818609E-02  0.9324025E-01
        1   -1    0    0  501    0  0.00000000000E+00  0.00000000000E+00  0.98957102777E+03  0.98957102779E+03  0.50400001928E-02 0. -1.
       -1   -1    0    0    0  501  0.00000000000E+00  0.00000000000E+00 -0.24561459386E+03  0.24561459391E+03  0.50400001928E-02 0.  1.
    10030    2    1    2    0    0  0.00000000000E+00  0.00000000000E+00  0.74395643392E+03  0.12351856217E+04  0.98600828825E+03 0.  0.
        2    1    3    3  502    0 -0.78503329921E+02  0.26992498492E+03  0.87933606713E+03  0.92317614205E+03  0.25500000920E-02 0. -1.
       -2    1    3    3    0  502  0.78503329921E+02 -0.26992498492E+03 -0.13537963321E+03  0.31200947965E+03  0.25500000920E-02 0.  1.
</event>
<event>
 5   0  0.2478236E-03  0.1323895E+04  0.7818609E-02  0.9010828E-01
       -2   -1    0    0    0  501  0.00000000000E+00  0.00000000000E+00  0.34504748378E+03  0.34504748379E+03  0.25500000920E-02 0. -1.
        2   -1    0    0  501    0  0.00000000000E+00  0.00000000000E+00 -0.12698966278E+04  0.12698966278E+04  0.25500000920E-02 0.  1.
    10030    2    1    2    0    0  0.00000000000E+00  0.00000000000E+00 -0.92484914402E+03  0.16149441116E+04  0.13238952165E+04 0.  0.
        3    1    3    3  502    0  0.54216341044E+03  0.12409491723E+02  0.60095058077E+00  0.54230575366E+03  0.10100000352E+00 0. -1.
       -3    1    3    3    0  502 -0.54216341044E+03 -0.12409491723E+02 -0.92545009460E+03  0.10726383579E+04  0.10100000352E+00 0.  1.
</event>
<event>
 5   0  0.1310461E-03  0.1342699E+04  0.7818609E-02  0.8996373E-01
       -1   -1    0    0    0  501  0.00000000000E+00  0.00000000000E+00  0.19765924824E+03  0.19765924830E+03  0.50400001928E-02 0. -1.
        1   -1    0    0  501    0  0.00000000000E+00  0.00000000000E+00 -0.22802380579E+04  0.22802380579E+04  0.50400001928E-02 0.  1.
    10030    2    1    2    0    0  0.00000000000E+00  0.00000000000E+00 -0.20825788097E+04  0.24778973062E+04  0.13426989840E+04 0.  0.
        4    1    3    3  502    0  0.20229213150E+03 -0.14081118966E+03 -0.21937176956E+04  0.22075209713E+04  0.12699999809E+01 0.  1.
       -4    1    3    3    0  502 -0.20229213150E+03  0.14081118966E+03  0.11113888599E+03  0.27037633491E+03  0.12699999809E+01 0. -1.
</event>
<event>
 5   0  0.2334946E-03  0.1419824E+04  0.7818609E-02  0.8939593E-01
        2   -1    0    0  501    0  0.00000000000E+00  0.00000000000E+00  0.22479599138E+04  0.22479599138E+04  0.25500000920E-02 0. -1.
       -2   -1    0    0    0  501  0.00000000000E+00  0.00000000000E+00 -0.22419215616E+03  0.22419215617E+03  0.25500000920E-02 0.  1.
    10030    2    1    2    0    0  0.00000000000E+00  0.00000000000E+00  0.20237677576E+04  0.24721520699E+04  0.14198239046E+04 0.  0.
        1    1    3    3  502    0  0.27360476725E+03  0.97091884887E+01  0.21523438484E+04  0.21696861245E+04  0.50400001928E-02 0. -1.
       -1    1    3    3    0  502 -0.27360476725E+03 -0.97091884887E+01 -0.12857609080E+03  0.30246594544E+03  0.50400001928E-02 0.  1.
</event>
<event>
 5   0  0.2361043E-03  0.1295766E+04  0.7818609E-02  0.9032929E-01
       -2   -1    0    0    0  501  0.00000000000E+00  0.00000000000E+00  0.79522507306E+03  0.79522507307E+03  0.25500000920E-02 0. -1.
        2   -1    0    0  501    0  0.00000000000E+00  0.00000000000E+00 -0.52784121577E+03  0.52784121577E+03  0.25500000920E-02 0.  1.
    10030    2    1    2    0    0  0.00000000000E+00  0.00000000000E+00  0.26738385729E+03  0.13230662888E+04  0.12957662897E+04 0.  0.
        2    1    3    3  502    0  0.15251179497E+03  0.27556732478E+03 -0.44441271233E+03  0.54470162197E+03  0.25500000920E-02 0.  1.
       -2    1    3    3    0  502 -0.15251179497E+03 -0.27556732478E+03  0.71179656962E+03  0.77836466687E+03  0.25500000920E-02 0. -1.
</event>
<event>
 5   0  0.1310461E-03  0.1295669E+04  0.7818609E-02  0.9033007E-01
        1   -1    0    0  501    0  0.00000000000E+00  0.00000000000E+00  0.93759027911E+03  0.93759027913E+03  0.50400001928E-02 0. -1.
       -1   -1    0    0    0  501  0.00000000000E+00  0.00000000000E+00 -0.44762553902E+03  0.44762553905E+03  0.50400001928E-02 0.  1.
    10030    2    1    2    0    0  0.00000000000E+00  0.00000000000E+00  0.48996474009E+03  0.13852158182E+04  0.12956687140E+04 0.  0.
        4    1    3    3  502    0  0.14005410662E+02 -0.57952792492E+03 -0.64209323608E+02  0.58324370329E+03  0.12699999809E+01 0.  1.
       -4    1    3    3    0  502 -0.14005410662E+02  0.57952792492E+03  0.55417406370E+03  0.80197211489E+03  0.12699999809E+01 0. -1.
</event>
<event>
 5   0  0.1346593E-03  0.1332955E+04  0.7818609E-02  0.9003832E-01
        1   -1    0    0  501    0  0.00000000000E+00  0.00000000000E+00  0.11640704957E+04  0.11640704957E+04  0.50400001928E-02 0.  1.
       -1   -1    0    0    0  501  0.00000000000E+00  0.00000000000E+00 -0.38158558521E+03  0.38158558525E+03  0.50400001928E-02 0. -1.
    10030    2    1    2    0    0  0.00000000000E+00  0.00000000000E+00  0.78248491045E+03  0.15456560809E+04  0.13329553951E+04 0.  0.
        2    1    3    3  502    0  0.40064149732E+03  0.79736282560E+02 -0.21940233743E+03  0.46369048923E+03  0.25500000920E-02 0. -1.
       -2    1    3    3    0  502 -0.40064149732E+03 -0.79736282560E+02  0.10018872479E+04  0.10819655917E+04  0.25500000920E-02 0.  1.
</event>
<event>
 5   0  0.2401211E-03  0.1297919E+04  0.7818609E-02  0.9031217E-01
       -2   -1    0    0    0  501  0.00000000000E+00  0.00000000000E+00  0.38499063077E+03  0.38499063078E+03  0.25500000920E-02 0. -1.
        2   -1    0    0  501    0  0.00000000000E+00  0.00000000000E+00 -0.10939182967E+04  0.10939182967E+04  0.25500000920E-02 0.  1.
    10030    2    1    2    0    0  0.00000000000E+00  0.00000000000E+00 -0.70892766591E+03  0.14789089275E+04  0.12979187880E+04 0.  0.
        4    1    3    3  502    0  0.65349395562E+02 -0.27158430756E+03 -0.10219092068E+04  0.10594001225E+04  0.12699999809E+01 0.  1.
       -4    1    3    3    0  502 -0.65349395562E+02  0.27158430756E+03  0.31298154091E+03  0.41950880499E+03  0.12699999809E+01 0. -1.
</event>
<event>
 5   0  0.2401211E-03  0.1282909E+04  0.7818609E-02  0.9043229E-01
       -2   -1    0    0    0  501  0.00000000000E+00  0.00000000000E+00  0.37913610939E+03  0.37913610940E+03  0.25500000920E-02 0. -1.
        2   -1    0    0  501    0  0.00000000000E+00  0.00000000000E+00 -0.10852669035E+04  0.10852669035E+04  0.25500000920E-02 0.  1.
    10030    2    1    2    0    0  0.00000000000E+00  0.00000000000E+00 -0.70613079411E+03  0.14644030129E+04  0.12829089936E+04 0.  0.
        4    1    3    3  502    0  0.34229864166E+03  0.52175843162E+03 -0.18351938723E+03  0.65044692285E+03  0.12699999809E+01 0.  1.
       -4    1    3    3    0  502 -0.34229864166E+03 -0.52175843162E+03 -0.52261140688E+03  0.81395609006E+03  0.12699999809E+01 0. -1.
</event>
<event>
 5   0  0.1310461E-03  0.1302139E+04  0.7818609E-02  0.9027871E-01
       -1   -1    0    0    0  501  0.00000000000E+00  0.00000000000E+00  0.39875412256E+03  0.39875412259E+03  0.50400001928E-02 0.  1.
        1   -1    0    0  501    0  0.00000000000E+00  0.00000000000E+00 -0.10630396674E+04  0.10630396674E+04  0.50400001928E-02 0. -1.
    10030    2    1    2    0    0  0.00000000000E+00  0.00000000000E+00 -0.66428554483E+03  0.14617937900E+04  0.13021389324E+04 0.  0.
        4    1    3    3  502    0  0.60808552272E+02  0.20695361792E+03 -0.10217599591E+04  0.10442808563E+04  0.12699999809E+01 0. -1.
       -4    1    3    3    0  502 -0.60808552272E+02 -0.20695361792E+03  0.35747441427E+03  0.41751293365E+03  0.12699999809E+01 0.  1.
</event>
<event>
 5   0  0.1346593E-03  0.1350384E+04  0.7818609E-02  0.8990537E-01
       -1   -1    0    0    0  501  0.00000000000E+00  0.00000000000E+00  0.28480701153E+03  0.28480701158E+03  0.50400001928E-02 0. -1.
        1   -1    0    0  501    0  0.00000000000E+00  0.00000000000E+00 -0.16006783715E+04  0.16006783715E+04  0.50400001928E-02 0.  1.
    10030    2    1    2    0    0  0.00000000000E+00  0.00000000000E+00 -0.13158713599E+04  0.18854853831E+04  0.13503842764E+04 0.  0.
        2    1    3    3  502    0  0.79016222510E+02 -0.66240320365E+03 -0.51241061384E+03  0.84118143394E+03  0.25500000920E-02 0. -1.
       -2    1    3    3    0  502 -0.79016222510E+02  0.66240320365E+03 -0.80346074609E+03  0.10443039491E+04  0.25500000920E-02 0.  1.
</event>
<event>
 5   0  0.2312105E-03  0.1310933E+04  0.7818609E-02  0.9020940E-01
       -2   -1    0    0    0  501  0.00000000000E+00  0.00000000000E+00  0.31031281868E+03  0.31031281869E+03  0.25500000920E-02 0. -1.
        2   -1    0    0  501    0  0.00000000000E+00  0.00000000000E+00 -0.13845263516E+04  0.13845263516E+04  0.25500000920E-02 0.  1.
    10030    2    1    2    0    0  0.00000000000E+00  0.00000000000E+00 -0.10742135329E+04  0.16948391703E+04  0.13109329116E+04 0.  0.
        5    1    3    3  502    0 -0.25224279407E+03 -0.26959923728E+03  0.16306891909E+03  0.40363812787E+03  0.46999998093E+01 0. -1.
       -5    1    3    3    0  502  0.25224279407E+03  0.26959923728E+03 -0.12372824520E+04  0.12912010424E+04  0.46999998093E+01 0.  1.
</event>
<event>
 5   0  0.2312105E-03  0.1302914E+04  0.7818609E-02  0.9027257E-01
       -2   -1    0    0    0  501  0.00000000000E+00  0.00000000000E+00  0.44144216290E+03  0.44144216291E+03  0.25500000920E-02 0. -1.
        2   -1    0    0  501    0  0.00000000000E+00  0.00000000000E+00 -0.96138626061E+03  0.96138626062E+03  0.25500000920E-02 0.  1.
    10030    2    1    2    0    0  0.00000000000E+00  0.00000000000E+00 -0.51994409771E+03  0.14028284235E+04  0.13029143184E+04 0.  0.
        5    1    3    3  502    0  0.89206309817E+02 -0.58151872713E+03 -0.56116023585E+03  0.81304655218E+03  0.46999998093E+01 0.  1.
       -5    1    3    3    0  502 -0.89206309817E+02  0.58151872713E+03  0.41216138142E+02  0.58978187134E+03  0.46999998093E+01 0. -1.
</event>
<event>
 5   0  0.1332630E-03  0.1300138E+04  0.7818609E-02  0.9029456E-01
       -1   -1    0    0    0  501  0.00000000000E+00  0.00000000000E+00  0.31187828837E+03  0.31187828841E+03  0.50400001928E-02 0.  1.
        1   -1    0    0  501    0  0.00000000000E+00  0.00000000000E+00 -0.13549825163E+04  0.13549825163E+04  0.50400001928E-02 0. -1.
    10030    2    1    2    0    0  0.00000000000E+00  0.00000000000E+00 -0.10431042279E+04  0.16668608047E+04  0.13001378819E+04 0.  0.
        5    1    3    3  502    0 -0.26914875591E+03 -0.52862669909E+03 -0.18070540216E+03  0.62013206026E+03  0.46999998093E+01 0.  1.
       -5    1    3    3    0  502  0.26914875591E+03  0.52862669909E+03 -0.86239882579E+03  0.10467287445E+04  0.46999998093E+01 0. -1.
</event>
<event>
 5   0  0.2361043E-03  0.1286143E+04  0.7818609E-02  0.9040627E-01
        2   -1    0    0  501    0  0.00000000000E+00  0.00000000000E+00  0.25557717488E+04  0.25557717488E+04  0.25500000920E-02 0. -1.
       -2   -1    0    0    0  501  0.00000000000E+00  0.00000000000E+00 -0.16180657961E+03  0.16180657963E+03  0.25500000920E-02 0.  1.
    10030    2    1    2    0    0  0.00000000000E+00  0.00000000000E+00  0.23939651692E+04  0.27175783284E+04  0.12861425815E+04 0.  0.
        2    1    3    3  502    0  0.16243398808E+03  0.51628633195E+03  0.19307769353E+04  0.20052022220E+04  0.25500000920E-02 0. -1.
       -2    1    3    3    0  502 -0.16243398808E+03 -0.51628633195E+03  0.46318823384E+03  0.71237610643E+03  0.25500000920E-02 0.  1.
</event>
<event>
 5   0  0.1310461E-03  0.1294802E+04  0.7818609E-02  0.9033698E-01
       -1   -1    0    0    0  501  0.00000000000E+00  0.00000000000E+00  0.50842296840E+03  0.50842296842E+03  0.50400001928E-02 0.  1.
        1   -1    0    0  501    0  0.00000000000E+00  0.00000000000E+00 -0.82436851014E+03  0.82436851015E+03  0.50400001928E-02 0. -1.
    10030    2    1    2    0    0  0.00000000000E+00  0.00000000000E+00 -0.31594554174E+03  0.13327914786E+04  0.12948017377E+04 0.  0.
        4    1    3    3  502    0 -0.10784153393E+03  0.15756922133E+02  0.49891097826E+03  0.51067783794E+03  0.12699999809E+01 0.  1.
       -4    1    3    3    0  502  0.10784153393E+03 -0.15756922133E+02 -0.81485652000E+03  0.82211364063E+03  0.12699999809E+01 0. -1.
</event>
<event>
 5   0  0.2478236E-03  0.1274281E+04  0.7818609E-02  0.9050213E-01
        2   -1    0    0  501    0  0.00000000000E+00  0.00000000000E+00  0.57806092298E+03  0.57806092299E+03  0.25500000920E-02 0. -1.
       -2   -1    0    0    0  501  0.00000000000E+00  0.00000000000E+00 -0.70225847930E+03  0.70225847931E+03  0.25500000920E-02 0.  1.
    10030    2    1    2    0    0  0.00000000000E+00  0.00000000000E+00 -0.12419755632E+03  0.12803194023E+04  0.12742812637E+04 0.  0.
        3    1    3    3  502    0 -0.11333058727E+03  0.10494773544E+03  0.55896478428E+03  0.57991334650E+03  0.10100000352E+00 0. -1.
       -3    1    3    3    0  502  0.11333058727E+03 -0.10494773544E+03 -0.68316234060E+03  0.70040605580E+03  0.10100000352E+00 0.  1.
</event>
<event>
 5   0  0.2312105E-03  0.1313177E+04  0.7818609E-02  0.9019180E-01
        2   -1    0    0  501    0  0.00000000000E+00  0.00000000000E+00  0.12672635600E+04  0.12672635600E+04  0.25500000920E-02 0.  1.
       -2   -1    0    0    0  501  0.00000000000E+00  0.00000000000E+00 -0.34018861657E+03  0.34018861658E+03  0.25500000920E-02 0. -1.
    10030    2    1    2    0    0  0.00000000000E+00  0.00000000000E+00  0.92707494344E+03  0.16074521766E+04  0.13131772726E+04 0.  0.
        5    1    3    3  502    0 -0.26193351602E+03  0.33300293526E+03 -0.15044829827E+03  0.44961861856E+03  0.46999998093E+01 0. -1.
       -5    1    3    3    0  502  0.26193351602E+03 -0.33300293526E+03  0.10775232417E+04  0.11578335580E+04  0.46999998093E+01 0.  1.
</event>
<event>
 5   0  0.2361043E-03  0.1264626E+04  0.7818609E-02  0.9058097E-01
       -2   -1    0    0    0  501  0.00000000000E+00  0.00000000000E+00  0.11141253040E+04  0.11141253040E+04  0.25500000920E-02 0. -1.
        2   -1    0    0  501    0  0.00000000000E+00  0.00000000000E+00 -0.35886422449E+03  0.35886422450E+03  0.25500000920E-02 0.  1.
    10030    2    1    2    0    0  0.00000000000E+00  0.00000000000E+00  0.75526107952E+03  0.14729895285E+04  0.12646259735E+04 0.  0.
        2    1    3    3  502    0 -0.30440655420E+03 -0.59184275962E+02  0.10194705235E+04  0.10655919843E+04  0.25500000920E-02 0. -1.
       -2    1    3    3    0  502  0.30440655420E+03  0.59184275962E+02 -0.26420944395E+03  0.40739754422E+03  0.25500000920E-02 0.  1.
</event>
<event>
 5   0  0.1387622E-03  0.1300697E+04  0.7818609E-02  0.9029013E-01
        1   -1    0    0  501    0  0.00000000000E+00  0.00000000000E+00  0.10197881961E+04  0.10197881962E+04  0.50400001928E-02 0.  1.
       -1   -1    0    0    0  501  0.00000000000E+00  0.00000000000E+00 -0.41474597696E+03  0.41474597699E+03  0.50400001928E-02 0. -1.
    10030    2    1    2    0    0  0.00000000000E+00  0.00000000000E+00  0.60504221918E+03  0.14345341731E+04  0.13006968159E+04 0.  0.
        3    1    3    3  502    0  0.68065848549E+02 -0.56135943271E+03 -0.51774325660E+02  0.56783621180E+03  0.10100000352E+00 0.  1.
       -3    1    3    3    0  502 -0.68065848549E+02  0.56135943271E+03  0.65681654484E+03  0.86669796135E+03  0.10100000352E+00 0. -1.
</event>
<event>
 5   0  0.2361043E-03  0.1302618E+04  0.7818609E-02  0.9027492E-01
        2   -1    0    0  501    0  0.00000000000E+00  0.00000000000E+00  0.17467571429E+04  0.17467571429E+04  0.25500000920E-02 0. -1.
       -2   -1    0    0    0  501  0.00000000000E+00  0.00000000000E+00 -0.24285202626E+03  0.24285202628E+03  0.25500000920E-02 0.  1.
    10030    2    1    2    0    0  0.00000000000E+00  0.00000000000E+00  0.15039051167E+04  0.19896091692E+04  0.13026181506E+04 0.  0.
        2    1    3    3  502    0  0.82293465808E+02 -0.20071974866E+03  0.16899542136E+04  0.17038209636E+04  0.25500000920E-02 0. -1.
       -2    1    3    3    0  502 -0.82293465808E+02  0.20071974866E+03 -0.18604909689E+03  0.28578820563E+03  0.25500000920E-02 0.  1.
</event>
<event>
 5   0  0.1332630E-03  0.1282206E+04  0.7818609E-02  0.9043796E-01
       -1   -1    0    0    0  501  0.00000000000E+00  0.00000000000E+00  0.53921209312E+03  0.53921209314E+03  0.50400001928E-02 0. -1.
        1   -1    0    0  501    0  0.00000000000E+00  0.00000000000E+00 -0.76224701975E+03  0.76224701977E+03  0.50400001928E-02 0.  1.
    10030    2    1    2    0    0  0.00000000000E+00  0.00000000000E+00 -0.22303492663E+03  0.13014591129E+04  0.12822056169E+04 0.  0.
        5    1    3    3  502    0 -0.56341472963E+03 -0.14368995034E+02  0.19859954411E+03  0.59758388072E+03  0.46999998093E+01 0. -1.
       -5    1    3    3    0  502  0.56341472963E+03  0.14368995034E+02 -0.42163447074E+03  0.70387523219E+03  0.46999998093E+01 0.  1.
</event>
<event>
 5   0  0.1310461E-03  0.1301497E+04  0.7818609E-02  0.9028379E-01
       -1   -1    0    0    0  501  0.00000000000E+00  0.00000000000E+00  0.75323616509E+03  0.75323616511E+03  0.50400001928E-02 0. -1.
        1   -1    0    0  501    0  0.00000000000E+00  0.00000000000E+00 -0.56220600091E+03  0.56220600093E+03  0.50400001928E-02 0.  1.
    10030    2    1    2    0    0  0.00000000000E+00  0.00000000000E+00  0.19103016418E+03  0.13154421660E+04  0.13014974332E+04 0.  0.
        4    1    3    3  502    0 -0.90979739906E+02  0.28991554891E+03  0.67713175711E+03  0.74218418736E+03  0.12699999809E+01 0. -1.
       -4    1    3    3    0  502  0.90979739906E+02 -0.28991554891E+03 -0.48610159293E+03  0.57325797868E+03  0.12699999809E+01 0.  1.
</event>
<event>
 5   0  0.2478236E-03  0.1296874E+04  0.7818609E-02  0.9032048E-01
       -2   -1    0    0    0  501  0.00000000000E+00  0.00000000000E+00  0.17918482892E+03  0.17918482894E+03  0.25500000920E-02 0. -1.
        2   -1    0    0  501    0  0.00000000000E+00  0.00000000000E+00 -0.23465728918E+04  0.23465728918E+04  0.25500000920E-02 0.  1.
    10030    2    1    2    0    0  0.00000000000E+00  0.00000000000E+00 -0.21673880629E+04  0.25257577207E+04  0.12968735670E+04 0.  0.
        3    1    3    3  502    0  0.13117119540E+03  0.22561920507E+03 -0.22397731668E+04  0.22549265525E+04  0.10100000352E+00 0.  1.
       -3    1    3    3    0  502 -0.13117119540E+03 -0.22561920507E+03  0.72385103962E+02  0.27083116821E+03  0.10100000352E+00 0. -1.
</event>
<event>
 5   0  0.1324721E-03  0.1291411E+04  0.7818609E-02  0.9036405E-01
        1   -1    0    0  501    0  0.00000000000E+00  0.00000000000E+00  0.13671995088E+04  0.13671995088E+04  0.50400001928E-02 0. -1.
       -1   -1    0    0    0  501  0.00000000000E+00  0.00000000000E+00 -0.30495572497E+03  0.30495572501E+03  0.50400001928E-02 0.  1.
    10030    2    1    2    0    0  0.00000000000E+00  0.00000000000E+00  0.10622437838E+04  0.16721552338E+04  0.12914105736E+04 0.  0.
        1    1    3    3  502    0 -0.52192514810E+03 -0.12474806157E+03  0.99612107542E+03  0.11314703425E+04  0.50400001928E-02 0. -1.
       -1    1    3    3    0  502  0.52192514810E+03  0.12474806157E+03  0.66122708403E+02  0.54068489130E+03  0.50400001928E-02 0.  1.
</event>
<event>
 5   0  0.1346593E-03  0.1253586E+04  0.7818609E-02  0.9067204E-01
        1   -1    0    0  501    0  0.00000000000E+00  0.00000000000E+00  0.24714655105E+04  0.24714655105E+04  0.50400001928E-02 0. -1.
       -1   -1    0    0    0  501  0.00000000000E+00  0.00000000000E+00 -0.15896223384E+03  0.15896223392E+03  0.50400001928E-02 0.  1.
    10030    2    1    2    0    0  0.00000000000E+00  0.00000000000E+00  0.23125032767E+04  0.26304277444E+04  0.12535863409E+04 0.  0.
        2    1    3    3  502    0 -0.81918953746E+02 -0.27821933843E+03 -0.96923631407E+01  0.29019072550E+03  0.25500000920E-02 0.  1.
       -2    1    3    3    0  502  0.81918953746E+02  0.27821933843E+03  0.23221956398E+04  0.23402370189E+04  0.25500000920E-02 0. -1.
</event>
<event>
 5   0  0.1346593E-03  0.1308223E+04  0.7818609E-02  0.9023070E-01
        1   -1    0    0  501    0  0.00000000000E+00  0.00000000000E+00  0.12880228922E+04  0.12880228922E+04  0.50400001928E-02 0.  1.
       -1   -1    0    0    0  501  0.00000000000E+00  0.00000000000E+00 -0.33218490288E+03  0.33218490292E+03  0.50400001928E-02 0. -1.
    10030    2    1    2    0    0  0.00000000000E+00  0.00000000000E+00  0.95583798935E+03  0.16202077952E+04  0.13082228547E+04 0.  0.
        2    1    3    3  502    0 -0.52813013845E+03 -0.31106788481E+03  0.76081635892E+03  0.97699856914E+03  0.25500000920E-02 0. -1.
       -2    1    3    3    0  502  0.52813013845E+03  0.31106788481E+03  0.19502163043E+03  0.64320922602E+03  0.25500000920E-02 0.  1.
</event>
<event>
 5   0  0.2401211E-03  0.1266575E+04  0.7818609E-02  0.9056500E-01
       -2   -1    0    0    0  501  0.00000000000E+00  0.00000000000E+00  0.31554538085E+03  0.31554538086E+03  0.25500000920E-02 0. -1.
        2   -1    0    0  501    0  0.00000000000E+00  0.00000000000E+00 -0.12709839317E+04  0.12709839317E+04  0.25500000920E-02 0.  1.
    10030    2    1    2    0    0  0.00000000000E+00  0.00000000000E+00 -0.95543855082E+03  0.15865293125E+04  0.12665750807E+04 0.  0.
        4    1    3    3  502    0 -0.26451542039E+03 -0.43600762103E+03 -0.94804268564E+03  0.10765024849E+04  0.12699999809E+01 0.  1.
       -4    1    3    3    0  502  0.26451542039E+03  0.43600762103E+03 -0.73958651765E+01  0.51002682767E+03  0.12699999809E+01 0. -1.
</event>
<event>
 5   0  0.1310461E-03  0.1430465E+04  0.7818609E-02  0.8932057E-01
        1   -1    0    0  501    0  0.00000000000E+00  0.00000000000E+00  0.54057586312E+03  0.54057586314E+03  0.50400001928E-02 0. -1.
       -1   -1    0    0    0  501  0.00000000000E+00  0.00000000000E+00 -0.94631938409E+03  0.94631938410E+03  0.50400001928E-02 0.  1.
    10030    2    1    2    0    0  0.00000000000E+00  0.00000000000E+00 -0.40574352097E+03  0.14868952472E+04  0.14304648445E+04 0.  0.
        4    1    3    3  502    0 -0.39292146534E+03 -0.40220640277E+03  0.25660530398E+03  0.61806566259E+03  0.12699999809E+01 0. -1.
       -4    1    3    3    0  502  0.39292146534E+03  0.40220640277E+03 -0.66234882495E+03  0.86882958465E+03  0.12699999809E+01 0.  1.
</event>
<event>
 5   0  0.1324721E-03  0.1273022E+04  0.7818609E-02  0.9051237E-01
        1   -1    0    0  501    0  0.00000000000E+00  0.00000000000E+00  0.10423954848E+04  0.10423954848E+04  0.50400001928E-02 0. -1.
       -1   -1    0    0    0  501  0.00000000000E+00  0.00000000000E+00 -0.38866850163E+03  0.38866850166E+03  0.50400001928E-02 0.  1.
    10030    2    1    2    0    0  0.00000000000E+00  0.00000000000E+00  0.65372698312E+03  0.14310639864E+04  0.12730220598E+04 0.  0.
        1    1    3    3  502    0 -0.14278786459E+03  0.32737638454E+03 -0.26540585811E+03  0.44497633754E+03  0.50400001928E-02 0.  1.
       -1    1    3    3    0  502  0.14278786459E+03 -0.32737638454E+03  0.91913284123E+03  0.98608764888E+03  0.50400001928E-02 0. -1.
</event>
<event>
 5   0  0.2312105E-03  0.1303396E+04  0.7818609E-02  0.9026877E-01
        2   -1    0    0  501    0  0.00000000000E+00  0.00000000000E+00  0.91090899115E+03  0.91090899115E+03  0.25500000920E-02 0.  1.
       -2   -1    0    0    0  501  0.00000000000E+00  0.00000000000E+00 -0.46624875225E+03  0.46624875226E+03  0.25500000920E-02 0. -1.
    10030    2    1    2    0    0  0.00000000000E+00  0.00000000000E+00  0.44466023890E+03  0.13771577434E+04  0.13033958425E+04 0.  0.
        5    1    3    3  502    0 -0.49790350645E+03 -0.18400233674E+03  0.62177689385E+03  0.81755327495E+03  0.46999998093E+01 0.  1.
       -5    1    3    3    0  502  0.49790350645E+03  0.18400233674E+03 -0.17711665495E+03  0.55960446846E+03  0.46999998093E+01 0. -1.
</event>
<event>
 5   0  0.2334946E-03  0.1299215E+04  0.7818609E-02  0.9030188E-01
        2   -1    0    0  501    0  0.00000000000E+00  0.00000000000E+00  0.31063274213E+03  0.31063274214E+03  0.25500000920E-02 0. -1.
       -2   -1    0    0    0  501  0.00000000000E+00  0.00000000000E+00 -0.13584850671E+04  0.13584850671E+04  0.25500000920E-02 0.  1.
    10030    2    1    2    0    0  0.00000000000E+00  0.00000000000E+00 -0.10478523249E+04  0.16691178092E+04  0.12992150577E+04 0.  0.
        1    1    3    3  502    0  0.42868178164E+03 -0.42280756106E+02 -0.11486111984E+04  0.12267287464E+04  0.50400001928E-02 0.  1.
       -1    1    3    3    0  502 -0.42868178164E+03  0.42280756106E+02  0.10075887346E+03  0.44238906276E+03  0.50400001928E-02 0. -1.
</event>
<event>
 5   0  0.2334946E-03  0.1246653E+04  0.7818609E-02  0.9072974E-01
       -2   -1    0    0    0  501  0.00000000000E+00  0.00000000000E+00  0.19047971954E+03  0.19047971955E+03  0.25500000920E-02 0.  1.
        2   -1    0    0  501    0  0.00000000000E+00  0.00000000000E+00 -0.20397757379E+04  0.20397757379E+04  0.25500000920E-02 0. -1.
    10030    2    1    2    0    0  0.00000000000E+00  0.00000000000E+00 -0.18492960184E+04  0.22302554575E+04  0.12466529758E+04 0.  0.
        1    1    3    3  502    0 -0.47651018866E+03 -0.14529572538E+03 -0.15948959875E+04  0.16708877935E+04  0.50400001928E-02 0. -1.
       -1    1    3    3    0  502  0.47651018866E+03  0.14529572538E+03 -0.25440003091E+03  0.55936766394E+03  0.50400001928E-02 0.  1.
</event>
<event>
 5   0  0.1387622E-03  0.1422581E+04  0.7818609E-02  0.8937633E-01
        1   -1    0    0  501    0  0.00000000000E+00  0.00000000000E+00  0.17468205168E+04  0.17468205168E+04  0.50400001928E-02 0.  1.
       -1   -1    0    0    0  501  0.00000000000E+00  0.00000000000E+00 -0.28963163665E+03  0.28963163670E+03  0.50400001928E-02 0. -1.
    10030    2    1    2    0    0  0.00000000000E+00  0.00000000000E+00  0.14571888801E+04  0.20364521535E+04  0.14225814357E+04 0.  0.
        3    1    3    3  502    0  0.70879731055E+03 -0.59490716284E+02  0.72672671009E+03  0.10168896175E+04  0.10100000352E+00 0.  1.
       -3    1    3    3    0  502 -0.70879731055E+03  0.59490716284E+02  0.73046217003E+03  0.10195625360E+04  0.10100000352E+00 0. -1.
</event>
<event>
 5   0  0.2312105E-03  0.1291956E+04  0.7818609E-02  0.9035968E-01
       -2   -1    0    0    0  501  0.00000000000E+00  0.00000000000E+00  0.61970690677E+03  0.61970690677E+03  0.25500000920E-02 0.  1.
        2   -1    0    0  501    0  0.00000000000E+00  0.00000000000E+00 -0.67336331162E+03  0.67336331163E+03  0.25500000920E-02 0. -1.
    10030    2    1    2    0    0  0.00000000000E+00  0.00000000000E+00 -0.53656404854E+02  0.12930702184E+04  0.12919564930E+04 0.  0.
        5    1    3    3  502    0  0.12384425343E+03 -0.58073213543E+02  0.60502886260E+03  0.62031597739E+03  0.46999998093E+01 0.  1.
       -5    1    3    3    0  502 -0.12384425343E+03  0.58073213543E+02 -0.65868526745E+03  0.67275424101E+03  0.46999998093E+01 0. -1.
</event>
<event>
 5   0  0.2361043E-03  0.1288068E+04  0.7818609E-02  0.9039081E-01
       -2   -1    0    0    0  501  0.00000000000E+00  0.00000000000E+00  0.13948196837E+04  0.13948196837E+04  0.25500000920E-02 0.  1.
        2   -1    0    0  501    0  0.00000000000E+00  0.00000000000E+00 -0.29737184702E+03  0.29737184703E+03  0.25500000920E-02 0. -1.
    10030    2    1    2    0    0  0.00000000000E+00  0.00000000000E+00  0.10974478367E+04  0.16921915307E+04  0.12880684852E+04 0.  0.
        2    1    3    3  502    0 -0.16564481070E+03 -0.21477623616E+03  0.13161267407E+04  0.13437844442E+04  0.25500000920E-02 0.  1.
       -2    1    3    3    0  502  0.16564481070E+03  0.21477623616E+03 -0.21867890396E+03  0.34840708657E+03  0.25500000920E-02 0. -1.
</event>
<event>
 5   0  0.1332630E-03  0.1311386E+04  0.7818609E-02  0.9020584E-01
       -1   -1    0    0    0  501  0.00000000000E+00  0.00000000000E+00  0.56349534047E+03  0.56349534049E+03  0.50400001928E-02 0. -1.
        1   -1    0    0  501    0  0.00000000000E+00  0.00000000000E+00 -0.76297595623E+03  0.76297595625E+03  0.50400001928E-02 0.  1.
    10030    2    1    2    0    0  0.00000000000E+00  0.00000000000E+00 -0.19948061576E+03  0.13264712967E+04  0.13113861312E+04 0.  0.
        5    1    3    3  502    0 -0.39559570599E+03 -0.51655688723E+03 -0.18181758309E+03  0.67557879175E+03  0.46999998093E+01 0. -1.
       -5    1    3    3    0  502  0.39559570599E+03  0.51655688723E+03 -0.17663032665E+02  0.65089250499E+03  0.46999998093E+01 0.  1.
</event>
<event>
 5   0  0.2334946E-03  0.1292247E+04  0.7818609E-02  0.9035736E-01
       -2   -1    0    0    0  501  0.00000000000E+00  0.00000000000E+00  0.82222034239E+03  0.82222034239E+03  0.25500000920E-02 0. -1.
        2   -1    0    0  501    0  0.00000000000E+00  0.00000000000E+00 -0.50774144877E+03  0.50774144878E+03  0.25500000920E-02 0.  1.
    10030    2    1    2    0    0  0.00000000000E+00  0.00000000000E+00  0.31447889361E+03  0.13299617912E+04  0.12922466450E+04 0.  0.
        1    1    3    3  502    0  0.62802149255E+03  0.10621974223E+03  0.45527895495E+02  0.63856590736E+03  0.50400001928E-02 0.  1.
       -1    1    3    3    0  502 -0.62802149255E+03 -0.10621974223E+03  0.26895099812E+03  0.69139588382E+03  0.50400001928E-02 0. -1.
</event>
<event>
 5   0  0.2401211E-03  0.1293109E+04  0.7818609E-02  0.9035048E-01
        2   -1    0    0  501    0  0.00000000000E+00  0.00000000000E+00  0.14157011162E+04  0.14157011162E+04  0.25500000920E-02 0. -1.
       -2   -1    0    0    0  501  0.00000000000E+00  0.00000000000E+00 -0.29528307733E+03  0.29528307734E+03  0.25500000920E-02 0.  1.
    10030    2    1    2    0    0  0.00000000000E+00  0.00000000000E+00  0.11204180389E+04  0.17109841936E+04  0.12931087846E+04 0.  0.
        4    1    3    3  502    0 -0.59178558119E+03 -0.20012698649E+03  0.33971401532E+03  0.71110351562E+03  0.12699999809E+01 0.  1.
       -4    1    3    3    0  502  0.59178558119E+03  0.20012698649E+03  0.78070402359E+03  0.99988067797E+03  0.12699999809E+01 0. -1.
</event>
<event>
 5   0  0.2334946E-03  0.1296162E+04  0.7818609E-02  0.9032614E-01
        2   -1    0    0  501    0  0.00000000000E+00  0.00000000000E+00  0.79886157471E+03  0.79886157472E+03  0.25500000920E-02 0. -1.
       -2   -1    0    0    0  501  0.00000000000E+00  0.00000000000E+00 -0.52575944904E+03  0.52575944905E+03  0.25500000920E-02 0.  1.
    10030    2    1    2    0    0  0.00000000000E+00  0.00000000000E+00  0.27310212567E+03  0.13246210238E+04  0.12961620599E+04 0.  0.
        1    1    3    3  502    0 -0.14113537806E+03  0.16292876312E+03  0.76115288528E+03  0.79108703162E+03  0.50400001928E-02 0. -1.
       -1    1    3    3    0  502  0.14113537806E+03 -0.16292876312E+03 -0.48805075961E+03  0.53353399214E+03  0.50400001928E-02 0.  1.
</event>
<event>
 5   0  0.2361043E-03  0.1305511E+04  0.7818609E-02  0.9025206E-01
       -2   -1    0    0    0  501  0.00000000000E+00  0.00000000000E+00  0.21964192899E+03  0.21964192901E+03  0.25500000920E-02 0. -1.
        2   -1    0    0  501    0  0.00000000000E+00  0.00000000000E+00 -0.19399289619E+04  0.19399289619E+04  0.25500000920E-02 0.  1.
    10030    2    1    2    0    0  0.00000000000E+00  0.00000000000E+00 -0.17202870329E+04  0.21595708909E+04  0.13055109947E+04 0.  0.
        2    1    3    3  502    0 -0.75947368837E+01 -0.49726793676E+03 -0.16075572824E+03  0.52266192240E+03  0.25500000920E-02 0. -1.
       -2    1    3    3    0  502  0.75947368837E+01  0.49726793676E+03 -0.15595313047E+04  0.16369089685E+04  0.25500000920E-02 0.  1.
</event>
<event>
 5   0  0.1346593E-03  0.1295243E+04  0.7818609E-02  0.9033346E-01
       -1   -1    0    0    0  501  0.00000000000E+00  0.00000000000E+00  0.46771653162E+03  0.46771653164E+03  0.50400001928E-02 0. -1.
        1   -1    0    0  501    0  0.00000000000E+00  0.00000000000E+00 -0.89672560255E+03  0.89672560257E+03  0.50400001928E-02 0.  1.
    10030    2    1    2    0    0  0.00000000000E+00  0.00000000000E+00 -0.42900907093E+03  0.13644421342E+04  0.12952426625E+04 0.  0.
        2    1    3    3  502    0  0.42041085631E+03  0.19116544842E+03  0.26375994406E+03  0.53184473756E+03  0.25500000920E-02 0. -1.
       -2    1    3    3    0  502 -0.42041085631E+03 -0.19116544842E+03 -0.69276901500E+03  0.83259739665E+03  0.25500000920E-02 0.  1.
</event>
<event>
 5   0  0.1346593E-03  0.1191638E+04  0.7818609E-02  0.9120208E-01
        1   -1    0    0  501    0  0.00000000000E+00  0.00000000000E+00  0.56955932012E+03  0.56955932015E+03  0.50400001928E-02 0.  1.
       -1   -1    0    0    0  501  0.00000000000E+00  0.00000000000E+00 -0.62328925193E+03  0.62328925195E+03  0.50400001928E-02 0. -1.
    10030    2    1    2    0    0  0.00000000000E+00  0.00000000000E+00 -0.53729931802E+02  0.11928485721E+04  0.11916378688E+04 0.  0.
        2    1    3    3  502    0  0.12495847385E+03  0.39858424895E+03 -0.45216859140E+03  0.61558139897E+03  0.25500000920E-02 0. -1.
       -2    1    3    3    0  502 -0.12495847385E+03 -0.39858424895E+03  0.39843865960E+03  0.57726717312E+03  0.25500000920E-02 0.  1.
</event>
<event>
 5   0  0.2334946E-03  0.1258472E+04  0.7818609E-02  0.9063161E-01
       -2   -1    0    0    0  501  0.00000000000E+00  0.00000000000E+00  0.20240950240E+03  0.20240950242E+03  0.25500000920E-02 0.  1.
        2   -1    0    0  501    0  0.00000000000E+00  0.00000000000E+00 -0.19561233129E+04  0.19561233129E+04  0.25500000920E-02 0. -1.
    10030    2    1    2    0    0  0.00000000000E+00  0.00000000000E+00 -0.17537138105E+04  0.21585328153E+04  0.12584720043E+04 0.  0.
        1    1    3    3  502    0  0.56290600247E+02  0.57516346517E+03 -0.44992575414E+03  0.73240345958E+03  0.50400001928E-02 0.  1.
       -1    1    3    3    0  502 -0.56290600247E+02 -0.57516346517E+03 -0.13037880563E+04  0.14261293557E+04  0.50400001928E-02 0. -1.
</event>
<event>
 5   0  0.1324721E-03  0.1317351E+04  0.7818609E-02  0.9015918E-01
       -1   -1    0    0    0  501  0.00000000000E+00  0.00000000000E+00  0.40532539564E+03  0.40532539567E+03  0.50400001928E-02 0. -1.
        1   -1    0    0  501    0  0.00000000000E+00  0.00000000000E+00 -0.10703832293E+04  0.10703832293E+04  0.50400001928E-02 0.  1.
    10030    2    1    2    0    0  0.00000000000E+00  0.00000000000E+00 -0.66505783366E+03  0.14757086250E+04  0.13173511391E+04 0.  0.
        1    1    3    3  502    0 -0.54190765588E+03  0.21128621477E+02 -0.75128812973E+03  0.92657659157E+03  0.50400001928E-02 0.  1.
       -1    1    3    3    0  502  0.54190765588E+03 -0.21128621477E+02  0.86230296065E+02  0.54913203342E+03  0.50400001928E-02 0. -1.
</event>
<event>
 5   0  0.1332630E-03  0.1304828E+04  0.7818609E-02  0.9025745E-01
        1   -1    0    0  501    0  0.00000000000E+00  0.00000000000E+00  0.71996628199E+03  0.71996628201E+03  0.50400001928E-02 0.  1.
       -1   -1    0    0    0  501  0.00000000000E+00  0.00000000000E+00 -0.59120033573E+03  0.59120033575E+03  0.50400001928E-02 0. -1.
    10030    2    1    2    0    0  0.00000000000E+00  0.00000000000E+00  0.12876594626E+03  0.13111666178E+04  0.13048284296E+04 0.  0.
        5    1    3    3  502    0  0.30458005784E+03 -0.44719817240E+03  0.43066283242E+03  0.69155461264E+03  0.46999998093E+01 0.  1.
       -5    1    3    3    0  502 -0.30458005784E+03  0.44719817240E+03 -0.30189688616E+03  0.61961200513E+03  0.46999998093E+01 0. -1.
</event>
<event>
 5   0  0.2334946E-03  0.1279354E+04  0.7818609E-02  0.9046100E-01
        2   -1    0    0  501    0  0.00000000000E+00  0.00000000000E+00  0.20276682118E+04  0.20276682118E+04  0.25500000920E-02 0. -1.
       -2   -1    0    0    0  501  0.00000000000E+00  0.00000000000E+00 -0.20180162817E+03  0.20180162819E+03  0.25500000920E-02 0.  1.
    10030    2    1    2    0    0  0.00000000000E+00  0.00000000000E+00  0.18258665836E+04  0.22294698400E+04  0.12793541285E+04 0.  0.
        1    1    3    3  502    0  0.10486614237E+03  0.54544784127E+03  0.35999729736E+03  0.66189750679E+03  0.50400001928E-02 0.  1.
       -1    1    3    3    0  502 -0.10486614237E+03 -0.54544784127E+03  0.14658692863E+04  0.15675723332E+04  0.50400001928E-02 0. -1.
</event>
<event>
 5   0  0.1310461E-03  0.1255192E+04  0.7818609E-02  0.9065873E-01
       -1   -1    0    0    0  501  0.00000000000E+00  0.00000000000E+00  0.12351077468E+04  0.12351077468E+04  0.50400001928E-02 0.  1.
        1   -1    0    0  501    0  0.00000000000E+00  0.00000000000E+00 -0.31890086111E+03  0.31890086115E+03  0.50400001928E-02 0. -1.
    10030    2    1    2    0    0  0.00000000000E+00  0.00000000000E+00  0.91620688570E+03  0.15540086080E+04  0.12551922945E+04 0.  0.
        4    1    3    3  502    0  0.98626144441E+02  0.31370426670E+03  0.11199038425E+04  0.11671862373E+04  0.12699999809E+01 0.  1.
       -4    1    3    3    0  502 -0.98626144441E+02 -0.31370426670E+03 -0.20369695678E+03  0.38682237063E+03  0.12699999809E+01 0. -1.
</event>
<event>
 5   0  0.2361043E-03  0.1299062E+04  0.7818609E-02  0.9030309E-01
       -2   -1    0    0    0  501  0.00000000000E+00  0.00000000000E+00  0.28045759273E+03  0.28045759274E+03  0.25500000920E-02 0.  1.
        2   -1    0    0  501    0  0.00000000000E+00  0.00000000000E+00 -0.15042940465E+04  0.15042940465E+04  0.25500000920E-02 0. -1.
    10030    2    1    2    0    0  0.00000000000E+00  0.00000000000E+00 -0.12238364538E+04  0.17847516392E+04  0.12990622572E+04 0.  0.
        2    1    3    3  502    0 -0.65781430521E+02  0.43750399203E+03  0.41437524854E+02  0.44435797294E+03  0.25500000920E-02 0.  1.
       -2    1    3    3    0  502  0.65781430521E+02 -0.43750399203E+03 -0.12652739786E+04  0.13403936663E+04  0.25500000920E-02 0. -1.
</event>
<event>
 5   0  0.1310461E-03  0.1300797E+04  0.7818609E-02  0.9028934E-01
        1   -1    0    0  501    0  0.00000000000E+00  0.00000000000E+00  0.96074577538E+03  0.96074577539E+03  0.50400001928E-02 0.  1.
       -1   -1    0    0    0  501  0.00000000000E+00  0.00000000000E+00 -0.44030176438E+03  0.44030176441E+03  0.50400001928E-02 0. -1.
    10030    2    1    2    0    0  0.00000000000E+00  0.00000000000E+00  0.52044401100E+03  0.14010475398E+04  0.13007967713E+04 0.  0.
        4    1    3    3  502    0  0.31890254984E+03 -0.52394846719E+03  0.27227328485E+02  0.61397375585E+03  0.12699999809E+01 0. -1.
       -4    1    3    3    0  502 -0.31890254984E+03  0.52394846719E+03  0.49321668251E+03  0.78707378394E+03  0.12699999809E+01 0.  1.
</event>
<event>
 5   0  0.1324721E-03  0.1239059E+04  0.7818609E-02  0.9079339E-01
        1   -1    0    0  501    0  0.00000000000E+00  0.00000000000E+00  0.13779345264E+04  0.13779345264E+04  0.50400001928E-02 0. -1.
       -1   -1    0    0    0  501  0.00000000000E+00  0.00000000000E+00 -0.27854498796E+03  0.27854498801E+03  0.50400001928E-02 0.  1.
    10030    2    1    2    0    0  0.00000000000E+00  0.00000000000E+00  0.10993895384E+04  0.16564795144E+04  0.12390589269E+04 0.  0.
        1    1    3    3  502    0  0.23132773545E+02  0.32054706862E+03 -0.15838909702E+03  0.35829129838E+03  0.50400001928E-02 0.  1.
       -1    1    3    3    0  502 -0.23132773545E+02 -0.32054706862E+03  0.12577786354E+04  0.12981882160E+04  0.50400001928E-02 0. -1.
</event>
<event>
 5   0  0.2312105E-03  0.1304664E+04  0.7818609E-02  0.9025875E-01
       -2   -1    0    0    0  501  0.00000000000E+00  0.00000000000E+00  0.41251457545E+03  0.41251457546E+03  0.25500000920E-02 0.  1.
        2   -1    0    0  501    0  0.00000000000E+00  0.00000000000E+00 -0.10315682429E+04  0.10315682429E+04  0.25500000920E-02 0. -1.
    10030    2    1    2    0    0  0.00000000000E+00  0.00000000000E+00 -0.61905366741E+03  0.14440828183E+04  0.13046638429E+04 0.  0.
        5    1    3    3  502    0  0.63956339345E+03  0.12147526194E+03 -0.35539517669E+03  0.74170438526E+03  0.46999998093E+01 0. -1.
       -5    1    3    3    0  502 -0.63956339345E+03 -0.12147526194E+03 -0.26365849071E+03  0.70237843306E+03  0.46999998093E+01 0.  1.
</event>
<event>
 5   0  0.1387622E-03  0.1003473E+04  0.7818609E-02  0.9304743E-01
        1   -1    0    0  501    0  0.00000000000E+00  0.00000000000E+00  0.13628156321E+04  0.13628156321E+04  0.50400001928E-02 0. -1.
       -1   -1    0    0    0  501  0.00000000000E+00  0.00000000000E+00 -0.18472031260E+03  0.18472031267E+03  0.50400001928E-02 0.  1.
    10030    2    1    2    0    0  0.00000000000E+00  0.00000000000E+00  0.11780953195E+04  0.15475359448E+04  0.10034734270E+04 0.  0.
        3    1    3    3  502    0 -0.45171443704E+03  0.21756847594E+03  0.55987864803E+03  0.75156242926E+03  0.10100000352E+00 0. -1.
       -3    1    3    3    0  502  0.45171443704E+03 -0.21756847594E+03  0.61821667149E+03  0.79597351555E+03  0.10100000352E+00 0.  1.
</event>
<event>
 5   0  0.1387622E-03  0.1313104E+04  0.7818609E-02  0.9019237E-01
       -1   -1    0    0    0  501  0.00000000000E+00  0.00000000000E+00  0.23108371077E+03  0.23108371083E+03  0.50400001928E-02 0. -1.
        1   -1    0    0  501    0  0.00000000000E+00  0.00000000000E+00 -0.18653881760E+04  0.18653881760E+04  0.50400001928E-02 0.  1.
    10030    2    1    2    0    0  0.00000000000E+00  0.00000000000E+00 -0.16343044652E+04  0.20964718868E+04  0.13131044464E+04 0.  0.
        3    1    3    3  502    0 -0.52128658958E+03  0.17612765984E+03 -0.24527427947E+03  0.60242853800E+03  0.10100000352E+00 0. -1.
       -3    1    3    3    0  502  0.52128658958E+03 -0.17612765984E+03 -0.13890301857E+04  0.14940433488E+04  0.10100000352E+00 0.  1.
</event>
<event>
 5   0  0.2361043E-03  0.1301356E+04  0.7818609E-02  0.9028491E-01
        2   -1    0    0  501    0  0.00000000000E+00  0.00000000000E+00  0.80977235210E+03  0.80977235210E+03  0.25500000920E-02 0. -1.
       -2   -1    0    0    0  501  0.00000000000E+00  0.00000000000E+00 -0.52284034713E+03  0.52284034714E+03  0.25500000920E-02 0.  1.
    10030    2    1    2    0    0  0.00000000000E+00  0.00000000000E+00  0.28693200497E+03  0.13326126992E+04  0.13013556895E+04 0.  0.
        2    1    3    3  502    0  0.21123912285E+03 -0.46374601968E+02  0.77189082295E+03  0.80161587640E+03  0.25500000920E-02 0. -1.
       -2    1    3    3    0  502 -0.21123912285E+03  0.46374601968E+02 -0.48495881798E+03  0.53099682285E+03  0.25500000920E-02 0.  1.
</event>
<event>
 5   0  0.2401211E-03  0.1299157E+04  0.7818609E-02  0.9030234E-01
       -2   -1    0    0    0  501  0.00000000000E+00  0.00000000000E+00  0.62891706893E+03  0.62891706894E+03  0.25500000920E-02 0. -1.
        2   -1    0    0  501    0  0.00000000000E+00  0.00000000000E+00 -0.67091915173E+03  0.67091915174E+03  0.25500000920E-02 0.  1.
    10030    2    1    2    0    0  0.00000000000E+00  0.00000000000E+00 -0.42002082803E+02  0.12998362207E+04  0.12991574291E+04 0.  0.
        4    1    3    3  502    0  0.36193365873E+03  0.19105693788E+03  0.48369503697E+03  0.63360968153E+03  0.12699999809E+01 0. -1.
       -4    1    3    3    0  502 -0.36193365873E+03 -0.19105693788E+03 -0.52569711977E+03  0.66622653915E+03  0.12699999809E+01 0.  1.
</event>
<event>
 5   0  0.1387622E-03  0.1282817E+04  0.7818609E-02  0.9043303E-01
        1   -1    0    0  501    0  0.00000000000E+00  0.00000000000E+00  0.13581952657E+04  0.13581952657E+04  0.50400001928E-02 0. -1.
       -1   -1    0    0    0  501  0.00000000000E+00  0.00000000000E+00 -0.30290570661E+03  0.30290570665E+03  0.50400001928E-02 0.  1.
    10030    2    1    2    0    0  0.00000000000E+00  0.00000000000E+00  0.10552895591E+04  0.16611009724E+04  0.12828173630E+04 0.  0.
        3    1    3    3  502    0 -0.11481187967E+03  0.52274513851E+03  0.98538404581E+03  0.11213500682E+04  0.10100000352E+00 0. -1.
       -3    1    3    3    0  502  0.11481187967E+03 -0.52274513851E+03  0.69905513288E+02  0.53975090416E+03  0.10100000352E+00 0.  1.
</event>
<event>
 5   0  0.2361043E-03  0.1316532E+04  0.7818609E-02  0.9016557E-01
       -2   -1    0    0    0  501  0.00000000000E+00  0.00000000000E+00  0.43789807041E+03  0.43789807042E+03  0.25500000920E-02 0. -1.
        2   -1    0    0  501    0  0.00000000000E+00  0.00000000000E+00 -0.98953231739E+03  0.98953231739E+03  0.25500000920E-02 0.  1.
    10030    2    1    2    0    0  0.00000000000E+00  0.00000000000E+00 -0.55163424698E+03  0.14274303878E+04  0.13165322516E+04 0.  0.
        2    1    3    3  502    0 -0.31459503091E+03  0.12897878584E+03 -0.88695332534E+03  0.94989039473E+03  0.25500000920E-02 0.  1.
       -2    1    3    3    0  502  0.31459503091E+03 -0.12897878584E+03  0.33531907836E+03  0.47753999308E+03  0.25500000920E-02 0. -1.
</event>
<event>
 5   0  0.2401211E-03  0.1303160E+04  0.7818609E-02  0.9027063E-01
        2   -1    0    0  501    0  0.00000000000E+00  0.00000000000E+00  0.13527714399E+04  0.13527714399E+04  0.25500000920E-02 0.  1.
       -2   -1    0    0    0  501  0.00000000000E+00  0.00000000000E+00 -0.31384183206E+03  0.31384183207E+03  0.25500000920E-02 0. -1.
    10030    2    1    2    0    0  0.00000000000E+00  0.00000000000E+00  0.10389296078E+04  0.16666132720E+04  0.13031596480E+04 0.  0.
        4    1    3    3  502    0 -0.10260542365E+02 -0.12296070698E+03  0.13376922088E+04  0.13433713829E+04  0.12699999809E+01 0.  1.
       -4    1    3    3    0  502  0.10260542365E+02  0.12296070698E+03 -0.29876260095E+03  0.32324188902E+03  0.12699999809E+01 0. -1.
</event>
<event>
 5   0  0.2478236E-03  0.1293143E+04  0.7818609E-02  0.9035020E-01
       -2   -1    0    0    0  501  0.00000000000E+00  0.00000000000E+00  0.36238544195E+03  0.36238544196E+03  0.25500000920E-02 0.  1.
        2   -1    0    0  501    0  0.00000000000E+00  0.00000000000E+00 -0.11536193441E+04  0.11536193441E+04  0.25500000920E-02 0. -1.
    10030    2    1    2    0    0  0.00000000000E+00  0.00000000000E+00 -0.79123390210E+03  0.15160047860E+04  0.12931432339E+04 0.  0.
        3    1    3    3  502    0 -0.26637496586E+03 -0.16861753335E+03  0.26617689658E+03  0.41259864938E+03  0.10100000352E+00 0.  1.
       -3    1    3    3    0  502  0.26637496586E+03  0.16861753335E+03 -0.10574107987E+04  0.11034061366E+04  0.10100000352E+00 0. -1.
</event>
<event>
 5   0  0.1387622E-03  0.1302214E+04  0.7818609E-02  0.9027812E-01
        1   -1    0    0  501    0  0.00000000000E+00  0.00000000000E+00  0.11020409923E+04  0.11020409924E+04  0.50400001928E-02 0. -1.
       -1   -1    0    0    0  501  0.00000000000E+00  0.00000000000E+00 -0.38468635813E+03  0.38468635816E+03  0.50400001928E-02 0.  1.
    10030    2    1    2    0    0  0.00000000000E+00  0.00000000000E+00  0.71735463422E+03  0.14867273505E+04  0.13022137089E+04 0.  0.
        3    1    3    3  502    0 -0.84773072961E+01  0.32111967194E+03 -0.28791819058E+03  0.43137756446E+03  0.10100000352E+00 0.  1.
       -3    1    3    3    0  502  0.84773072961E+01 -0.32111967194E+03  0.10052728248E+04  0.10553497861E+04  0.10100000352E+00 0. -1.
</event>
<event>
 5   0  0.2361043E-03  0.1309126E+04  0.7818609E-02  0.9022360E-01
       -2   -1    0    0    0  501  0.00000000000E+00  0.00000000000E+00  0.17423292022E+03  0.17423292024E+03  0.25500000920E-02 0.  1.
        2   -1    0    0  501    0  0.00000000000E+00  0.00000000000E+00 -0.24590787830E+04  0.24590787830E+04  0.25500000920E-02 0. -1.
    10030    2    1    2    0    0  0.00000000000E+00  0.00000000000E+00 -0.22848458628E+04  0.26333117032E+04  0.13091256280E+04 0.  0.
        2    1    3    3  502    0  0.14770647288E+01 -0.42258714817E+03 -0.21479143041E+04  0.21890906645E+04  0.25500000920E-02 0. -1.
       -2    1    3    3    0  502 -0.14770647288E+01  0.42258714817E+03 -0.13693155868E+03  0.44422103877E+03  0.25500000920E-02 0.  1.
</event>
<event>
 5   0  0.1332630E-03  0.1275801E+04  0.7818609E-02  0.9048979E-01
        1   -1    0    0  501    0  0.00000000000E+00  0.00000000000E+00  0.64025532770E+03  0.64025532772E+03  0.50400001928E-02 0.  1.
       -1   -1    0    0    0  501  0.00000000000E+00  0.00000000000E+00 -0.63555412125E+03  0.63555412127E+03  0.50400001928E-02 0. -1.
    10030    2    1    2    0    0  0.00000000000E+00  0.00000000000E+00  0.47012064478E+01  0.12758094490E+04  0.12758007873E+04 0.  0.
        5    1    3    3  502    0  0.48925053513E+03  0.32033677703E+03  0.25713279800E+03  0.63884356665E+03  0.46999998093E+01 0.  1.
       -5    1    3    3    0  502 -0.48925053513E+03 -0.32033677703E+03 -0.25243159155E+03  0.63696588233E+03  0.46999998093E+01 0. -1.
</event>
<event>
 5   0  0.1310461E-03  0.1288544E+04  0.7818609E-02  0.9038700E-01
       -1   -1    0    0    0  501  0.00000000000E+00  0.00000000000E+00  0.26885685860E+03  0.26885685865E+03  0.50400001928E-02 0.  1.
        1   -1    0    0  501    0  0.00000000000E+00  0.00000000000E+00 -0.15438927014E+04  0.15438927015E+04  0.50400001928E-02 0. -1.
    10030    2    1    2    0    0  0.00000000000E+00  0.00000000000E+00 -0.12750358428E+04  0.18127495601E+04  0.12885435837E+04 0.  0.
        4    1    3    3  502    0 -0.28581288920E+03  0.37747815667E+03 -0.22839149996E+02  0.47402743177E+03  0.12699999809E+01 0.  1.
       -4    1    3    3    0  502  0.28581288920E+03 -0.37747815667E+03 -0.12521966929E+04  0.13387221283E+04  0.12699999809E+01 0. -1.
</event>
<event>
 5   0  0.2361043E-03  0.1306518E+04  0.7818609E-02  0.9024412E-01
       -2   -1    0    0    0  501  0.00000000000E+00  0.00000000000E+00  0.37103379883E+03  0.37103379884E+03  0.25500000920E-02 0.  1.
        2   -1    0    0  501    0  0.00000000000E+00  0.00000000000E+00 -0.11501571012E+04  0.11501571012E+04  0.25500000920E-02 0. -1.
    10030    2    1    2    0    0  0.00000000000E+00  0.00000000000E+00 -0.77912330232E+03  0.15211909000E+04  0.13065177511E+04 0.  0.
        2    1    3    3  502    0 -0.16295255805E+03 -0.11829999911E+03 -0.11131204450E+04  0.11311876727E+04  0.25500000920E-02 0. -1.
       -2    1    3    3    0  502  0.16295255805E+03  0.11829999911E+03  0.33399714265E+03  0.39000322725E+03  0.25500000920E-02 0.  1.
</event>
<event>
 5   0  0.1332630E-03  0.1313857E+04  0.7818609E-02  0.9018648E-01
        1   -1    0    0  501    0  0.00000000000E+00  0.00000000000E+00  0.91387807049E+03  0.91387807050E+03  0.50400001928E-02 0. -1.
       -1   -1    0    0    0  501  0.00000000000E+00  0.00000000000E+00 -0.47222369609E+03  0.47222369612E+03  0.50400001928E-02 0.  1.
    10030    2    1    2    0    0  0.00000000000E+00  0.00000000000E+00  0.44165437439E+03  0.13861017666E+04  0.13138567353E+04 0.  0.
        5    1    3    3  502    0  0.17097470232E+03  0.61677454962E+03  0.64740457294E+02  0.64331688202E+03  0.46999998093E+01 0.  1.
       -5    1    3    3    0  502 -0.17097470232E+03 -0.61677454962E+03  0.37691391710E+03  0.74278488460E+03  0.46999998093E+01 0. -1.
</event>
<event>
 5   0  0.1387622E-03  0.1302983E+04  0.7818609E-02  0.9027203E-01
       -1   -1    0    0    0  501  0.00000000000E+00  0.00000000000E+00  0.84011930864E+03  0.84011930865E+03  0.50400001928E-02 0.  1.
        1   -1    0    0  501    0  0.00000000000E+00  0.00000000000E+00 -0.50521539145E+03  0.50521539147E+03  0.50400001928E-02 0. -1.
    10030    2    1    2    0    0  0.00000000000E+00  0.00000000000E+00  0.33490391719E+03  0.13453347001E+04  0.13029830473E+04 0.  0.
        3    1    3    3  502    0  0.31790884292E+03  0.29244090721E+02  0.75381942735E+03  0.81863605375E+03  0.10100000352E+00 0.  1.
       -3    1    3    3    0  502 -0.31790884292E+03 -0.29244090721E+02 -0.41891551016E+03  0.52669864638E+03  0.10100000352E+00 0. -1.
</event>
<event>
 5   0  0.1387622E-03  0.1314464E+04  0.7818609E-02  0.9018173E-01
       -1   -1    0    0    0  501  0.00000000000E+00  0.00000000000E+00  0.21505014296E+03  0.21505014302E+03  0.50400001928E-02 0.  1.
        1   -1    0    0  501    0  0.00000000000E+00  0.00000000000E+00 -0.20086180913E+04  0.20086180913E+04  0.50400001928E-02 0. -1.
    10030    2    1    2    0    0  0.00000000000E+00  0.00000000000E+00 -0.17935679483E+04  0.22236682343E+04  0.13144635526E+04 0.  0.
        3    1    3    3  502    0 -0.38262111313E+03 -0.22253585358E+03 -0.74906033668E+02  0.44892320771E+03  0.10100000352E+00 0.  1.
       -3    1    3    3    0  502  0.38262111313E+03  0.22253585358E+03 -0.17186619146E+04  0.17747450266E+04  0.10100000352E+00 0. -1.
</event>
<event>
 5   0  0.1346593E-03  0.9839460E+03  0.7818609E-02  0.9326330E-01
       -1   -1    0    0    0  501  0.00000000000E+00  0.00000000000E+00  0.51171549519E+03  0.51171549522E+03  0.50400001928E-02 0.  1.
        1   -1    0    0  501    0  0.00000000000E+00  0.00000000000E+00 -0.47299222282E+03  0.47299222285E+03  0.50400001928E-02 0. -1.
    10030    2    1    2    0    0  0.00000000000E+00  0.00000000000E+00  0.38723272370E+02  0.98470771806E+03  0.98394603419E+03 0.  0.
        2    1    3    3  502    0  0.10386358042E+03 -0.15803159536E+03  0.47388919930E+03  0.51022798991E+03  0.25500000920E-02 0.  1.
       -2    1    3    3    0  502 -0.10386358042E+03  0.15803159536E+03 -0.43516592693E+03  0.47447972816E+03  0.25500000920E-02 0. -1.
</event>
<event>
 5   0  0.2312105E-03  0.1291881E+04  0.7818609E-02  0.9036029E-01
       -2   -1    0    0    0  501  0.00000000000E+00  0.00000000000E+00  0.95487475350E+03  0.95487475351E+03  0.25500000920E-02 0.  1.
        2   -1    0    0  501    0  0.00000000000E+00  0.00000000000E+00 -0.43695671314E+03  0.43695671314E+03  0.25500000920E-02 0. -1.
    10030    2    1    2    0    0  0.00000000000E+00  0.00000000000E+00  0.51791804037E+03  0.13918314666E+04  0.12918806969E+04 0.  0.
        5    1    3    3  502    0  0.30891764767E+03 -0.51749023960E+03  0.50929498574E+03  0.78906890296E+03  0.46999998093E+01 0. -1.
       -5    1    3    3    0  502 -0.30891764767E+03  0.51749023960E+03  0.86230546264E+01  0.60276256369E+03  0.46999998093E+01 0.  1.
</event>
<event>
 5   0  0.1310461E-03  0.1307743E+04  0.7818609E-02  0.9023447E-01
       -1   -1    0    0    0  501  0.00000000000E+00  0.00000000000E+00  0.84530277437E+03  0.84530277438E+03  0.50400001928E-02 0. -1.
        1   -1    0    0  501    0  0.00000000000E+00  0.00000000000E+00 -0.50579251979E+03  0.50579251982E+03  0.50400001928E-02 0.  1.
    10030    2    1    2    0    0  0.00000000000E+00  0.00000000000E+00  0.33951025457E+03  0.13510952942E+04  0.13077428192E+04 0.  0.
        4    1    3    3  502    0  0.13339060255E+02 -0.59603121590E+03 -0.10768970598E+03  0.60582986600E+03  0.12699999809E+01 0. -1.
       -4    1    3    3    0  502 -0.13339060255E+02  0.59603121590E+03  0.44719996055E+03  0.74526542820E+03  0.12699999809E+01 0.  1.
</event>
<event>
 5   0  0.1387622E-03  0.1297101E+04  0.7818609E-02  0.9031867E-01
        1   -1    0    0  501    0  0.00000000000E+00  0.00000000000E+00  0.11571502058E+04  0.11571502058E+04  0.50400001928E-02 0.  1.
       -1   -1    0    0    0  501  0.00000000000E+00  0.00000000000E+00 -0.36349441144E+03  0.36349441147E+03  0.50400001928E-02 0. -1.
    10030    2    1    2    0    0  0.00000000000E+00  0.00000000000E+00  0.79365579440E+03  0.15206446173E+04  0.12971008181E+04 0.  0.
        3    1    3    3  502    0 -0.14084688649E+03 -0.57315964372E+03  0.71198450221E+03  0.92480904202E+03  0.10100000352E+00 0.  1.
       -3    1    3    3    0  502  0.14084688649E+03  0.57315964372E+03  0.81671292194E+02  0.59583557530E+03  0.10100000352E+00 0. -1.
</event>
<event>
 5   0  0.2361043E-03  0.1289079E+04  0.7818609E-02  0.9038270E-01
       -2   -1    0    0    0  501  0.00000000000E+00  0.00000000000E+00  0.47357357836E+03  0.47357357836E+03  0.25500000920E-02 0.  1.
        2   -1    0    0  501    0  0.00000000000E+00  0.00000000000E+00 -0.87722668062E+03  0.87722668062E+03  0.25500000920E-02 0. -1.
    10030    2    1    2    0    0  0.00000000000E+00  0.00000000000E+00 -0.40365310226E+03  0.13508002590E+04  0.12890793275E+04 0.  0.
        2    1    3    3  502    0  0.46931157497E+03  0.20590301310E+02  0.26061277010E+03  0.53721162576E+03  0.25500000920E-02 0.  1.
       -2    1    3    3    0  502 -0.46931157497E+03 -0.20590301310E+02 -0.66426587237E+03  0.81358863322E+03  0.25500000920E-02 0. -1.
</event>
<event>
 5   0  0.9131250E-04  0.1306123E+04  0.7818609E-02  0.9024724E-01
       -4   -1    0    0    0  501  0.00000000000E+00  0.00000000000E+00  0.84873673976E+03  0.84873768993E+03  0.12699999809E+01 0.  1.
        4   -1    0    0  501    0  0.00000000000E+00  0.00000000000E+00 -0.50249664930E+03  0.50249825418E+03  0.12699999809E+01 0. -1.
    10030    2    1    2    0    0  0.00000000000E+00  0.00000000000E+00  0.34624009046E+03  0.13512359441E+04  0.13061226498E+04 0.  0.
        3    1    3    3  502    0 -0.81212389857E+02 -0.64124254209E+03  0.76615530487E+02  0.65088969861E+03  0.10100000352E+00 0.  1.
       -3    1    3    3    0  502  0.81212389857E+02  0.64124254209E+03  0.26962455997E+03  0.70034624550E+03  0.10100000352E+00 0. -1.
</event>
<event>
 5   0  0.2312105E-03  0.1296476E+04  0.7818609E-02  0.9032364E-01
        2   -1    0    0  501    0  0.00000000000E+00  0.00000000000E+00  0.72053632320E+03  0.72053632321E+03  0.25500000920E-02 0. -1.
       -2   -1    0    0    0  501  0.00000000000E+00  0.00000000000E+00 -0.58319423313E+03  0.58319423313E+03  0.25500000920E-02 0.  1.
    10030    2    1    2    0    0  0.00000000000E+00  0.00000000000E+00  0.13734209007E+03  0.13037305563E+04  0.12964761910E+04 0.  0.
        5    1    3    3  502    0 -0.23347524195E+03  0.54906337087E+03  0.32348437708E+03  0.67870870485E+03  0.46999998093E+01 0. -1.
       -5    1    3    3    0  502  0.23347524195E+03 -0.54906337087E+03 -0.18614228700E+03  0.62502185149E+03  0.46999998093E+01 0.  1.
</event>
<event>
 5   0  0.1324721E-03  0.1308019E+04  0.7818609E-02  0.9023230E-01
        1   -1    0    0  501    0  0.00000000000E+00  0.00000000000E+00  0.73135528642E+03  0.73135528644E+03  0.50400001928E-02 0. -1.
       -1   -1    0    0    0  501  0.00000000000E+00  0.00000000000E+00 -0.58484332646E+03  0.58484332648E+03  0.50400001928E-02 0.  1.
    10030    2    1    2    0    0  0.00000000000E+00  0.00000000000E+00  0.14651195996E+03  0.13161986129E+04  0.13080187438E+04 0.  0.
        1    1    3    3  502    0 -0.49573421998E+03 -0.36511666885E+03 -0.14872653592E+03  0.63338943885E+03  0.50400001928E-02 0.  1.
       -1    1    3    3    0  502  0.49573421998E+03  0.36511666885E+03  0.29523849589E+03  0.68280917408E+03  0.50400001928E-02 0. -1.
</event>
<event>
 5   0  0.2478236E-03  0.1383457E+04  0.7818609E-02  0.8965881E-01
        2   -1    0    0  501    0  0.00000000000E+00  0.00000000000E+00  0.12555124290E+04  0.12555124290E+04  0.25500000920E-02 0. -1.
       -2   -1    0    0    0  501  0.00000000000E+00  0.00000000000E+00 -0.38111013031E+03  0.38111013032E+03  0.25500000920E-02 0.  1.
    10030    2    1    2    0    0  0.00000000000E+00  0.00000000000E+00  0.87440229873E+03  0.16366225594E+04  0.13834572714E+04 0.  0.
        3    1    3    3  502    0 -0.19847060072E+03  0.12689804219E+03 -0.33219551401E+03  0.40724386084E+03  0.10100000352E+00 0.  1.
       -3    1    3    3    0  502  0.19847060072E+03 -0.12689804219E+03  0.12065978127E+04  0.12293786985E+04  0.10100000352E+00 0. -1.
</event>
<event>
 5   0  0.2312105E-03  0.1305693E+04  0.7818609E-02  0.9025063E-01
       -2   -1    0    0    0  501  0.00000000000E+00  0.00000000000E+00  0.95167102364E+03  0.95167102364E+03  0.25500000920E-02 0.  1.
        2   -1    0    0  501    0  0.00000000000E+00  0.00000000000E+00 -0.44785278232E+03  0.44785278233E+03  0.25500000920E-02 0. -1.
    10030    2    1    2    0    0  0.00000000000E+00  0.00000000000E+00  0.50381824132E+03  0.13995238060E+04  0.13056929437E+04 0.  0.
        5    1    3    3  502    0 -0.48251272578E+02  0.62305043902E+03  0.45433629641E+03  0.77263419229E+03  0.46999998093E+01 0.  1.
       -5    1    3    3    0  502  0.48251272578E+02 -0.62305043902E+03  0.49481944910E+02  0.62688961368E+03  0.46999998093E+01 0. -1.
</event>
<event>
 5   0  0.1324721E-03  0.1314118E+04  0.7818609E-02  0.9018444E-01
       -1   -1    0    0    0  501  0.00000000000E+00  0.00000000000E+00  0.46657256545E+03  0.46657256548E+03  0.50400001928E-02 0.  1.
        1   -1    0    0  501    0  0.00000000000E+00  0.00000000000E+00 -0.92531416168E+03  0.92531416170E+03  0.50400001928E-02 0. -1.
    10030    2    1    2    0    0  0.00000000000E+00  0.00000000000E+00 -0.45874159623E+03  0.13918867272E+04  0.13141175020E+04 0.  0.
        1    1    3    3  502    0 -0.52423369905E+03 -0.11523588841E+03 -0.63077887554E+03  0.82824046692E+03  0.50400001928E-02 0. -1.
       -1    1    3    3    0  502  0.52423369905E+03  0.11523588841E+03  0.17203727931E+03  0.56364626025E+03  0.50400001928E-02 0.  1.
</event>
<event>
 5   0  0.2361043E-03  0.1338561E+04  0.7818609E-02  0.8999532E-01
       -2   -1    0    0    0  501  0.00000000000E+00  0.00000000000E+00  0.70937431175E+03  0.70937431176E+03  0.25500000920E-02 0. -1.
        2   -1    0    0  501    0  0.00000000000E+00  0.00000000000E+00 -0.63145309347E+03  0.63145309347E+03  0.25500000920E-02 0.  1.
    10030    2    1    2    0    0  0.00000000000E+00  0.00000000000E+00  0.77921218285E+02  0.13408274052E+04  0.13385613226E+04 0.  0.
        2    1    3    3  502    0 -0.21774851153E+03 -0.46393293316E+03  0.47014074821E+03  0.69547142564E+03  0.25500000920E-02 0. -1.
       -2    1    3    3    0  502  0.21774851153E+03  0.46393293316E+03 -0.39221952992E+03  0.64535597960E+03  0.25500000920E-02 0.  1.
</event>
<event>
 5   0  0.2312105E-03  0.1357611E+04  0.7818609E-02  0.8985086E-01
       -2   -1    0    0    0  501  0.00000000000E+00  0.00000000000E+00  0.15525060299E+04  0.15525060299E+04  0.25500000920E-02 0.  1.
        2   -1    0    0  501    0  0.00000000000E+00  0.00000000000E+00 -0.29679575903E+03  0.29679575904E+03  0.25500000920E-02 0. -1.
    10030    2    1    2    0    0  0.00000000000E+00  0.00000000000E+00  0.12557102709E+04  0.18493017889E+04  0.13576114401E+04 0.  0.
        5    1    3    3  502    0  0.57097385565E+03  0.29656615890E+03  0.33319569739E+03  0.72457166188E+03  0.46999998093E+01 0. -1.
       -5    1    3    3    0  502 -0.57097385565E+03 -0.29656615890E+03  0.92251457348E+03  0.11247301271E+04  0.46999998093E+01 0.  1.
</event>
<event>
 5   0  0.1346593E-03  0.1281477E+04  0.7818609E-02  0.9044385E-01
       -1   -1    0    0    0  501  0.00000000000E+00  0.00000000000E+00  0.54798076477E+03  0.54798076479E+03  0.50400001928E-02 0.  1.
        1   -1    0    0  501    0  0.00000000000E+00  0.00000000000E+00 -0.74919703224E+03  0.74919703226E+03  0.50400001928E-02 0. -1.
    10030    2    1    2    0    0  0.00000000000E+00  0.00000000000E+00 -0.20121626747E+03  0.12971777970E+04  0.12814765901E+04 0.  0.
        2    1    3    3  502    0 -0.38090960489E+03 -0.32792307933E+03 -0.50286850077E+03  0.71098692121E+03  0.25500000920E-02 0. -1.
       -2    1    3    3    0  502  0.38090960489E+03  0.32792307933E+03  0.30165223330E+03  0.58619087584E+03  0.25500000920E-02 0.  1.
</event>
<event>
 5   0  0.2312105E-03  0.1488040E+04  0.7818609E-02  0.8892446E-01
       -2   -1    0    0    0  501  0.00000000000E+00  0.00000000000E+00  0.24608740550E+03  0.24608740552E+03  0.25500000920E-02 0. -1.
        2   -1    0    0  501    0  0.00000000000E+00  0.00000000000E+00 -0.22494669864E+04  0.22494669864E+04  0.25500000920E-02 0.  1.
    10030    2    1    2    0    0  0.00000000000E+00  0.00000000000E+00 -0.20033795809E+04  0.24955543919E+04  0.14880396426E+04 0.  0.
        5    1    3    3  502    0 -0.34959334122E+02 -0.70480014044E+03 -0.60631949188E+03  0.93038207702E+03  0.46999998093E+01 0.  1.
       -5    1    3    3    0  502  0.34959334122E+02  0.70480014044E+03 -0.13970600890E+04  0.15651723149E+04  0.46999998093E+01 0. -1.
</event>
<event>
 5   0  0.1310461E-03  0.1237505E+04  0.7818609E-02  0.9080647E-01
       -1   -1    0    0    0  501  0.00000000000E+00  0.00000000000E+00  0.39260411339E+03  0.39260411342E+03  0.50400001928E-02 0. -1.
        1   -1    0    0  501    0  0.00000000000E+00  0.00000000000E+00 -0.97516758481E+03  0.97516758482E+03  0.50400001928E-02 0.  1.
    10030    2    1    2    0    0  0.00000000000E+00  0.00000000000E+00 -0.58256347142E+03  0.13677716982E+04  0.12375052405E+04 0.  0.
        4    1    3    3  502    0 -0.45522870762E+03  0.35979328493E+03 -0.53794158149E+02  0.58273476683E+03  0.12699999809E+01 0. -1.
       -4    1    3    3    0  502  0.45522870762E+03 -0.35979328493E+03 -0.52876931327E+03  0.78503693141E+03  0.12699999809E+01 0.  1.
</event>
<event>
 5   0  0.1332630E-03  0.1302931E+04  0.7818609E-02  0.9027244E-01
        1   -1    0    0  501    0  0.00000000000E+00  0.00000000000E+00  0.13754691190E+04  0.13754691190E+04  0.50400001928E-02 0.  1.
       -1   -1    0    0    0  501  0.00000000000E+00  0.00000000000E+00 -0.30855460216E+03  0.30855460220E+03  0.50400001928E-02 0. -1.
    10030    2    1    2    0    0  0.00000000000E+00  0.00000000000E+00  0.10669145168E+04  0.16840237212E+04  0.13029310447E+04 0.  0.
        5    1    3    3  502    0 -0.32947537755E+03  0.48735116619E+03  0.89516954378E+03  0.10711749557E+04  0.46999998093E+01 0.  1.
       -5    1    3    3    0  502  0.32947537755E+03 -0.48735116619E+03  0.17174497303E+03  0.61284876549E+03  0.46999998093E+01 0. -1.
</event>
<event>
 5   0  0.1332630E-03  0.1306020E+04  0.7818609E-02  0.9024805E-01
       -1   -1    0    0    0  501  0.00000000000E+00  0.00000000000E+00  0.33783872334E+03  0.33783872338E+03  0.50400001928E-02 0.  1.
        1   -1    0    0  501    0  0.00000000000E+00  0.00000000000E+00 -0.12622063841E+04  0.12622063841E+04  0.50400001928E-02 0. -1.
    10030    2    1    2    0    0  0.00000000000E+00  0.00000000000E+00 -0.92436766075E+03  0.16000451075E+04  0.13060202042E+04 0.  0.
        5    1    3    3  502    0  0.50275027646E+02  0.54678870488E+03 -0.29217398947E+02  0.54989200084E+03  0.46999998093E+01 0.  1.
       -5    1    3    3    0  502 -0.50275027646E+02 -0.54678870488E+03 -0.89515026180E+03  0.10501531066E+04  0.46999998093E+01 0. -1.
</event>
<event>
 5   0  0.1332630E-03  0.1281535E+04  0.7818609E-02  0.9044338E-01
       -1   -1    0    0    0  501  0.00000000000E+00  0.00000000000E+00  0.30763886308E+03  0.30763886313E+03  0.50400001928E-02 0. -1.
        1   -1    0    0  501    0  0.00000000000E+00  0.00000000000E+00 -0.13346264842E+04  0.13346264842E+04  0.50400001928E-02 0.  1.
    10030    2    1    2    0    0  0.00000000000E+00  0.00000000000E+00 -0.10269876211E+04  0.16422653473E+04  0.12815349769E+04 0.  0.
        5    1    3    3  502    0  0.60093221895E+02 -0.22426170785E+03 -0.12788046439E+04  0.12997183988E+04  0.46999998093E+01 0.  1.
       -5    1    3    3    0  502 -0.60093221895E+02  0.22426170785E+03  0.25181702284E+03  0.34254694848E+03  0.46999998093E+01 0. -1.
</event>
<event>
 5   0  0.2478236E-03  0.1304192E+04  0.7818609E-02  0.9026247E-01
       -2   -1    0    0    0  501  0.00000000000E+00  0.00000000000E+00  0.50136646482E+03  0.50136646483E+03  0.25500000920E-02 0. -1.
        2   -1    0    0  501    0  0.00000000000E+00  0.00000000000E+00 -0.84814081491E+03  0.84814081491E+03  0.25500000920E-02 0.  1.
    10030    2    1    2    0    0  0.00000000000E+00  0.00000000000E+00 -0.34677435009E+03  0.13495072797E+04  0.13041922589E+04 0.  0.
        3    1    3    3  502    0  0.39320931000E+03  0.51960447796E+03 -0.19929669531E+03  0.68141144542E+03  0.10100000352E+00 0. -1.
       -3    1    3    3    0  502 -0.39320931000E+03 -0.51960447796E+03 -0.14747765478E+03  0.66809583432E+03  0.10100000352E+00 0.  1.
</event>
<event>
 5   0  0.1332630E-03  0.1286863E+04  0.7818609E-02  0.9040048E-01
        1   -1    0    0  501    0  0.00000000000E+00  0.00000000000E+00  0.88696167267E+03  0.88696167268E+03  0.50400001928E-02 0. -1.
       -1   -1    0    0    0  501  0.00000000000E+00  0.00000000000E+00 -0.46676692280E+03  0.46676692283E+03  0.50400001928E-02 0.  1.
    10030    2    1    2    0    0  0.00000000000E+00  0.00000000000E+00  0.42019474987E+03  0.13537285955E+04  0.12868634281E+04 0.  0.
        5    1    3    3  502    0 -0.36568213147E+03 -0.19606740684E+03 -0.30720211241E+03  0.51629553278E+03  0.46999998093E+01 0.  1.
       -5    1    3    3    0  502  0.36568213147E+03  0.19606740684E+03  0.72739686228E+03  0.83743306273E+03  0.46999998093E+01 0. -1.
</event>
<event>
 5   0  0.1332630E-03  0.1312440E+04  0.7818609E-02  0.9019758E-01
       -1   -1    0    0    0  501  0.00000000000E+00  0.00000000000E+00  0.74417159432E+03  0.74417159433E+03  0.50400001928E-02 0. -1.
        1   -1    0    0  501    0  0.00000000000E+00  0.00000000000E+00 -0.57866286856E+03  0.57866286858E+03  0.50400001928E-02 0.  1.
    10030    2    1    2    0    0  0.00000000000E+00  0.00000000000E+00  0.16550872576E+03  0.13228344629E+04  0.13124396664E+04 0.  0.
        5    1    3    3  502    0 -0.22321991961E+03  0.36181052621E+03 -0.42107307190E+03  0.59837998903E+03  0.46999998093E+01 0.  1.
       -5    1    3    3    0  502  0.22321991961E+03 -0.36181052621E+03  0.58658179766E+03  0.72445447389E+03  0.46999998093E+01 0. -1.
</event>
<event>
 5   0  0.2478236E-03  0.1289765E+04  0.7818609E-02  0.9037721E-01
       -2   -1    0    0    0  501  0.00000000000E+00  0.00000000000E+00  0.28458931823E+03  0.28458931824E+03  0.25500000920E-02 0.  1.
        2   -1    0    0  501    0  0.00000000000E+00  0.00000000000E+00 -0.14613106188E+04  0.14613106188E+04  0.25500000920E-02 0. -1.
    10030    2    1    2    0    0  0.00000000000E+00  0.00000000000E+00 -0.11767213006E+04  0.17458999371E+04  0.12897649286E+04 0.  0.
        3    1    3    3  502    0  0.75397386016E+02  0.39794883449E+03 -0.12676557818E+04  0.13307889510E+04  0.10100000352E+00 0. -1.
       -3    1    3    3    0  502 -0.75397386016E+02 -0.39794883449E+03  0.90934481222E+02  0.41511098608E+03  0.10100000352E+00 0.  1.
</event>
<event>
 5   0  0.2334946E-03  0.1304061E+04  0.7818609E-02  0.9026351E-01
       -2   -1    0    0    0  501  0.00000000000E+00  0.00000000000E+00  0.57460374606E+03  0.57460374606E+03  0.25500000920E-02 0. -1.
        2   -1    0    0  501    0  0.00000000000E+00  0.00000000000E+00 -0.73988980326E+03  0.73988980327E+03  0.25500000920E-02 0.  1.
    10030    2    1    2    0    0  0.00000000000E+00  0.00000000000E+00 -0.16528605721E+03  0.13144935493E+04  0.13040605088E+04 0.  0.
        1    1    3    3  502    0  0.20989007367E+03 -0.22427668881E+03  0.49710145371E+03  0.58434898090E+03  0.50400001928E-02 0. -1.
       -1    1    3    3    0  502 -0.20989007367E+03  0.22427668881E+03 -0.66238751092E+03  0.73014456844E+03  0.50400001928E-02 0.  1.
</event>
<event>
 5   0  0.2401211E-03  0.1298265E+04  0.7818609E-02  0.9030942E-01
       -2   -1    0    0    0  501  0.00000000000E+00  0.00000000000E+00  0.42529327906E+03  0.42529327907E+03  0.25500000920E-02 0.  1.
        2   -1    0    0  501    0  0.00000000000E+00  0.00000000000E+00 -0.99078276439E+03  0.99078276439E+03  0.25500000920E-02 0. -1.
    10030    2    1    2    0    0  0.00000000000E+00  0.00000000000E+00 -0.56548948533E+03  0.14160760435E+04  0.12982653823E+04 0.  0.
        4    1    3    3  502    0  0.19870069878E+03 -0.60319326857E+03 -0.42927666126E+03  0.76655342393E+03  0.12699999809E+01 0.  1.
       -4    1    3    3    0  502 -0.19870069878E+03  0.60319326857E+03 -0.13621282407E+03  0.64952261953E+03  0.12699999809E+01 0. -1.
</event>
<event>
 5   0  0.1346593E-03  0.1202022E+04  0.7818609E-02  0.9111088E-01
       -1   -1    0    0    0  501  0.00000000000E+00  0.00000000000E+00  0.59660058534E+03  0.59660058536E+03  0.50400001928E-02 0. -1.
        1   -1    0    0  501    0  0.00000000000E+00  0.00000000000E+00 -0.60545411435E+03  0.60545411437E+03  0.50400001928E-02 0.  1.
    10030    2    1    2    0    0  0.00000000000E+00  0.00000000000E+00 -0.88535290044E+01  0.12020546997E+04  0.12020220947E+04 0.  0.
        2    1    3    3  502    0 -0.23693233109E+03  0.36047720503E+02 -0.55560222806E+03  0.60508693880E+03  0.25500000920E-02 0.  1.
       -2    1    3    3    0  502  0.23693233109E+03 -0.36047720503E+02  0.54674869906E+03  0.59696776094E+03  0.25500000920E-02 0. -1.
</event>
<event>
 5   0  0.2312105E-03  0.1311670E+04  0.7818609E-02  0.9020362E-01
        2   -1    0    0  501    0  0.00000000000E+00  0.00000000000E+00  0.98601700290E+03  0.98601700290E+03  0.25500000920E-02 0.  1.
       -2   -1    0    0    0  501  0.00000000000E+00  0.00000000000E+00 -0.43621913487E+03  0.43621913488E+03  0.25500000920E-02 0. -1.
    10030    2    1    2    0    0  0.00000000000E+00  0.00000000000E+00  0.54979786802E+03  0.14222361378E+04  0.13116699036E+04 0.  0.
        5    1    3    3  502    0 -0.10327924246E+03  0.43492029690E+03  0.79521911591E+03  0.91225972118E+03  0.46999998093E+01 0.  1.
       -5    1    3    3    0  502  0.10327924246E+03 -0.43492029690E+03 -0.24542124789E+03  0.50997641660E+03  0.46999998093E+01 0. -1.
</event>
<event>
 5   0  0.1310461E-03  0.1300934E+04  0.7818609E-02  0.9028824E-01
        1   -1    0    0  501    0  0.00000000000E+00  0.00000000000E+00  0.62715631755E+03  0.62715631757E+03  0.50400001928E-02 0.  1.
       -1   -1    0    0    0  501  0.00000000000E+00  0.00000000000E+00 -0.67464455470E+03  0.67464455471E+03  0.50400001928E-02 0. -1.
    10030    2    1    2    0    0  0.00000000000E+00  0.00000000000E+00 -0.47488237142E+02  0.13018008723E+04  0.13009344251E+04 0.  0.
        4    1    3    3  502    0 -0.49571388116E+03  0.32976806103E+03 -0.28588568253E+03  0.66046306667E+03  0.12699999809E+01 0. -1.
       -4    1    3    3    0  502  0.49571388116E+03 -0.32976806103E+03  0.23839744539E+03  0.64133780562E+03  0.12699999809E+01 0.  1.
</event>
<event>
 5   0  0.2334946E-03  0.1285710E+04  0.7818609E-02  0.9040975E-01
       -2   -1    0    0    0  501  0.00000000000E+00  0.00000000000E+00  0.35981399424E+03  0.35981399425E+03  0.25500000920E-02 0. -1.
        2   -1    0    0  501    0  0.00000000000E+00  0.00000000000E+00 -0.11485443936E+04  0.11485443936E+04  0.25500000920E-02 0.  1.
    10030    2    1    2    0    0  0.00000000000E+00  0.00000000000E+00 -0.78873039940E+03  0.15083583879E+04  0.12857096808E+04 0.  0.
        1    1    3    3  502    0 -0.54038095267E+03 -0.20476935195E+03 -0.63954760792E+02  0.58140542907E+03  0.50400001928E-02 0. -1.
       -1    1    3    3    0  502  0.54038095267E+03  0.20476935195E+03 -0.72477563861E+03  0.92695295881E+03  0.50400001928E-02 0.  1.
</event>
<event>
 5   0  0.2312105E-03  0.1266576E+04  0.7818609E-02  0.9056499E-01
        2   -1    0    0  501    0  0.00000000000E+00  0.00000000000E+00  0.17469036385E+04  0.17469036385E+04  0.25500000920E-02 0.  1.
       -2   -1    0    0    0  501  0.00000000000E+00  0.00000000000E+00 -0.22957976473E+03  0.22957976475E+03  0.25500000920E-02 0. -1.
    10030    2    1    2    0    0  0.00000000000E+00  0.00000000000E+00  0.15173238737E+04  0.19764834032E+04  0.12665760559E+04 0.  0.
        5    1    3    3  502    0  0.20176776832E+03  0.46579747558E+03  0.13494979805E+04  0.14418198258E+04  0.46999998093E+01 0.  1.
       -5    1    3    3    0  502 -0.20176776832E+03 -0.46579747558E+03  0.16782589320E+03  0.53466357742E+03  0.46999998093E+01 0. -1.
</event>
<event>
 5   0  0.2361043E-03  0.1289190E+04  0.7818609E-02  0.9038181E-01
       -2   -1    0    0    0  501  0.00000000000E+00  0.00000000000E+00  0.35758350971E+03  0.35758350971E+03  0.25500000920E-02 0. -1.
        2   -1    0    0  501    0  0.00000000000E+00  0.00000000000E+00 -0.11619748170E+04  0.11619748170E+04  0.25500000920E-02 0.  1.
    10030    2    1    2    0    0  0.00000000000E+00  0.00000000000E+00 -0.80439130733E+03  0.15195583268E+04  0.12891904953E+04 0.  0.
        2    1    3    3  502    0  0.20493813300E+03 -0.31616921535E+03 -0.10186643610E+04  0.10861121910E+04  0.25500000920E-02 0.  1.
       -2    1    3    3    0  502 -0.20493813300E+03  0.31616921535E+03  0.21427305364E+03  0.43344613577E+03  0.25500000920E-02 0. -1.
</event>
<event>
 5   0  0.1324721E-03  0.1295092E+04  0.7818609E-02  0.9033466E-01
        1   -1    0    0  501    0  0.00000000000E+00  0.00000000000E+00  0.20073017644E+04  0.20073017644E+04  0.50400001928E-02 0.  1.
       -1   -1    0    0    0  501  0.00000000000E+00  0.00000000000E+00 -0.20889525655E+03  0.20889525661E+03  0.50400001928E-02 0. -1.
    10030    2    1    2    0    0  0.00000000000E+00  0.00000000000E+00  0.17984065078E+04  0.22161970210E+04  0.12950919923E+04 0.  0.
        1    1    3    3  502    0  0.73268405784E+02  0.92656817908E+02  0.19887087147E+04  0.19922138181E+04  0.50400001928E-02 0.  1.
       -1    1    3    3    0  502 -0.73268405784E+02 -0.92656817908E+02 -0.19030220689E+03  0.22398320286E+03  0.50400001928E-02 0. -1.
</event>
<event>
 5   0  0.1310461E-03  0.1280696E+04  0.7818609E-02  0.9045015E-01
        1   -1    0    0  501    0  0.00000000000E+00  0.00000000000E+00  0.10322980893E+04  0.10322980894E+04  0.50400001928E-02 0.  1.
       -1   -1    0    0    0  501  0.00000000000E+00  0.00000000000E+00 -0.39721619190E+03  0.39721619193E+03  0.50400001928E-02 0. -1.
    10030    2    1    2    0    0  0.00000000000E+00  0.00000000000E+00  0.63508189744E+03  0.14295142813E+04  0.12806959295E+04 0.  0.
        4    1    3    3  502    0 -0.59013443660E+03 -0.22328657078E+03  0.19563278602E+03  0.66059771860E+03  0.12699999809E+01 0. -1.
       -4    1    3    3    0  502  0.59013443660E+03  0.22328657078E+03  0.43944911142E+03  0.76891656269E+03  0.12699999809E+01 0.  1.
</event>
<event>
 5   0  0.2361043E-03  0.1293510E+04  0.7818609E-02  0.9034728E-01
       -2   -1    0    0    0  501  0.00000000000E+00  0.00000000000E+00  0.10182984736E+04  0.10182984736E+04  0.25500000920E-02 0.  1.
        2   -1    0    0  501    0  0.00000000000E+00  0.00000000000E+00 -0.41077560139E+03  0.41077560140E+03  0.25500000920E-02 0. -1.
    10030    2    1    2    0    0  0.00000000000E+00  0.00000000000E+00  0.60752287222E+03  0.14290740750E+04  0.12935102132E+04 0.  0.
        2    1    3    3  502    0  0.83593102617E+02 -0.41250324575E+03 -0.23876936516E+03  0.48389827888E+03  0.25500000920E-02 0. -1.
       -2    1    3    3    0  502 -0.83593102617E+02  0.41250324575E+03  0.84629223738E+03  0.94517579614E+03  0.25500000920E-02 0.  1.
</event>
<event>
 5   0  0.2312105E-03  0.1287478E+04  0.7818609E-02  0.9039554E-01
        2   -1    0    0  501    0  0.00000000000E+00  0.00000000000E+00  0.44746065214E+03  0.44746065215E+03  0.25500000920E-02 0.  1.
       -2   -1    0    0    0  501  0.00000000000E+00  0.00000000000E+00 -0.92611519532E+03  0.92611519533E+03  0.25500000920E-02 0. -1.
    10030    2    1    2    0    0  0.00000000000E+00  0.00000000000E+00 -0.47865454318E+03  0.13735758475E+04  0.12874783249E+04 0.  0.
        5    1    3    3  502    0  0.37146862501E+03 -0.49840762502E+03 -0.60872491005E+02  0.62460119293E+03  0.46999998093E+01 0.  1.
       -5    1    3    3    0  502 -0.37146862501E+03  0.49840762502E+03 -0.41778205217E+03  0.74897465455E+03  0.46999998093E+01 0. -1.
</event>
<event>
 5   0  0.1310461E-03  0.1296540E+04  0.7818609E-02  0.9032314E-01
       -1   -1    0    0    0  501  0.00000000000E+00  0.00000000000E+00  0.69507662531E+03  0.69507662533E+03  0.50400001928E-02 0. -1.
        1   -1    0    0  501    0  0.00000000000E+00  0.00000000000E+00 -0.60461523618E+03  0.60461523620E+03  0.50400001928E-02 0.  1.
    10030    2    1    2    0    0  0.00000000000E+00  0.00000000000E+00  0.90461389124E+02  0.12996918615E+04  0.12965398845E+04 0.  0.
        4    1    3    3  502    0  0.48755033190E+03 -0.32539168902E+03  0.32279230454E+03  0.66916482438E+03  0.12699999809E+01 0. -1.
       -4    1    3    3    0  502 -0.48755033190E+03  0.32539168902E+03 -0.23233091541E+03  0.63052703715E+03  0.12699999809E+01 0.  1.
</event>
<event>
 5   0  0.1346593E-03  0.1273977E+04  0.7818609E-02  0.9050460E-01
       -1   -1    0    0    0  501  0.00000000000E+00  0.00000000000E+00  0.61407292811E+03  0.61407292813E+03  0.50400001928E-02 0. -1.
        1   -1    0    0  501    0  0.00000000000E+00  0.00000000000E+00 -0.66075963728E+03  0.66075963730E+03  0.50400001928E-02 0.  1.
    10030    2    1    2    0    0  0.00000000000E+00  0.00000000000E+00 -0.46686709166E+02  0.12748325654E+04  0.12739774021E+04 0.  0.
        2    1    3    3  502    0 -0.28306256319E+03  0.19420496485E+03 -0.56028029691E+03  0.65707989937E+03  0.25500000920E-02 0.  1.
       -2    1    3    3    0  502  0.28306256319E+03 -0.19420496485E+03  0.51359358774E+03  0.61775266606E+03  0.25500000920E-02 0. -1.
</event>
<event>
 5   0  0.2401211E-03  0.1301780E+04  0.7818609E-02  0.9028154E-01
        2   -1    0    0  501    0  0.00000000000E+00  0.00000000000E+00  0.76862743525E+03  0.76862743525E+03  0.25500000920E-02 0. -1.
       -2   -1    0    0    0  501  0.00000000000E+00  0.00000000000E+00 -0.55118781533E+03  0.55118781534E+03  0.25500000920E-02 0.  1.
    10030    2    1    2    0    0  0.00000000000E+00  0.00000000000E+00  0.21743961992E+03  0.13198152506E+04  0.13017804375E+04 0.  0.
        4    1    3    3  502    0 -0.67961086141E+02  0.15947586381E+03 -0.52735151464E+03  0.55511484691E+03  0.12699999809E+01 0.  1.
       -4    1    3    3    0  502  0.67961086141E+02 -0.15947586381E+03  0.74479113456E+03  0.76470040368E+03  0.12699999809E+01 0. -1.
</event>
<event>
 5   0  0.1332630E-03  0.1293046E+04  0.7818609E-02  0.9035098E-01
       -1   -1    0    0    0  501  0.00000000000E+00  0.00000000000E+00  0.65991353303E+03  0.65991353305E+03  0.50400001928E-02 0. -1.
        1   -1    0    0  501    0  0.00000000000E+00  0.00000000000E+00 -0.63340456318E+03  0.63340456320E+03  0.50400001928E-02 0.  1.
    10030    2    1    2    0    0  0.00000000000E+00  0.00000000000E+00  0.26508969847E+02  0.12933180963E+04  0.12930463923E+04 0.  0.
        5    1    3    3  502    0  0.35414328326E+03 -0.29509615797E+03  0.46663876419E+03  0.65595200569E+03  0.46999998093E+01 0. -1.
       -5    1    3    3    0  502 -0.35414328326E+03  0.29509615797E+03 -0.44012979434E+03  0.63736609056E+03  0.46999998093E+01 0.  1.
</event>
<event>
 5   0  0.2401211E-03  0.9375291E+03  0.7818609E-02  0.9379847E-01
        2   -1    0    0  501    0  0.00000000000E+00  0.00000000000E+00  0.71367111049E+03  0.71367111049E+03  0.25500000920E-02 0.  1.
       -2   -1    0    0    0  501  0.00000000000E+00  0.00000000000E+00 -0.30790121783E+03  0.30790121784E+03  0.25500000920E-02 0. -1.
    10030    2    1    2    0    0  0.00000000000E+00  0.00000000000E+00  0.40576989265E+03  0.10215723283E+04  0.93752910154E+03 0.  0.
        4    1    3    3  502    0 -0.12541481250E+03  0.44649673721E+03  0.12857814497E+03  0.48127140346E+03  0.12699999809E+01 0.  1.
       -4    1    3    3    0  502  0.12541481250E+03 -0.44649673721E+03  0.27719174769E+03  0.54030092487E+03  0.12699999809E+01 0. -1.
</event>
<event>
 5   0  0.2401211E-03  0.1289126E+04  0.7818609E-02  0.9038233E-01
       -2   -1    0    0    0  501  0.00000000000E+00  0.00000000000E+00  0.23238576121E+03  0.23238576123E+03  0.25500000920E-02 0. -1.
        2   -1    0    0  501    0  0.00000000000E+00  0.00000000000E+00 -0.17878100155E+04  0.17878100155E+04  0.25500000920E-02 0.  1.
    10030    2    1    2    0    0  0.00000000000E+00  0.00000000000E+00 -0.15554242543E+04  0.20201957767E+04  0.12891262023E+04 0.  0.
        4    1    3    3  502    0 -0.61277975174E+02  0.57178587685E+03 -0.12339681494E+04  0.13613864572E+04  0.12699999809E+01 0.  1.
       -4    1    3    3    0  502  0.61277975174E+02 -0.57178587685E+03 -0.32145610484E+03  0.65880931948E+03  0.12699999809E+01 0. -1.
</event>
<event>
 5   0  0.2478236E-03  0.1321946E+04  0.7818609E-02  0.9012341E-01
        2   -1    0    0  501    0  0.00000000000E+00  0.00000000000E+00  0.16224229393E+04  0.16224229393E+04  0.25500000920E-02 0. -1.
       -2   -1    0    0    0  501  0.00000000000E+00  0.00000000000E+00 -0.26927949324E+03  0.26927949325E+03  0.25500000920E-02 0.  1.
    10030    2    1    2    0    0  0.00000000000E+00  0.00000000000E+00  0.13531434461E+04  0.18917024326E+04  0.13219458793E+04 0.  0.
        3    1    3    3  502    0  0.53575758984E+03  0.22583624308E+03  0.11264768290E+04  0.12676704067E+04  0.10100000352E+00 0. -1.
       -3    1    3    3    0  502 -0.53575758984E+03 -0.22583624308E+03  0.22666661714E+03  0.62403202585E+03  0.10100000352E+00 0.  1.
</event>
<event>
 5   0  0.1346593E-03  0.1295057E+04  0.7818609E-02  0.9033494E-01
       -1   -1    0    0    0  501  0.00000000000E+00  0.00000000000E+00  0.34399626034E+03  0.34399626038E+03  0.50400001928E-02 0. -1.
        1   -1    0    0  501    0  0.00000000000E+00  0.00000000000E+00 -0.12188884357E+04  0.12188884357E+04  0.50400001928E-02 0.  1.
    10030    2    1    2    0    0  0.00000000000E+00  0.00000000000E+00 -0.87489217537E+03  0.15628846961E+04  0.12950568539E+04 0.  0.
        2    1    3    3  502    0  0.33638068363E+03 -0.39394778288E+03  0.31420471683E+02  0.51897405138E+03  0.25500000920E-02 0. -1.
       -2    1    3    3    0  502 -0.33638068363E+03  0.39394778288E+03 -0.90631264706E+03  0.10439106447E+04  0.25500000920E-02 0.  1.
</event>
<event>
 5   0  0.1310461E-03  0.1300783E+04  0.7818609E-02  0.9028945E-01
        1   -1    0    0  501    0  0.00000000000E+00  0.00000000000E+00  0.11881204451E+04  0.11881204451E+04  0.50400001928E-02 0.  1.
       -1   -1    0    0    0  501  0.00000000000E+00  0.00000000000E+00 -0.35603210637E+03  0.35603210640E+03  0.50400001928E-02 0. -1.
    10030    2    1    2    0    0  0.00000000000E+00  0.00000000000E+00  0.83208833869E+03  0.15441525515E+04  0.13007828792E+04 0.  0.
        4    1    3    3  502    0 -0.49211346277E+02  0.19023400480E+03  0.11520397464E+04  0.11686778527E+04  0.12699999809E+01 0.  1.
       -4    1    3    3    0  502  0.49211346277E+02 -0.19023400480E+03 -0.31995140774E+03  0.37547469875E+03  0.12699999809E+01 0. -1.
</event>
<event>
 5   0  0.1332630E-03  0.1288910E+04  0.7818609E-02  0.9038406E-01
       -1   -1    0    0    0  501  0.00000000000E+00  0.00000000000E+00  0.84264365063E+03  0.84264365065E+03  0.50400001928E-02 0. -1.
        1   -1    0    0  501    0  0.00000000000E+00  0.00000000000E+00 -0.49288036402E+03  0.49288036404E+03  0.50400001928E-02 0.  1.
    10030    2    1    2    0    0  0.00000000000E+00  0.00000000000E+00  0.34976328661E+03  0.13355240147E+04  0.12889104070E+04 0.  0.
        5    1    3    3  502    0 -0.97582151029E+01  0.28463888620E+01  0.84254282119E+03  0.84261724421E+03  0.46999998093E+01 0. -1.
       -5    1    3    3    0  502  0.97582151029E+01 -0.28463888620E+01 -0.49277953458E+03  0.49290677049E+03  0.46999998093E+01 0.  1.
</event>
<event>
 5   0  0.2334946E-03  0.1265981E+04  0.7818609E-02  0.9056986E-01
       -2   -1    0    0    0  501  0.00000000000E+00  0.00000000000E+00  0.39828079995E+03  0.39828079996E+03  0.25500000920E-02 0. -1.
        2   -1    0    0  501    0  0.00000000000E+00  0.00000000000E+00 -0.10060163131E+04  0.10060163131E+04  0.25500000920E-02 0.  1.
    10030    2    1    2    0    0  0.00000000000E+00  0.00000000000E+00 -0.60773551310E+03  0.14042971130E+04  0.12659810140E+04 0.  0.
        1    1    3    3  502    0  0.26876214993E+03 -0.56796309496E+03 -0.38879513769E+03  0.73890244931E+03  0.50400001928E-02 0.  1.
       -1    1    3    3    0  502 -0.26876214993E+03  0.56796309496E+03 -0.21894037541E+03  0.66539466371E+03  0.50400001928E-02 0. -1.
</event>
<event>
 5   0  0.2312105E-03  0.1307403E+04  0.7818609E-02  0.9023715E-01
       -2   -1    0    0    0  501  0.00000000000E+00  0.00000000000E+00  0.35041968153E+03  0.35041968154E+03  0.25500000920E-02 0. -1.
        2   -1    0    0  501    0  0.00000000000E+00  0.00000000000E+00 -0.12194690521E+04  0.12194690521E+04  0.25500000920E-02 0.  1.
    10030    2    1    2    0    0  0.00000000000E+00  0.00000000000E+00 -0.86904937057E+03  0.15698887336E+04  0.13074034678E+04 0.  0.
        5    1    3    3  502    0 -0.16428596467E+03  0.62422405602E+03 -0.31055841125E+03  0.71631987764E+03  0.46999998093E+01 0. -1.
       -5    1    3    3    0  502  0.16428596467E+03 -0.62422405602E+03 -0.55849095931E+03  0.85356885600E+03  0.46999998093E+01 0.  1.
</event>
<event>
 5   0  0.2401211E-03  0.1312842E+04  0.7818609E-02  0.9019443E-01
       -2   -1    0    0    0  501  0.00000000000E+00  0.00000000000E+00  0.35694632792E+03  0.35694632793E+03  0.25500000920E-02 0. -1.
        2   -1    0    0  501    0  0.00000000000E+00  0.00000000000E+00 -0.12071517749E+04  0.12071517749E+04  0.25500000920E-02 0.  1.
    10030    2    1    2    0    0  0.00000000000E+00  0.00000000000E+00 -0.85020544700E+03  0.15640981029E+04  0.13128417929E+04 0.  0.
        4    1    3    3  502    0  0.45430870156E+03  0.35358723041E+03 -0.80084487233E+03  0.98629328714E+03  0.12699999809E+01 0.  1.
       -4    1    3    3    0  502 -0.45430870156E+03 -0.35358723041E+03 -0.49360574672E+02  0.57780481571E+03  0.12699999809E+01 0. -1.
</event>
<event>
 5   0  0.1332630E-03  0.1488018E+04  0.7818609E-02  0.8892460E-01
       -1   -1    0    0    0  501  0.00000000000E+00  0.00000000000E+00  0.31686782164E+03  0.31686782168E+03  0.50400001928E-02 0.  1.
        1   -1    0    0  501    0  0.00000000000E+00  0.00000000000E+00 -0.17469402818E+04  0.17469402818E+04  0.50400001928E-02 0. -1.
    10030    2    1    2    0    0  0.00000000000E+00  0.00000000000E+00 -0.14300724602E+04  0.20638081035E+04  0.14880176903E+04 0.  0.
        5    1    3    3  502    0 -0.36798455130E+03 -0.35659733666E+03  0.33085854756E+02  0.51350857276E+03  0.46999998093E+01 0.  1.
       -5    1    3    3    0  502  0.36798455130E+03  0.35659733666E+03 -0.14631583149E+04  0.15502995308E+04  0.46999998093E+01 0. -1.
</event>
<event>
 5   0  0.1324721E-03  0.1185611E+04  0.7818609E-02  0.9125545E-01
       -1   -1    0    0    0  501  0.00000000000E+00  0.00000000000E+00  0.27093052542E+03  0.27093052546E+03  0.50400001928E-02 0. -1.
        1   -1    0    0  501    0  0.00000000000E+00  0.00000000000E+00 -0.12970797958E+04  0.12970797958E+04  0.50400001928E-02 0.  1.
    10030    2    1    2    0    0  0.00000000000E+00  0.00000000000E+00 -0.10261492704E+04  0.15680103213E+04  0.11856112527E+04 0.  0.
        1    1    3    3  502    0  0.45609215138E+03  0.36873421045E+03 -0.39904847303E+03  0.70938329016E+03  0.50400001928E-02 0. -1.
       -1    1    3    3    0  502 -0.45609215138E+03 -0.36873421045E+03 -0.62710079739E+03  0.85862703115E+03  0.50400001928E-02 0.  1.
</event>
<event>
 5   0  0.1346593E-03  0.1329670E+04  0.7818609E-02  0.9006362E-01
       -1   -1    0    0    0  501  0.00000000000E+00  0.00000000000E+00  0.50089242814E+03  0.50089242816E+03  0.50400001928E-02 0. -1.
        1   -1    0    0  501    0  0.00000000000E+00  0.00000000000E+00 -0.88243588802E+03  0.88243588804E+03  0.50400001928E-02 0.  1.
    10030    2    1    2    0    0  0.00000000000E+00  0.00000000000E+00 -0.38154345989E+03  0.13833283162E+04  0.13296698156E+04 0.  0.
        2    1    3    3  502    0  0.81844900621E+01  0.48864074630E+03 -0.65970370476E+03  0.82100288849E+03  0.25500000920E-02 0.  1.
       -2    1    3    3    0  502 -0.81844900621E+01 -0.48864074630E+03  0.27816024487E+03  0.56232542772E+03  0.25500000920E-02 0. -1.
</event>
<event>
 5   0  0.1346593E-03  0.1307223E+04  0.7818609E-02  0.9023857E-01
        1   -1    0    0  501    0  0.00000000000E+00  0.00000000000E+00  0.53150346987E+03  0.53150346989E+03  0.50400001928E-02 0.  1.
       -1   -1    0    0    0  501  0.00000000000E+00  0.00000000000E+00 -0.80377256052E+03  0.80377256054E+03  0.50400001928E-02 0. -1.
    10030    2    1    2    0    0  0.00000000000E+00  0.00000000000E+00 -0.27226909066E+03  0.13352760304E+04  0.13072228654E+04 0.  0.
        2    1    3    3  502    0  0.19639402585E+03 -0.43687897710E+02  0.49908608727E+03  0.53811352734E+03  0.25500000920E-02 0.  1.
       -2    1    3    3    0  502 -0.19639402585E+03  0.43687897710E+02 -0.77135517793E+03  0.79716250308E+03  0.25500000920E-02 0. -1.
</event>
<event>
 5   0  0.1387622E-03  0.1262918E+04  0.7818609E-02  0.9059500E-01
       -1   -1    0    0    0  501  0.00000000000E+00  0.00000000000E+00  0.80055872397E+03  0.80055872399E+03  0.50400001928E-02 0.  1.
        1   -1    0    0  501    0  0.00000000000E+00  0.00000000000E+00 -0.49807740334E+03  0.49807740337E+03  0.50400001928E-02 0. -1.
    10030    2    1    2    0    0  0.00000000000E+00  0.00000000000E+00  0.30248132063E+03  0.12986361274E+04  0.12629175911E+04 0.  0.
        3    1    3    3  502    0  0.36275475520E+03  0.46130898563E+03  0.39095008117E+03  0.70515173460E+03  0.10100000352E+00 0.  1.
       -3    1    3    3    0  502 -0.36275475520E+03 -0.46130898563E+03 -0.88468760539E+02  0.59348439275E+03  0.10100000352E+00 0. -1.
</event>
<event>
 5   0  0.2334946E-03  0.1234807E+04  0.7818609E-02  0.9082924E-01
        2   -1    0    0  501    0  0.00000000000E+00  0.00000000000E+00  0.73530266760E+03  0.73530266761E+03  0.25500000920E-02 0. -1.
       -2   -1    0    0    0  501  0.00000000000E+00  0.00000000000E+00 -0.51840871306E+03  0.51840871307E+03  0.25500000920E-02 0.  1.
    10030    2    1    2    0    0  0.00000000000E+00  0.00000000000E+00  0.21689395454E+03  0.12537113807E+04  0.12348073690E+04 0.  0.
        1    1    3    3  502    0  0.47008324827E+03 -0.37891483118E+03  0.23938881366E+03  0.64950882498E+03  0.50400001928E-02 0. -1.
       -1    1    3    3    0  502 -0.47008324827E+03  0.37891483118E+03 -0.22494859122E+02  0.60420255570E+03  0.50400001928E-02 0.  1.
</event>
<event>
 5   0  0.1346593E-03  0.1304172E+04  0.7818609E-02  0.9026263E-01
        1   -1    0    0  501    0  0.00000000000E+00  0.00000000000E+00  0.12030313954E+04  0.12030313954E+04  0.50400001928E-02 0. -1.
       -1   -1    0    0    0  501  0.00000000000E+00  0.00000000000E+00 -0.35345375779E+03  0.35345375782E+03  0.50400001928E-02 0.  1.
    10030    2    1    2    0    0  0.00000000000E+00  0.00000000000E+00  0.84957763762E+03  0.15564851532E+04  0.13041717180E+04 0.  0.
        2    1    3    3  502    0  0.45236596439E+03 -0.43889090993E+03  0.22524147969E+03  0.66932347989E+03  0.25500000920E-02 0.  1.
       -2    1    3    3    0  502 -0.45236596439E+03  0.43889090993E+03  0.62433615793E+03  0.88716167335E+03  0.25500000920E-02 0. -1.
</event>
<event>
 5   0  0.1310461E-03  0.1350156E+04  0.7818609E-02  0.8990710E-01
        1   -1    0    0  501    0  0.00000000000E+00  0.00000000000E+00  0.49653396167E+03  0.49653396170E+03  0.50400001928E-02 0.  1.
       -1   -1    0    0    0  501  0.00000000000E+00  0.00000000000E+00 -0.91782365897E+03  0.91782365899E+03  0.50400001928E-02 0. -1.
    10030    2    1    2    0    0  0.00000000000E+00  0.00000000000E+00 -0.42128969730E+03  0.14143576207E+04  0.13501564614E+04 0.  0.
        4    1    3    3  502    0 -0.78046842056E+02 -0.63852252201E+03  0.38517417344E+01  0.64328747033E+03  0.12699999809E+01 0.  1.
       -4    1    3    3    0  502  0.78046842056E+02  0.63852252201E+03 -0.42514143903E+03  0.77107015035E+03  0.12699999809E+01 0. -1.
</event>
<event>
 5   0  0.2401211E-03  0.1290006E+04  0.7818609E-02  0.9037528E-01
       -2   -1    0    0    0  501  0.00000000000E+00  0.00000000000E+00  0.43565049232E+03  0.43565049233E+03  0.25500000920E-02 0. -1.
        2   -1    0    0  501    0  0.00000000000E+00  0.00000000000E+00 -0.95496071940E+03  0.95496071941E+03  0.25500000920E-02 0.  1.
    10030    2    1    2    0    0  0.00000000000E+00  0.00000000000E+00 -0.51931022709E+03  0.13906112117E+04  0.12900063683E+04 0.  0.
        4    1    3    3  502    0  0.31477402294E+03 -0.49391850188E+03 -0.55089009516E+03  0.80406447618E+03  0.12699999809E+01 0.  1.
       -4    1    3    3    0  502 -0.31477402294E+03  0.49391850188E+03  0.31579868071E+02  0.58654673555E+03  0.12699999809E+01 0. -1.
</event>
<event>
 5   0  0.1332630E-03  0.1292154E+04  0.7818609E-02  0.9035810E-01
       -1   -1    0    0    0  501  0.00000000000E+00  0.00000000000E+00  0.21755046067E+03  0.21755046073E+03  0.50400001928E-02 0.  1.
        1   -1    0    0  501    0  0.00000000000E+00  0.00000000000E+00 -0.19187067952E+04  0.19187067952E+04  0.50400001928E-02 0. -1.
    10030    2    1    2    0    0  0.00000000000E+00  0.00000000000E+00 -0.17011563345E+04  0.21362572559E+04  0.12921540887E+04 0.  0.
        5    1    3    3  502    0  0.33936280505E+03 -0.74746270419E+02 -0.17510157573E+04  0.17851701293E+04  0.46999998093E+01 0. -1.
       -5    1    3    3    0  502 -0.33936280505E+03  0.74746270419E+02  0.49859422806E+02  0.35108712656E+03  0.46999998093E+01 0.  1.
</event>
<event>
 5   0  0.1332630E-03  0.1285727E+04  0.7818609E-02  0.9040961E-01
       -1   -1    0    0    0  501  0.00000000000E+00  0.00000000000E+00  0.61835780810E+03  0.61835780812E+03  0.50400001928E-02 0.  1.
        1   -1    0    0  501    0  0.00000000000E+00  0.00000000000E+00 -0.66834056260E+03  0.66834056262E+03  0.50400001928E-02 0. -1.
    10030    2    1    2    0    0  0.00000000000E+00  0.00000000000E+00 -0.49982754510E+02  0.12866983707E+04  0.12857271956E+04 0.  0.
        5    1    3    3  502    0  0.34075490730E+03  0.47376645896E+03  0.24481002123E+03  0.63286854952E+03  0.46999998093E+01 0.  1.
       -5    1    3    3    0  502 -0.34075490730E+03 -0.47376645896E+03 -0.29479277573E+03  0.65382982122E+03  0.46999998093E+01 0. -1.
</event>
<event>
 5   0  0.1346593E-03  0.1340779E+04  0.7818609E-02  0.8997838E-01
       -1   -1    0    0    0  501  0.00000000000E+00  0.00000000000E+00  0.35652685689E+03  0.35652685693E+03  0.50400001928E-02 0.  1.
        1   -1    0    0  501    0  0.00000000000E+00  0.00000000000E+00 -0.12605557438E+04  0.12605557439E+04  0.50400001928E-02 0. -1.
    10030    2    1    2    0    0  0.00000000000E+00  0.00000000000E+00 -0.90402888695E+03  0.16170826008E+04  0.13407788443E+04 0.  0.
        2    1    3    3  502    0  0.72859327287E+02 -0.66317569815E+03 -0.37282109556E+03  0.76426831512E+03  0.25500000920E-02 0.  1.
       -2    1    3    3    0  502 -0.72859327287E+02  0.66317569815E+03 -0.53120779139E+03  0.85281428566E+03  0.25500000920E-02 0. -1.
</event>
<event>
 5   0  0.2334946E-03  0.1321993E+04  0.7818609E-02  0.9012304E-01
        2   -1    0    0  501    0  0.00000000000E+00  0.00000000000E+00  0.11931071675E+04  0.11931071675E+04  0.25500000920E-02 0. -1.
       -2   -1    0    0    0  501  0.00000000000E+00  0.00000000000E+00 -0.36620023978E+03  0.36620023979E+03  0.25500000920E-02 0.  1.
    10030    2    1    2    0    0  0.00000000000E+00  0.00000000000E+00  0.82690692775E+03  0.15593074073E+04  0.13219926336E+04 0.  0.
        1    1    3    3  502    0 -0.12434777342E+00 -0.43476036844E+03 -0.17382025338E+03  0.46822011270E+03  0.50400001928E-02 0.  1.
       -1    1    3    3    0  502  0.12434777342E+00  0.43476036844E+03  0.10007271811E+04  0.10910872946E+04  0.50400001928E-02 0. -1.
</event>
<event>
 5   0  0.1346593E-03  0.1295665E+04  0.7818609E-02  0.9033010E-01
        1   -1    0    0  501    0  0.00000000000E+00  0.00000000000E+00  0.10970780145E+04  0.10970780145E+04  0.50400001928E-02 0.  1.
       -1   -1    0    0    0  501  0.00000000000E+00  0.00000000000E+00 -0.38254948147E+03  0.38254948150E+03  0.50400001928E-02 0. -1.
    10030    2    1    2    0    0  0.00000000000E+00  0.00000000000E+00  0.71452853301E+03  0.14796274960E+04  0.12956645023E+04 0.  0.
        2    1    3    3  502    0 -0.14687333270E+03  0.29002293949E+03  0.99718432697E+03  0.10488382446E+04  0.25500000920E-02 0.  1.
       -2    1    3    3    0  502  0.14687333270E+03 -0.29002293949E+03 -0.28265579396E+03  0.43078925144E+03  0.25500000920E-02 0. -1.
</event>
<event>
 5   0  0.2334946E-03  0.1295066E+04  0.7818609E-02  0.9033487E-01
       -2   -1    0    0    0  501  0.00000000000E+00  0.00000000000E+00  0.46907620198E+03  0.46907620199E+03  0.25500000920E-02 0. -1.
        2   -1    0    0  501    0  0.00000000000E+00  0.00000000000E+00 -0.89388212216E+03  0.89388212217E+03  0.25500000920E-02 0.  1.
    10030    2    1    2    0    0  0.00000000000E+00  0.00000000000E+00 -0.42480592018E+03  0.13629583242E+04  0.12950657603E+04 0.  0.
        1    1    3    3  502    0 -0.22348524394E+03 -0.79987281855E-01  0.42720177537E+03  0.48212759469E+03  0.50400001928E-02 0. -1.
       -1    1    3    3    0  502  0.22348524394E+03  0.79987281855E-01 -0.85200769555E+03  0.88083072946E+03  0.50400001928E-02 0.  1.
</event>
<event>
 5   0  0.2478236E-03  0.1313204E+04  0.7818609E-02  0.9019160E-01
       -2   -1    0    0    0  501  0.00000000000E+00  0.00000000000E+00  0.30871112005E+03  0.30871112006E+03  0.25500000920E-02 0.  1.
        2   -1    0    0  501    0  0.00000000000E+00  0.00000000000E+00 -0.13965352811E+04  0.13965352811E+04  0.25500000920E-02 0. -1.
    10030    2    1    2    0    0  0.00000000000E+00  0.00000000000E+00 -0.10878241610E+04  0.17052464011E+04  0.13132036717E+04 0.  0.
        3    1    3    3  502    0 -0.48759194336E+03 -0.43350203692E+03 -0.44799545726E+03  0.79143531584E+03  0.10100000352E+00 0.  1.
       -3    1    3    3    0  502  0.48759194336E+03  0.43350203692E+03 -0.63982870375E+03  0.91381108528E+03  0.10100000352E+00 0. -1.
</event>
<event>
 5   0  0.2478236E-03  0.1217210E+04  0.7818609E-02  0.9097924E-01
        2   -1    0    0  501    0  0.00000000000E+00  0.00000000000E+00  0.83955605038E+03  0.83955605038E+03  0.25500000920E-02 0.  1.
       -2   -1    0    0    0  501  0.00000000000E+00  0.00000000000E+00 -0.44118583864E+03  0.44118583865E+03  0.25500000920E-02 0. -1.
    10030    2    1    2    0    0  0.00000000000E+00  0.00000000000E+00  0.39837021174E+03  0.12807418890E+04  0.12172103190E+04 0.  0.
        3    1    3    3  502    0 -0.33660497579E+03  0.44093206111E+03  0.46260431909E+03  0.72230655437E+03  0.10100000352E+00 0.  1.
       -3    1    3    3    0  502  0.33660497579E+03 -0.44093206111E+03 -0.64234107352E+02  0.55843533466E+03  0.10100000352E+00 0. -1.
</event>
<event>
 5   0  0.1324721E-03  0.1286180E+04  0.7818609E-02  0.9040597E-01
        1   -1    0    0  501    0  0.00000000000E+00  0.00000000000E+00  0.83762391540E+03  0.83762391541E+03  0.50400001928E-02 0. -1.
       -1   -1    0    0    0  501  0.00000000000E+00  0.00000000000E+00 -0.49373567039E+03  0.49373567042E+03  0.50400001928E-02 0.  1.
    10030    2    1    2    0    0  0.00000000000E+00  0.00000000000E+00  0.34388824500E+03  0.13313595858E+04  0.12861800892E+04 0.  0.
        1    1    3    3  502    0 -0.10425268206E+03 -0.58677440876E+03  0.42207665309E+03  0.73028866183E+03  0.50400001928E-02 0.  1.
       -1    1    3    3    0  502  0.10425268206E+03  0.58677440876E+03 -0.78188408086E+02  0.60107092400E+03  0.50400001928E-02 0. -1.
</event>
<event>
 5   0  0.1332630E-03  0.1261274E+04  0.7818609E-02  0.9060852E-01
        1   -1    0    0  501    0  0.00000000000E+00  0.00000000000E+00  0.50651144516E+03  0.50651144518E+03  0.50400001928E-02 0.  1.
       -1   -1    0    0    0  501  0.00000000000E+00  0.00000000000E+00 -0.78518054438E+03  0.78518054440E+03  0.50400001928E-02 0. -1.
    10030    2    1    2    0    0  0.00000000000E+00  0.00000000000E+00 -0.27866909923E+03  0.12916919896E+04  0.12612738517E+04 0.  0.
        5    1    3    3  502    0 -0.36520076120E+03  0.30443149915E+03 -0.56360918792E+03  0.73737883097E+03  0.46999998093E+01 0. -1.
       -5    1    3    3    0  502  0.36520076120E+03 -0.30443149915E+03  0.28494008870E+03  0.55431315861E+03  0.46999998093E+01 0.  1.
</event>
<event>
 5   0  0.2478236E-03  0.1301467E+04  0.7818609E-02  0.9028402E-01
        2   -1    0    0  501    0  0.00000000000E+00  0.00000000000E+00  0.18968867222E+04  0.18968867222E+04  0.25500000920E-02 0.  1.
       -2   -1    0    0    0  501  0.00000000000E+00  0.00000000000E+00 -0.22323642571E+03  0.22323642573E+03  0.25500000920E-02 0. -1.
    10030    2    1    2    0    0  0.00000000000E+00  0.00000000000E+00  0.16736502965E+04  0.21201231479E+04  0.13014671903E+04 0.  0.
        3    1    3    3  502    0 -0.57386516755E+03 -0.27506402263E+03  0.10582333445E+04  0.12348438236E+04  0.10100000352E+00 0. -1.
       -3    1    3    3    0  502  0.57386516755E+03  0.27506402263E+03  0.61541695195E+03  0.88527932429E+03  0.10100000352E+00 0.  1.
</event>
<event>
 5   0  0.1332630E-03  0.1310456E+04  0.7818609E-02  0.9021314E-01
       -1   -1    0    0    0  501  0.00000000000E+00  0.00000000000E+00  0.32101473283E+03  0.32101473287E+03  0.50400001928E-02 0.  1.
        1   -1    0    0  501    0  0.00000000000E+00  0.00000000000E+00 -0.13373955982E+04  0.13373955982E+04  0.50400001928E-02 0. -1.
    10030    2    1    2    0    0  0.00000000000E+00  0.00000000000E+00 -0.10163808654E+04  0.16584103311E+04  0.13104559370E+04 0.  0.
        5    1    3    3  502    0  0.22402110084E+03 -0.51665255202E+03 -0.93206705033E+03  0.10889841089E+04  0.46999998093E+01 0. -1.
       -5    1    3    3    0  502 -0.22402110084E+03  0.51665255202E+03 -0.84313815074E+02  0.56942622221E+03  0.46999998093E+01 0.  1.
</event>
<event>
 5   0  0.2361043E-03  0.1305237E+04  0.7818609E-02  0.9025422E-01
        2   -1    0    0  501    0  0.00000000000E+00  0.00000000000E+00  0.11542831005E+04  0.11542831005E+04  0.25500000920E-02 0.  1.
       -2   -1    0    0    0  501  0.00000000000E+00  0.00000000000E+00 -0.36898330621E+03  0.36898330622E+03  0.25500000920E-02 0. -1.
    10030    2    1    2    0    0  0.00000000000E+00  0.00000000000E+00  0.78529979433E+03  0.15232664068E+04  0.13052374416E+04 0.  0.
        2    1    3    3  502    0 -0.49600822122E+03 -0.38786536310E+03  0.19238236254E+03  0.65838793187E+03  0.25500000920E-02 0.  1.
       -2    1    3    3    0  502  0.49600822122E+03  0.38786536310E+03  0.59291743179E+03  0.86487847490E+03  0.25500000920E-02 0. -1.
</event>
<event>
 5   0  0.1324721E-03  0.1255411E+04  0.7818609E-02  0.9065691E-01
        1   -1    0    0  501    0  0.00000000000E+00  0.00000000000E+00  0.14272230365E+04  0.14272230365E+04  0.50400001928E-02 0.  1.
       -1   -1    0    0    0  501  0.00000000000E+00  0.00000000000E+00 -0.27607071978E+03  0.27607071982E+03  0.50400001928E-02 0. -1.
    10030    2    1    2    0    0  0.00000000000E+00  0.00000000000E+00  0.11511523167E+04  0.17032937563E+04  0.12554114720E+04 0.  0.
        1    1    3    3  502    0  0.33122219166E+03 -0.52687787638E+03  0.46447029234E+03  0.77655720289E+03  0.50400001928E-02 0. -1.
       -1    1    3    3    0  502 -0.33122219166E+03  0.52687787638E+03  0.68668202437E+03  0.92673655344E+03  0.50400001928E-02 0.  1.
</event>
<event>
 5   0  0.1324721E-03  0.1340350E+04  0.7818609E-02  0.8998165E-01
       -1   -1    0    0    0  501  0.00000000000E+00  0.00000000000E+00  0.62654097708E+03  0.62654097710E+03  0.50400001928E-02 0.  1.
        1   -1    0    0  501    0  0.00000000000E+00  0.00000000000E+00 -0.71684788085E+03  0.71684788087E+03  0.50400001928E-02 0. -1.
    10030    2    1    2    0    0  0.00000000000E+00  0.00000000000E+00 -0.90306903773E+02  0.13433888580E+04  0.13403500613E+04 0.  0.
        1    1    3    3  502    0  0.54150445872E+03 -0.98062808380E+02 -0.42850089654E+03  0.69746427261E+03  0.50400001928E-02 0. -1.
       -1    1    3    3    0  502 -0.54150445872E+03  0.98062808380E+02  0.33819399276E+03  0.64592458536E+03  0.50400001928E-02 0.  1.
</event>
<event>
 5   0  0.1346593E-03  0.1294044E+04  0.7818609E-02  0.9034301E-01
       -1   -1    0    0    0  501  0.00000000000E+00  0.00000000000E+00  0.25970820405E+03  0.25970820409E+03  0.50400001928E-02 0. -1.
        1   -1    0    0  501    0  0.00000000000E+00  0.00000000000E+00 -0.16119543197E+04  0.16119543197E+04  0.50400001928E-02 0.  1.
    10030    2    1    2    0    0  0.00000000000E+00  0.00000000000E+00 -0.13522461156E+04  0.18716625238E+04  0.12940444528E+04 0.  0.
        2    1    3    3  502    0  0.57419077965E+03 -0.27011797286E+03 -0.85895539946E+03  0.10679246925E+04  0.25500000920E-02 0.  1.
       -2    1    3    3    0  502 -0.57419077965E+03  0.27011797286E+03 -0.49329071619E+03  0.80373783124E+03  0.25500000920E-02 0. -1.
</event>
<event>
 5   0  0.2401211E-03  0.1298468E+04  0.7818609E-02  0.9030781E-01
       -2   -1    0    0    0  501  0.00000000000E+00  0.00000000000E+00  0.31797672627E+03  0.31797672628E+03  0.25500000920E-02 0. -1.
        2   -1    0    0  501    0  0.00000000000E+00  0.00000000000E+00 -0.13255838280E+04  0.13255838280E+04  0.25500000920E-02 0.  1.
    10030    2    1    2    0    0  0.00000000000E+00  0.00000000000E+00 -0.10076071018E+04  0.16435605543E+04  0.12984680297E+04 0.  0.
        4    1    3    3  502    0 -0.30382299172E+03 -0.13350962207E+03 -0.12101094060E+04  0.12547906666E+04  0.12699999809E+01 0.  1.
       -4    1    3    3    0  502  0.30382299172E+03  0.13350962207E+03  0.20250230425E+03  0.38876988774E+03  0.12699999809E+01 0. -1.
</event>
<event>
 5   0  0.1387622E-03  0.1249654E+04  0.7818609E-02  0.9070471E-01
       -1   -1    0    0    0  501  0.00000000000E+00  0.00000000000E+00  0.19619344687E+03  0.19619344693E+03  0.50400001928E-02 0.  1.
        1   -1    0    0  501    0  0.00000000000E+00  0.00000000000E+00 -0.19899188102E+04  0.19899188102E+04  0.50400001928E-02 0. -1.
    10030    2    1    2    0    0  0.00000000000E+00  0.00000000000E+00 -0.17937253633E+04  0.21861122571E+04  0.12496544009E+04 0.  0.
        3    1    3    3  502    0 -0.26941261825E+03 -0.24772986908E+03 -0.17827709936E+04  0.18199521073E+04  0.10100000352E+00 0. -1.
       -3    1    3    3    0  502  0.26941261825E+03  0.24772986908E+03 -0.10954369689E+02  0.36616014983E+03  0.10100000352E+00 0.  1.
</event>
<event>
 5   0  0.1332630E-03  0.1312736E+04  0.7818609E-02  0.9019526E-01
        1   -1    0    0  501    0  0.00000000000E+00  0.00000000000E+00  0.52426506687E+03  0.52426506690E+03  0.50400001928E-02 0. -1.
       -1   -1    0    0    0  501  0.00000000000E+00  0.00000000000E+00 -0.82175768192E+03  0.82175768193E+03  0.50400001928E-02 0.  1.
    10030    2    1    2    0    0  0.00000000000E+00  0.00000000000E+00 -0.29749261504E+03  0.13460227488E+04  0.13127358395E+04 0.  0.
        5    1    3    3  502    0 -0.77841834990E+02 -0.26197796175E+03  0.46313060182E+03  0.53777676415E+03  0.46999998093E+01 0. -1.
       -5    1    3    3    0  502  0.77841834990E+02  0.26197796175E+03 -0.76062321687E+03  0.80824598468E+03  0.46999998093E+01 0.  1.
</event>
<event>
 5   0  0.1346593E-03  0.1259808E+04  0.7818609E-02  0.9062060E-01
       -1   -1    0    0    0  501  0.00000000000E+00  0.00000000000E+00  0.56534185190E+03  0.56534185192E+03  0.50400001928E-02 0. -1.
        1   -1    0    0  501    0  0.00000000000E+00  0.00000000000E+00 -0.70183890553E+03  0.70183890555E+03  0.50400001928E-02 0.  1.
    10030    2    1    2    0    0  0.00000000000E+00  0.00000000000E+00 -0.13649705363E+03  0.12671807575E+04  0.12598077736E+04 0.  0.
        2    1    3    3  502    0  0.21391767604E+03  0.32687565520E+03 -0.56527649661E+03  0.68712879703E+03  0.25500000920E-02 0.  1.
       -2    1    3    3    0  502 -0.21391767604E+03 -0.32687565520E+03  0.42877944298E+03  0.58005196044E+03  0.25500000920E-02 0. -1.
</event>
<event>
 5   0  0.2361043E-03  0.1292838E+04  0.7818609E-02  0.9035264E-01
        2   -1    0    0  501    0  0.00000000000E+00  0.00000000000E+00  0.84493397296E+03  0.84493397296E+03  0.25500000920E-02 0. -1.
       -2   -1    0    0    0  501  0.00000000000E+00  0.00000000000E+00 -0.49454428091E+03  0.49454428091E+03  0.25500000920E-02 0.  1.
    10030    2    1    2    0    0  0.00000000000E+00  0.00000000000E+00  0.35038969205E+03  0.13394782539E+04  0.12928375986E+04 0.  0.
        2    1    3    3  502    0 -0.22645962462E+03  0.16796921097E+03 -0.42747709865E+03  0.51208816359E+03  0.25500000920E-02 0.  1.
       -2    1    3    3    0  502  0.22645962462E+03 -0.16796921097E+03  0.77786679069E+03  0.82739009028E+03  0.25500000920E-02 0. -1.
</event>
<event>
 5   0  0.9131250E-04  0.1297456E+04  0.7818609E-02  0.9031585E-01
        3   -1    0    0  501    0  0.00000000000E+00  0.00000000000E+00  0.89190552592E+03  0.89190553164E+03  0.10100000352E+00 0.  1.
       -3   -1    0    0    0  501  0.00000000000E+00  0.00000000000E+00 -0.47185250663E+03  0.47185251744E+03  0.10100000352E+00 0. -1.
    10030    2    1    2    0    0  0.00000000000E+00  0.00000000000E+00  0.42005301929E+03  0.13637580491E+04  0.12974557709E+04 0.  0.
        3    1    3    3  502    0 -0.20248017610E+03 -0.38646093008E+03 -0.29460917335E+03  0.52644548380E+03  0.10100000352E+00 0. -1.
       -3    1    3    3    0  502  0.20248017610E+03  0.38646093008E+03  0.71466219264E+03  0.83731256529E+03  0.10100000352E+00 0.  1.
</event>
<event>
 5   0  0.2401211E-03  0.1182561E+04  0.7818609E-02  0.9128259E-01
       -2   -1    0    0    0  501  0.00000000000E+00  0.00000000000E+00  0.55897614138E+03  0.55897614139E+03  0.25500000920E-02 0.  1.
        2   -1    0    0  501    0  0.00000000000E+00  0.00000000000E+00 -0.62545193759E+03  0.62545193760E+03  0.25500000920E-02 0. -1.
    10030    2    1    2    0    0  0.00000000000E+00  0.00000000000E+00 -0.66475796206E+02  0.11844280790E+04  0.11825611370E+04 0.  0.
        4    1    3    3  502    0 -0.11512233280E+03  0.35367436240E+03  0.42713152027E+03  0.56637589518E+03  0.12699999809E+01 0.  1.
       -4    1    3    3    0  502  0.11512233280E+03 -0.35367436240E+03 -0.49360731648E+03  0.61805218381E+03  0.12699999809E+01 0. -1.
</event>
<event>
 5   0  0.2401211E-03  0.1308975E+04  0.7818609E-02  0.9022478E-01
       -2   -1    0    0    0  501  0.00000000000E+00  0.00000000000E+00  0.66530623275E+03  0.66530623276E+03  0.25500000920E-02 0.  1.
        2   -1    0    0  501    0  0.00000000000E+00  0.00000000000E+00 -0.64384478842E+03  0.64384478842E+03  0.25500000920E-02 0. -1.
    10030    2    1    2    0    0  0.00000000000E+00  0.00000000000E+00  0.21461444336E+02  0.13091510212E+04  0.13089750963E+04 0.  0.
        4    1    3    3  502    0 -0.31202182056E+03  0.41953784982E+03  0.40446207177E+03  0.66103010850E+03  0.12699999809E+01 0.  1.
       -4    1    3    3    0  502  0.31202182056E+03 -0.41953784982E+03 -0.38300062743E+03  0.64812091268E+03  0.12699999809E+01 0. -1.
</event>
<event>
 5   0  0.1310461E-03  0.1301346E+04  0.7818609E-02  0.9028498E-01
       -1   -1    0    0    0  501  0.00000000000E+00  0.00000000000E+00  0.31232000238E+03  0.31232000242E+03  0.50400001928E-02 0. -1.
        1   -1    0    0  501    0  0.00000000000E+00  0.00000000000E+00 -0.13555826762E+04  0.13555826762E+04  0.50400001928E-02 0.  1.
    10030    2    1    2    0    0  0.00000000000E+00  0.00000000000E+00 -0.10432626738E+04  0.16679026787E+04  0.13013463562E+04 0.  0.
        4    1    3    3  502    0  0.57546977707E+02 -0.64802921826E+03 -0.53569764784E+03  0.84274972866E+03  0.12699999809E+01 0.  1.
       -4    1    3    3    0  502 -0.57546977707E+02  0.64802921826E+03 -0.50756502600E+03  0.82515294999E+03  0.12699999809E+01 0. -1.
</event>
<event>
 5   0  0.2361043E-03  0.1164246E+04  0.7818609E-02  0.9144741E-01
       -2   -1    0    0    0  501  0.00000000000E+00  0.00000000000E+00  0.29035234019E+03  0.29035234020E+03  0.25500000920E-02 0.  1.
        2   -1    0    0  501    0  0.00000000000E+00  0.00000000000E+00 -0.11670886804E+04  0.11670886804E+04  0.25500000920E-02 0. -1.
    10030    2    1    2    0    0  0.00000000000E+00  0.00000000000E+00 -0.87673634025E+03  0.14574410206E+04  0.11642455576E+04 0.  0.
        2    1    3    3  502    0  0.16623952779E+03  0.48276711970E+02 -0.11341223935E+04  0.11472575234E+04  0.25500000920E-02 0. -1.
       -2    1    3    3    0  502 -0.16623952779E+03 -0.48276711970E+02  0.25738605329E+03  0.31018349722E+03  0.25500000920E-02 0.  1.
</event>
<event>
 5   0  0.2401211E-03  0.1278241E+04  0.7818609E-02  0.9047000E-01
       -2   -1    0    0    0  501  0.00000000000E+00  0.00000000000E+00  0.23313560356E+03  0.23313560357E+03  0.25500000920E-02 0.  1.
        2   -1    0    0  501    0  0.00000000000E+00  0.00000000000E+00 -0.17520931201E+04  0.17520931201E+04  0.25500000920E-02 0. -1.
    10030    2    1    2    0    0  0.00000000000E+00  0.00000000000E+00 -0.15189575165E+04  0.19852287237E+04  0.12782414280E+04 0.  0.
        4    1    3    3  502    0 -0.20192004231E+03  0.29448936885E+03 -0.15827326758E+04  0.16225104091E+04  0.12699999809E+01 0. -1.
       -4    1    3    3    0  502  0.20192004231E+03 -0.29448936885E+03  0.63775159258E+02  0.36271831452E+03  0.12699999809E+01 0.  1.
</event>
<event>
 5   0  0.2312105E-03  0.1304392E+04  0.7818609E-02  0.9026090E-01
        2   -1    0    0  501    0  0.00000000000E+00  0.00000000000E+00  0.60070352004E+03  0.60070352005E+03  0.25500000920E-02 0. -1.
       -2   -1    0    0    0  501  0.00000000000E+00  0.00000000000E+00 -0.70810193723E+03  0.70810193723E+03  0.25500000920E-02 0.  1.
    10030    2    1    2    0    0  0.00000000000E+00  0.00000000000E+00 -0.10739841719E+03  0.13088054573E+04  0.13043915459E+04 0.  0.
        5    1    3    3  502    0  0.85043288895E+02  0.90702148553E+02  0.58868435996E+03  0.60168979250E+03  0.46999998093E+01 0. -1.
       -5    1    3    3    0  502 -0.85043288895E+02 -0.90702148553E+02 -0.69608277715E+03  0.70711566478E+03  0.46999998093E+01 0.  1.
</event>
<event>
 5   0  0.9131250E-04  0.1307640E+04  0.7818609E-02  0.9023528E-01
        4   -1    0    0  501    0  0.00000000000E+00  0.00000000000E+00  0.59460508466E+03  0.59460644093E+03  0.12699999809E+01 0.  1.
       -4   -1    0    0    0  501  0.00000000000E+00  0.00000000000E+00 -0.71892952778E+03  0.71893064951E+03  0.12699999809E+01 0. -1.
    10030    2    1    2    0    0  0.00000000000E+00  0.00000000000E+00 -0.12432444312E+03  0.13135370904E+04  0.13076402872E+04 0.  0.
        2    1    3    3  502    0 -0.63783480350E+02 -0.13448479608E+03  0.57736116924E+03  0.59623855334E+03  0.25500000920E-02 0.  1.
       -2    1    3    3    0  502  0.63783480350E+02  0.13448479608E+03 -0.70168561235E+03  0.71729853710E+03  0.25500000920E-02 0. -1.
</event>
<event>
 5   0  0.2312105E-03  0.1306658E+04  0.7818609E-02  0.9024302E-01
        2   -1    0    0  501    0  0.00000000000E+00  0.00000000000E+00  0.57223269857E+03  0.57223269857E+03  0.25500000920E-02 0.  1.
       -2   -1    0    0    0  501  0.00000000000E+00  0.00000000000E+00 -0.74591766547E+03  0.74591766548E+03  0.25500000920E-02 0. -1.
    10030    2    1    2    0    0  0.00000000000E+00  0.00000000000E+00 -0.17368496690E+03  0.13181503640E+04  0.13066575353E+04 0.  0.
        5    1    3    3  502    0 -0.18534744505E+03 -0.13675436243E+03  0.52989471480E+03  0.57781132717E+03  0.46999998093E+01 0.  1.
       -5    1    3    3    0  502  0.18534744505E+03  0.13675436243E+03 -0.70357968170E+03  0.74033903688E+03  0.46999998093E+01 0. -1.
</event>
<event>
 5   0  0.1332630E-03  0.1363671E+04  0.7818609E-02  0.8980543E-01
       -1   -1    0    0    0  501  0.00000000000E+00  0.00000000000E+00  0.77171421607E+03  0.77171421608E+03  0.50400001928E-02 0.  1.
        1   -1    0    0  501    0  0.00000000000E+00  0.00000000000E+00 -0.60242458929E+03  0.60242458931E+03  0.50400001928E-02 0. -1.
    10030    2    1    2    0    0  0.00000000000E+00  0.00000000000E+00  0.16928962678E+03  0.13741388054E+04  0.13636709569E+04 0.  0.
        5    1    3    3  502    0  0.92546112625E+02 -0.31932022939E+03  0.68448505804E+03  0.76096785513E+03  0.46999998093E+01 0.  1.
       -5    1    3    3    0  502 -0.92546112625E+02  0.31932022939E+03 -0.51519543126E+03  0.61317095026E+03  0.46999998093E+01 0. -1.
</event>
<event>
 5   0  0.1346593E-03  0.1301002E+04  0.7818609E-02  0.9028771E-01
        1   -1    0    0  501    0  0.00000000000E+00  0.00000000000E+00  0.13648213021E+04  0.13648213021E+04  0.50400001928E-02 0. -1.
       -1   -1    0    0    0  501  0.00000000000E+00  0.00000000000E+00 -0.31004185442E+03  0.31004185446E+03  0.50400001928E-02 0.  1.
    10030    2    1    2    0    0  0.00000000000E+00  0.00000000000E+00  0.10547794477E+04  0.16748631566E+04  0.13010022713E+04 0.  0.
        2    1    3    3  502    0  0.59115685118E+03  0.68238689591E+02  0.18915640096E+03  0.62442220131E+03  0.25500000920E-02 0.  1.
       -2    1    3    3    0  502 -0.59115685118E+03 -0.68238689591E+02  0.86562304673E+03  0.10504409553E+04  0.25500000920E-02 0. -1.
</event>
<event>
 5   0  0.2334946E-03  0.1299478E+04  0.7818609E-02  0.9029979E-01
        2   -1    0    0  501    0  0.00000000000E+00  0.00000000000E+00  0.99299928275E+03  0.99299928276E+03  0.25500000920E-02 0. -1.
       -2   -1    0    0    0  501  0.00000000000E+00  0.00000000000E+00 -0.42513705240E+03  0.42513705241E+03  0.25500000920E-02 0.  1.
    10030    2    1    2    0    0  0.00000000000E+00  0.00000000000E+00  0.56786223035E+03  0.14181363352E+04  0.12994780308E+04 0.  0.
        1    1    3    3  502    0 -0.29095159928E+03 -0.56238994258E+03  0.12493808593E+03  0.64540282458E+03  0.50400001928E-02 0. -1.
       -1    1    3    3    0  502  0.29095159928E+03  0.56238994258E+03  0.44292414442E+03  0.77273351058E+03  0.50400001928E-02 0.  1.
</event>
<event>
 5   0  0.1310461E-03  0.1368666E+04  0.7818609E-02  0.8976817E-01
        1   -1    0    0  501    0  0.00000000000E+00  0.00000000000E+00  0.60920362359E+03  0.60920362361E+03  0.50400001928E-02 0. -1.
       -1   -1    0    0    0  501  0.00000000000E+00  0.00000000000E+00 -0.76872762136E+03  0.76872762138E+03  0.50400001928E-02 0.  1.
    10030    2    1    2    0    0  0.00000000000E+00  0.00000000000E+00 -0.15952399777E+03  0.13779312450E+04  0.13686659965E+04 0.  0.
        4    1    3    3  502    0  0.10833164780E+03 -0.56126439436E+02 -0.75768813570E+03  0.76744957293E+03  0.12699999809E+01 0.  1.
       -4    1    3    3    0  502 -0.10833164780E+03  0.56126439436E+02  0.59816413792E+03  0.61048167205E+03  0.12699999809E+01 0. -1.
</event>
<event>
 5   0  0.2478236E-03  0.1314357E+04  0.7818609E-02  0.9018257E-01
       -2   -1    0    0    0  501  0.00000000000E+00  0.00000000000E+00  0.73487871631E+03  0.73487871631E+03  0.25500000920E-02 0. -1.
        2   -1    0    0  501    0  0.00000000000E+00  0.00000000000E+00 -0.58769384836E+03  0.58769384837E+03  0.25500000920E-02 0.  1.
    10030    2    1    2    0    0  0.00000000000E+00  0.00000000000E+00  0.14718486795E+03  0.13225725647E+04  0.13143571826E+04 0.  0.
        3    1    3    3  502    0 -0.21047731773E+03 -0.26405512114E+03 -0.49372038841E+03  0.59815185397E+03  0.10100000352E+00 0.  1.
       -3    1    3    3    0  502  0.21047731773E+03  0.26405512114E+03  0.64090525635E+03  0.72442071071E+03  0.10100000352E+00 0. -1.
</event>
<event>
 5   0  0.1332630E-03  0.1295209E+04  0.7818609E-02  0.9033373E-01
        1   -1    0    0  501    0  0.00000000000E+00  0.00000000000E+00  0.81155591085E+03  0.81155591087E+03  0.50400001928E-02 0. -1.
       -1   -1    0    0    0  501  0.00000000000E+00  0.00000000000E+00 -0.51677507545E+03  0.51677507547E+03  0.50400001928E-02 0.  1.
    10030    2    1    2    0    0  0.00000000000E+00  0.00000000000E+00  0.29478083541E+03  0.13283309863E+04  0.12952094303E+04 0.  0.
        5    1    3    3  502    0  0.16441171008E+02  0.18820978512E+03  0.78264664249E+03  0.80514041777E+03  0.46999998093E+01 0. -1.
       -5    1    3    3    0  502 -0.16441171008E+02 -0.18820978512E+03 -0.48786580709E+03  0.52319056857E+03  0.46999998093E+01 0.  1.
</event>
<event>
 5   0  0.1387622E-03  0.1300717E+04  0.7818609E-02  0.9028997E-01
        1   -1    0    0  501    0  0.00000000000E+00  0.00000000000E+00  0.13958979602E+04  0.13958979602E+04  0.50400001928E-02 0.  1.
       -1   -1    0    0    0  501  0.00000000000E+00  0.00000000000E+00 -0.30300643554E+03  0.30300643558E+03  0.50400001928E-02 0. -1.
    10030    2    1    2    0    0  0.00000000000E+00  0.00000000000E+00  0.10928915247E+04  0.16989043958E+04  0.13007168260E+04 0.  0.
        3    1    3    3  502    0  0.21361921125E+03  0.43111482586E+03  0.11179768171E+04  0.12171135256E+04  0.10100000352E+00 0.  1.
       -3    1    3    3    0  502 -0.21361921125E+03 -0.43111482586E+03 -0.25085292423E+02  0.48179087018E+03  0.10100000352E+00 0. -1.
</event>
<event>
 5   0  0.1332630E-03  0.1227670E+04  0.7818609E-02  0.9088976E-01
        1   -1    0    0  501    0  0.00000000000E+00  0.00000000000E+00  0.41187455211E+03  0.41187455214E+03  0.50400001928E-02 0. -1.
       -1   -1    0    0    0  501  0.00000000000E+00  0.00000000000E+00 -0.91482538819E+03  0.91482538820E+03  0.50400001928E-02 0.  1.
    10030    2    1    2    0    0  0.00000000000E+00  0.00000000000E+00 -0.50295083607E+03  0.13266999403E+04  0.12276698205E+04 0.  0.
        5    1    3    3  502    0  0.37678576445E+03 -0.24573388324E+03 -0.70279842176E+03  0.83444614283E+03  0.46999998093E+01 0.  1.
       -5    1    3    3    0  502 -0.37678576445E+03  0.24573388324E+03  0.19984758569E+03  0.49225379751E+03  0.46999998093E+01 0. -1.
</event>
<event>
 5   0  0.2361043E-03  0.1303528E+04  0.7818609E-02  0.9026772E-01
        2   -1    0    0  501    0  0.00000000000E+00  0.00000000000E+00  0.10383056824E+04  0.10383056824E+04  0.25500000920E-02 0.  1.
       -2   -1    0    0    0  501  0.00000000000E+00  0.00000000000E+00 -0.40912459107E+03  0.40912459108E+03  0.25500000920E-02 0. -1.
    10030    2    1    2    0    0  0.00000000000E+00  0.00000000000E+00  0.62918109130E+03  0.14474302735E+04  0.13035281166E+04 0.  0.
        2    1    3    3  502    0 -0.64973356781E+03  0.44586982835E+02  0.34300187995E+03  0.73606521303E+03  0.25500000920E-02 0. -1.
       -2    1    3    3    0  502  0.64973356781E+03 -0.44586982835E+02  0.28617921135E+03  0.71136506042E+03  0.25500000920E-02 0.  1.
</event>
<event>
 5   0  0.2312105E-03  0.1300287E+04  0.7818609E-02  0.9029337E-01
        2   -1    0    0  501    0  0.00000000000E+00  0.00000000000E+00  0.60292319944E+03  0.60292319945E+03  0.25500000920E-02 0. -1.
       -2   -1    0    0    0  501  0.00000000000E+00  0.00000000000E+00 -0.70106223682E+03  0.70106223682E+03  0.25500000920E-02 0.  1.
    10030    2    1    2    0    0  0.00000000000E+00  0.00000000000E+00 -0.98139037377E+02  0.13039854363E+04  0.13002871788E+04 0.  0.
        5    1    3    3  502    0 -0.29406644244E+03 -0.35306353041E+03  0.41216867592E+03  0.61727954484E+03  0.46999998093E+01 0. -1.
       -5    1    3    3    0  502  0.29406644244E+03  0.35306353041E+03 -0.51030771330E+03  0.68670589143E+03  0.46999998093E+01 0.  1.
</event>
<event>
 5   0  0.1310461E-03  0.1308446E+04  0.7818609E-02  0.9022894E-01
        1   -1    0    0  501    0  0.00000000000E+00  0.00000000000E+00  0.92345231320E+03  0.92345231322E+03  0.50400001928E-02 0. -1.
       -1   -1    0    0    0  501  0.00000000000E+00  0.00000000000E+00 -0.46348638409E+03  0.46348638411E+03  0.50400001928E-02 0.  1.
    10030    2    1    2    0    0  0.00000000000E+00  0.00000000000E+00  0.45996592912E+03  0.13869386973E+04  0.13084457552E+04 0.  0.
        4    1    3    3  502    0 -0.16715656679E+03 -0.58836477359E+03  0.47605475212E+03  0.77507687654E+03  0.12699999809E+01 0. -1.
       -4    1    3    3    0  502  0.16715656679E+03  0.58836477359E+03 -0.16088823003E+02  0.61186182080E+03  0.12699999809E+01 0.  1.
</event>
<event>
 5   0  0.2401211E-03  0.1288020E+04  0.7818609E-02  0.9039120E-01
       -2   -1    0    0    0  501  0.00000000000E+00  0.00000000000E+00  0.36117148688E+03  0.36117148689E+03  0.25500000920E-02 0.  1.
        2   -1    0    0  501    0  0.00000000000E+00  0.00000000000E+00 -0.11483430068E+04  0.11483430068E+04  0.25500000920E-02 0. -1.
    10030    2    1    2    0    0  0.00000000000E+00  0.00000000000E+00 -0.78717151989E+03  0.15095144937E+04  0.12880197999E+04 0.  0.
        4    1    3    3  502    0 -0.63935556619E+03  0.61953936138E+02 -0.44771619766E+03  0.78298482537E+03  0.12699999809E+01 0.  1.
       -4    1    3    3    0  502  0.63935556619E+03 -0.61953936138E+02 -0.33945532223E+03  0.72652966829E+03  0.12699999809E+01 0. -1.
</event>
<event>
 5   0  0.1332630E-03  0.1313733E+04  0.7818609E-02  0.9018745E-01
       -1   -1    0    0    0  501  0.00000000000E+00  0.00000000000E+00  0.71898895883E+03  0.71898895885E+03  0.50400001928E-02 0. -1.
        1   -1    0    0  501    0  0.00000000000E+00  0.00000000000E+00 -0.60011174346E+03  0.60011174348E+03  0.50400001928E-02 0.  1.
    10030    2    1    2    0    0  0.00000000000E+00  0.00000000000E+00  0.11887721537E+03  0.13191007023E+04  0.13137331809E+04 0.  0.
        5    1    3    3  502    0 -0.18031633122E+02 -0.37046058178E+03  0.60376553825E+03  0.70860503641E+03  0.46999998093E+01 0. -1.
       -5    1    3    3    0  502  0.18031633122E+02  0.37046058178E+03 -0.48488832288E+03  0.61049566592E+03  0.46999998093E+01 0.  1.
</event>
<event>
 5   0  0.2361043E-03  0.1300028E+04  0.7818609E-02  0.9029543E-01
       -2   -1    0    0    0  501  0.00000000000E+00  0.00000000000E+00  0.31637446689E+03  0.31637446690E+03  0.25500000920E-02 0. -1.
        2   -1    0    0  501    0  0.00000000000E+00  0.00000000000E+00 -0.13355011326E+04  0.13355011326E+04  0.25500000920E-02 0.  1.
    10030    2    1    2    0    0  0.00000000000E+00  0.00000000000E+00 -0.10191266657E+04  0.16518755995E+04  0.13000283980E+04 0.  0.
        2    1    3    3  502    0  0.25179329182E+02  0.98397441265E+02 -0.13253559280E+04  0.13292420363E+04  0.25500000920E-02 0.  1.
       -2    1    3    3    0  502 -0.25179329182E+02 -0.98397441265E+02  0.30622926227E+03  0.32263356326E+03  0.25500000920E-02 0. -1.
</event>
<event>
 5   0  0.2478236E-03  0.1300145E+04  0.7818609E-02  0.9029450E-01
        2   -1    0    0  501    0  0.00000000000E+00  0.00000000000E+00  0.18206252885E+04  0.18206252885E+04  0.25500000920E-02 0. -1.
       -2   -1    0    0    0  501  0.00000000000E+00  0.00000000000E+00 -0.23211488125E+03  0.23211488127E+03  0.25500000920E-02 0.  1.
    10030    2    1    2    0    0  0.00000000000E+00  0.00000000000E+00  0.15885104072E+04  0.20527401697E+04  0.13001449499E+04 0.  0.
        3    1    3    3  502    0  0.37173418552E+03  0.13084255559E+02 -0.47493180724E+02  0.37498415279E+03  0.10100000352E+00 0.  1.
       -3    1    3    3    0  502 -0.37173418552E+03 -0.13084255559E+02  0.16360035880E+04  0.16777560170E+04  0.10100000352E+00 0. -1.
</event>
<event>
 5   0  0.1346593E-03  0.1322130E+04  0.7818609E-02  0.9012198E-01
       -1   -1    0    0    0  501  0.00000000000E+00  0.00000000000E+00  0.58502212990E+03  0.58502212993E+03  0.50400001928E-02 0. -1.
        1   -1    0    0  501    0  0.00000000000E+00  0.00000000000E+00 -0.74699160157E+03  0.74699160159E+03  0.50400001928E-02 0.  1.
    10030    2    1    2    0    0  0.00000000000E+00  0.00000000000E+00 -0.16196947167E+03  0.13320137315E+04  0.13221295213E+04 0.  0.
        2    1    3    3  502    0 -0.12169138975E+03 -0.63058390699E+03  0.76908832042E+02  0.64680741070E+03  0.25500000920E-02 0. -1.
       -2    1    3    3    0  502  0.12169138975E+03  0.63058390699E+03 -0.23887830371E+03  0.68520632081E+03  0.25500000920E-02 0.  1.
</event>
<event>
 5   0  0.1332630E-03  0.1314436E+04  0.7818609E-02  0.9018195E-01
        1   -1    0    0  501    0  0.00000000000E+00  0.00000000000E+00  0.73856915016E+03  0.73856915018E+03  0.50400001928E-02 0.  1.
       -1   -1    0    0    0  501  0.00000000000E+00  0.00000000000E+00 -0.58482708436E+03  0.58482708438E+03  0.50400001928E-02 0. -1.
    10030    2    1    2    0    0  0.00000000000E+00  0.00000000000E+00  0.15374206581E+03  0.13233962346E+04  0.13144356092E+04 0.  0.
        5    1    3    3  502    0 -0.49425210713E+02  0.58203558646E+03 -0.22635459136E+03  0.62647168043E+03  0.46999998093E+01 0. -1.
       -5    1    3    3    0  502  0.49425210713E+02 -0.58203558646E+03  0.38009665717E+03  0.69692455413E+03  0.46999998093E+01 0.  1.
</event>
<event>
 5   0  0.2478236E-03  0.1286391E+04  0.7818609E-02  0.9040427E-01
        2   -1    0    0  501    0  0.00000000000E+00  0.00000000000E+00  0.53171808127E+03  0.53171808127E+03  0.25500000920E-02 0.  1.
       -2   -1    0    0    0  501  0.00000000000E+00  0.00000000000E+00 -0.77804488336E+03  0.77804488336E+03  0.25500000920E-02 0. -1.
    10030    2    1    2    0    0  0.00000000000E+00  0.00000000000E+00 -0.24632680209E+03  0.13097629646E+04  0.12863911264E+04 0.  0.
        3    1    3    3  502    0  0.22052337629E+03  0.48773029391E+03 -0.48627879192E+03  0.72317250553E+03  0.10100000352E+00 0. -1.
       -3    1    3    3    0  502 -0.22052337629E+03 -0.48773029391E+03  0.23995198983E+03  0.58659045910E+03  0.10100000352E+00 0.  1.
</event>
<event>
 5   0  0.2478236E-03  0.1309443E+04  0.7818609E-02  0.9022110E-01
        2   -1    0    0  501    0  0.00000000000E+00  0.00000000000E+00  0.31719256755E+03  0.31719256756E+03  0.25500000920E-02 0.  1.
       -2   -1    0    0    0  501  0.00000000000E+00  0.00000000000E+00 -0.13514190783E+04  0.13514190783E+04  0.25500000920E-02 0. -1.
    10030    2    1    2    0    0  0.00000000000E+00  0.00000000000E+00 -0.10342265107E+04  0.16686116459E+04  0.13094427628E+04 0.  0.
        3    1    3    3  502    0  0.48064979271E+02 -0.17544440705E+03 -0.13185697037E+04  0.13310586222E+04  0.10100000352E+00 0. -1.
       -3    1    3    3    0  502 -0.48064979271E+02  0.17544440705E+03  0.28434319291E+03  0.33755302362E+03  0.10100000352E+00 0.  1.
</event>
<event>
 5   0  0.2361043E-03  0.1276474E+04  0.7818609E-02  0.9048432E-01
       -2   -1    0    0    0  501  0.00000000000E+00  0.00000000000E+00  0.51255801908E+03  0.51255801909E+03  0.25500000920E-02 0. -1.
        2   -1    0    0  501    0  0.00000000000E+00  0.00000000000E+00 -0.79473233810E+03  0.79473233810E+03  0.25500000920E-02 0.  1.
    10030    2    1    2    0    0  0.00000000000E+00  0.00000000000E+00 -0.28217431901E+03  0.13072903572E+04  0.12764739448E+04 0.  0.
        2    1    3    3  502    0  0.27269762267E+03  0.38150231553E+03  0.30230643405E+03  0.55794013141E+03  0.25500000920E-02 0. -1.
       -2    1    3    3    0  502 -0.27269762267E+03 -0.38150231553E+03 -0.58448075306E+03  0.74935022578E+03  0.25500000920E-02 0.  1.
</event>
<event>
 5   0  0.1324721E-03  0.1173207E+04  0.7818609E-02  0.9136637E-01
        1   -1    0    0  501    0  0.00000000000E+00  0.00000000000E+00  0.37064801162E+03  0.37064801165E+03  0.50400001928E-02 0. -1.
       -1   -1    0    0    0  501  0.00000000000E+00  0.00000000000E+00 -0.92838348336E+03  0.92838348338E+03  0.50400001928E-02 0.  1.
    10030    2    1    2    0    0  0.00000000000E+00  0.00000000000E+00 -0.55773547174E+03  0.12990314950E+04  0.11732067033E+04 0.  0.
        1    1    3    3  502    0  0.46131670317E+03 -0.19427290100E+03  0.59791871038E+02  0.50411321005E+03  0.50400001928E-02 0. -1.
       -1    1    3    3    0  502 -0.46131670317E+03  0.19427290100E+03 -0.61752734278E+03  0.79491828498E+03  0.50400001928E-02 0.  1.
</event>
<event>
 5   0  0.2401211E-03  0.1306160E+04  0.7818609E-02  0.9024695E-01
       -2   -1    0    0    0  501  0.00000000000E+00  0.00000000000E+00  0.79937950879E+03  0.79937950879E+03  0.25500000920E-02 0. -1.
        2   -1    0    0  501    0  0.00000000000E+00  0.00000000000E+00 -0.53355552437E+03  0.53355552437E+03  0.25500000920E-02 0.  1.
    10030    2    1    2    0    0  0.00000000000E+00  0.00000000000E+00  0.26582398442E+03  0.13329350332E+04  0.13061597957E+04 0.  0.
        4    1    3    3  502    0 -0.64465065236E+02 -0.55320593328E+03  0.48095936264E+03  0.73587775525E+03  0.12699999809E+01 0. -1.
       -4    1    3    3    0  502  0.64465065236E+02  0.55320593328E+03 -0.21513537822E+03  0.59705727792E+03  0.12699999809E+01 0.  1.
</event>
<event>
 5   0  0.2478236E-03  0.1302076E+04  0.7818609E-02  0.9027920E-01
        2   -1    0    0  501    0  0.00000000000E+00  0.00000000000E+00  0.59289712726E+03  0.59289712726E+03  0.25500000920E-02 0.  1.
       -2   -1    0    0    0  501  0.00000000000E+00  0.00000000000E+00 -0.71488046867E+03  0.71488046868E+03  0.25500000920E-02 0. -1.
    10030    2    1    2    0    0  0.00000000000E+00  0.00000000000E+00 -0.12198334142E+03  0.13077775959E+04  0.13020761517E+04 0.  0.
        3    1    3    3  502    0  0.29874078651E+03 -0.12869265631E+03 -0.62741382338E+03  0.70672199151E+03  0.10100000352E+00 0. -1.
       -3    1    3    3    0  502 -0.29874078651E+03  0.12869265631E+03  0.50543048196E+03  0.60105560443E+03  0.10100000352E+00 0.  1.
</event>
<event>
 5   0  0.1346593E-03  0.1337039E+04  0.7818609E-02  0.9000698E-01
       -1   -1    0    0    0  501  0.00000000000E+00  0.00000000000E+00  0.24433219355E+03  0.24433219361E+03  0.50400001928E-02 0. -1.
        1   -1    0    0  501    0  0.00000000000E+00  0.00000000000E+00 -0.18291419449E+04  0.18291419449E+04  0.50400001928E-02 0.  1.
    10030    2    1    2    0    0  0.00000000000E+00  0.00000000000E+00 -0.15848097513E+04  0.20734741385E+04  0.13370389131E+04 0.  0.
        2    1    3    3  502    0 -0.12126947065E+03  0.22634801606E+03  0.16479986516E+03  0.30512080304E+03  0.25500000920E-02 0. -1.
       -2    1    3    3    0  502  0.12126947065E+03 -0.22634801606E+03 -0.17496096165E+04  0.17683533355E+04  0.25500000920E-02 0.  1.
</event>
<event>
 5   0  0.1324721E-03  0.1312702E+04  0.7818609E-02  0.9019552E-01
       -1   -1    0    0    0  501  0.00000000000E+00  0.00000000000E+00  0.32728913430E+03  0.32728913433E+03  0.50400001928E-02 0.  1.
        1   -1    0    0  501    0  0.00000000000E+00  0.00000000000E+00 -0.13162573476E+04  0.13162573476E+04  0.50400001928E-02 0. -1.
    10030    2    1    2    0    0  0.00000000000E+00  0.00000000000E+00 -0.98896821326E+03  0.16435464819E+04  0.13127021411E+04 0.  0.
        1    1    3    3  502    0 -0.31887969286E+03  0.41139716882E+01  0.22376781861E+03  0.38958082595E+03  0.50400001928E-02 0.  1.
       -1    1    3    3    0  502  0.31887969286E+03 -0.41139716882E+01 -0.12127360319E+04  0.12539656559E+04  0.50400001928E-02 0. -1.
</event>
<event>
 5   0  0.2334946E-03  0.1310079E+04  0.7818609E-02  0.9021610E-01
        2   -1    0    0  501    0  0.00000000000E+00  0.00000000000E+00  0.74548746722E+03  0.74548746723E+03  0.25500000920E-02 0.  1.
       -2   -1    0    0    0  501  0.00000000000E+00  0.00000000000E+00 -0.57556525007E+03  0.57556525008E+03  0.25500000920E-02 0. -1.
    10030    2    1    2    0    0  0.00000000000E+00  0.00000000000E+00  0.16992221715E+03  0.13210527173E+04  0.13100788992E+04 0.  0.
        1    1    3    3  502    0 -0.82972687285E+02 -0.61883806609E+03  0.28469007207E+03  0.68621677045E+03  0.50400001928E-02 0.  1.
       -1    1    3    3    0  502  0.82972687285E+02  0.61883806609E+03 -0.11476785492E+03  0.63483594686E+03  0.50400001928E-02 0. -1.
</event>
<event>
 5   0  0.1332630E-03  0.1296660E+04  0.7818609E-02  0.9032218E-01
        1   -1    0    0  501    0  0.00000000000E+00  0.00000000000E+00  0.15873805045E+04  0.15873805045E+04  0.50400001928E-02 0.  1.
       -1   -1    0    0    0  501  0.00000000000E+00  0.00000000000E+00 -0.26479572330E+03  0.26479572335E+03  0.50400001928E-02 0. -1.
    10030    2    1    2    0    0  0.00000000000E+00  0.00000000000E+00  0.13225847812E+04  0.18521762279E+04  0.12966596607E+04 0.  0.
        5    1    3    3  502    0  0.46053371526E+03  0.16214312877E+03  0.12705568122E+04  0.13611459878E+04  0.46999998093E+01 0.  1.
       -5    1    3    3    0  502 -0.46053371526E+03 -0.16214312877E+03  0.52027968997E+02  0.49103024006E+03  0.46999998093E+01 0. -1.
</event>
<event>
 5   0  0.1310461E-03  0.1303511E+04  0.7818609E-02  0.9026785E-01
        1   -1    0    0  501    0  0.00000000000E+00  0.00000000000E+00  0.12731782543E+04  0.12731782543E+04  0.50400001928E-02 0.  1.
       -1   -1    0    0    0  501  0.00000000000E+00  0.00000000000E+00 -0.33364166460E+03  0.33364166464E+03  0.50400001928E-02 0. -1.
    10030    2    1    2    0    0  0.00000000000E+00  0.00000000000E+00  0.93953658968E+03  0.16068199189E+04  0.13035111233E+04 0.  0.
        4    1    3    3  502    0  0.22321115480E+03 -0.52346468645E+03  0.86141574671E+03  0.10324132889E+04  0.12699999809E+01 0.  1.
       -4    1    3    3    0  502 -0.22321115480E+03  0.52346468645E+03  0.78120842977E+02  0.57440663001E+03  0.12699999809E+01 0. -1.
</event>
<event>
 5   0  0.2478236E-03  0.1249647E+04  0.7818609E-02  0.9070477E-01
        2   -1    0    0  501    0  0.00000000000E+00  0.00000000000E+00  0.94330501114E+03  0.94330501115E+03  0.25500000920E-02 0. -1.
       -2   -1    0    0    0  501  0.00000000000E+00  0.00000000000E+00 -0.41386893277E+03  0.41386893278E+03  0.25500000920E-02 0.  1.
    10030    2    1    2    0    0  0.00000000000E+00  0.00000000000E+00  0.52943607837E+03  0.13571739439E+04  0.12496473715E+04 0.  0.
        3    1    3    3  502    0  0.44656503952E+03  0.35873643802E+03  0.53577825486E+03  0.78432806597E+03  0.10100000352E+00 0. -1.
       -3    1    3    3    0  502 -0.44656503952E+03 -0.35873643802E+03 -0.63421764900E+01  0.57284587795E+03  0.10100000352E+00 0.  1.
</event>
<event>
 5   0  0.1310461E-03  0.1319700E+04  0.7818609E-02  0.9014087E-01
       -1   -1    0    0    0  501  0.00000000000E+00  0.00000000000E+00  0.48113142294E+03  0.48113142297E+03  0.50400001928E-02 0.  1.
        1   -1    0    0  501    0  0.00000000000E+00  0.00000000000E+00 -0.90495388397E+03  0.90495388399E+03  0.50400001928E-02 0. -1.
    10030    2    1    2    0    0  0.00000000000E+00  0.00000000000E+00 -0.42382246103E+03  0.13860853070E+04  0.13196995869E+04 0.  0.
        4    1    3    3  502    0 -0.22162747167E+03 -0.71406007829E+02  0.43654609884E+03  0.49476425039E+03  0.12699999809E+01 0.  1.
       -4    1    3    3    0  502  0.22162747167E+03  0.71406007829E+02 -0.86036855987E+03  0.89132105656E+03  0.12699999809E+01 0. -1.
</event>
<event>
 5   0  0.1324721E-03  0.1202025E+04  0.7818609E-02  0.9111086E-01
        1   -1    0    0  501    0  0.00000000000E+00  0.00000000000E+00  0.23235011159E+03  0.23235011164E+03  0.50400001928E-02 0.  1.
       -1   -1    0    0    0  501  0.00000000000E+00  0.00000000000E+00 -0.15546184737E+04  0.15546184737E+04  0.50400001928E-02 0. -1.
    10030    2    1    2    0    0  0.00000000000E+00  0.00000000000E+00 -0.13222683621E+04  0.17869685853E+04  0.12020245853E+04 0.  0.
        1    1    3    3  502    0  0.82247568920E+02 -0.56641732055E+03 -0.93372974032E+03  0.10951915228E+04  0.50400001928E-02 0. -1.
       -1    1    3    3    0  502 -0.82247568920E+02  0.56641732055E+03 -0.38853862176E+03  0.69177706253E+03  0.50400001928E-02 0.  1.
</event>
<event>
 5   0  0.1346593E-03  0.1317078E+04  0.7818609E-02  0.9016131E-01
        1   -1    0    0  501    0  0.00000000000E+00  0.00000000000E+00  0.17157385648E+04  0.17157385648E+04  0.50400001928E-02 0. -1.
       -1   -1    0    0    0  501  0.00000000000E+00  0.00000000000E+00 -0.25276188265E+03  0.25276188270E+03  0.50400001928E-02 0.  1.
    10030    2    1    2    0    0  0.00000000000E+00  0.00000000000E+00  0.14629766821E+04  0.19685004475E+04  0.13170775373E+04 0.  0.
        2    1    3    3  502    0 -0.17897234334E+03  0.61684728520E+03  0.51417145199E+03  0.82274173043E+03  0.25500000920E-02 0. -1.
       -2    1    3    3    0  502  0.17897234334E+03 -0.61684728520E+03  0.94880523012E+03  0.11457587170E+04  0.25500000920E-02 0.  1.
</event>
<event>
 5   0  0.2334946E-03  0.1068750E+04  0.7818609E-02  0.9236197E-01
        2   -1    0    0  501    0  0.00000000000E+00  0.00000000000E+00  0.11081669909E+04  0.11081669909E+04  0.25500000920E-02 0. -1.
       -2   -1    0    0    0  501  0.00000000000E+00  0.00000000000E+00 -0.25768392767E+03  0.25768392768E+03  0.25500000920E-02 0.  1.
    10030    2    1    2    0    0  0.00000000000E+00  0.00000000000E+00  0.85048306324E+03  0.13658509186E+04  0.10687503408E+04 0.  0.
        1    1    3    3  502    0 -0.33211509742E+03  0.20934540631E+03 -0.38072816711E+02  0.39443057244E+03  0.50400001928E-02 0.  1.
       -1    1    3    3    0  502  0.33211509742E+03 -0.20934540631E+03  0.88855587995E+03  0.97142034614E+03  0.50400001928E-02 0. -1.
</event>
<event>
 5   0  0.1332630E-03  0.1293547E+04  0.7818609E-02  0.9034698E-01
       -1   -1    0    0    0  501  0.00000000000E+00  0.00000000000E+00  0.42630897424E+03  0.42630897427E+03  0.50400001928E-02 0. -1.
        1   -1    0    0  501    0  0.00000000000E+00  0.00000000000E+00 -0.98125078683E+03  0.98125078685E+03  0.50400001928E-02 0.  1.
    10030    2    1    2    0    0  0.00000000000E+00  0.00000000000E+00 -0.55494181259E+03  0.14075597611E+04  0.12935470868E+04 0.  0.
        5    1    3    3  502    0  0.16922101375E+03 -0.39531422168E+03  0.24820845040E+03  0.49652654531E+03  0.46999998093E+01 0. -1.
       -5    1    3    3    0  502 -0.16922101375E+03  0.39531422168E+03 -0.80315026300E+03  0.91103321581E+03  0.46999998093E+01 0.  1.
</event>
<event>
 5   0  0.2478236E-03  0.1293843E+04  0.7818609E-02  0.9034462E-01
       -2   -1    0    0    0  501  0.00000000000E+00  0.00000000000E+00  0.53896358484E+03  0.53896358484E+03  0.25500000920E-02 0.  1.
        2   -1    0    0  501    0  0.00000000000E+00  0.00000000000E+00 -0.77650361717E+03  0.77650361718E+03  0.25500000920E-02 0. -1.
    10030    2    1    2    0    0  0.00000000000E+00  0.00000000000E+00 -0.23754003234E+03  0.13154672020E+04  0.12938426074E+04 0.  0.
        3    1    3    3  502    0  0.55947034378E+03 -0.24860864893E+03 -0.33129435227E+03  0.69611010906E+03  0.10100000352E+00 0. -1.
       -3    1    3    3    0  502 -0.55947034378E+03  0.24860864893E+03  0.93754319935E+02  0.61935709296E+03  0.10100000352E+00 0.  1.
</event>
<event>
 5   0  0.2361043E-03  0.1236251E+04  0.7818609E-02  0.9081704E-01
       -2   -1    0    0    0  501  0.00000000000E+00  0.00000000000E+00  0.52155096732E+03  0.52155096733E+03  0.25500000920E-02 0.  1.
        2   -1    0    0  501    0  0.00000000000E+00  0.00000000000E+00 -0.73258292682E+03  0.73258292682E+03  0.25500000920E-02 0. -1.
    10030    2    1    2    0    0  0.00000000000E+00  0.00000000000E+00 -0.21103195950E+03  0.12541338941E+04  0.12362513242E+04 0.  0.
        2    1    3    3  502    0 -0.23268405199E+03  0.17465257267E+03  0.44774800597E+03  0.53396972391E+03  0.25500000920E-02 0.  1.
       -2    1    3    3    0  502  0.23268405199E+03 -0.17465257267E+03 -0.65877996547E+03  0.72016417024E+03  0.25500000920E-02 0. -1.
</event>
<event>
 5   0  0.2401211E-03  0.1301799E+04  0.7818609E-02  0.9028140E-01
        2   -1    0    0  501    0  0.00000000000E+00  0.00000000000E+00  0.14329428897E+04  0.14329428897E+04  0.25500000920E-02 0. -1.
       -2   -1    0    0    0  501  0.00000000000E+00  0.00000000000E+00 -0.29566449775E+03  0.29566449776E+03  0.25500000920E-02 0.  1.
    10030    2    1    2    0    0  0.00000000000E+00  0.00000000000E+00  0.11372783919E+04  0.17286073874E+04  0.13017992776E+04 0.  0.
        4    1    3    3  502    0 -0.33845083213E+03  0.24595238187E+03  0.12307438592E+04  0.12999129200E+04  0.12699999809E+01 0. -1.
       -4    1    3    3    0  502  0.33845083213E+03 -0.24595238187E+03 -0.93465467227E+02  0.42869446740E+03  0.12699999809E+01 0.  1.
</event>
<event>
 5   0  0.2478236E-03  0.1320518E+04  0.7818609E-02  0.9013451E-01
        2   -1    0    0  501    0  0.00000000000E+00  0.00000000000E+00  0.80286636988E+03  0.80286636988E+03  0.25500000920E-02 0. -1.
       -2   -1    0    0    0  501  0.00000000000E+00  0.00000000000E+00 -0.54298184854E+03  0.54298184854E+03  0.25500000920E-02 0.  1.
    10030    2    1    2    0    0  0.00000000000E+00  0.00000000000E+00  0.25988452134E+03  0.13458482184E+04  0.13205178767E+04 0.  0.
        3    1    3    3  502    0  0.54563992407E+03 -0.24867826301E+03 -0.15172481366E+03  0.61853393966E+03  0.10100000352E+00 0.  1.
       -3    1    3    3    0  502 -0.54563992407E+03  0.24867826301E+03  0.41160933500E+03  0.72731427877E+03  0.10100000352E+00 0. -1.
</event>
<event>
 5   0  0.1324721E-03  0.1306308E+04  0.7818609E-02  0.9024578E-01
       -1   -1    0    0    0  501  0.00000000000E+00  0.00000000000E+00  0.76775773574E+03  0.76775773575E+03  0.50400001928E-02 0.  1.
        1   -1    0    0  501    0  0.00000000000E+00  0.00000000000E+00 -0.55565686436E+03  0.55565686438E+03  0.50400001928E-02 0. -1.
    10030    2    1    2    0    0  0.00000000000E+00  0.00000000000E+00  0.21210087138E+03  0.13234146001E+04  0.13063075535E+04 0.  0.
        1    1    3    3  502    0  0.63355731674E+03 -0.13450287926E+03  0.20541568004E+02  0.64800297389E+03  0.50400001928E-02 0.  1.
       -1    1    3    3    0  502 -0.63355731674E+03  0.13450287926E+03  0.19155930338E+03  0.67541162624E+03  0.50400001928E-02 0. -1.
</event>
<event>
 5   0  0.1332630E-03  0.1306804E+04  0.7818609E-02  0.9024187E-01
        1   -1    0    0  501    0  0.00000000000E+00  0.00000000000E+00  0.10995392985E+04  0.10995392986E+04  0.50400001928E-02 0.  1.
       -1   -1    0    0    0  501  0.00000000000E+00  0.00000000000E+00 -0.38828451180E+03  0.38828451184E+03  0.50400001928E-02 0. -1.
    10030    2    1    2    0    0  0.00000000000E+00  0.00000000000E+00  0.71125478674E+03  0.14878238104E+04  0.13068038564E+04 0.  0.
        5    1    3    3  502    0 -0.45322622268E+03 -0.23992775404E+03  0.81659863468E+03  0.96427939739E+03  0.46999998093E+01 0.  1.
       -5    1    3    3    0  502  0.45322622268E+03  0.23992775404E+03 -0.10534384794E+03  0.52354441300E+03  0.46999998093E+01 0. -1.
</event>
<event>
 5   0  0.9131250E-04  0.1316846E+04  0.7818609E-02  0.9016312E-01
       -3   -1    0    0    0  501  0.00000000000E+00  0.00000000000E+00  0.67107727110E+03  0.67107727870E+03  0.10100000352E+00 0. -1.
        3   -1    0    0  501    0  0.00000000000E+00  0.00000000000E+00 -0.64600730055E+03  0.64600730845E+03  0.10100000352E+00 0.  1.
    10030    2    1    2    0    0  0.00000000000E+00  0.00000000000E+00  0.25069970550E+02  0.13170845872E+04  0.13168459691E+04 0.  0.
        4    1    3    3  502    0  0.63296138695E+02 -0.31532952413E+03 -0.56209510302E+03  0.64760453033E+03  0.12699999809E+01 0.  1.
       -4    1    3    3    0  502 -0.63296138695E+02  0.31532952413E+03  0.58716507357E+03  0.66948005682E+03  0.12699999809E+01 0. -1.
</event>
<event>
 5   0  0.2401211E-03  0.1298401E+04  0.7818609E-02  0.9030834E-01
       -2   -1    0    0    0  501  0.00000000000E+00  0.00000000000E+00  0.38852963245E+03  0.38852963246E+03  0.25500000920E-02 0. -1.
        2   -1    0    0  501    0  0.00000000000E+00  0.00000000000E+00 -0.10847603600E+04  0.10847603600E+04  0.25500000920E-02 0.  1.
    10030    2    1    2    0    0  0.00000000000E+00  0.00000000000E+00 -0.69623072755E+03  0.14732899925E+04  0.12984013925E+04 0.  0.
        4    1    3    3  502    0  0.41230452243E+03 -0.34544157667E+03  0.64350724930E+02  0.54172643540E+03  0.12699999809E+01 0. -1.
       -4    1    3    3    0  502 -0.41230452243E+03  0.34544157667E+03 -0.76058145248E+03  0.93156355707E+03  0.12699999809E+01 0.  1.
</event>
<event>
 5   0  0.2361043E-03  0.1236330E+04  0.7818609E-02  0.9081638E-01
        2   -1    0    0  501    0  0.00000000000E+00  0.00000000000E+00  0.11708237183E+04  0.11708237183E+04  0.25500000920E-02 0. -1.
       -2   -1    0    0    0  501  0.00000000000E+00  0.00000000000E+00 -0.32637539480E+03  0.32637539481E+03  0.25500000920E-02 0.  1.
    10030    2    1    2    0    0  0.00000000000E+00  0.00000000000E+00  0.84444832351E+03  0.14971991131E+04  0.12363301393E+04 0.  0.
        2    1    3    3  502    0 -0.30580997225E+03  0.50806334114E+03  0.21080114306E+03  0.62935301672E+03  0.25500000920E-02 0. -1.
       -2    1    3    3    0  502  0.30580997225E+03 -0.50806334114E+03  0.63364718045E+03  0.86784609640E+03  0.25500000920E-02 0.  1.
</event>
<event>
 5   0  0.1346593E-03  0.1302606E+04  0.7818609E-02  0.9027501E-01
       -1   -1    0    0    0  501  0.00000000000E+00  0.00000000000E+00  0.12354716557E+04  0.12354716558E+04  0.50400001928E-02 0. -1.
        1   -1    0    0  501    0  0.00000000000E+00  0.00000000000E+00 -0.34334734280E+03  0.34334734284E+03  0.50400001928E-02 0.  1.
    10030    2    1    2    0    0  0.00000000000E+00  0.00000000000E+00  0.89212431295E+03  0.15788189986E+04  0.13026064795E+04 0.  0.
        2    1    3    3  502    0  0.55672661513E+03  0.30102081811E+03  0.25971484761E+03  0.68411246079E+03  0.25500000920E-02 0.  1.
       -2    1    3    3    0  502 -0.55672661513E+03 -0.30102081811E+03  0.63240946534E+03  0.89470653780E+03  0.25500000920E-02 0. -1.
</event>
<event>
 5   0  0.9131250E-04  0.1301883E+04  0.7818609E-02  0.9028074E-01
        4   -1    0    0  501    0  0.00000000000E+00  0.00000000000E+00  0.45453035990E+03  0.45453213415E+03  0.12699999809E+01 0. -1.
       -4   -1    0    0    0  501  0.00000000000E+00  0.00000000000E+00 -0.93222088747E+03  0.93222175255E+03  0.12699999809E+01 0.  1.
    10030    2    1    2    0    0  0.00000000000E+00  0.00000000000E+00 -0.47769052757E+03  0.13867538867E+04  0.13018825224E+04 0.  0.
        4    1    3    3  502    0  0.24983929887E+03 -0.25905835984E+03  0.33890882419E+03  0.49435990238E+03  0.12699999809E+01 0. -1.
       -4    1    3    3    0  502 -0.24983929887E+03  0.25905835984E+03 -0.81659935176E+03  0.89239398432E+03  0.12699999809E+01 0.  1.
</event>
<event>
 5   0  0.2334946E-03  0.1360913E+04  0.7818609E-02  0.8982608E-01
        2   -1    0    0  501    0  0.00000000000E+00  0.00000000000E+00  0.83706379616E+03  0.83706379616E+03  0.25500000920E-02 0. -1.
       -2   -1    0    0    0  501  0.00000000000E+00  0.00000000000E+00 -0.55314878470E+03  0.55314878470E+03  0.25500000920E-02 0.  1.
    10030    2    1    2    0    0  0.00000000000E+00  0.00000000000E+00  0.28391501146E+03  0.13902125809E+04  0.13609126667E+04 0.  0.
        1    1    3    3  502    0 -0.56256463337E+03  0.28013319313E+03  0.40847152394E+03  0.74953489479E+03  0.50400001928E-02 0. -1.
       -1    1    3    3    0  502  0.56256463337E+03 -0.28013319313E+03 -0.12455651248E+03  0.64067768608E+03  0.50400001928E-02 0.  1.
</event>
<event>
 5   0  0.1310461E-03  0.1300910E+04  0.7818609E-02  0.9028844E-01
        1   -1    0    0  501    0  0.00000000000E+00  0.00000000000E+00  0.23576912811E+04  0.23576912811E+04  0.50400001928E-02 0.  1.
       -1   -1    0    0    0  501  0.00000000000E+00  0.00000000000E+00 -0.17945159638E+03  0.17945159645E+03  0.50400001928E-02 0. -1.
    10030    2    1    2    0    0  0.00000000000E+00  0.00000000000E+00  0.21782396847E+04  0.25371428776E+04  0.13009096268E+04 0.  0.
        4    1    3    3  502    0  0.48788979659E+03 -0.35355249089E+03  0.61118478282E+03  0.85824487711E+03  0.12699999809E+01 0.  1.
       -4    1    3    3    0  502 -0.48788979659E+03  0.35355249089E+03  0.15670549019E+04  0.16788980005E+04  0.12699999809E+01 0. -1.
</event>
<event>
 5   0  0.1332630E-03  0.1317356E+04  0.7818609E-02  0.9015914E-01
       -1   -1    0    0    0  501  0.00000000000E+00  0.00000000000E+00  0.36387307958E+03  0.36387307961E+03  0.50400001928E-02 0.  1.
        1   -1    0    0  501    0  0.00000000000E+00  0.00000000000E+00 -0.11923296982E+04  0.11923296982E+04  0.50400001928E-02 0. -1.
    10030    2    1    2    0    0  0.00000000000E+00  0.00000000000E+00 -0.82845661861E+03  0.15562027778E+04  0.13173559567E+04 0.  0.
        5    1    3    3  502    0  0.12985118537E+03 -0.84412269786E+02 -0.11704939426E+04  0.11807052643E+04  0.46999998093E+01 0. -1.
       -5    1    3    3    0  502 -0.12985118537E+03  0.84412269786E+02  0.34203732397E+03  0.37549751346E+03  0.46999998093E+01 0.  1.
</event>
<event>
 5   0  0.1324721E-03  0.1249664E+04  0.7818609E-02  0.9070463E-01
        1   -1    0    0  501    0  0.00000000000E+00  0.00000000000E+00  0.91326280671E+03  0.91326280673E+03  0.50400001928E-02 0. -1.
       -1   -1    0    0    0  501  0.00000000000E+00  0.00000000000E+00 -0.42749440769E+03  0.42749440772E+03  0.50400001928E-02 0.  1.
    10030    2    1    2    0    0  0.00000000000E+00  0.00000000000E+00  0.48576839903E+03  0.13407572144E+04  0.12496635430E+04 0.  0.
        1    1    3    3  502    0  0.94029807909E+02 -0.35197199272E+03  0.78751833740E+03  0.86770445441E+03  0.50400001928E-02 0. -1.
       -1    1    3    3    0  502 -0.94029807909E+02  0.35197199272E+03 -0.30174993838E+03  0.47305276003E+03  0.50400001928E-02 0.  1.
</event>
<event>
 5   0  0.1387622E-03  0.1296223E+04  0.7818609E-02  0.9032566E-01
        1   -1    0    0  501    0  0.00000000000E+00  0.00000000000E+00  0.15899780855E+04  0.15899780855E+04  0.50400001928E-02 0.  1.
       -1   -1    0    0    0  501  0.00000000000E+00  0.00000000000E+00 -0.26418505586E+03  0.26418505591E+03  0.50400001928E-02 0. -1.
    10030    2    1    2    0    0  0.00000000000E+00  0.00000000000E+00  0.13257930296E+04  0.18541631414E+04  0.12962228965E+04 0.  0.
        3    1    3    3  502    0 -0.10416116681E+03 -0.33254824344E+03 -0.11876878563E+03  0.36816289537E+03  0.10100000352E+00 0. -1.
       -3    1    3    3    0  502  0.10416116681E+03  0.33254824344E+03  0.14445618152E+04  0.14860002460E+04  0.10100000352E+00 0.  1.
</event>
<event>
 5   0  0.2334946E-03  0.1290607E+04  0.7818609E-02  0.9037047E-01
        2   -1    0    0  501    0  0.00000000000E+00  0.00000000000E+00  0.11103583682E+04  0.11103583682E+04  0.25500000920E-02 0. -1.
       -2   -1    0    0    0  501  0.00000000000E+00  0.00000000000E+00 -0.37502907770E+03  0.37502907771E+03  0.25500000920E-02 0.  1.
    10030    2    1    2    0    0  0.00000000000E+00  0.00000000000E+00  0.73532929046E+03  0.14853874459E+04  0.12906071048E+04 0.  0.
        1    1    3    3  502    0  0.24618042773E+03  0.23675801194E+03 -0.26246619804E+03  0.43075243976E+03  0.50400001928E-02 0.  1.
       -1    1    3    3    0  502 -0.24618042773E+03 -0.23675801194E+03  0.99779548850E+03  0.10546350061E+04  0.50400001928E-02 0. -1.
</event>
<event>
 5   0  0.2334946E-03  0.1344136E+04  0.7818609E-02  0.8995279E-01
        2   -1    0    0  501    0  0.00000000000E+00  0.00000000000E+00  0.21693092537E+04  0.21693092537E+04  0.25500000920E-02 0. -1.
       -2   -1    0    0    0  501  0.00000000000E+00  0.00000000000E+00 -0.20821174284E+03  0.20821174285E+03  0.25500000920E-02 0.  1.
    10030    2    1    2    0    0  0.00000000000E+00  0.00000000000E+00  0.19610975109E+04  0.23775209966E+04  0.13441363926E+04 0.  0.
        1    1    3    3  502    0  0.48760271337E+03 -0.46251405682E+03  0.98047727322E+03  0.11887015362E+04  0.50400001928E-02 0.  1.
       -1    1    3    3    0  502 -0.48760271337E+03  0.46251405682E+03  0.98062023768E+03  0.11888194604E+04  0.50400001928E-02 0. -1.
</event>
<event>
 5   0  0.1332630E-03  0.1306281E+04  0.7818609E-02  0.9024599E-01
       -1   -1    0    0    0  501  0.00000000000E+00  0.00000000000E+00  0.97641965552E+03  0.97641965554E+03  0.50400001928E-02 0.  1.
        1   -1    0    0  501    0  0.00000000000E+00  0.00000000000E+00 -0.43689436735E+03  0.43689436738E+03  0.50400001928E-02 0. -1.
    10030    2    1    2    0    0  0.00000000000E+00  0.00000000000E+00  0.53952528818E+03  0.14133140229E+04  0.13062805942E+04 0.  0.
        5    1    3    3  502    0 -0.52104138541E+03  0.11661156265E+02 -0.15612795428E+03  0.54407548740E+03  0.46999998093E+01 0. -1.
       -5    1    3    3    0  502  0.52104138541E+03 -0.11661156265E+02  0.69565324246E+03  0.86923853552E+03  0.46999998093E+01 0.  1.
</event>
<event>
 5   0  0.2401211E-03  0.1306575E+04  0.7818609E-02  0.9024367E-01
        2   -1    0    0  501    0  0.00000000000E+00  0.00000000000E+00  0.31617602119E+03  0.31617602120E+03  0.25500000920E-02 0.  1.
       -2   -1    0    0    0  501  0.00000000000E+00  0.00000000000E+00 -0.13498321531E+04  0.13498321531E+04  0.25500000920E-02 0. -1.
    10030    2    1    2    0    0  0.00000000000E+00  0.00000000000E+00 -0.10336561320E+04  0.16660081743E+04  0.13065750028E+04 0.  0.
        4    1    3    3  502    0 -0.64785900525E+03  0.36688517945E+02 -0.42042873475E+03  0.77319420066E+03  0.12699999809E+01 0. -1.
       -4    1    3    3    0  502  0.64785900525E+03 -0.36688517945E+02 -0.61322739721E+03  0.89281397369E+03  0.12699999809E+01 0.  1.
</event>
<event>
 5   0  0.1346593E-03  0.1348012E+04  0.7818609E-02  0.8992335E-01
        1   -1    0    0  501    0  0.00000000000E+00  0.00000000000E+00  0.54049930580E+03  0.54049930582E+03  0.50400001928E-02 0.  1.
       -1   -1    0    0    0  501  0.00000000000E+00  0.00000000000E+00 -0.84048930286E+03  0.84048930288E+03  0.50400001928E-02 0. -1.
    10030    2    1    2    0    0  0.00000000000E+00  0.00000000000E+00 -0.29998999706E+03  0.13809886087E+04  0.13480116984E+04 0.  0.
        2    1    3    3  502    0 -0.29522923210E+03  0.18259048039E+03 -0.74186917058E+03  0.81906620568E+03  0.25500000920E-02 0. -1.
       -2    1    3    3    0  502  0.29522923210E+03 -0.18259048039E+03  0.44187917352E+03  0.56192240302E+03  0.25500000920E-02 0.  1.
</event>
<event>
 5   0  0.2312105E-03  0.1296625E+04  0.7818609E-02  0.9032246E-01
        2   -1    0    0  501    0  0.00000000000E+00  0.00000000000E+00  0.36238120924E+03  0.36238120925E+03  0.25500000920E-02 0. -1.
       -2   -1    0    0    0  501  0.00000000000E+00  0.00000000000E+00 -0.11598538126E+04  0.11598538126E+04  0.25500000920E-02 0.  1.
    10030    2    1    2    0    0  0.00000000000E+00  0.00000000000E+00 -0.79747260337E+03  0.15222350219E+04  0.12966251998E+04 0.  0.
        5    1    3    3  502    0 -0.13417394870E+03  0.32811009576E+03 -0.10359783831E+04  0.10949576173E+04  0.46999998093E+01 0.  1.
       -5    1    3    3    0  502  0.13417394870E+03 -0.32811009576E+03  0.23850577976E+03  0.42727740453E+03  0.46999998093E+01 0. -1.
</event>
<event>
 5   0  0.2312105E-03  0.1290199E+04  0.7818609E-02  0.9037374E-01
       -2   -1    0    0    0  501  0.00000000000E+00  0.00000000000E+00  0.61589320603E+03  0.61589320603E+03  0.25500000920E-02 0. -1.
        2   -1    0    0  501    0  0.00000000000E+00  0.00000000000E+00 -0.67569039429E+03  0.67569039430E+03  0.25500000920E-02 0.  1.
    10030    2    1    2    0    0  0.00000000000E+00  0.00000000000E+00 -0.59797188263E+02  0.12915836003E+04  0.12901986254E+04 0.  0.
        5    1    3    3  502    0 -0.39679677114E+03 -0.31740543429E+03 -0.42773826779E+03  0.66421081219E+03  0.46999998093E+01 0.  1.
       -5    1    3    3    0  502  0.39679677114E+03  0.31740543429E+03  0.36794107953E+03  0.62737278814E+03  0.46999998093E+01 0. -1.
</event>
<event>
 5   0  0.2478236E-03  0.1296361E+04  0.7818609E-02  0.9032456E-01
        2   -1    0    0  501    0  0.00000000000E+00  0.00000000000E+00  0.57443460939E+03  0.57443460939E+03  0.25500000920E-02 0. -1.
       -2   -1    0    0    0  501  0.00000000000E+00  0.00000000000E+00 -0.73139350002E+03  0.73139350003E+03  0.25500000920E-02 0.  1.
    10030    2    1    2    0    0  0.00000000000E+00  0.00000000000E+00 -0.15695889064E+03  0.13058281094E+04  0.12963606589E+04 0.  0.
        3    1    3    3  502    0 -0.63053355152E+03  0.38568278313E+02 -0.22472118439E+03  0.67049212717E+03  0.10100000352E+00 0.  1.
       -3    1    3    3    0  502  0.63053355152E+03 -0.38568278313E+02  0.67762293754E+02  0.63533598225E+03  0.10100000352E+00 0. -1.
</event>
<event>
 5   0  0.2312105E-03  0.1348754E+04  0.7818609E-02  0.8991772E-01
        2   -1    0    0  501    0  0.00000000000E+00  0.00000000000E+00  0.11913218938E+04  0.11913218938E+04  0.25500000920E-02 0.  1.
       -2   -1    0    0    0  501  0.00000000000E+00  0.00000000000E+00 -0.38174745196E+03  0.38174745197E+03  0.25500000920E-02 0. -1.
    10030    2    1    2    0    0  0.00000000000E+00  0.00000000000E+00  0.80957444181E+03  0.15730693457E+04  0.13487536431E+04 0.  0.
        5    1    3    3  502    0  0.15772985312E+03 -0.35896904337E+03 -0.23511877349E+03  0.45720937032E+03  0.46999998093E+01 0. -1.
       -5    1    3    3    0  502 -0.15772985312E+03  0.35896904337E+03  0.10446932153E+04  0.11158599754E+04  0.46999998093E+01 0.  1.
</event>
<event>
 5   0  0.2361043E-03  0.1286699E+04  0.7818609E-02  0.9040180E-01
       -2   -1    0    0    0  501  0.00000000000E+00  0.00000000000E+00  0.59353387392E+03  0.59353387392E+03  0.25500000920E-02 0.  1.
        2   -1    0    0  501    0  0.00000000000E+00  0.00000000000E+00 -0.69734629538E+03  0.69734629539E+03  0.25500000920E-02 0. -1.
    10030    2    1    2    0    0  0.00000000000E+00  0.00000000000E+00 -0.10381242146E+03  0.12908801693E+04  0.12866991073E+04 0.  0.
        2    1    3    3  502    0 -0.52534232091E+03  0.15753308908E+03 -0.38929859720E+03  0.67257313810E+03  0.25500000920E-02 0. -1.
       -2    1    3    3    0  502  0.52534232091E+03 -0.15753308908E+03  0.28548617574E+03  0.61830703121E+03  0.25500000920E-02 0.  1.
</event>
<event>
 5   0  0.2312105E-03  0.1267556E+04  0.7818609E-02  0.9055697E-01
       -2   -1    0    0    0  501  0.00000000000E+00  0.00000000000E+00  0.20946978915E+03  0.20946978916E+03  0.25500000920E-02 0.  1.
        2   -1    0    0  501    0  0.00000000000E+00  0.00000000000E+00 -0.19175762581E+04  0.19175762581E+04  0.25500000920E-02 0. -1.
    10030    2    1    2    0    0  0.00000000000E+00  0.00000000000E+00 -0.17081064689E+04  0.21270460472E+04  0.12675555916E+04 0.  0.
        5    1    3    3  502    0 -0.35053830829E+02  0.26429207822E+03 -0.18188673570E+04  0.18383089038E+04  0.46999998093E+01 0. -1.
       -5    1    3    3    0  502  0.35053830829E+02 -0.26429207822E+03  0.11076088804E+03  0.28873714341E+03  0.46999998093E+01 0.  1.
</event>
<event>
 5   0  0.2361043E-03  0.1312330E+04  0.7818609E-02  0.9019844E-01
       -2   -1    0    0    0  501  0.00000000000E+00  0.00000000000E+00  0.49677427744E+03  0.49677427745E+03  0.25500000920E-02 0.  1.
        2   -1    0    0  501    0  0.00000000000E+00  0.00000000000E+00 -0.86669595468E+03  0.86669595468E+03  0.25500000920E-02 0. -1.
    10030    2    1    2    0    0  0.00000000000E+00  0.00000000000E+00 -0.36992167724E+03  0.13634702321E+04  0.13123296181E+04 0.  0.
        2    1    3    3  502    0  0.20164638378E+03  0.60470301858E+03 -0.34667083994E+03  0.72560848675E+03  0.25500000920E-02 0.  1.
       -2    1    3    3    0  502 -0.20164638378E+03 -0.60470301858E+03 -0.23250837300E+02  0.63786174538E+03  0.25500000920E-02 0. -1.
</event>
<event>
 5   0  0.2401211E-03  0.1294474E+04  0.7818609E-02  0.9033959E-01
       -2   -1    0    0    0  501  0.00000000000E+00  0.00000000000E+00  0.30879631593E+03  0.30879631594E+03  0.25500000920E-02 0. -1.
        2   -1    0    0  501    0  0.00000000000E+00  0.00000000000E+00 -0.13566079515E+04  0.13566079515E+04  0.25500000920E-02 0.  1.
    10030    2    1    2    0    0  0.00000000000E+00  0.00000000000E+00 -0.10478116356E+04  0.16654042675E+04  0.12944736963E+04 0.  0.
        4    1    3    3  502    0 -0.28679818414E+03 -0.57683751823E+03 -0.60444836672E+03  0.88337656851E+03  0.12699999809E+01 0. -1.
       -4    1    3    3    0  502  0.28679818414E+03  0.57683751823E+03 -0.44336326888E+03  0.78202769897E+03  0.12699999809E+01 0.  1.
</event>
<event>
 5   0  0.2334946E-03  0.1322529E+04  0.7818609E-02  0.9011887E-01
       -2   -1    0    0    0  501  0.00000000000E+00  0.00000000000E+00  0.20550006526E+03  0.20550006527E+03  0.25500000920E-02 0. -1.
        2   -1    0    0  501    0  0.00000000000E+00  0.00000000000E+00 -0.21278389846E+04  0.21278389846E+04  0.25500000920E-02 0.  1.
    10030    2    1    2    0    0  0.00000000000E+00  0.00000000000E+00 -0.19223389193E+04  0.23333390499E+04  0.13225294707E+04 0.  0.
        1    1    3    3  502    0 -0.33318618511E+03  0.49338804504E+03 -0.14689271371E+04  0.15849895050E+04  0.50400001928E-02 0.  1.
       -1    1    3    3    0  502  0.33318618511E+03 -0.49338804504E+03 -0.45341178222E+03  0.74834954481E+03  0.50400001928E-02 0. -1.
</event>
<event>
 5   0  0.1324721E-03  0.1245601E+04  0.7818609E-02  0.9073853E-01
        1   -1    0    0  501    0  0.00000000000E+00  0.00000000000E+00  0.46015609471E+03  0.46015609474E+03  0.50400001928E-02 0. -1.
       -1   -1    0    0    0  501  0.00000000000E+00  0.00000000000E+00 -0.84293170823E+03  0.84293170824E+03  0.50400001928E-02 0.  1.
    10030    2    1    2    0    0  0.00000000000E+00  0.00000000000E+00 -0.38277561352E+03  0.13030878030E+04  0.12456005186E+04 0.  0.
        1    1    3    3  502    0  0.31273202794E+02  0.40921204809E+03 -0.68146034394E+03  0.79550029158E+03  0.50400001928E-02 0.  1.
       -1    1    3    3    0  502 -0.31273202794E+02 -0.40921204809E+03  0.29868473042E+03  0.50758751140E+03  0.50400001928E-02 0. -1.
</event>
<event>
 5   0  0.1332630E-03  0.1657216E+04  0.7818609E-02  0.8786149E-01
        1   -1    0    0  501    0  0.00000000000E+00  0.00000000000E+00  0.19791022893E+04  0.19791022893E+04  0.50400001928E-02 0.  1.
       -1   -1    0    0    0  501  0.00000000000E+00  0.00000000000E+00 -0.34692073443E+03  0.34692073447E+03  0.50400001928E-02 0. -1.
    10030    2    1    2    0    0  0.00000000000E+00  0.00000000000E+00  0.16321815548E+04  0.23260230237E+04  0.16572164853E+04 0.  0.
        5    1    3    3  502    0  0.74627055046E+03 -0.20584231920E+03  0.12307477625E+04  0.14539783148E+04  0.46999998093E+01 0. -1.
       -5    1    3    3    0  502 -0.74627055046E+03  0.20584231920E+03  0.40143379232E+03  0.87204470898E+03  0.46999998093E+01 0.  1.
</event>
<event>
 5   0  0.1346593E-03  0.1279597E+04  0.7818609E-02  0.9045904E-01
       -1   -1    0    0    0  501  0.00000000000E+00  0.00000000000E+00  0.28334774961E+03  0.28334774966E+03  0.50400001928E-02 0. -1.
        1   -1    0    0  501    0  0.00000000000E+00  0.00000000000E+00 -0.14446622733E+04  0.14446622733E+04  0.50400001928E-02 0.  1.
    10030    2    1    2    0    0  0.00000000000E+00  0.00000000000E+00 -0.11613145237E+04  0.17280100229E+04  0.12795965053E+04 0.  0.
        2    1    3    3  502    0  0.56820572134E+02 -0.17546131538E+03 -0.14079855180E+04  0.14200135456E+04  0.25500000920E-02 0.  1.
       -2    1    3    3    0  502 -0.56820572134E+02  0.17546131538E+03  0.24667099436E+03  0.30799647738E+03  0.25500000920E-02 0. -1.
</event>
<event>
 5   0  0.1332630E-03  0.1291228E+04  0.7818609E-02  0.9036550E-01
        1   -1    0    0  501    0  0.00000000000E+00  0.00000000000E+00  0.41953847796E+03  0.41953847799E+03  0.50400001928E-02 0. -1.
       -1   -1    0    0    0  501  0.00000000000E+00  0.00000000000E+00 -0.99351429655E+03  0.99351429656E+03  0.50400001928E-02 0.  1.
    10030    2    1    2    0    0  0.00000000000E+00  0.00000000000E+00 -0.57397581859E+03  0.14130527746E+04  0.12912280602E+04 0.  0.
        5    1    3    3  502    0 -0.20199099490E+03 -0.59908005776E+03 -0.43008455627E+03  0.76465161555E+03  0.46999998093E+01 0. -1.
       -5    1    3    3    0  502  0.20199099490E+03  0.59908005776E+03 -0.14389126231E+03  0.64840115900E+03  0.46999998093E+01 0.  1.
</event>
<event>
 5   0  0.2334946E-03  0.1294292E+04  0.7818609E-02  0.9034104E-01
       -2   -1    0    0    0  501  0.00000000000E+00  0.00000000000E+00  0.68551319109E+03  0.68551319109E+03  0.25500000920E-02 0. -1.
        2   -1    0    0  501    0  0.00000000000E+00  0.00000000000E+00 -0.61092617137E+03  0.61092617138E+03  0.25500000920E-02 0.  1.
    10030    2    1    2    0    0  0.00000000000E+00  0.00000000000E+00  0.74587019711E+02  0.12964393625E+04  0.12942920061E+04 0.  0.
        1    1    3    3  502    0  0.34875344055E+03  0.47515024991E+03 -0.23035989784E+03  0.63282098958E+03  0.50400001928E-02 0. -1.
       -1    1    3    3    0  502 -0.34875344055E+03 -0.47515024991E+03  0.30494691755E+03  0.66361837289E+03  0.50400001928E-02 0.  1.
</event>
<event>
 5   0  0.2401211E-03  0.1300657E+04  0.7818609E-02  0.9029044E-01
       -2   -1    0    0    0  501  0.00000000000E+00  0.00000000000E+00  0.71785958065E+03  0.71785958065E+03  0.25500000920E-02 0. -1.
        2   -1    0    0  501    0  0.00000000000E+00  0.00000000000E+00 -0.58915025642E+03  0.58915025643E+03  0.25500000920E-02 0.  1.
    10030    2    1    2    0    0  0.00000000000E+00  0.00000000000E+00  0.12870932423E+03  0.13070098371E+04  0.13006569971E+04 0.  0.
        4    1    3    3  502    0  0.95685659542E+02 -0.39007509825E+03 -0.44962301094E+03  0.60289036531E+03  0.12699999809E+01 0.  1.
       -4    1    3    3    0  502 -0.95685659542E+02  0.39007509825E+03  0.57833233517E+03  0.70411947176E+03  0.12699999809E+01 0. -1.
</event>
<event>
 5   0  0.1310461E-03  0.1317980E+04  0.7818609E-02  0.9015427E-01
       -1   -1    0    0    0  501  0.00000000000E+00  0.00000000000E+00  0.88963310959E+03  0.88963310961E+03  0.50400001928E-02 0. -1.
        1   -1    0    0  501    0  0.00000000000E+00  0.00000000000E+00 -0.48814248549E+03  0.48814248552E+03  0.50400001928E-02 0.  1.
    10030    2    1    2    0    0  0.00000000000E+00  0.00000000000E+00  0.40149062410E+03  0.13777755951E+04  0.13179798440E+04 0.  0.
        4    1    3    3  502    0 -0.38344725307E+03  0.40165686450E+03  0.57167624871E+03  0.79697890745E+03  0.12699999809E+01 0. -1.
       -4    1    3    3    0  502  0.38344725307E+03 -0.40165686450E+03 -0.17018562461E+03  0.58079668767E+03  0.12699999809E+01 0.  1.
</event>
<event>
 5   0  0.1346593E-03  0.1274414E+04  0.7818609E-02  0.9050105E-01
       -1   -1    0    0    0  501  0.00000000000E+00  0.00000000000E+00  0.70303348782E+03  0.70303348784E+03  0.50400001928E-02 0.  1.
        1   -1    0    0  501    0  0.00000000000E+00  0.00000000000E+00 -0.57754399108E+03  0.57754399110E+03  0.50400001928E-02 0. -1.
    10030    2    1    2    0    0  0.00000000000E+00  0.00000000000E+00  0.12548949674E+03  0.12805774789E+04  0.12744140088E+04 0.  0.
        2    1    3    3  502    0  0.17889562373E+03  0.60849864360E+03  0.12434804143E+03  0.64632552082E+03  0.25500000920E-02 0.  1.
       -2    1    3    3    0  502 -0.17889562373E+03 -0.60849864360E+03  0.11414553117E+01  0.63425195812E+03  0.25500000920E-02 0. -1.
</event>
<event>
 5   0  0.1346593E-03  0.1308274E+04  0.7818609E-02  0.9023029E-01
       -1   -1    0    0    0  501  0.00000000000E+00  0.00000000000E+00  0.55444379833E+03  0.55444379836E+03  0.50400001928E-02 0.  1.
        1   -1    0    0  501    0  0.00000000000E+00  0.00000000000E+00 -0.77175597978E+03  0.77175597980E+03  0.50400001928E-02 0. -1.
    10030    2    1    2    0    0  0.00000000000E+00  0.00000000000E+00 -0.21731218145E+03  0.13261997782E+04  0.13082741560E+04 0.  0.
        2    1    3    3  502    0  0.52363591617E+03  0.38419128404E+02  0.28684963305E+03  0.59829199737E+03  0.25500000920E-02 0.  1.
       -2    1    3    3    0  502 -0.52363591617E+03 -0.38419128404E+02 -0.50416181450E+03  0.72790778079E+03  0.25500000920E-02 0. -1.
</event>
<event>
 5   0  0.2361043E-03  0.1288118E+04  0.7818609E-02  0.9039041E-01
        2   -1    0    0  501    0  0.00000000000E+00  0.00000000000E+00  0.12657312364E+04  0.12657312364E+04  0.25500000920E-02 0.  1.
       -2   -1    0    0    0  501  0.00000000000E+00  0.00000000000E+00 -0.32772516396E+03  0.32772516397E+03  0.25500000920E-02 0. -1.
    10030    2    1    2    0    0  0.00000000000E+00  0.00000000000E+00  0.93800607244E+03  0.15934564004E+04  0.12881179713E+04 0.  0.
        2    1    3    3  502    0 -0.60005410057E+03 -0.97048875698E+02  0.20563046087E+03  0.64169096482E+03  0.25500000920E-02 0. -1.
       -2    1    3    3    0  502  0.60005410057E+03  0.97048875698E+02  0.73237561157E+03  0.95176543555E+03  0.25500000920E-02 0.  1.
</event>
<event>
 5   0  0.1324721E-03  0.1302069E+04  0.7818609E-02  0.9027926E-01
       -1   -1    0    0    0  501  0.00000000000E+00  0.00000000000E+00  0.87114148005E+03  0.87114148007E+03  0.50400001928E-02 0. -1.
        1   -1    0    0  501    0  0.00000000000E+00  0.00000000000E+00 -0.48654065282E+03  0.48654065284E+03  0.50400001928E-02 0.  1.
    10030    2    1    2    0    0  0.00000000000E+00  0.00000000000E+00  0.38460082724E+03  0.13576821329E+04  0.13020687300E+04 0.  0.
        1    1    3    3  502    0 -0.58651668448E+03  0.23885360095E+02 -0.10128060383E+03  0.59567616398E+03  0.50400001928E-02 0. -1.
       -1    1    3    3    0  502  0.58651668448E+03 -0.23885360095E+02  0.48588143107E+03  0.76200596893E+03  0.50400001928E-02 0.  1.
</event>
<event>
 5   0  0.1346593E-03  0.1298822E+04  0.7818609E-02  0.9030500E-01
       -1   -1    0    0    0  501  0.00000000000E+00  0.00000000000E+00  0.76026654128E+03  0.76026654130E+03  0.50400001928E-02 0. -1.
        1   -1    0    0  501    0  0.00000000000E+00  0.00000000000E+00 -0.55471947921E+03  0.55471947924E+03  0.50400001928E-02 0.  1.
    10030    2    1    2    0    0  0.00000000000E+00  0.00000000000E+00  0.20554706207E+03  0.13149860205E+04  0.12988220199E+04 0.  0.
        2    1    3    3  502    0 -0.26469895379E+03  0.42632002930E+03  0.52011755396E+03  0.72272856140E+03  0.25500000920E-02 0. -1.
       -2    1    3    3    0  502  0.26469895379E+03 -0.42632002930E+03 -0.31457049189E+03  0.59225745913E+03  0.25500000920E-02 0.  1.
</event>
<event>
 5   0  0.1387622E-03  0.1325962E+04  0.7818609E-02  0.9009227E-01
        1   -1    0    0  501    0  0.00000000000E+00  0.00000000000E+00  0.31611386142E+03  0.31611386146E+03  0.50400001928E-02 0.  1.
       -1   -1    0    0    0  501  0.00000000000E+00  0.00000000000E+00 -0.13904602514E+04  0.13904602514E+04  0.50400001928E-02 0. -1.
    10030    2    1    2    0    0  0.00000000000E+00  0.00000000000E+00 -0.10743463900E+04  0.17065741129E+04  0.13259619290E+04 0.  0.
        3    1    3    3  502    0 -0.13621137083E+03 -0.10887344267E+01 -0.13722558944E+04  0.13789999901E+04  0.10100000352E+00 0. -1.
       -3    1    3    3    0  502  0.13621137083E+03  0.10887344267E+01  0.29790950440E+03  0.32757412275E+03  0.10100000352E+00 0.  1.
</event>
<event>
 5   0  0.1310461E-03  0.1312875E+04  0.7818609E-02  0.9019417E-01
        1   -1    0    0  501    0  0.00000000000E+00  0.00000000000E+00  0.36190750548E+03  0.36190750552E+03  0.50400001928E-02 0.  1.
       -1   -1    0    0    0  501  0.00000000000E+00  0.00000000000E+00 -0.11906644397E+04  0.11906644398E+04  0.50400001928E-02 0. -1.
    10030    2    1    2    0    0  0.00000000000E+00  0.00000000000E+00 -0.82875693426E+03  0.15525719453E+04  0.13128753136E+04 0.  0.
        4    1    3    3  502    0  0.53954923071E+03 -0.37103884841E+03 -0.35985700544E+03  0.74718262604E+03  0.12699999809E+01 0.  1.
       -4    1    3    3    0  502 -0.53954923071E+03  0.37103884841E+03 -0.46889992882E+03  0.80538931924E+03  0.12699999809E+01 0. -1.
</event>
<event>
 5   0  0.2401211E-03  0.1294819E+04  0.7818609E-02  0.9033684E-01
       -2   -1    0    0    0  501  0.00000000000E+00  0.00000000000E+00  0.33917445408E+03  0.33917445409E+03  0.25500000920E-02 0. -1.
        2   -1    0    0  501    0  0.00000000000E+00  0.00000000000E+00 -0.12357616319E+04  0.12357616319E+04  0.25500000920E-02 0.  1.
    10030    2    1    2    0    0  0.00000000000E+00  0.00000000000E+00 -0.89658717783E+03  0.15749360860E+04  0.12948185616E+04 0.  0.
        4    1    3    3  502    0 -0.39706999260E+03 -0.27657504106E+03 -0.97143010215E+03  0.10852817093E+04  0.12699999809E+01 0.  1.
       -4    1    3    3    0  502  0.39706999260E+03  0.27657504106E+03  0.74842924319E+02  0.48965437666E+03  0.12699999809E+01 0. -1.
</event>
<event>
 5   0  0.2361043E-03  0.1328474E+04  0.7818609E-02  0.9007285E-01
       -2   -1    0    0    0  501  0.00000000000E+00  0.00000000000E+00  0.98843958343E+03  0.98843958343E+03  0.25500000920E-02 0.  1.
        2   -1    0    0  501    0  0.00000000000E+00  0.00000000000E+00 -0.44637125490E+03  0.44637125491E+03  0.25500000920E-02 0. -1.
    10030    2    1    2    0    0  0.00000000000E+00  0.00000000000E+00  0.54206832852E+03  0.14348108383E+04  0.13284743389E+04 0.  0.
        2    1    3    3  502    0  0.30027524773E+03  0.50366957508E+03  0.60804037076E+03  0.84472561092E+03  0.25500000920E-02 0.  1.
       -2    1    3    3    0  502 -0.30027524773E+03 -0.50366957508E+03 -0.65972042237E+02  0.59008522742E+03  0.25500000920E-02 0. -1.
</event>
<event>
 5   0  0.2312105E-03  0.1289752E+04  0.7818609E-02  0.9037731E-01
       -2   -1    0    0    0  501  0.00000000000E+00  0.00000000000E+00  0.32896140533E+03  0.32896140534E+03  0.25500000920E-02 0.  1.
        2   -1    0    0  501    0  0.00000000000E+00  0.00000000000E+00 -0.12641762757E+04  0.12641762757E+04  0.25500000920E-02 0. -1.
    10030    2    1    2    0    0  0.00000000000E+00  0.00000000000E+00 -0.93521487038E+03  0.15931376811E+04  0.12897522309E+04 0.  0.
        5    1    3    3  502    0  0.41352268478E+03  0.39432314332E+03 -0.83683797109E+03  0.10133171429E+04  0.46999998093E+01 0. -1.
       -5    1    3    3    0  502 -0.41352268478E+03 -0.39432314332E+03 -0.98376899292E+02  0.57982053818E+03  0.46999998093E+01 0.  1.
</event>
<event>
 5   0  0.2478236E-03  0.1331212E+04  0.7818609E-02  0.9005174E-01
        2   -1    0    0  501    0  0.00000000000E+00  0.00000000000E+00  0.10778859148E+04  0.10778859148E+04  0.25500000920E-02 0.  1.
       -2   -1    0    0    0  501  0.00000000000E+00  0.00000000000E+00 -0.41101861234E+03  0.41101861235E+03  0.25500000920E-02 0. -1.
    10030    2    1    2    0    0  0.00000000000E+00  0.00000000000E+00  0.66686730247E+03  0.14889045272E+04  0.13312117382E+04 0.  0.
        3    1    3    3  502    0 -0.12701131014E+03  0.61025174579E+03  0.72345916016E+02  0.62751335278E+03  0.10100000352E+00 0. -1.
       -3    1    3    3    0  502  0.12701131014E+03 -0.61025174579E+03  0.59452138645E+03  0.86139117438E+03  0.10100000352E+00 0.  1.
</event>
<event>
 5   0  0.2334946E-03  0.1302816E+04  0.7818609E-02  0.9027335E-01
        2   -1    0    0  501    0  0.00000000000E+00  0.00000000000E+00  0.14248378842E+04  0.14248378842E+04  0.25500000920E-02 0.  1.
       -2   -1    0    0    0  501  0.00000000000E+00  0.00000000000E+00 -0.29781120119E+03  0.29781120120E+03  0.25500000920E-02 0. -1.
    10030    2    1    2    0    0  0.00000000000E+00  0.00000000000E+00  0.11270266830E+04  0.17226490854E+04  0.13028164595E+04 0.  0.
        1    1    3    3  502    0  0.20270956313E+03  0.61886449806E+03  0.58434655721E+03  0.87495447475E+03  0.50400001928E-02 0.  1.
       -1    1    3    3    0  502 -0.20270956313E+03 -0.61886449806E+03  0.54268012577E+03  0.84769461062E+03  0.50400001928E-02 0. -1.
</event>
<event>
 5   0  0.1387622E-03  0.1298520E+04  0.7818609E-02  0.9030740E-01
       -1   -1    0    0    0  501  0.00000000000E+00  0.00000000000E+00  0.12947707492E+04  0.12947707492E+04  0.50400001928E-02 0.  1.
        1   -1    0    0  501    0  0.00000000000E+00  0.00000000000E+00 -0.32556995178E+03  0.32556995182E+03  0.50400001928E-02 0. -1.
    10030    2    1    2    0    0  0.00000000000E+00  0.00000000000E+00  0.96920079738E+03  0.16203407010E+04  0.12985198503E+04 0.  0.
        3    1    3    3  502    0 -0.23027304228E+03  0.60311686510E+03  0.39848327337E+03  0.75865971049E+03  0.10100000352E+00 0.  1.
       -3    1    3    3    0  502  0.23027304228E+03 -0.60311686510E+03  0.57071752401E+03  0.86168099049E+03  0.10100000352E+00 0. -1.
</event>
<event>
 5   0  0.1387622E-03  0.1337899E+04  0.7818609E-02  0.9000039E-01
       -1   -1    0    0    0  501  0.00000000000E+00  0.00000000000E+00  0.37873974529E+03  0.37873974532E+03  0.50400001928E-02 0. -1.
        1   -1    0    0  501    0  0.00000000000E+00  0.00000000000E+00 -0.11815336252E+04  0.11815336252E+04  0.50400001928E-02 0.  1.
    10030    2    1    2    0    0  0.00000000000E+00  0.00000000000E+00 -0.80279387992E+03  0.15602733705E+04  0.13378994645E+04 0.  0.
        3    1    3    3  502    0 -0.15840536589E+02 -0.13377057259E+03 -0.11655530019E+04  0.11733112542E+04  0.10100000352E+00 0.  1.
       -3    1    3    3    0  502  0.15840536589E+02  0.13377057259E+03  0.36275912201E+03  0.38696211635E+03  0.10100000352E+00 0. -1.
</event>
<event>
 5   0  0.2312105E-03  0.1315200E+04  0.7818609E-02  0.9017597E-01
       -2   -1    0    0    0  501  0.00000000000E+00  0.00000000000E+00  0.24466884679E+03  0.24466884681E+03  0.25500000920E-02 0.  1.
        2   -1    0    0  501    0  0.00000000000E+00  0.00000000000E+00 -0.17674417009E+04  0.17674417009E+04  0.25500000920E-02 0. -1.
    10030    2    1    2    0    0  0.00000000000E+00  0.00000000000E+00 -0.15227728541E+04  0.20121105477E+04  0.13152002475E+04 0.  0.
        5    1    3    3  502    0  0.27310963453E+03 -0.41640659061E+03 -0.10436626653E+03  0.50881993747E+03  0.46999998093E+01 0.  1.
       -5    1    3    3    0  502 -0.27310963453E+03  0.41640659061E+03 -0.14184065876E+04  0.15032906102E+04  0.46999998093E+01 0. -1.
</event>
<event>
 5   0  0.1310461E-03  0.1383995E+04  0.7818609E-02  0.8965486E-01
        1   -1    0    0  501    0  0.00000000000E+00  0.00000000000E+00  0.16318184691E+04  0.16318184692E+04  0.50400001928E-02 0. -1.
       -1   -1    0    0    0  501  0.00000000000E+00  0.00000000000E+00 -0.29345195894E+03  0.29345195898E+03  0.50400001928E-02 0.  1.
    10030    2    1    2    0    0  0.00000000000E+00  0.00000000000E+00  0.13383665102E+04  0.19252704281E+04  0.13839946914E+04 0.  0.
        4    1    3    3  502    0  0.14719538013E+03 -0.35221528491E+03  0.14720962886E+04  0.15207863699E+04  0.12699999809E+01 0. -1.
       -4    1    3    3    0  502 -0.14719538013E+03  0.35221528491E+03 -0.13372977842E+03  0.40448405827E+03  0.12699999809E+01 0.  1.
</event>
<event>
 5   0  0.2334946E-03  0.1309580E+04  0.7818609E-02  0.9022003E-01
       -2   -1    0    0    0  501  0.00000000000E+00  0.00000000000E+00  0.77023703851E+03  0.77023703852E+03  0.25500000920E-02 0.  1.
        2   -1    0    0  501    0  0.00000000000E+00  0.00000000000E+00 -0.55664662384E+03  0.55664662384E+03  0.25500000920E-02 0. -1.
    10030    2    1    2    0    0  0.00000000000E+00  0.00000000000E+00  0.21359041467E+03  0.13268836624E+04  0.13095798518E+04 0.  0.
        1    1    3    3  502    0 -0.23394762814E+03 -0.10453225009E+03  0.71732775488E+03  0.76172015331E+03  0.50400001928E-02 0.  1.
       -1    1    3    3    0  502  0.23394762814E+03  0.10453225009E+03 -0.50373734020E+03  0.56516350905E+03  0.50400001928E-02 0. -1.
</event>
<event>
 5   0  0.2478236E-03  0.1303343E+04  0.7818609E-02  0.9026918E-01
       -2   -1    0    0    0  501  0.00000000000E+00  0.00000000000E+00  0.53525783676E+03  0.53525783677E+03  0.25500000920E-02 0. -1.
        2   -1    0    0  501    0  0.00000000000E+00  0.00000000000E+00 -0.79340432413E+03  0.79340432413E+03  0.25500000920E-02 0.  1.
    10030    2    1    2    0    0  0.00000000000E+00  0.00000000000E+00 -0.25814648737E+03  0.13286621609E+04  0.13033432122E+04 0.  0.
        3    1    3    3  502    0 -0.59142199456E+03  0.16003971810E+02 -0.40758332266E+03  0.71844295381E+03  0.10100000352E+00 0.  1.
       -3    1    3    3    0  502  0.59142199456E+03 -0.16003971810E+02  0.14943683530E+03  0.61021920709E+03  0.10100000352E+00 0. -1.
</event>
<event>
 5   0  0.1324721E-03  0.1317616E+04  0.7818609E-02  0.9015711E-01
       -1   -1    0    0    0  501  0.00000000000E+00  0.00000000000E+00  0.52525221999E+03  0.52525222001E+03  0.50400001928E-02 0.  1.
        1   -1    0    0  501    0  0.00000000000E+00  0.00000000000E+00 -0.82632307134E+03  0.82632307136E+03  0.50400001928E-02 0. -1.
    10030    2    1    2    0    0  0.00000000000E+00  0.00000000000E+00 -0.30107085136E+03  0.13515752914E+04  0.13176160711E+04 0.  0.
        1    1    3    3  502    0 -0.14396191533E+03  0.14996356315E+03 -0.79179870966E+03  0.81863257936E+03  0.50400001928E-02 0. -1.
       -1    1    3    3    0  502  0.14396191533E+03 -0.14996356315E+03  0.49072785831E+03  0.53294271201E+03  0.50400001928E-02 0.  1.
</event>
<event>
 5   0  0.2478236E-03  0.1290465E+04  0.7818609E-02  0.9037161E-01
       -2   -1    0    0    0  501  0.00000000000E+00  0.00000000000E+00  0.45365959418E+03  0.45365959418E+03  0.25500000920E-02 0. -1.
        2   -1    0    0  501    0  0.00000000000E+00  0.00000000000E+00 -0.91770329481E+03  0.91770329481E+03  0.25500000920E-02 0.  1.
    10030    2    1    2    0    0  0.00000000000E+00  0.00000000000E+00 -0.46404370064E+03  0.13713628890E+04  0.12904648841E+04 0.  0.
        3    1    3    3  502    0 -0.33099109148E+03  0.40054241736E+03  0.17449742573E+03  0.54812288086E+03  0.10100000352E+00 0. -1.
       -3    1    3    3    0  502  0.33099109148E+03 -0.40054241736E+03 -0.63854112636E+03  0.82324000814E+03  0.10100000352E+00 0.  1.
</event>
<event>
 5   0  0.2334946E-03  0.1301312E+04  0.7818609E-02  0.9028526E-01
       -2   -1    0    0    0  501  0.00000000000E+00  0.00000000000E+00  0.41607746684E+03  0.41607746684E+03  0.25500000920E-02 0.  1.
        2   -1    0    0  501    0  0.00000000000E+00  0.00000000000E+00 -0.10174860135E+04  0.10174860135E+04  0.25500000920E-02 0. -1.
    10030    2    1    2    0    0  0.00000000000E+00  0.00000000000E+00 -0.60140854664E+03  0.14335634803E+04  0.13013116507E+04 0.  0.
        1    1    3    3  502    0  0.51185716928E+03 -0.34418503390E+03 -0.72552802954E+02  0.62106763605E+03  0.50400001928E-02 0.  1.
       -1    1    3    3    0  502 -0.51185716928E+03  0.34418503390E+03 -0.52885574368E+03  0.81249584427E+03  0.50400001928E-02 0. -1.
</event>
<event>
 5   0  0.1346593E-03  0.1199851E+04  0.7818609E-02  0.9112987E-01
       -1   -1    0    0    0  501  0.00000000000E+00  0.00000000000E+00  0.19324425786E+03  0.19324425792E+03  0.50400001928E-02 0. -1.
        1   -1    0    0  501    0  0.00000000000E+00  0.00000000000E+00 -0.18624644123E+04  0.18624644123E+04  0.50400001928E-02 0.  1.
    10030    2    1    2    0    0  0.00000000000E+00  0.00000000000E+00 -0.16692201545E+04  0.20557086703E+04  0.11998509128E+04 0.  0.
        2    1    3    3  502    0  0.34279967642E+03  0.33671150076E+02  0.69431953248E+01  0.34451933541E+03  0.25500000920E-02 0. -1.
       -2    1    3    3    0  502 -0.34279967642E+03 -0.33671150076E+02 -0.16761633498E+04  0.17111893349E+04  0.25500000920E-02 0.  1.
</event>
<event>
 5   0  0.2401211E-03  0.1294945E+04  0.7818609E-02  0.9033584E-01
        2   -1    0    0  501    0  0.00000000000E+00  0.00000000000E+00  0.12700117065E+04  0.12700117065E+04  0.25500000920E-02 0. -1.
       -2   -1    0    0    0  501  0.00000000000E+00  0.00000000000E+00 -0.33009170390E+03  0.33009170391E+03  0.25500000920E-02 0.  1.
    10030    2    1    2    0    0  0.00000000000E+00  0.00000000000E+00  0.93992000264E+03  0.16001034104E+04  0.12949445211E+04 0.  0.
        4    1    3    3  502    0 -0.38076761680E+03  0.19664630903E+03  0.10696851204E+04  0.11523374587E+04  0.12699999809E+01 0. -1.
       -4    1    3    3    0  502  0.38076761680E+03 -0.19664630903E+03 -0.12976511781E+03  0.44776595177E+03  0.12699999809E+01 0.  1.
</event>
<event>
 5   0  0.2361043E-03  0.1318455E+04  0.7818609E-02  0.9015057E-01
       -2   -1    0    0    0  501  0.00000000000E+00  0.00000000000E+00  0.77637817570E+03  0.77637817570E+03  0.25500000920E-02 0.  1.
        2   -1    0    0  501    0  0.00000000000E+00  0.00000000000E+00 -0.55975411373E+03  0.55975411374E+03  0.25500000920E-02 0. -1.
    10030    2    1    2    0    0  0.00000000000E+00  0.00000000000E+00  0.21662406196E+03  0.13361322894E+04  0.13184549710E+04 0.  0.
        2    1    3    3  502    0  0.56784877612E+03 -0.27168925404E+03 -0.90050940712E+02  0.63590601132E+03  0.25500000920E-02 0. -1.
       -2    1    3    3    0  502 -0.56784877612E+03  0.27168925404E+03  0.30667500267E+03  0.70022627812E+03  0.25500000920E-02 0.  1.
</event>
<event>
 5   0  0.1387622E-03  0.1322712E+04  0.7818609E-02  0.9011746E-01
        1   -1    0    0  501    0  0.00000000000E+00  0.00000000000E+00  0.91266022893E+03  0.91266022895E+03  0.50400001928E-02 0.  1.
       -1   -1    0    0    0  501  0.00000000000E+00  0.00000000000E+00 -0.47924916905E+03  0.47924916908E+03  0.50400001928E-02 0. -1.
    10030    2    1    2    0    0  0.00000000000E+00  0.00000000000E+00  0.43341105988E+03  0.13919093980E+04  0.13227118452E+04 0.  0.
        3    1    3    3  502    0 -0.52150963809E+03 -0.27840090365E+03  0.52871695507E+03  0.79310843808E+03  0.10100000352E+00 0.  1.
       -3    1    3    3    0  502  0.52150963809E+03  0.27840090365E+03 -0.95305895197E+02  0.59880095995E+03  0.10100000352E+00 0. -1.
</event>
<event>
 5   0  0.1310461E-03  0.1269040E+04  0.7818609E-02  0.9054484E-01
        1   -1    0    0  501    0  0.00000000000E+00  0.00000000000E+00  0.37690155520E+03  0.37690155524E+03  0.50400001928E-02 0. -1.
       -1   -1    0    0    0  501  0.00000000000E+00  0.00000000000E+00 -0.10682248937E+04  0.10682248937E+04  0.50400001928E-02 0.  1.
    10030    2    1    2    0    0  0.00000000000E+00  0.00000000000E+00 -0.69132333853E+03  0.14451264490E+04  0.12690399896E+04 0.  0.
        4    1    3    3  502    0 -0.21476392322E+03 -0.58321808625E+02  0.33100168519E+03  0.39885925409E+03  0.12699999809E+01 0. -1.
       -4    1    3    3    0  502  0.21476392322E+03  0.58321808625E+02 -0.10223250237E+04  0.10462671949E+04  0.12699999809E+01 0.  1.
</event>
<event>
 5   0  0.1332630E-03  0.1263212E+04  0.7818609E-02  0.9059258E-01
        1   -1    0    0  501    0  0.00000000000E+00  0.00000000000E+00  0.55734605425E+03  0.55734605427E+03  0.50400001928E-02 0. -1.
       -1   -1    0    0    0  501  0.00000000000E+00  0.00000000000E+00 -0.71576034471E+03  0.71576034473E+03  0.50400001928E-02 0.  1.
    10030    2    1    2    0    0  0.00000000000E+00  0.00000000000E+00 -0.15841429046E+03  0.12731063990E+04  0.12632121024E+04 0.  0.
        5    1    3    3  502    0 -0.59308813024E+02  0.42864373809E+03 -0.54286616552E+03  0.69424689641E+03  0.46999998093E+01 0.  1.
       -5    1    3    3    0  502  0.59308813024E+02 -0.42864373809E+03  0.38445187505E+03  0.57885950259E+03  0.46999998093E+01 0. -1.
</event>
<event>
 5   0  0.1310461E-03  0.1266093E+04  0.7818609E-02  0.9056895E-01
       -1   -1    0    0    0  501  0.00000000000E+00  0.00000000000E+00  0.40489382084E+03  0.40489382088E+03  0.50400001928E-02 0. -1.
        1   -1    0    0  501    0  0.00000000000E+00  0.00000000000E+00 -0.98976008701E+03  0.98976008702E+03  0.50400001928E-02 0.  1.
    10030    2    1    2    0    0  0.00000000000E+00  0.00000000000E+00 -0.58486626616E+03  0.13946539079E+04  0.12660927981E+04 0.  0.
        4    1    3    3  502    0  0.10226721712E+03 -0.59736941450E+03 -0.91006589012E+02  0.61285611135E+03  0.12699999809E+01 0.  1.
       -4    1    3    3    0  502 -0.10226721712E+03  0.59736941450E+03 -0.49385967715E+03  0.78179779655E+03  0.12699999809E+01 0. -1.
</event>
<event>
 5   0  0.1324721E-03  0.1314087E+04  0.7818609E-02  0.9018468E-01
        1   -1    0    0  501    0  0.00000000000E+00  0.00000000000E+00  0.41064275293E+03  0.41064275296E+03  0.50400001928E-02 0. -1.
       -1   -1    0    0    0  501  0.00000000000E+00  0.00000000000E+00 -0.10512929531E+04  0.10512929531E+04  0.50400001928E-02 0.  1.
    10030    2    1    2    0    0  0.00000000000E+00  0.00000000000E+00 -0.64065020020E+03  0.14619357061E+04  0.13140865001E+04 0.  0.
        1    1    3    3  502    0 -0.51148299579E+03  0.20620001850E+03  0.77033762231E+02  0.55683705261E+03  0.50400001928E-02 0. -1.
       -1    1    3    3    0  502  0.51148299579E+03 -0.20620001850E+03 -0.71768396243E+03  0.90509865350E+03  0.50400001928E-02 0.  1.
</event>
<event>
 5   0  0.2312105E-03  0.1290882E+04  0.7818609E-02  0.9036827E-01
        2   -1    0    0  501    0  0.00000000000E+00  0.00000000000E+00  0.14701135311E+04  0.14701135311E+04  0.25500000920E-02 0.  1.
       -2   -1    0    0    0  501  0.00000000000E+00  0.00000000000E+00 -0.28337534227E+03  0.28337534228E+03  0.25500000920E-02 0. -1.
    10030    2    1    2    0    0  0.00000000000E+00  0.00000000000E+00  0.11867381889E+04  0.17534888734E+04  0.12908817530E+04 0.  0.
        5    1    3    3  502    0  0.77669774576E+02 -0.15338828146E+03  0.14384112256E+04  0.14486578281E+04  0.46999998093E+01 0.  1.
       -5    1    3    3    0  502 -0.77669774576E+02  0.15338828146E+03 -0.25167303677E+03  0.30483104535E+03  0.46999998093E+01 0. -1.
</event>
<event>
 5   0  0.1310461E-03  0.1203654E+04  0.7818609E-02  0.9109664E-01
       -1   -1    0    0    0  501  0.00000000000E+00  0.00000000000E+00  0.42279630157E+03  0.42279630160E+03  0.50400001928E-02 0.  1.
        1   -1    0    0  501    0  0.00000000000E+00  0.00000000000E+00 -0.85666702269E+03  0.85666702271E+03  0.50400001928E-02 0. -1.
    10030    2    1    2    0    0  0.00000000000E+00  0.00000000000E+00 -0.43387072113E+03  0.12794633243E+04  0.12036538521E+04 0.  0.
        4    1    3    3  502    0  0.11053036487E+03 -0.82608358620E+02  0.40575205575E+03  0.42857606807E+03  0.12699999809E+01 0.  1.
       -4    1    3    3    0  502 -0.11053036487E+03  0.82608358620E+02 -0.83962277688E+03  0.85088725624E+03  0.12699999809E+01 0. -1.
</event>
<event>
 5   0  0.2312105E-03  0.1108421E+04  0.7818609E-02  0.9197023E-01
       -2   -1    0    0    0  501  0.00000000000E+00  0.00000000000E+00  0.13424745278E+03  0.13424745281E+03  0.25500000920E-02 0.  1.
        2   -1    0    0  501    0  0.00000000000E+00  0.00000000000E+00 -0.22879321658E+04  0.22879321658E+04  0.25500000920E-02 0. -1.
    10030    2    1    2    0    0  0.00000000000E+00  0.00000000000E+00 -0.21536847130E+04  0.24221796186E+04  0.11084206159E+04 0.  0.
        5    1    3    3  502    0  0.39530257973E+03 -0.21279162924E+03 -0.36677775601E+03  0.57973478360E+03  0.46999998093E+01 0.  1.
       -5    1    3    3    0  502 -0.39530257973E+03  0.21279162924E+03 -0.17869069570E+04  0.18424448350E+04  0.46999998093E+01 0. -1.
</event>
<event>
 5   0  0.2478236E-03  0.1301722E+04  0.7818609E-02  0.9028201E-01
        2   -1    0    0  501    0  0.00000000000E+00  0.00000000000E+00  0.10073459447E+04  0.10073459447E+04  0.25500000920E-02 0. -1.
       -2   -1    0    0    0  501  0.00000000000E+00  0.00000000000E+00 -0.42053054896E+03  0.42053054896E+03  0.25500000920E-02 0.  1.
    10030    2    1    2    0    0  0.00000000000E+00  0.00000000000E+00  0.58681539570E+03  0.14278764936E+04  0.13017215418E+04 0.  0.
        3    1    3    3  502    0  0.42221413909E+03  0.17100597040E+03 -0.21652387763E+03  0.50437131257E+03  0.10100000352E+00 0.  1.
       -3    1    3    3    0  502 -0.42221413909E+03 -0.17100597040E+03  0.80333927333E+03  0.92350518105E+03  0.10100000352E+00 0. -1.
</event>
<event>
 5   0  0.2478236E-03  0.1292010E+04  0.7818609E-02  0.9035926E-01
        2   -1    0    0  501    0  0.00000000000E+00  0.00000000000E+00  0.11292998127E+04  0.11292998127E+04  0.25500000920E-02 0.  1.
       -2   -1    0    0    0  501  0.00000000000E+00  0.00000000000E+00 -0.36954064117E+03  0.36954064118E+03  0.25500000920E-02 0. -1.
    10030    2    1    2    0    0  0.00000000000E+00  0.00000000000E+00  0.75975917153E+03  0.14988404539E+04  0.12920095617E+04 0.  0.
        3    1    3    3  502    0  0.54851132637E+03 -0.26391302802E+03  0.63086412034E+03  0.87664377602E+03  0.10100000352E+00 0. -1.
       -3    1    3    3    0  502 -0.54851132637E+03  0.26391302802E+03  0.12889505120E+03  0.62219667786E+03  0.10100000352E+00 0.  1.
</event>
<event>
 5   0  0.1332630E-03  0.1311571E+04  0.7818609E-02  0.9020439E-01
        1   -1    0    0  501    0  0.00000000000E+00  0.00000000000E+00  0.66738558050E+03  0.66738558052E+03  0.50400001928E-02 0. -1.
       -1   -1    0    0    0  501  0.00000000000E+00  0.00000000000E+00 -0.64438751335E+03  0.64438751337E+03  0.50400001928E-02 0.  1.
    10030    2    1    2    0    0  0.00000000000E+00  0.00000000000E+00  0.22998067146E+02  0.13117730939E+04  0.13115714768E+04 0.  0.
        5    1    3    3  502    0  0.55703076913E+03 -0.31647902344E+03  0.15148695490E+03  0.65834082172E+03  0.46999998093E+01 0. -1.
       -5    1    3    3    0  502 -0.55703076913E+03  0.31647902344E+03 -0.12848888775E+03  0.65343227217E+03  0.46999998093E+01 0.  1.
</event>
<event>
 5   0  0.2312105E-03  0.1302484E+04  0.7818609E-02  0.9027598E-01
        2   -1    0    0  501    0  0.00000000000E+00  0.00000000000E+00  0.15215260997E+04  0.15215260997E+04  0.25500000920E-02 0. -1.
       -2   -1    0    0    0  501  0.00000000000E+00  0.00000000000E+00 -0.27874395675E+03  0.27874395676E+03  0.25500000920E-02 0.  1.
    10030    2    1    2    0    0  0.00000000000E+00  0.00000000000E+00  0.12427821430E+04  0.18002700565E+04  0.13024840964E+04 0.  0.
        5    1    3    3  502    0  0.23426897132E+03 -0.94262367015E+02 -0.20829441573E+03  0.32737745552E+03  0.46999998093E+01 0.  1.
       -5    1    3    3    0  502 -0.23426897132E+03  0.94262367015E+02  0.14510765587E+04  0.14728926010E+04  0.46999998093E+01 0. -1.
</event>
<event>
 5   0  0.2478236E-03  0.1284195E+04  0.7818609E-02  0.9042193E-01
        2   -1    0    0  501    0  0.00000000000E+00  0.00000000000E+00  0.88647019778E+03  0.88647019779E+03  0.25500000920E-02 0. -1.
       -2   -1    0    0    0  501  0.00000000000E+00  0.00000000000E+00 -0.46509109888E+03  0.46509109889E+03  0.25500000920E-02 0.  1.
    10030    2    1    2    0    0  0.00000000000E+00  0.00000000000E+00  0.42137909890E+03  0.13515612967E+04  0.12841953098E+04 0.  0.
        3    1    3    3  502    0 -0.95058777457E+02 -0.61223950340E+03  0.38810285876E+03  0.73109316771E+03  0.10100000352E+00 0. -1.
       -3    1    3    3    0  502  0.95058777457E+02  0.61223950340E+03  0.33276240147E+02  0.62046812896E+03  0.10100000352E+00 0.  1.
</event>
<event>
 5   0  0.1324721E-03  0.1303481E+04  0.7818609E-02  0.9026810E-01
       -1   -1    0    0    0  501  0.00000000000E+00  0.00000000000E+00  0.87080556987E+03  0.87080556988E+03  0.50400001928E-02 0. -1.
        1   -1    0    0  501    0  0.00000000000E+00  0.00000000000E+00 -0.48778448995E+03  0.48778448997E+03  0.50400001928E-02 0.  1.
    10030    2    1    2    0    0  0.00000000000E+00  0.00000000000E+00  0.38302107992E+03  0.13585900599E+04  0.13034806493E+04 0.  0.
        1    1    3    3  502    0  0.40800389975E+03 -0.34600288384E+03 -0.19649198391E+03  0.56990725351E+03  0.50400001928E-02 0.  1.
       -1    1    3    3    0  502 -0.40800389975E+03  0.34600288384E+03  0.57951306384E+03  0.78868280634E+03  0.50400001928E-02 0. -1.
</event>
<event>
 5   0  0.1387622E-03  0.1300744E+04  0.7818609E-02  0.9028976E-01
        1   -1    0    0  501    0  0.00000000000E+00  0.00000000000E+00  0.89399740978E+03  0.89399740980E+03  0.50400001928E-02 0. -1.
       -1   -1    0    0    0  501  0.00000000000E+00  0.00000000000E+00 -0.47313727110E+03  0.47313727113E+03  0.50400001928E-02 0.  1.
    10030    2    1    2    0    0  0.00000000000E+00  0.00000000000E+00  0.42086013868E+03  0.13671346809E+04  0.13007436256E+04 0.  0.
        3    1    3    3  502    0 -0.41622969298E+02 -0.58332872165E+03 -0.88661910844E+02  0.59149455933E+03  0.10100000352E+00 0. -1.
       -3    1    3    3    0  502  0.41622969298E+02  0.58332872165E+03  0.50952204953E+03  0.77564012160E+03  0.10100000352E+00 0.  1.
</event>
<event>
 5   0  0.1310461E-03  0.1336396E+04  0.7818609E-02  0.9001191E-01
        1   -1    0    0  501    0  0.00000000000E+00  0.00000000000E+00  0.83328911042E+03  0.83328911043E+03  0.50400001928E-02 0. -1.
       -1   -1    0    0    0  501  0.00000000000E+00  0.00000000000E+00 -0.53581470409E+03  0.53581470411E+03  0.50400001928E-02 0.  1.
    10030    2    1    2    0    0  0.00000000000E+00  0.00000000000E+00  0.29747440633E+03  0.13691038145E+04  0.13363959864E+04 0.  0.
        4    1    3    3  502    0 -0.22840374772E+03 -0.18371964888E+03  0.76390481434E+03  0.81821351714E+03  0.12699999809E+01 0. -1.
       -4    1    3    3    0  502  0.22840374772E+03  0.18371964888E+03 -0.46643040801E+03  0.55089029740E+03  0.12699999809E+01 0.  1.
</event>
<event>
 5   0  0.2334946E-03  0.1309050E+04  0.7818609E-02  0.9022419E-01
        2   -1    0    0  501    0  0.00000000000E+00  0.00000000000E+00  0.82095715032E+03  0.82095715032E+03  0.25500000920E-02 0. -1.
       -2   -1    0    0    0  501  0.00000000000E+00  0.00000000000E+00 -0.52183384806E+03  0.52183384806E+03  0.25500000920E-02 0.  1.
    10030    2    1    2    0    0  0.00000000000E+00  0.00000000000E+00  0.29912330226E+03  0.13427909984E+04  0.13090503869E+04 0.  0.
        1    1    3    3  502    0  0.25444132132E+03 -0.54964862895E+03 -0.10492403573E+03  0.61470566502E+03  0.50400001928E-02 0.  1.
       -1    1    3    3    0  502 -0.25444132132E+03  0.54964862895E+03  0.40404733799E+03  0.72808533337E+03  0.50400001928E-02 0. -1.
</event>
<event>
 5   0  0.2312105E-03  0.1332934E+04  0.7818609E-02  0.9003848E-01
        2   -1    0    0  501    0  0.00000000000E+00  0.00000000000E+00  0.11241639305E+04  0.11241639305E+04  0.25500000920E-02 0.  1.
       -2   -1    0    0    0  501  0.00000000000E+00  0.00000000000E+00 -0.39511883098E+03  0.39511883099E+03  0.25500000920E-02 0. -1.
    10030    2    1    2    0    0  0.00000000000E+00  0.00000000000E+00  0.72904509956E+03  0.15192827615E+04  0.13329341140E+04 0.  0.
        5    1    3    3  502    0  0.55749184105E+02 -0.94822892144E+02 -0.38468198524E+03  0.40012707003E+03  0.46999998093E+01 0. -1.
       -5    1    3    3    0  502 -0.55749184105E+02  0.94822892144E+02  0.11137270848E+04  0.11191556915E+04  0.46999998093E+01 0.  1.
</event>
<event>
 5   0  0.2361043E-03  0.1362672E+04  0.7818609E-02  0.8981291E-01
       -2   -1    0    0    0  501  0.00000000000E+00  0.00000000000E+00  0.34437690139E+03  0.34437690140E+03  0.25500000920E-02 0. -1.
        2   -1    0    0  501    0  0.00000000000E+00  0.00000000000E+00 -0.13479960828E+04  0.13479960828E+04  0.25500000920E-02 0.  1.
    10030    2    1    2    0    0  0.00000000000E+00  0.00000000000E+00 -0.10036191815E+04  0.16923729843E+04  0.13626719548E+04 0.  0.
        2    1    3    3  502    0 -0.40453424291E+03  0.21327809413E+03  0.12544768456E+03  0.47420736043E+03  0.25500000920E-02 0. -1.
       -2    1    3    3    0  502  0.40453424291E+03 -0.21327809413E+03 -0.11290668660E+04  0.12181656238E+04  0.25500000920E-02 0.  1.
</event>
<event>
 5   0  0.2478236E-03  0.1271296E+04  0.7818609E-02  0.9052643E-01
       -2   -1    0    0    0  501  0.00000000000E+00  0.00000000000E+00  0.20627671617E+03  0.20627671619E+03  0.25500000920E-02 0.  1.
        2   -1    0    0  501    0  0.00000000000E+00  0.00000000000E+00 -0.19587689484E+04  0.19587689484E+04  0.25500000920E-02 0. -1.
    10030    2    1    2    0    0  0.00000000000E+00  0.00000000000E+00 -0.17524922322E+04  0.21650456646E+04  0.12712960732E+04 0.  0.
        3    1    3    3  502    0 -0.63139652231E+03 -0.14223720763E+02 -0.75362219411E+03  0.98326512410E+03  0.10100000352E+00 0.  1.
       -3    1    3    3    0  502  0.63139652231E+03  0.14223720763E+02 -0.99887003809E+03  0.11817805405E+04  0.10100000352E+00 0. -1.
</event>
<event>
 5   0  0.1346593E-03  0.1306472E+04  0.7818609E-02  0.9024448E-01
        1   -1    0    0  501    0  0.00000000000E+00  0.00000000000E+00  0.72601290547E+03  0.72601290549E+03  0.50400001928E-02 0.  1.
       -1   -1    0    0    0  501  0.00000000000E+00  0.00000000000E+00 -0.58775438917E+03  0.58775438919E+03  0.50400001928E-02 0. -1.
    10030    2    1    2    0    0  0.00000000000E+00  0.00000000000E+00  0.13825851630E+03  0.13137672947E+04  0.13064720002E+04 0.  0.
        2    1    3    3  502    0 -0.13239776243E+03 -0.42561948445E+03  0.54932709357E+03  0.70741880720E+03  0.25500000920E-02 0.  1.
       -2    1    3    3    0  502  0.13239776243E+03  0.42561948445E+03 -0.41106857727E+03  0.60634848748E+03  0.25500000920E-02 0. -1.
</event>
<event>
 5   0  0.1324721E-03  0.1310472E+04  0.7818609E-02  0.9021302E-01
        1   -1    0    0  501    0  0.00000000000E+00  0.00000000000E+00  0.11094632904E+04  0.11094632904E+04  0.50400001928E-02 0. -1.
       -1   -1    0    0    0  501  0.00000000000E+00  0.00000000000E+00 -0.38697463575E+03  0.38697463578E+03  0.50400001928E-02 0.  1.
    10030    2    1    2    0    0  0.00000000000E+00  0.00000000000E+00  0.72248865464E+03  0.14964379262E+04  0.13104719039E+04 0.  0.
        1    1    3    3  502    0 -0.47970166438E+03  0.41662851474E+03  0.17839232812E+03  0.65993698855E+03  0.50400001928E-02 0.  1.
       -1    1    3    3    0  502  0.47970166438E+03 -0.41662851474E+03  0.54409632652E+03  0.83650093763E+03  0.50400001928E-02 0. -1.
</event>
<event>
 5   0  0.2478236E-03  0.1293436E+04  0.7818609E-02  0.9034787E-01
       -2   -1    0    0    0  501  0.00000000000E+00  0.00000000000E+00  0.25262321844E+03  0.25262321845E+03  0.25500000920E-02 0. -1.
        2   -1    0    0  501    0  0.00000000000E+00  0.00000000000E+00 -0.16556040873E+04  0.16556040873E+04  0.25500000920E-02 0.  1.
    10030    2    1    2    0    0  0.00000000000E+00  0.00000000000E+00 -0.14029808689E+04  0.19082273058E+04  0.12934357858E+04 0.  0.
        3    1    3    3  502    0  0.18921416334E+03 -0.61245418800E+03 -0.82790269404E+03  0.10470554011E+04  0.10100000352E+00 0. -1.
       -3    1    3    3    0  502 -0.18921416334E+03  0.61245418800E+03 -0.57507817485E+03  0.86117190467E+03  0.10100000352E+00 0.  1.
</event>
<event>
 5   0  0.2312105E-03  0.1352377E+04  0.7818609E-02  0.8989030E-01
        2   -1    0    0  501    0  0.00000000000E+00  0.00000000000E+00  0.75275841074E+03  0.75275841074E+03  0.25500000920E-02 0.  1.
       -2   -1    0    0    0  501  0.00000000000E+00  0.00000000000E+00 -0.60740747191E+03  0.60740747192E+03  0.25500000920E-02 0. -1.
    10030    2    1    2    0    0  0.00000000000E+00  0.00000000000E+00  0.14535093883E+03  0.13601658827E+04  0.13523772894E+04 0.  0.
        5    1    3    3  502    0 -0.21060651085E+03 -0.64139690450E+03  0.11115679013E+03  0.68419515747E+03  0.46999998093E+01 0.  1.
       -5    1    3    3    0  502  0.21060651085E+03  0.64139690450E+03  0.34194148698E+02  0.67597072519E+03  0.46999998093E+01 0. -1.
</event>
<event>
 5   0  0.1387622E-03  0.1310186E+04  0.7818609E-02  0.9021527E-01
       -1   -1    0    0    0  501  0.00000000000E+00  0.00000000000E+00  0.72541528840E+03  0.72541528841E+03  0.50400001928E-02 0. -1.
        1   -1    0    0  501    0  0.00000000000E+00  0.00000000000E+00 -0.59158755272E+03  0.59158755275E+03  0.50400001928E-02 0.  1.
    10030    2    1    2    0    0  0.00000000000E+00  0.00000000000E+00  0.13382773567E+03  0.13170028412E+04  0.13101857200E+04 0.  0.
        3    1    3    3  502    0  0.64235351606E+03 -0.83936935668E+02  0.16480226537E+03  0.66844838666E+03  0.10100000352E+00 0.  1.
       -3    1    3    3    0  502 -0.64235351606E+03  0.83936935668E+02 -0.30974529697E+02  0.64855445450E+03  0.10100000352E+00 0. -1.
</event>
<event>
 5   0  0.1346593E-03  0.1312194E+04  0.7818609E-02  0.9019950E-01
        1   -1    0    0  501    0  0.00000000000E+00  0.00000000000E+00  0.75557598643E+03  0.75557598645E+03  0.50400001928E-02 0.  1.
       -1   -1    0    0    0  501  0.00000000000E+00  0.00000000000E+00 -0.56971568029E+03  0.56971568031E+03  0.50400001928E-02 0. -1.
    10030    2    1    2    0    0  0.00000000000E+00  0.00000000000E+00  0.18586030614E+03  0.13252916668E+04  0.13121943258E+04 0.  0.
        2    1    3    3  502    0 -0.32947644050E+03  0.10687158637E+03  0.65570565061E+03  0.74157006484E+03  0.25500000920E-02 0.  1.
       -2    1    3    3    0  502  0.32947644050E+03 -0.10687158637E+03 -0.46984534447E+03  0.58372160192E+03  0.25500000920E-02 0. -1.
</event>
<event>
 5   0  0.1346593E-03  0.1313931E+04  0.7818609E-02  0.9018590E-01
       -1   -1    0    0    0  501  0.00000000000E+00  0.00000000000E+00  0.28703453250E+03  0.28703453255E+03  0.50400001928E-02 0. -1.
        1   -1    0    0  501    0  0.00000000000E+00  0.00000000000E+00 -0.15036654267E+04  0.15036654267E+04  0.50400001928E-02 0.  1.
    10030    2    1    2    0    0  0.00000000000E+00  0.00000000000E+00 -0.12166308942E+04  0.17906999593E+04  0.13139313572E+04 0.  0.
        2    1    3    3  502    0  0.52457737623E+03  0.39507588573E+03 -0.58327729434E+03  0.87833864838E+03  0.25500000920E-02 0.  1.
       -2    1    3    3    0  502 -0.52457737623E+03 -0.39507588573E+03 -0.63335359988E+03  0.91236131090E+03  0.25500000920E-02 0. -1.
</event>
<event>
 5   0  0.2401211E-03  0.1295805E+04  0.7818609E-02  0.9032898E-01
        2   -1    0    0  501    0  0.00000000000E+00  0.00000000000E+00  0.24573350540E+04  0.24573350540E+04  0.25500000920E-02 0.  1.
       -2   -1    0    0    0  501  0.00000000000E+00  0.00000000000E+00 -0.17082640682E+03  0.17082640684E+03  0.25500000920E-02 0. -1.
    10030    2    1    2    0    0  0.00000000000E+00  0.00000000000E+00  0.22865086472E+04  0.26281614609E+04  0.12958051052E+04 0.  0.
        4    1    3    3  502    0 -0.15776876830E+03 -0.48080150047E+03  0.19639018071E+04  0.20280465941E+04  0.12699999809E+01 0. -1.
       -4    1    3    3    0  502  0.15776876830E+03  0.48080150047E+03  0.32260684011E+03  0.60011486675E+03  0.12699999809E+01 0.  1.
</event>
<event>
 5   0  0.1332630E-03  0.1294911E+04  0.7818609E-02  0.9033611E-01
       -1   -1    0    0    0  501  0.00000000000E+00  0.00000000000E+00  0.50269322889E+03  0.50269322892E+03  0.50400001928E-02 0. -1.
        1   -1    0    0  501    0  0.00000000000E+00  0.00000000000E+00 -0.83390547374E+03  0.83390547375E+03  0.50400001928E-02 0.  1.
    10030    2    1    2    0    0  0.00000000000E+00  0.00000000000E+00 -0.33121224484E+03  0.13365987027E+04  0.12949110166E+04 0.  0.
        5    1    3    3  502    0  0.20139433609E+03 -0.41207915155E+03 -0.63727182936E+03  0.78517920263E+03  0.46999998093E+01 0. -1.
       -5    1    3    3    0  502 -0.20139433609E+03  0.41207915155E+03  0.30605958451E+03  0.55141950004E+03  0.46999998093E+01 0.  1.
</event>
<event>
 5   0  0.2312105E-03  0.1298947E+04  0.7818609E-02  0.9030401E-01
        2   -1    0    0  501    0  0.00000000000E+00  0.00000000000E+00  0.31284453136E+03  0.31284453137E+03  0.25500000920E-02 0.  1.
       -2   -1    0    0    0  501  0.00000000000E+00  0.00000000000E+00 -0.13483243055E+04  0.13483243055E+04  0.25500000920E-02 0. -1.
    10030    2    1    2    0    0  0.00000000000E+00  0.00000000000E+00 -0.10354797742E+04  0.16611688369E+04  0.12989470898E+04 0.  0.
        5    1    3    3  502    0 -0.59682069010E+03 -0.25576076159E+03 -0.53514796739E+03  0.84143564240E+03  0.46999998093E+01 0. -1.
       -5    1    3    3    0  502  0.59682069010E+03  0.25576076159E+03 -0.50033180679E+03  0.81973319452E+03  0.46999998093E+01 0.  1.
</event>
<event>
 5   0  0.1346593E-03  0.1312050E+04  0.7818609E-02  0.9020064E-01
       -1   -1    0    0    0  501  0.00000000000E+00  0.00000000000E+00  0.25936831101E+03  0.25936831106E+03  0.50400001928E-02 0.  1.
        1   -1    0    0  501    0  0.00000000000E+00  0.00000000000E+00 -0.16592954822E+04  0.16592954822E+04  0.50400001928E-02 0. -1.
    10030    2    1    2    0    0  0.00000000000E+00  0.00000000000E+00 -0.13999271712E+04  0.19186637932E+04  0.13120497959E+04 0.  0.
        2    1    3    3  502    0 -0.19130737770E+03 -0.29806896903E+03 -0.15074683798E+04  0.15485168837E+04  0.25500000920E-02 0. -1.
       -2    1    3    3    0  502  0.19130737770E+03  0.29806896903E+03  0.10754120864E+03  0.37014690951E+03  0.25500000920E-02 0.  1.
</event>
<event>
 5   0  0.2334946E-03  0.1284323E+04  0.7818609E-02  0.9042090E-01
        2   -1    0    0  501    0  0.00000000000E+00  0.00000000000E+00  0.14804292939E+04  0.14804292939E+04  0.25500000920E-02 0.  1.
       -2   -1    0    0    0  501  0.00000000000E+00  0.00000000000E+00 -0.27854858837E+03  0.27854858838E+03  0.25500000920E-02 0. -1.
    10030    2    1    2    0    0  0.00000000000E+00  0.00000000000E+00  0.12018807055E+04  0.17589778823E+04  0.12843231525E+04 0.  0.
        1    1    3    3  502    0  0.46115045955E+03  0.44683827470E+03  0.61035959913E+03  0.88592495752E+03  0.50400001928E-02 0.  1.
       -1    1    3    3    0  502 -0.46115045955E+03 -0.44683827470E+03  0.59152110638E+03  0.87305292474E+03  0.50400001928E-02 0. -1.
</event>
<event>
 5   0  0.1332630E-03  0.1298429E+04  0.7818609E-02  0.9030812E-01
       -1   -1    0    0    0  501  0.00000000000E+00  0.00000000000E+00  0.12234326317E+04  0.12234326317E+04  0.50400001928E-02 0.  1.
        1   -1    0    0  501    0  0.00000000000E+00  0.00000000000E+00 -0.34450582605E+03  0.34450582609E+03  0.50400001928E-02 0. -1.
    10030    2    1    2    0    0  0.00000000000E+00  0.00000000000E+00  0.87892680563E+03  0.15679384578E+04  0.12984293118E+04 0.  0.
        5    1    3    3  502    0  0.10960781310E+03  0.62131673319E+03  0.62422180942E+03  0.88753778117E+03  0.46999998093E+01 0.  1.
       -5    1    3    3    0  502 -0.10960781310E+03 -0.62131673319E+03  0.25470499621E+03  0.68040067661E+03  0.46999998093E+01 0. -1.
</event>
<event>
 5   0  0.9131250E-04  0.1242479E+04  0.7818609E-02  0.9076466E-01
       -4   -1    0    0    0  501  0.00000000000E+00  0.00000000000E+00  0.73977504956E+03  0.73977613968E+03  0.12699999809E+01 0. -1.
        4   -1    0    0  501    0  0.00000000000E+00  0.00000000000E+00 -0.52169521235E+03  0.52169675818E+03  0.12699999809E+01 0.  1.
    10030    2    1    2    0    0  0.00000000000E+00  0.00000000000E+00  0.21807983720E+03  0.12614728979E+04  0.12424793989E+04 0.  0.
        1    1    3    3  502    0  0.39178232504E+03 -0.27444441901E+03 -0.29341037670E+03  0.56116198956E+03  0.50400001928E-02 0.  1.
       -1    1    3    3    0  502 -0.39178232504E+03  0.27444441901E+03  0.51149021390E+03  0.70031090830E+03  0.50400001928E-02 0. -1.
</event>
<event>
 5   0  0.2361043E-03  0.1197659E+04  0.7818609E-02  0.9114908E-01
       -2   -1    0    0    0  501  0.00000000000E+00  0.00000000000E+00  0.24965787957E+03  0.24965787958E+03  0.25500000920E-02 0.  1.
        2   -1    0    0  501    0  0.00000000000E+00  0.00000000000E+00 -0.14363532483E+04  0.14363532483E+04  0.25500000920E-02 0. -1.
    10030    2    1    2    0    0  0.00000000000E+00  0.00000000000E+00 -0.11866953688E+04  0.16860111279E+04  0.11976592275E+04 0.  0.
        2    1    3    3  502    0  0.23202040774E+03  0.41369091732E+03 -0.78749551730E+02  0.48080675597E+03  0.25500000920E-02 0.  1.
       -2    1    3    3    0  502 -0.23202040774E+03 -0.41369091732E+03 -0.11079458170E+04  0.12052043720E+04  0.25500000920E-02 0. -1.
</event>
<event>
 5   0  0.2361043E-03  0.1303159E+04  0.7818609E-02  0.9027064E-01
        2   -1    0    0  501    0  0.00000000000E+00  0.00000000000E+00  0.58582580766E+03  0.58582580767E+03  0.25500000920E-02 0.  1.
       -2   -1    0    0    0  501  0.00000000000E+00  0.00000000000E+00 -0.72471369499E+03  0.72471369499E+03  0.25500000920E-02 0. -1.
    10030    2    1    2    0    0  0.00000000000E+00  0.00000000000E+00 -0.13888788732E+03  0.13105395027E+04  0.13031592162E+04 0.  0.
        2    1    3    3  502    0 -0.52633809033E+03 -0.35427623448E+03  0.79762580873E+02  0.63945719556E+03  0.25500000920E-02 0.  1.
       -2    1    3    3    0  502  0.52633809033E+03  0.35427623448E+03 -0.21865046820E+03  0.67108230709E+03  0.25500000920E-02 0. -1.
</event>
<event>
 5   0  0.2401211E-03  0.1304868E+04  0.7818609E-02  0.9025714E-01
        2   -1    0    0  501    0  0.00000000000E+00  0.00000000000E+00  0.10050727939E+04  0.10050727939E+04  0.25500000920E-02 0. -1.
       -2   -1    0    0    0  501  0.00000000000E+00  0.00000000000E+00 -0.42352166809E+03  0.42352166810E+03  0.25500000920E-02 0.  1.
    10030    2    1    2    0    0  0.00000000000E+00  0.00000000000E+00  0.58155112584E+03  0.14285944620E+04  0.13048679722E+04 0.  0.
        4    1    3    3  502    0  0.50954532716E+03 -0.30714475983E+03  0.58392174949E+03  0.83363095333E+03  0.12699999809E+01 0. -1.
       -4    1    3    3    0  502 -0.50954532716E+03  0.30714475983E+03 -0.23706236464E+01  0.59496350870E+03  0.12699999809E+01 0.  1.
</event>
<event>
 5   0  0.2361043E-03  0.1293319E+04  0.7818609E-02  0.9034880E-01
       -2   -1    0    0    0  501  0.00000000000E+00  0.00000000000E+00  0.66838731786E+03  0.66838731786E+03  0.25500000920E-02 0.  1.
        2   -1    0    0  501    0  0.00000000000E+00  0.00000000000E+00 -0.62563756094E+03  0.62563756094E+03  0.25500000920E-02 0. -1.
    10030    2    1    2    0    0  0.00000000000E+00  0.00000000000E+00  0.42749756919E+02  0.12940248788E+04  0.12933185397E+04 0.  0.
        2    1    3    3  502    0  0.35641819960E+03  0.68991560351E+02  0.55680679018E+03  0.66470111328E+03  0.25500000920E-02 0.  1.
       -2    1    3    3    0  502 -0.35641819960E+03 -0.68991560351E+02 -0.51405703326E+03  0.62932376552E+03  0.25500000920E-02 0. -1.
</event>
<event>
 5   0  0.2361043E-03  0.1289507E+04  0.7818609E-02  0.9037928E-01
        2   -1    0    0  501    0  0.00000000000E+00  0.00000000000E+00  0.57737260057E+03  0.57737260057E+03  0.25500000920E-02 0.  1.
       -2   -1    0    0    0  501  0.00000000000E+00  0.00000000000E+00 -0.71999765741E+03  0.71999765741E+03  0.25500000920E-02 0. -1.
    10030    2    1    2    0    0  0.00000000000E+00  0.00000000000E+00 -0.14262505684E+03  0.12973702580E+04  0.12895067582E+04 0.  0.
        2    1    3    3  502    0 -0.18403581547E+03 -0.35174903316E+03  0.43983119238E+03  0.59249307296E+03  0.25500000920E-02 0.  1.
       -2    1    3    3    0  502  0.18403581547E+03  0.35174903316E+03 -0.58245624922E+03  0.70487718502E+03  0.25500000920E-02 0. -1.
</event>
<event>
 5   0  0.2478236E-03  0.1283328E+04  0.7818609E-02  0.9042892E-01
       -2   -1    0    0    0  501  0.00000000000E+00  0.00000000000E+00  0.87842182961E+03  0.87842182962E+03  0.25500000920E-02 0. -1.
        2   -1    0    0  501    0  0.00000000000E+00  0.00000000000E+00 -0.46871860807E+03  0.46871860807E+03  0.25500000920E-02 0.  1.
    10030    2    1    2    0    0  0.00000000000E+00  0.00000000000E+00  0.40970322155E+03  0.13471404377E+04  0.12833279507E+04 0.  0.
        3    1    3    3  502    0 -0.46241265216E+02  0.41704573297E+02 -0.46553939551E+03  0.46968549585E+03  0.10100000352E+00 0.  1.
       -3    1    3    3    0  502  0.46241265216E+02 -0.41704573297E+02  0.87524261706E+03  0.87745494184E+03  0.10100000352E+00 0. -1.
</event>
<event>
 5   0  0.1310461E-03  0.1066964E+04  0.7818609E-02  0.9238003E-01
       -1   -1    0    0    0  501  0.00000000000E+00  0.00000000000E+00  0.76325003294E+03  0.76325003296E+03  0.50400001928E-02 0. -1.
        1   -1    0    0  501    0  0.00000000000E+00  0.00000000000E+00 -0.37288280123E+03  0.37288280127E+03  0.50400001928E-02 0.  1.
    10030    2    1    2    0    0  0.00000000000E+00  0.00000000000E+00  0.39036723171E+03  0.11361328342E+04  0.10669635614E+04 0.  0.
        4    1    3    3  502    0 -0.38296148021E+03 -0.16252405193E+03 -0.16042376719E+03  0.44588222745E+03  0.12699999809E+01 0.  1.
       -4    1    3    3    0  502  0.38296148021E+03  0.16252405193E+03  0.55079099889E+03  0.69025060677E+03  0.12699999809E+01 0. -1.
</event>
<event>
 5   0  0.1324721E-03  0.1176462E+04  0.7818609E-02  0.9133712E-01
       -1   -1    0    0    0  501  0.00000000000E+00  0.00000000000E+00  0.41798585033E+03  0.41798585037E+03  0.50400001928E-02 0.  1.
        1   -1    0    0  501    0  0.00000000000E+00  0.00000000000E+00 -0.82781742529E+03  0.82781742531E+03  0.50400001928E-02 0. -1.
    10030    2    1    2    0    0  0.00000000000E+00  0.00000000000E+00 -0.40983157496E+03  0.12458032757E+04  0.11764624439E+04 0.  0.
        1    1    3    3  502    0 -0.29308620622E+03  0.42689850185E+03  0.90591342199E+02  0.52568873534E+03  0.50400001928E-02 0.  1.
       -1    1    3    3    0  502  0.29308620622E+03 -0.42689850185E+03 -0.50042291716E+03  0.72011454033E+03  0.50400001928E-02 0. -1.
</event>
<event>
 5   0  0.1387622E-03  0.1312122E+04  0.7818609E-02  0.9020007E-01
       -1   -1    0    0    0  501  0.00000000000E+00  0.00000000000E+00  0.69323764890E+03  0.69323764892E+03  0.50400001928E-02 0. -1.
        1   -1    0    0  501    0  0.00000000000E+00  0.00000000000E+00 -0.62087782783E+03  0.62087782785E+03  0.50400001928E-02 0.  1.
    10030    2    1    2    0    0  0.00000000000E+00  0.00000000000E+00  0.72359821072E+02  0.13141154768E+04  0.13121217712E+04 0.  0.
        3    1    3    3  502    0 -0.18450115756E+03 -0.89694268405E+02 -0.58792835792E+03  0.62269214157E+03  0.10100000352E+00 0.  1.
       -3    1    3    3    0  502  0.18450115756E+03  0.89694268405E+02  0.66028817900E+03  0.69142333519E+03  0.10100000352E+00 0. -1.
</event>
<event>
 5   0  0.9131250E-04  0.1329299E+04  0.7818609E-02  0.9006648E-01
        3   -1    0    0  501    0  0.00000000000E+00  0.00000000000E+00  0.41885675284E+03  0.41885676502E+03  0.10100000352E+00 0.  1.
       -3   -1    0    0    0  501  0.00000000000E+00  0.00000000000E+00 -0.10546771580E+04  0.10546771628E+04  0.10100000352E+00 0. -1.
    10030    2    1    2    0    0  0.00000000000E+00  0.00000000000E+00 -0.63582040513E+03  0.14735339278E+04  0.13292985552E+04 0.  0.
        5    1    3    3  502    0  0.57716122462E+03  0.10597744515E+03  0.28025512141E+02  0.58749792971E+03  0.46999998093E+01 0.  1.
       -5    1    3    3    0  502 -0.57716122462E+03 -0.10597744515E+03 -0.66384591727E+03  0.88603599811E+03  0.46999998093E+01 0. -1.
</event>
<event>
 5   0  0.1346593E-03  0.1303844E+04  0.7818609E-02  0.9026522E-01
       -1   -1    0    0    0  501  0.00000000000E+00  0.00000000000E+00  0.75535984990E+03  0.75535984992E+03  0.50400001928E-02 0.  1.
        1   -1    0    0  501    0  0.00000000000E+00  0.00000000000E+00 -0.56264898069E+03  0.56264898071E+03  0.50400001928E-02 0. -1.
    10030    2    1    2    0    0  0.00000000000E+00  0.00000000000E+00  0.19271086922E+03  0.13180088306E+04  0.13038442386E+04 0.  0.
        2    1    3    3  502    0 -0.14831114170E+03  0.43321770048E+03  0.56543179381E+03  0.72758977742E+03  0.25500000920E-02 0.  1.
       -2    1    3    3    0  502  0.14831114170E+03 -0.43321770048E+03 -0.37272092459E+03  0.59041905321E+03  0.25500000920E-02 0. -1.
</event>
<event>
 5   0  0.1324721E-03  0.1331743E+04  0.7818609E-02  0.9004765E-01
       -1   -1    0    0    0  501  0.00000000000E+00  0.00000000000E+00  0.38693320102E+03  0.38693320105E+03  0.50400001928E-02 0. -1.
        1   -1    0    0  501    0  0.00000000000E+00  0.00000000000E+00 -0.11458949609E+04  0.11458949610E+04  0.50400001928E-02 0.  1.
    10030    2    1    2    0    0  0.00000000000E+00  0.00000000000E+00 -0.75896175992E+03  0.15328281620E+04  0.13317429261E+04 0.  0.
        1    1    3    3  502    0  0.41214510080E+03 -0.42293225766E+03 -0.73358607263E+03  0.94174508476E+03  0.50400001928E-02 0.  1.
       -1    1    3    3    0  502 -0.41214510080E+03  0.42293225766E+03 -0.25375687295E+02  0.59108307725E+03  0.50400001928E-02 0. -1.
</event>
<event>
 5   0  0.2401211E-03  0.1360756E+04  0.7818609E-02  0.8982726E-01
       -2   -1    0    0    0  501  0.00000000000E+00  0.00000000000E+00  0.24792387842E+03  0.24792387843E+03  0.25500000920E-02 0.  1.
        2   -1    0    0  501    0  0.00000000000E+00  0.00000000000E+00 -0.18671624214E+04  0.18671624214E+04  0.25500000920E-02 0. -1.
    10030    2    1    2    0    0  0.00000000000E+00  0.00000000000E+00 -0.16192385430E+04  0.21150862998E+04  0.13607558916E+04 0.  0.
        4    1    3    3  502    0 -0.35065018948E+03  0.47090689578E+03 -0.27522307194E+03  0.64842749179E+03  0.12699999809E+01 0.  1.
       -4    1    3    3    0  502  0.35065018948E+03 -0.47090689578E+03 -0.13440154710E+04  0.14666588080E+04  0.12699999809E+01 0. -1.
</event>
<event>
 5   0  0.2401211E-03  0.1299462E+04  0.7818609E-02  0.9029992E-01
       -2   -1    0    0    0  501  0.00000000000E+00  0.00000000000E+00  0.23649632364E+03  0.23649632365E+03  0.25500000920E-02 0.  1.
        2   -1    0    0  501    0  0.00000000000E+00  0.00000000000E+00 -0.17850190920E+04  0.17850190920E+04  0.25500000920E-02 0. -1.
    10030    2    1    2    0    0  0.00000000000E+00  0.00000000000E+00 -0.15485227684E+04  0.20215154157E+04  0.12994621240E+04 0.  0.
        4    1    3    3  502    0 -0.39166771841E+03  0.44763897193E+03 -0.11810127653E+04  0.13223377086E+04  0.12699999809E+01 0.  1.
       -4    1    3    3    0  502  0.39166771841E+03 -0.44763897193E+03 -0.36751000311E+03  0.69917770711E+03  0.12699999809E+01 0. -1.
</event>
<event>
 5   0  0.2361043E-03  0.1298058E+04  0.7818609E-02  0.9031106E-01
       -2   -1    0    0    0  501  0.00000000000E+00  0.00000000000E+00  0.14297286154E+04  0.14297286154E+04  0.25500000920E-02 0.  1.
        2   -1    0    0  501    0  0.00000000000E+00  0.00000000000E+00 -0.29462860702E+03  0.29462860703E+03  0.25500000920E-02 0. -1.
    10030    2    1    2    0    0  0.00000000000E+00  0.00000000000E+00  0.11351000084E+04  0.17243572224E+04  0.12980584738E+04 0.  0.
        2    1    3    3  502    0 -0.29258087048E+03  0.26705888690E+03 -0.11540774312E+03  0.41260509210E+03  0.25500000920E-02 0. -1.
       -2    1    3    3    0  502  0.29258087048E+03 -0.26705888690E+03  0.12505077515E+04  0.13117521303E+04  0.25500000920E-02 0.  1.
</event>
<event>
 5   0  0.1332630E-03  0.1252319E+04  0.7818609E-02  0.9068255E-01
        1   -1    0    0  501    0  0.00000000000E+00  0.00000000000E+00  0.43592637934E+03  0.43592637937E+03  0.50400001928E-02 0.  1.
       -1   -1    0    0    0  501  0.00000000000E+00  0.00000000000E+00 -0.89940859020E+03  0.89940859021E+03  0.50400001928E-02 0. -1.
    10030    2    1    2    0    0  0.00000000000E+00  0.00000000000E+00 -0.46348221086E+03  0.13353349696E+04  0.12523193367E+04 0.  0.
        5    1    3    3  502    0  0.11490345470E+03  0.14589237970E+03 -0.86934875278E+03  0.88897510332E+03  0.46999998093E+01 0. -1.
       -5    1    3    3    0  502 -0.11490345470E+03 -0.14589237970E+03  0.40586654192E+03  0.44635986626E+03  0.46999998093E+01 0.  1.
</event>
<event>
 5   0  0.1310461E-03  0.1285402E+04  0.7818609E-02  0.9041222E-01
       -1   -1    0    0    0  501  0.00000000000E+00  0.00000000000E+00  0.46629942931E+03  0.46629942934E+03  0.50400001928E-02 0. -1.
        1   -1    0    0  501    0  0.00000000000E+00  0.00000000000E+00 -0.88583584379E+03  0.88583584380E+03  0.50400001928E-02 0.  1.
    10030    2    1    2    0    0  0.00000000000E+00  0.00000000000E+00 -0.41953641448E+03  0.13521352731E+04  0.12854022692E+04 0.  0.
        4    1    3    3  502    0  0.16485383768E+03 -0.26317870972E+03 -0.80167391178E+03  0.85972233586E+03  0.12699999809E+01 0.  1.
       -4    1    3    3    0  502 -0.16485383768E+03  0.26317870972E+03  0.38213749731E+03  0.49241293728E+03  0.12699999809E+01 0. -1.
</event>
<event>
 5   0  0.1387622E-03  0.1317888E+04  0.7818609E-02  0.9015499E-01
        1   -1    0    0  501    0  0.00000000000E+00  0.00000000000E+00  0.47758957895E+03  0.47758957898E+03  0.50400001928E-02 0. -1.
       -1   -1    0    0    0  501  0.00000000000E+00  0.00000000000E+00 -0.90916394033E+03  0.90916394035E+03  0.50400001928E-02 0.  1.
    10030    2    1    2    0    0  0.00000000000E+00  0.00000000000E+00 -0.43157436138E+03  0.13867535193E+04  0.13178880430E+04 0.  0.
        3    1    3    3  502    0  0.32936481894E+03  0.26172112272E+03 -0.74946597904E+03  0.85946401552E+03  0.10100000352E+00 0.  1.
       -3    1    3    3    0  502 -0.32936481894E+03 -0.26172112272E+03  0.31789161766E+03  0.52728950380E+03  0.10100000352E+00 0. -1.
</event>
<event>
 5   0  0.9131250E-04  0.1287185E+04  0.7818609E-02  0.9039790E-01
       -3   -1    0    0    0  501  0.00000000000E+00  0.00000000000E+00  0.36615387521E+03  0.36615388914E+03  0.10100000352E+00 0. -1.
        3   -1    0    0  501    0  0.00000000000E+00  0.00000000000E+00 -0.11312489195E+04  0.11312489240E+04  0.10100000352E+00 0.  1.
    10030    2    1    2    0    0  0.00000000000E+00  0.00000000000E+00 -0.76509504433E+03  0.14974028132E+04  0.12871848189E+04 0.  0.
        3    1    3    3  502    0  0.39771395454E+03 -0.40542892006E+03 -0.30344703190E+02  0.56874406377E+03  0.10100000352E+00 0. -1.
       -3    1    3    3    0  502 -0.39771395454E+03  0.40542892006E+03 -0.73475034114E+03  0.92865874941E+03  0.10100000352E+00 0.  1.
</event>
<event>
 5   0  0.1310461E-03  0.1300819E+04  0.7818609E-02  0.9028916E-01
        1   -1    0    0  501    0  0.00000000000E+00  0.00000000000E+00  0.68763421267E+03  0.68763421269E+03  0.50400001928E-02 0.  1.
       -1   -1    0    0    0  501  0.00000000000E+00  0.00000000000E+00 -0.61520012757E+03  0.61520012759E+03  0.50400001928E-02 0. -1.
    10030    2    1    2    0    0  0.00000000000E+00  0.00000000000E+00  0.72434085103E+02  0.13028343403E+04  0.13008192117E+04 0.  0.
        4    1    3    3  502    0  0.46939565294E+03  0.37830281420E+03  0.28069710003E+03  0.66500960376E+03  0.12699999809E+01 0.  1.
       -4    1    3    3    0  502 -0.46939565294E+03 -0.37830281420E+03 -0.20826301492E+03  0.63782473652E+03  0.12699999809E+01 0. -1.
</event>
<event>
 5   0  0.1346593E-03  0.1307415E+04  0.7818609E-02  0.9023706E-01
        1   -1    0    0  501    0  0.00000000000E+00  0.00000000000E+00  0.94973402440E+03  0.94973402442E+03  0.50400001928E-02 0. -1.
       -1   -1    0    0    0  501  0.00000000000E+00  0.00000000000E+00 -0.44995076697E+03  0.44995076700E+03  0.50400001928E-02 0.  1.
    10030    2    1    2    0    0  0.00000000000E+00  0.00000000000E+00  0.49978325743E+03  0.13996847914E+04  0.13074150875E+04 0.  0.
        2    1    3    3  502    0 -0.36198258157E+02  0.14163364899E+03  0.93201048823E+03  0.94340550910E+03  0.25500000920E-02 0. -1.
       -2    1    3    3    0  502  0.36198258157E+02 -0.14163364899E+03 -0.43222723080E+03  0.45627928231E+03  0.25500000920E-02 0.  1.
</event>
<event>
 5   0  0.2334946E-03  0.1262526E+04  0.7818609E-02  0.9059822E-01
       -2   -1    0    0    0  501  0.00000000000E+00  0.00000000000E+00  0.57967233093E+03  0.57967233093E+03  0.25500000920E-02 0. -1.
        2   -1    0    0  501    0  0.00000000000E+00  0.00000000000E+00 -0.68744522674E+03  0.68744522675E+03  0.25500000920E-02 0.  1.
    10030    2    1    2    0    0  0.00000000000E+00  0.00000000000E+00 -0.10777289581E+03  0.12671175577E+04  0.12625260029E+04 0.  0.
        1    1    3    3  502    0 -0.54221672397E+03 -0.32314594409E+03 -0.62325357549E+02  0.63427653839E+03  0.50400001928E-02 0.  1.
       -1    1    3    3    0  502  0.54221672397E+03  0.32314594409E+03 -0.45447538266E+02  0.63284101929E+03  0.50400001928E-02 0. -1.
</event>
<event>
 5   0  0.2361043E-03  0.1297779E+04  0.7818609E-02  0.9031328E-01
        2   -1    0    0  501    0  0.00000000000E+00  0.00000000000E+00  0.16730886877E+04  0.16730886877E+04  0.25500000920E-02 0.  1.
       -2   -1    0    0    0  501  0.00000000000E+00  0.00000000000E+00 -0.25166495774E+03  0.25166495775E+03  0.25500000920E-02 0. -1.
    10030    2    1    2    0    0  0.00000000000E+00  0.00000000000E+00  0.14214237299E+04  0.19247536454E+04  0.12977793247E+04 0.  0.
        2    1    3    3  502    0  0.59219221417E+03  0.50869571812E+02  0.10968299600E+04  0.12475236643E+04  0.25500000920E-02 0.  1.
       -2    1    3    3    0  502 -0.59219221417E+03 -0.50869571812E+02  0.32459376995E+03  0.67722998114E+03  0.25500000920E-02 0. -1.
</event>
<event>
 5   0  0.2478236E-03  0.1282343E+04  0.7818609E-02  0.9043685E-01
       -2   -1    0    0    0  501  0.00000000000E+00  0.00000000000E+00  0.27911003213E+03  0.27911003214E+03  0.25500000920E-02 0.  1.
        2   -1    0    0  501    0  0.00000000000E+00  0.00000000000E+00 -0.14728996992E+04  0.14728996992E+04  0.25500000920E-02 0. -1.
    10030    2    1    2    0    0  0.00000000000E+00  0.00000000000E+00 -0.11937896671E+04  0.17520097313E+04  0.12823432963E+04 0.  0.
        3    1    3    3  502    0  0.44756022415E+03  0.45746184822E+03 -0.65015387290E+03  0.91229467031E+03  0.10100000352E+00 0. -1.
       -3    1    3    3    0  502 -0.44756022415E+03 -0.45746184822E+03 -0.54363579415E+03  0.83971506102E+03  0.10100000352E+00 0.  1.
</event>
<event>
 5   0  0.2312105E-03  0.1301486E+04  0.7818609E-02  0.9028387E-01
        2   -1    0    0  501    0  0.00000000000E+00  0.00000000000E+00  0.19675857185E+04  0.19675857185E+04  0.25500000920E-02 0.  1.
       -2   -1    0    0    0  501  0.00000000000E+00  0.00000000000E+00 -0.21522148055E+03  0.21522148056E+03  0.25500000920E-02 0. -1.
    10030    2    1    2    0    0  0.00000000000E+00  0.00000000000E+00  0.17523642380E+04  0.21828071991E+04  0.13014863986E+04 0.  0.
        5    1    3    3  502    0 -0.11452987634E+03 -0.51026213794E+03  0.15256588178E+04  0.16128054626E+04  0.46999998093E+01 0.  1.
       -5    1    3    3    0  502  0.11452987634E+03  0.51026213794E+03  0.22670542015E+03  0.57000173642E+03  0.46999998093E+01 0. -1.
</event>
<event>
 5   0  0.1332630E-03  0.1293098E+04  0.7818609E-02  0.9035056E-01
       -1   -1    0    0    0  501  0.00000000000E+00  0.00000000000E+00  0.38436202689E+03  0.38436202692E+03  0.50400001928E-02 0. -1.
        1   -1    0    0  501    0  0.00000000000E+00  0.00000000000E+00 -0.10875834807E+04  0.10875834807E+04  0.50400001928E-02 0.  1.
    10030    2    1    2    0    0  0.00000000000E+00  0.00000000000E+00 -0.70322145378E+03  0.14719455076E+04  0.12930982810E+04 0.  0.
        5    1    3    3  502    0 -0.16512705991E+03  0.25830368884E+03 -0.99956356889E+03  0.10455319985E+04  0.46999998093E+01 0.  1.
       -5    1    3    3    0  502  0.16512705991E+03 -0.25830368884E+03  0.29634211511E+03  0.42641350913E+03  0.46999998093E+01 0. -1.
</event>
<event>
 5   0  0.1346593E-03  0.1343489E+04  0.7818609E-02  0.8995772E-01
       -1   -1    0    0    0  501  0.00000000000E+00  0.00000000000E+00  0.67033840171E+03  0.67033840173E+03  0.50400001928E-02 0.  1.
        1   -1    0    0  501    0  0.00000000000E+00  0.00000000000E+00 -0.67315308428E+03  0.67315308430E+03  0.50400001928E-02 0. -1.
    10030    2    1    2    0    0  0.00000000000E+00  0.00000000000E+00 -0.28146825779E+01  0.13434914860E+04  0.13434885376E+04 0.  0.
        2    1    3    3  502    0 -0.95690212316E+01  0.38000550244E+03 -0.55525385520E+03  0.67290607946E+03  0.25500000920E-02 0. -1.
       -2    1    3    3    0  502  0.95690212316E+01 -0.38000550244E+03  0.55243917262E+03  0.67058540657E+03  0.25500000920E-02 0.  1.
</event>
<event>
 5   0  0.1332630E-03  0.1300921E+04  0.7818609E-02  0.9028835E-01
        1   -1    0    0  501    0  0.00000000000E+00  0.00000000000E+00  0.12887059667E+04  0.12887059667E+04  0.50400001928E-02 0. -1.
       -1   -1    0    0    0  501  0.00000000000E+00  0.00000000000E+00 -0.32831280377E+03  0.32831280381E+03  0.50400001928E-02 0.  1.
    10030    2    1    2    0    0  0.00000000000E+00  0.00000000000E+00  0.96039316291E+03  0.16170187705E+04  0.13009207035E+04 0.  0.
        5    1    3    3  502    0 -0.11740743759E+03 -0.42231595257E+02  0.12736704096E+04  0.12797759243E+04  0.46999998093E+01 0. -1.
       -5    1    3    3    0  502  0.11740743759E+03  0.42231595257E+02 -0.31327724669E+03  0.33724284623E+03  0.46999998093E+01 0.  1.
</event>
<event>
 5   0  0.2361043E-03  0.1261707E+04  0.7818609E-02  0.9060495E-01
       -2   -1    0    0    0  501  0.00000000000E+00  0.00000000000E+00  0.27477989524E+03  0.27477989525E+03  0.25500000920E-02 0.  1.
        2   -1    0    0  501    0  0.00000000000E+00  0.00000000000E+00 -0.14483454882E+04  0.14483454882E+04  0.25500000920E-02 0. -1.
    10030    2    1    2    0    0  0.00000000000E+00  0.00000000000E+00 -0.11735655930E+04  0.17231253835E+04  0.12617071317E+04 0.  0.
        2    1    3    3  502    0  0.54181794498E+03 -0.11574885792E+03 -0.17477349002E+03  0.58095632920E+03  0.25500000920E-02 0.  1.
       -2    1    3    3    0  502 -0.54181794498E+03  0.11574885792E+03 -0.99879210296E+03  0.11421690543E+04  0.25500000920E-02 0. -1.
</event>
<event>
 5   0  0.2334946E-03  0.1339760E+04  0.7818609E-02  0.8998616E-01
        2   -1    0    0  501    0  0.00000000000E+00  0.00000000000E+00  0.12396254982E+04  0.12396254982E+04  0.25500000920E-02 0.  1.
       -2   -1    0    0    0  501  0.00000000000E+00  0.00000000000E+00 -0.36199568419E+03  0.36199568420E+03  0.25500000920E-02 0. -1.
    10030    2    1    2    0    0  0.00000000000E+00  0.00000000000E+00  0.87762981398E+03  0.16016211824E+04  0.13397597999E+04 0.  0.
        1    1    3    3  502    0  0.32231573055E+03  0.13225648959E+03 -0.24516852507E+03  0.42601269337E+03  0.50400001928E-02 0. -1.
       -1    1    3    3    0  502 -0.32231573055E+03 -0.13225648959E+03  0.11227983391E+04  0.11756084890E+04  0.50400001928E-02 0.  1.
</event>
<event>
 5   0  0.2334946E-03  0.1270239E+04  0.7818609E-02  0.9053505E-01
       -2   -1    0    0    0  501  0.00000000000E+00  0.00000000000E+00  0.29145399922E+03  0.29145399923E+03  0.25500000920E-02 0.  1.
        2   -1    0    0  501    0  0.00000000000E+00  0.00000000000E+00 -0.13840151519E+04  0.13840151519E+04  0.25500000920E-02 0. -1.
    10030    2    1    2    0    0  0.00000000000E+00  0.00000000000E+00 -0.10925611527E+04  0.16754691511E+04  0.12702389555E+04 0.  0.
        1    1    3    3  502    0 -0.43912491368E+03  0.34901798404E+03 -0.15337120539E+03  0.58152125469E+03  0.50400001928E-02 0.  1.
       -1    1    3    3    0  502  0.43912491368E+03 -0.34901798404E+03 -0.93918994728E+03  0.10939478964E+04  0.50400001928E-02 0. -1.
</event>
<event>
 5   0  0.2478236E-03  0.1304761E+04  0.7818609E-02  0.9025798E-01
       -2   -1    0    0    0  501  0.00000000000E+00  0.00000000000E+00  0.20857798493E+03  0.20857798494E+03  0.25500000920E-02 0.  1.
        2   -1    0    0  501    0  0.00000000000E+00  0.00000000000E+00 -0.20404848553E+04  0.20404848553E+04  0.25500000920E-02 0. -1.
    10030    2    1    2    0    0  0.00000000000E+00  0.00000000000E+00 -0.18319068704E+04  0.22490628403E+04  0.13047608508E+04 0.  0.
        3    1    3    3  502    0 -0.10666205038E+03 -0.38040779211E+03 -0.18108251811E+04  0.18534224365E+04  0.10100000352E+00 0. -1.
       -3    1    3    3    0  502  0.10666205038E+03  0.38040779211E+03 -0.21081689288E+02  0.39564040379E+03  0.10100000352E+00 0.  1.
</event>
<event>
 5   0  0.1310461E-03  0.1264221E+04  0.7818609E-02  0.9058429E-01
        1   -1    0    0  501    0  0.00000000000E+00  0.00000000000E+00  0.76831199117E+03  0.76831199118E+03  0.50400001928E-02 0.  1.
       -1   -1    0    0    0  501  0.00000000000E+00  0.00000000000E+00 -0.52005425265E+03  0.52005425268E+03  0.50400001928E-02 0. -1.
    10030    2    1    2    0    0  0.00000000000E+00  0.00000000000E+00  0.24825773851E+03  0.12883662439E+04  0.12642213705E+04 0.  0.
        4    1    3    3  502    0 -0.10297949475E+03  0.49841917145E+03 -0.25791196598E+03  0.57056694778E+03  0.12699999809E+01 0. -1.
       -4    1    3    3    0  502  0.10297949475E+03 -0.49841917145E+03  0.50616970449E+03  0.71779929608E+03  0.12699999809E+01 0.  1.
</event>
<event>
 5   0  0.2478236E-03  0.1276722E+04  0.7818609E-02  0.9048231E-01
        2   -1    0    0  501    0  0.00000000000E+00  0.00000000000E+00  0.18827432268E+04  0.18827432268E+04  0.25500000920E-02 0. -1.
       -2   -1    0    0    0  501  0.00000000000E+00  0.00000000000E+00 -0.21644193012E+03  0.21644193014E+03  0.25500000920E-02 0.  1.
    10030    2    1    2    0    0  0.00000000000E+00  0.00000000000E+00  0.16663012967E+04  0.20991851569E+04  0.12767217049E+04 0.  0.
        3    1    3    3  502    0 -0.22790928812E+03 -0.37962547798E+03  0.15892078840E+04  0.16497393297E+04  0.10100000352E+00 0. -1.
       -3    1    3    3    0  502  0.22790928812E+03  0.37962547798E+03  0.77093412659E+02  0.44944582723E+03  0.10100000352E+00 0.  1.
</event>
<event>
 5   0  0.1346593E-03  0.1302430E+04  0.7818609E-02  0.9027641E-01
       -1   -1    0    0    0  501  0.00000000000E+00  0.00000000000E+00  0.15845519387E+03  0.15845519395E+03  0.50400001928E-02 0.  1.
        1   -1    0    0  501    0  0.00000000000E+00  0.00000000000E+00 -0.26763446076E+04  0.26763446076E+04  0.50400001928E-02 0. -1.
    10030    2    1    2    0    0  0.00000000000E+00  0.00000000000E+00 -0.25178894138E+04  0.28347998016E+04  0.13024295816E+04 0.  0.
        2    1    3    3  502    0 -0.40054143089E+03  0.11310421644E+03 -0.23490771509E+04  0.23856633170E+04  0.25500000920E-02 0. -1.
       -2    1    3    3    0  502  0.40054143089E+03 -0.11310421644E+03 -0.16881226292E+03  0.44913648455E+03  0.25500000920E-02 0.  1.
</event>
<event>
 5   0  0.2312105E-03  0.1320591E+04  0.7818609E-02  0.9013394E-01
        2   -1    0    0  501    0  0.00000000000E+00  0.00000000000E+00  0.11932690824E+04  0.11932690824E+04  0.25500000920E-02 0.  1.
       -2   -1    0    0    0  501  0.00000000000E+00  0.00000000000E+00 -0.36537444591E+03  0.36537444592E+03  0.25500000920E-02 0. -1.
    10030    2    1    2    0    0  0.00000000000E+00  0.00000000000E+00  0.82789463651E+03  0.15586435283E+04  0.13205908220E+04 0.  0.
        5    1    3    3  502    0  0.55106944285E+03 -0.34664879864E+03  0.28398431259E+03  0.71029015214E+03  0.46999998093E+01 0. -1.
       -5    1    3    3    0  502 -0.55106944285E+03  0.34664879864E+03  0.54391032391E+03  0.84835337619E+03  0.46999998093E+01 0.  1.
</event>
<event>
 5   0  0.2478236E-03  0.1300931E+04  0.7818609E-02  0.9028828E-01
       -2   -1    0    0    0  501  0.00000000000E+00  0.00000000000E+00  0.30847745419E+03  0.30847745420E+03  0.25500000920E-02 0.  1.
        2   -1    0    0  501    0  0.00000000000E+00  0.00000000000E+00 -0.13715914591E+04  0.13715914591E+04  0.25500000920E-02 0. -1.
    10030    2    1    2    0    0  0.00000000000E+00  0.00000000000E+00 -0.10631140049E+04  0.16800689133E+04  0.13009305001E+04 0.  0.
        3    1    3    3  502    0 -0.27337500925E+03 -0.13604520770E+03 -0.12732764997E+04  0.13093797192E+04  0.10100000352E+00 0. -1.
       -3    1    3    3    0  502  0.27337500925E+03  0.13604520770E+03  0.21016249477E+03  0.37068919411E+03  0.10100000352E+00 0.  1.
</event>
<event>
 5   0  0.1346593E-03  0.1083429E+04  0.7818609E-02  0.9221495E-01
       -1   -1    0    0    0  501  0.00000000000E+00  0.00000000000E+00  0.19001647361E+03  0.19001647367E+03  0.50400001928E-02 0. -1.
        1   -1    0    0  501    0  0.00000000000E+00  0.00000000000E+00 -0.15443639910E+04  0.15443639910E+04  0.50400001928E-02 0.  1.
    10030    2    1    2    0    0  0.00000000000E+00  0.00000000000E+00 -0.13543475174E+04  0.17343804647E+04  0.10834290002E+04 0.  0.
        2    1    3    3  502    0  0.20514753539E+03 -0.41760244184E+03 -0.11213192141E+04  0.12140156880E+04  0.25500000920E-02 0.  1.
       -2    1    3    3    0  502 -0.20514753539E+03  0.41760244184E+03 -0.23302830329E+03  0.52036477672E+03  0.25500000920E-02 0. -1.
</event>
<event>
 5   0  0.1346593E-03  0.1304735E+04  0.7818609E-02  0.9025819E-01
       -1   -1    0    0    0  501  0.00000000000E+00  0.00000000000E+00  0.43426058202E+03  0.43426058205E+03  0.50400001928E-02 0. -1.
        1   -1    0    0  501    0  0.00000000000E+00  0.00000000000E+00 -0.98001811631E+03  0.98001811632E+03  0.50400001928E-02 0.  1.
    10030    2    1    2    0    0  0.00000000000E+00  0.00000000000E+00 -0.54575753429E+03  0.14142786984E+04  0.13047348200E+04 0.  0.
        2    1    3    3  502    0  0.48554586764E+03  0.36297602516E+03 -0.11654039067E+02  0.60633505676E+03  0.25500000920E-02 0. -1.
       -2    1    3    3    0  502 -0.48554586764E+03 -0.36297602516E+03 -0.53410349522E+03  0.80794364162E+03  0.25500000920E-02 0.  1.
</event>
<event>
 5   0  0.1332630E-03  0.1350682E+04  0.7818609E-02  0.8990312E-01
       -1   -1    0    0    0  501  0.00000000000E+00  0.00000000000E+00  0.58738323105E+03  0.58738323107E+03  0.50400001928E-02 0. -1.
        1   -1    0    0  501    0  0.00000000000E+00  0.00000000000E+00 -0.77646986869E+03  0.77646986871E+03  0.50400001928E-02 0.  1.
    10030    2    1    2    0    0  0.00000000000E+00  0.00000000000E+00 -0.18908663764E+03  0.13638530998E+04  0.13506818727E+04 0.  0.
        5    1    3    3  502    0  0.23907795008E+03 -0.17658560640E+03 -0.70685797402E+03  0.76681877131E+03  0.46999998093E+01 0.  1.
       -5    1    3    3    0  502 -0.23907795008E+03  0.17658560640E+03  0.51777133638E+03  0.59703432847E+03  0.46999998093E+01 0. -1.
</event>
<event>
 5   0  0.2361043E-03  0.1199193E+04  0.7818609E-02  0.9113563E-01
       -2   -1    0    0    0  501  0.00000000000E+00  0.00000000000E+00  0.51477693596E+03  0.51477693597E+03  0.25500000920E-02 0. -1.
        2   -1    0    0  501    0  0.00000000000E+00  0.00000000000E+00 -0.69839208112E+03  0.69839208113E+03  0.25500000920E-02 0.  1.
    10030    2    1    2    0    0  0.00000000000E+00  0.00000000000E+00 -0.18361514516E+03  0.12131690171E+04  0.11991932882E+04 0.  0.
        2    1    3    3  502    0  0.30231701671E+03  0.47956904364E+03 -0.28936292995E+03  0.63648483992E+03  0.25500000920E-02 0.  1.
       -2    1    3    3    0  502 -0.30231701671E+03 -0.47956904364E+03  0.10574778478E+03  0.57668417718E+03  0.25500000920E-02 0. -1.
</event>
<event>
 5   0  0.2361043E-03  0.1294254E+04  0.7818609E-02  0.9034134E-01
        2   -1    0    0  501    0  0.00000000000E+00  0.00000000000E+00  0.11772394804E+04  0.11772394804E+04  0.25500000920E-02 0.  1.
       -2   -1    0    0    0  501  0.00000000000E+00  0.00000000000E+00 -0.35572510133E+03  0.35572510134E+03  0.25500000920E-02 0. -1.
    10030    2    1    2    0    0  0.00000000000E+00  0.00000000000E+00  0.82151437909E+03  0.15329645818E+04  0.12942544317E+04 0.  0.
        2    1    3    3  502    0 -0.43027190015E+03  0.17352799549E+03  0.94510531077E+03  0.10528389819E+04  0.25500000920E-02 0.  1.
       -2    1    3    3    0  502  0.43027190015E+03 -0.17352799549E+03 -0.12359093168E+03  0.48012559990E+03  0.25500000920E-02 0. -1.
</event>
<event>
 5   0  0.1387622E-03  0.1293631E+04  0.7818609E-02  0.9034632E-01
       -1   -1    0    0    0  501  0.00000000000E+00  0.00000000000E+00  0.60542025785E+03  0.60542025787E+03  0.50400001928E-02 0. -1.
        1   -1    0    0  501    0  0.00000000000E+00  0.00000000000E+00 -0.69104059540E+03  0.69104059542E+03  0.50400001928E-02 0.  1.
    10030    2    1    2    0    0  0.00000000000E+00  0.00000000000E+00 -0.85620337556E+02  0.12964608533E+04  0.12936305121E+04 0.  0.
        3    1    3    3  502    0  0.49852142325E+02  0.60646668613E+03 -0.26256803458E+03  0.66274358576E+03  0.10100000352E+00 0.  1.
       -3    1    3    3    0  502 -0.49852142325E+02 -0.60646668613E+03  0.17694769703E+03  0.63371726753E+03  0.10100000352E+00 0. -1.
</event>
<event>
 5   0  0.2401211E-03  0.1302539E+04  0.7818609E-02  0.9027554E-01
        2   -1    0    0  501    0  0.00000000000E+00  0.00000000000E+00  0.30966773930E+03  0.30966773931E+03  0.25500000920E-02 0. -1.
       -2   -1    0    0    0  501  0.00000000000E+00  0.00000000000E+00 -0.13696994835E+04  0.13696994835E+04  0.25500000920E-02 0.  1.
    10030    2    1    2    0    0  0.00000000000E+00  0.00000000000E+00 -0.10600317442E+04  0.16793672228E+04  0.13025386637E+04 0.  0.
        4    1    3    3  502    0 -0.43961966788E+03 -0.37135235150E+02 -0.11476790924E+04  0.12295582093E+04  0.12699999809E+01 0.  1.
       -4    1    3    3    0  502  0.43961966788E+03  0.37135235150E+02  0.87647348183E+02  0.44980901350E+03  0.12699999809E+01 0. -1.
</event>
<event>
 5   0  0.1324721E-03  0.1287712E+04  0.7818609E-02  0.9039367E-01
        1   -1    0    0  501    0  0.00000000000E+00  0.00000000000E+00  0.75792697997E+03  0.75792697999E+03  0.50400001928E-02 0. -1.
       -1   -1    0    0    0  501  0.00000000000E+00  0.00000000000E+00 -0.54695274533E+03  0.54695274536E+03  0.50400001928E-02 0.  1.
    10030    2    1    2    0    0  0.00000000000E+00  0.00000000000E+00  0.21097423464E+03  0.13048797253E+04  0.12877115243E+04 0.  0.
        1    1    3    3  502    0  0.40296338310E+03 -0.37381280899E+03 -0.23429628236E+03  0.59750334914E+03  0.50400001928E-02 0.  1.
       -1    1    3    3    0  502 -0.40296338310E+03  0.37381280899E+03  0.44527051700E+03  0.70737637621E+03  0.50400001928E-02 0. -1.
</event>
<event>
 5   0  0.2361043E-03  0.1264634E+04  0.7818609E-02  0.9058091E-01
        2   -1    0    0  501    0  0.00000000000E+00  0.00000000000E+00  0.49306007548E+03  0.49306007548E+03  0.25500000920E-02 0.  1.
       -2   -1    0    0    0  501  0.00000000000E+00  0.00000000000E+00 -0.81090420098E+03  0.81090420099E+03  0.25500000920E-02 0. -1.
    10030    2    1    2    0    0  0.00000000000E+00  0.00000000000E+00 -0.31784412550E+03  0.13039642765E+04  0.12646335225E+04 0.  0.
        2    1    3    3  502    0  0.57241197555E+03  0.26774645334E+03 -0.18153241866E+03  0.65749346161E+03  0.25500000920E-02 0.  1.
       -2    1    3    3    0  502 -0.57241197555E+03 -0.26774645334E+03 -0.13631170685E+03  0.64647081486E+03  0.25500000920E-02 0. -1.
</event>
<event>
 5   0  0.1387622E-03  0.1350918E+04  0.7818609E-02  0.8990134E-01
       -1   -1    0    0    0  501  0.00000000000E+00  0.00000000000E+00  0.34701254620E+03  0.34701254623E+03  0.50400001928E-02 0. -1.
        1   -1    0    0  501    0  0.00000000000E+00  0.00000000000E+00 -0.13147788957E+04  0.13147788957E+04  0.50400001928E-02 0.  1.
    10030    2    1    2    0    0  0.00000000000E+00  0.00000000000E+00 -0.96776634947E+03  0.16617914419E+04  0.13509178692E+04 0.  0.
        3    1    3    3  502    0 -0.13306390453E+03 -0.61542170909E+03 -0.78468437778E+03  0.10060713025E+04  0.10100000352E+00 0.  1.
       -3    1    3    3    0  502  0.13306390453E+03  0.61542170909E+03 -0.18308197169E+03  0.65572013945E+03  0.10100000352E+00 0. -1.
</event>
<event>
 5   0  0.2334946E-03  0.1196399E+04  0.7818609E-02  0.9116015E-01
        2   -1    0    0  501    0  0.00000000000E+00  0.00000000000E+00  0.71626570545E+03  0.71626570546E+03  0.25500000920E-02 0.  1.
       -2   -1    0    0    0  501  0.00000000000E+00  0.00000000000E+00 -0.49959441597E+03  0.49959441597E+03  0.25500000920E-02 0. -1.
    10030    2    1    2    0    0  0.00000000000E+00  0.00000000000E+00  0.21667128948E+03  0.12158601214E+04  0.11963985069E+04 0.  0.
        1    1    3    3  502    0 -0.37821586159E+03  0.39386859571E+02 -0.36095937176E+03  0.52429975277E+03  0.50400001928E-02 0. -1.
       -1    1    3    3    0  502  0.37821586159E+03 -0.39386859571E+02  0.57763066124E+03  0.69156036866E+03  0.50400001928E-02 0.  1.
</event>
<event>
 5   0  0.2312105E-03  0.1276444E+04  0.7818609E-02  0.9048457E-01
        2   -1    0    0  501    0  0.00000000000E+00  0.00000000000E+00  0.15400418366E+04  0.15400418366E+04  0.25500000920E-02 0. -1.
       -2   -1    0    0    0  501  0.00000000000E+00  0.00000000000E+00 -0.26449114505E+03  0.26449114506E+03  0.25500000920E-02 0.  1.
    10030    2    1    2    0    0  0.00000000000E+00  0.00000000000E+00  0.12755506915E+04  0.18045329817E+04  0.12764441684E+04 0.  0.
        5    1    3    3  502    0 -0.11951736142E+03  0.25131018513E+03 -0.17417701080E+03  0.32833051933E+03  0.46999998093E+01 0.  1.
       -5    1    3    3    0  502  0.11951736142E+03 -0.25131018513E+03  0.14497277023E+04  0.14762024623E+04  0.46999998093E+01 0. -1.
</event>
<event>
 5   0  0.1324721E-03  0.1281841E+04  0.7818609E-02  0.9044090E-01
        1   -1    0    0  501    0  0.00000000000E+00  0.00000000000E+00  0.93331671205E+03  0.93331671207E+03  0.50400001928E-02 0. -1.
       -1   -1    0    0    0  501  0.00000000000E+00  0.00000000000E+00 -0.44012844157E+03  0.44012844160E+03  0.50400001928E-02 0.  1.
    10030    2    1    2    0    0  0.00000000000E+00  0.00000000000E+00  0.49318827048E+03  0.13734451537E+04  0.12818412226E+04 0.  0.
        1    1    3    3  502    0 -0.33654070480E+03  0.97287748437E+02 -0.32846771006E+03  0.48022451891E+03  0.50400001928E-02 0.  1.
       -1    1    3    3    0  502  0.33654070480E+03 -0.97287748437E+02  0.82165598054E+03  0.89322063476E+03  0.50400001928E-02 0. -1.
</event>
<event>
 5   0  0.1310461E-03  0.1278401E+04  0.7818609E-02  0.9046871E-01
       -1   -1    0    0    0  501  0.00000000000E+00  0.00000000000E+00  0.10674230079E+04  0.10674230079E+04  0.50400001928E-02 0.  1.
        1   -1    0    0  501    0  0.00000000000E+00  0.00000000000E+00 -0.38276967705E+03  0.38276967709E+03  0.50400001928E-02 0. -1.
    10030    2    1    2    0    0  0.00000000000E+00  0.00000000000E+00  0.68465333088E+03  0.14501926850E+04  0.12784008136E+04 0.  0.
        4    1    3    3  502    0 -0.55501740243E+02 -0.24725316447E+03  0.10080068620E+04  0.10393719340E+04  0.12699999809E+01 0.  1.
       -4    1    3    3    0  502  0.55501740243E+02  0.24725316447E+03 -0.32335353109E+03  0.41082075103E+03  0.12699999809E+01 0. -1.
</event>
<event>
 5   0  0.1310461E-03  0.1300235E+04  0.7818609E-02  0.9029378E-01
       -1   -1    0    0    0  501  0.00000000000E+00  0.00000000000E+00  0.45697390870E+03  0.45697390873E+03  0.50400001928E-02 0.  1.
        1   -1    0    0  501    0  0.00000000000E+00  0.00000000000E+00 -0.92489535396E+03  0.92489535398E+03  0.50400001928E-02 0. -1.
    10030    2    1    2    0    0  0.00000000000E+00  0.00000000000E+00 -0.46792144526E+03  0.13818692627E+04  0.13002354326E+04 0.  0.
        4    1    3    3  502    0 -0.31336089851E+02 -0.57018220916E+03  0.96292815452E+02  0.57910588097E+03  0.12699999809E+01 0.  1.
       -4    1    3    3    0  502  0.31336089851E+02  0.57018220916E+03 -0.56421426071E+03  0.80276338174E+03  0.12699999809E+01 0. -1.
</event>
<event>
 5   0  0.2361043E-03  0.1275690E+04  0.7818609E-02  0.9049068E-01
       -2   -1    0    0    0  501  0.00000000000E+00  0.00000000000E+00  0.68056206307E+03  0.68056206308E+03  0.25500000920E-02 0. -1.
        2   -1    0    0  501    0  0.00000000000E+00  0.00000000000E+00 -0.59780957614E+03  0.59780957615E+03  0.25500000920E-02 0.  1.
    10030    2    1    2    0    0  0.00000000000E+00  0.00000000000E+00  0.82752486935E+02  0.12783716392E+04  0.12756904303E+04 0.  0.
        2    1    3    3  502    0  0.55412389483E+03  0.27454003917E+03  0.19797687271E+03  0.64932300596E+03  0.25500000920E-02 0.  1.
       -2    1    3    3    0  502 -0.55412389483E+03 -0.27454003917E+03 -0.11522438577E+03  0.62904863327E+03  0.25500000920E-02 0. -1.
</event>
<event>
 5   0  0.2361043E-03  0.1302821E+04  0.7818609E-02  0.9027331E-01
       -2   -1    0    0    0  501  0.00000000000E+00  0.00000000000E+00  0.25729946316E+03  0.25729946318E+03  0.25500000920E-02 0. -1.
        2   -1    0    0  501    0  0.00000000000E+00  0.00000000000E+00 -0.16491901182E+04  0.16491901182E+04  0.25500000920E-02 0.  1.
    10030    2    1    2    0    0  0.00000000000E+00  0.00000000000E+00 -0.13918906550E+04  0.19064895813E+04  0.13028211421E+04 0.  0.
        2    1    3    3  502    0 -0.31681169216E+03 -0.49255569490E+03 -0.11133349879E+04  0.12579727962E+04  0.25500000920E-02 0.  1.
       -2    1    3    3    0  502  0.31681169216E+03  0.49255569490E+03 -0.27855566715E+03  0.64851678512E+03  0.25500000920E-02 0. -1.
</event>
<event>
 5   0  0.2401211E-03  0.1300860E+04  0.7818609E-02  0.9028883E-01
       -2   -1    0    0    0  501  0.00000000000E+00  0.00000000000E+00  0.22115897383E+03  0.22115897385E+03  0.25500000920E-02 0.  1.
        2   -1    0    0  501    0  0.00000000000E+00  0.00000000000E+00 -0.19129198598E+04  0.19129198598E+04  0.25500000920E-02 0. -1.
    10030    2    1    2    0    0  0.00000000000E+00  0.00000000000E+00 -0.16917608859E+04  0.21340788336E+04  0.13008603203E+04 0.  0.
        4    1    3    3  502    0 -0.30777791277E+03 -0.35368570306E+02  0.92343520598E+02  0.32327560696E+03  0.12699999809E+01 0.  1.
       -4    1    3    3    0  502  0.30777791277E+03  0.35368570306E+02 -0.17841044065E+04  0.18108032266E+04  0.12699999809E+01 0. -1.
</event>
<event>
 5   0  0.2312105E-03  0.1288212E+04  0.7818609E-02  0.9038966E-01
        2   -1    0    0  501    0  0.00000000000E+00  0.00000000000E+00  0.95656793650E+03  0.95656793650E+03  0.25500000920E-02 0. -1.
       -2   -1    0    0    0  501  0.00000000000E+00  0.00000000000E+00 -0.43370946050E+03  0.43370946051E+03  0.25500000920E-02 0.  1.
    10030    2    1    2    0    0  0.00000000000E+00  0.00000000000E+00  0.52285847600E+03  0.13902773970E+04  0.12882120380E+04 0.  0.
        5    1    3    3  502    0  0.59068020161E+03  0.15522856941E+03  0.40644302213E+02  0.61210543098E+03  0.46999998093E+01 0.  1.
       -5    1    3    3    0  502 -0.59068020161E+03 -0.15522856941E+03  0.48221417379E+03  0.77817196604E+03  0.46999998093E+01 0. -1.
</event>
<event>
 5   0  0.2361043E-03  0.1359113E+04  0.7818609E-02  0.8983958E-01
        2   -1    0    0  501    0  0.00000000000E+00  0.00000000000E+00  0.14179459968E+04  0.14179459968E+04  0.25500000920E-02 0.  1.
       -2   -1    0    0    0  501  0.00000000000E+00  0.00000000000E+00 -0.32568010169E+03  0.32568010170E+03  0.25500000920E-02 0. -1.
    10030    2    1    2    0    0  0.00000000000E+00  0.00000000000E+00  0.10922658951E+04  0.17436260985E+04  0.13591126465E+04 0.  0.
        2    1    3    3  502    0 -0.46139849387E+03  0.90875018662E+02 -0.83214973290E+02  0.47756839400E+03  0.25500000920E-02 0. -1.
       -2    1    3    3    0  502  0.46139849387E+03 -0.90875018662E+02  0.11754808684E+04  0.12660577045E+04  0.25500000920E-02 0.  1.
</event>
<event>
 5   0  0.2334946E-03  0.1262844E+04  0.7818609E-02  0.9059561E-01
       -2   -1    0    0    0  501  0.00000000000E+00  0.00000000000E+00  0.24602709918E+03  0.24602709919E+03  0.25500000920E-02 0.  1.
        2   -1    0    0  501    0  0.00000000000E+00  0.00000000000E+00 -0.16205265392E+04  0.16205265392E+04  0.25500000920E-02 0. -1.
    10030    2    1    2    0    0  0.00000000000E+00  0.00000000000E+00 -0.13744994401E+04  0.18665536384E+04  0.12628435273E+04 0.  0.
        1    1    3    3  502    0  0.28639683617E+03  0.31119032995E+03  0.57535368128E+01  0.42296060388E+03  0.50400001928E-02 0.  1.
       -1    1    3    3    0  502 -0.28639683617E+03 -0.31119032995E+03 -0.13802529769E+04  0.14435930345E+04  0.50400001928E-02 0. -1.
</event>
<event>
 5   0  0.2401211E-03  0.1306329E+04  0.7818609E-02  0.9024561E-01
       -2   -1    0    0    0  501  0.00000000000E+00  0.00000000000E+00  0.24588946635E+03  0.24588946637E+03  0.25500000920E-02 0. -1.
        2   -1    0    0  501    0  0.00000000000E+00  0.00000000000E+00 -0.17350241411E+04  0.17350241411E+04  0.25500000920E-02 0.  1.
    10030    2    1    2    0    0  0.00000000000E+00  0.00000000000E+00 -0.14891346748E+04  0.19809136075E+04  0.13063294534E+04 0.  0.
        4    1    3    3  502    0  0.60688727275E+03  0.24145531762E+03 -0.73984088339E+03  0.98690373283E+03  0.12699999809E+01 0.  1.
       -4    1    3    3    0  502 -0.60688727275E+03 -0.24145531762E+03 -0.74929379137E+03  0.99400987466E+03  0.12699999809E+01 0. -1.
</event>
<event>
 5   0  0.2401211E-03  0.1092016E+04  0.7818609E-02  0.9213009E-01
        2   -1    0    0  501    0  0.00000000000E+00  0.00000000000E+00  0.61495383202E+03  0.61495383203E+03  0.25500000920E-02 0.  1.
       -2   -1    0    0    0  501  0.00000000000E+00  0.00000000000E+00 -0.48479201970E+03  0.48479201971E+03  0.25500000920E-02 0. -1.
    10030    2    1    2    0    0  0.00000000000E+00  0.00000000000E+00  0.13016181232E+03  0.10997458517E+04  0.10920159527E+04 0.  0.
        4    1    3    3  502    0  0.15792995098E+03  0.25784704802E+02  0.59080714478E+03  0.61209592029E+03  0.12699999809E+01 0.  1.
       -4    1    3    3    0  502 -0.15792995098E+03 -0.25784704802E+02 -0.46064533246E+03  0.48764993144E+03  0.12699999809E+01 0. -1.
</event>
<event>
 5   0  0.2312105E-03  0.1284037E+04  0.7818609E-02  0.9042320E-01
       -2   -1    0    0    0  501  0.00000000000E+00  0.00000000000E+00  0.39902348990E+03  0.39902348991E+03  0.25500000920E-02 0.  1.
        2   -1    0    0  501    0  0.00000000000E+00  0.00000000000E+00 -0.10329914417E+04  0.10329914417E+04  0.25500000920E-02 0. -1.
    10030    2    1    2    0    0  0.00000000000E+00  0.00000000000E+00 -0.63396795184E+03  0.14320149317E+04  0.12840371492E+04 0.  0.
        5    1    3    3  502    0 -0.39183497598E+03 -0.44811207540E+03 -0.48799221547E+02  0.59727927684E+03  0.46999998093E+01 0.  1.
       -5    1    3    3    0  502  0.39183497598E+03  0.44811207540E+03 -0.58516873030E+03  0.83473565482E+03  0.46999998093E+01 0. -1.
</event>
<event>
 5   0  0.1346593E-03  0.1331321E+04  0.7818609E-02  0.9005090E-01
        1   -1    0    0  501    0  0.00000000000E+00  0.00000000000E+00  0.26963573685E+04  0.26963573685E+04  0.50400001928E-02 0.  1.
       -1   -1    0    0    0  501  0.00000000000E+00  0.00000000000E+00 -0.16433426184E+03  0.16433426191E+03  0.50400001928E-02 0. -1.
    10030    2    1    2    0    0  0.00000000000E+00  0.00000000000E+00  0.25320231066E+04  0.28606916304E+04  0.13313209950E+04 0.  0.
        2    1    3    3  502    0 -0.11804364596E+03  0.64882912100E+03  0.10715472225E+04  0.12582237403E+04  0.25500000920E-02 0. -1.
       -2    1    3    3    0  502  0.11804364596E+03 -0.64882912100E+03  0.14604758842E+04  0.16024678901E+04  0.25500000920E-02 0.  1.
</event>
<event>
 5   0  0.2312105E-03  0.1304133E+04  0.7818609E-02  0.9026294E-01
       -2   -1    0    0    0  501  0.00000000000E+00  0.00000000000E+00  0.36390026319E+03  0.36390026320E+03  0.25500000920E-02 0. -1.
        2   -1    0    0  501    0  0.00000000000E+00  0.00000000000E+00 -0.11684267806E+04  0.11684267806E+04  0.25500000920E-02 0.  1.
    10030    2    1    2    0    0  0.00000000000E+00  0.00000000000E+00 -0.80452651741E+03  0.15323270438E+04  0.13041331420E+04 0.  0.
        5    1    3    3  502    0 -0.16073633915E+03  0.47362091635E+03 -0.89381375443E+03  0.10242451175E+04  0.46999998093E+01 0.  1.
       -5    1    3    3    0  502  0.16073633915E+03 -0.47362091635E+03  0.89287237017E+02  0.50808192629E+03  0.46999998093E+01 0. -1.
</event>
<event>
 5   0  0.2478236E-03  0.1318591E+04  0.7818609E-02  0.9014951E-01
        2   -1    0    0  501    0  0.00000000000E+00  0.00000000000E+00  0.75652807769E+03  0.75652807769E+03  0.25500000920E-02 0. -1.
       -2   -1    0    0    0  501  0.00000000000E+00  0.00000000000E+00 -0.57455969341E+03  0.57455969342E+03  0.25500000920E-02 0.  1.
    10030    2    1    2    0    0  0.00000000000E+00  0.00000000000E+00  0.18196838427E+03  0.13310877711E+04  0.13185909758E+04 0.  0.
        3    1    3    3  502    0 -0.32098850431E+03 -0.36232588117E+03 -0.36087040941E+03  0.60377241296E+03  0.10100000352E+00 0.  1.
       -3    1    3    3    0  502  0.32098850431E+03  0.36232588117E+03  0.54283879369E+03  0.72731535815E+03  0.10100000352E+00 0. -1.
</event>
<event>
 5   0  0.2312105E-03  0.1301168E+04  0.7818609E-02  0.9028639E-01
        2   -1    0    0  501    0  0.00000000000E+00  0.00000000000E+00  0.15244670080E+04  0.15244670080E+04  0.25500000920E-02 0.  1.
       -2   -1    0    0    0  501  0.00000000000E+00  0.00000000000E+00 -0.27764445962E+03  0.27764445963E+03  0.25500000920E-02 0. -1.
    10030    2    1    2    0    0  0.00000000000E+00  0.00000000000E+00  0.12468225484E+04  0.18021114676E+04  0.13011684267E+04 0.  0.
        5    1    3    3  502    0  0.58657416758E+03  0.13534522761E+03  0.96505931833E+03  0.11374309485E+04  0.46999998093E+01 0.  1.
       -5    1    3    3    0  502 -0.58657416758E+03 -0.13534522761E+03  0.28176323004E+03  0.66468051912E+03  0.46999998093E+01 0. -1.
</event>
<event>
 5   0  0.1324721E-03  0.1361934E+04  0.7818609E-02  0.8981843E-01
        1   -1    0    0  501    0  0.00000000000E+00  0.00000000000E+00  0.86706054639E+03  0.86706054641E+03  0.50400001928E-02 0.  1.
       -1   -1    0    0    0  501  0.00000000000E+00  0.00000000000E+00 -0.53481413415E+03  0.53481413417E+03  0.50400001928E-02 0. -1.
    10030    2    1    2    0    0  0.00000000000E+00  0.00000000000E+00  0.33224641224E+03  0.14018746806E+04  0.13619342648E+04 0.  0.
        1    1    3    3  502    0 -0.32272234479E+03 -0.26571736698E+02 -0.45049430530E+03  0.55479806070E+03  0.50400001928E-02 0. -1.
       -1    1    3    3    0  502  0.32272234479E+03  0.26571736698E+02  0.78274071755E+03  0.84707661988E+03  0.50400001928E-02 0.  1.
</event>
<event>
 5   0  0.1332630E-03  0.1280843E+04  0.7818609E-02  0.9044896E-01
        1   -1    0    0  501    0  0.00000000000E+00  0.00000000000E+00  0.16664324470E+04  0.16664324470E+04  0.50400001928E-02 0. -1.
       -1   -1    0    0    0  501  0.00000000000E+00  0.00000000000E+00 -0.24611855453E+03  0.24611855458E+03  0.50400001928E-02 0.  1.
    10030    2    1    2    0    0  0.00000000000E+00  0.00000000000E+00  0.14203138925E+04  0.19125510016E+04  0.12808433864E+04 0.  0.
        5    1    3    3  502    0 -0.52774795562E+03  0.33367592416E+03  0.92269672894E+03  0.11141134909E+04  0.46999998093E+01 0.  1.
       -5    1    3    3    0  502  0.52774795562E+03 -0.33367592416E+03  0.49761716353E+03  0.79843751068E+03  0.46999998093E+01 0. -1.
</event>
<event>
 5   0  0.1332630E-03  0.1307207E+04  0.7818609E-02  0.9023869E-01
       -1   -1    0    0    0  501  0.00000000000E+00  0.00000000000E+00  0.53797322944E+03  0.53797322947E+03  0.50400001928E-02 0.  1.
        1   -1    0    0  501    0  0.00000000000E+00  0.00000000000E+00 -0.79408691753E+03  0.79408691755E+03  0.50400001928E-02 0. -1.
    10030    2    1    2    0    0  0.00000000000E+00  0.00000000000E+00 -0.25611368809E+03  0.13320601470E+04  0.13072069515E+04 0.  0.
        5    1    3    3  502    0 -0.21501381586E+03 -0.49978715889E+03 -0.49709873578E+03  0.73698533793E+03  0.46999998093E+01 0. -1.
       -5    1    3    3    0  502  0.21501381586E+03  0.49978715889E+03  0.24098504769E+03  0.59507480909E+03  0.46999998093E+01 0.  1.
</event>
<event>
 5   0  0.9131250E-04  0.1248767E+04  0.7818609E-02  0.9071210E-01
       -3   -1    0    0    0  501  0.00000000000E+00  0.00000000000E+00  0.82346461229E+03  0.82346461848E+03  0.10100000352E+00 0. -1.
        3   -1    0    0  501    0  0.00000000000E+00  0.00000000000E+00 -0.47343258642E+03  0.47343259720E+03  0.10100000352E+00 0.  1.
    10030    2    1    2    0    0  0.00000000000E+00  0.00000000000E+00  0.35003202587E+03  0.12968972157E+04  0.12487673798E+04 0.  0.
        5    1    3    3  502    0  0.33237963765E+02 -0.38560495532E+03  0.68383471968E+03  0.78577856782E+03  0.46999998093E+01 0. -1.
       -5    1    3    3    0  502 -0.33237963765E+02  0.38560495532E+03 -0.33380269381E+03  0.51111864786E+03  0.46999998093E+01 0.  1.
</event>
<event>
 5   0  0.2334946E-03  0.1299883E+04  0.7818609E-02  0.9029658E-01
        2   -1    0    0  501    0  0.00000000000E+00  0.00000000000E+00  0.14422761142E+04  0.14422761142E+04  0.25500000920E-02 0. -1.
       -2   -1    0    0    0  501  0.00000000000E+00  0.00000000000E+00 -0.29288693488E+03  0.29288693489E+03  0.25500000920E-02 0.  1.
    10030    2    1    2    0    0  0.00000000000E+00  0.00000000000E+00  0.11493891793E+04  0.17351630491E+04  0.12998828107E+04 0.  0.
        1    1    3    3  502    0 -0.22749014385E+03  0.50619498323E+03  0.12312721730E+03  0.56845882723E+03  0.50400001928E-02 0.  1.
       -1    1    3    3    0  502  0.22749014385E+03 -0.50619498323E+03  0.10262619620E+04  0.11667042219E+04  0.50400001928E-02 0. -1.
</event>
<event>
 5   0  0.2334946E-03  0.1308279E+04  0.7818609E-02  0.9023026E-01
        2   -1    0    0  501    0  0.00000000000E+00  0.00000000000E+00  0.61748664581E+03  0.61748664581E+03  0.25500000920E-02 0. -1.
       -2   -1    0    0    0  501  0.00000000000E+00  0.00000000000E+00 -0.69296780592E+03  0.69296780593E+03  0.25500000920E-02 0.  1.
    10030    2    1    2    0    0  0.00000000000E+00  0.00000000000E+00 -0.75481160118E+02  0.13104544517E+04  0.13082788176E+04 0.  0.
        1    1    3    3  502    0  0.80392691321E+02 -0.64680550767E+03 -0.93312716793E+02  0.65842813785E+03  0.50400001928E-02 0.  1.
       -1    1    3    3    0  502 -0.80392691321E+02  0.64680550767E+03  0.17831556675E+02  0.65202631389E+03  0.50400001928E-02 0. -1.
</event>
<event>
 5   0  0.1310461E-03  0.1316216E+04  0.7818609E-02  0.9016803E-01
        1   -1    0    0  501    0  0.00000000000E+00  0.00000000000E+00  0.10156951448E+04  0.10156951448E+04  0.50400001928E-02 0.  1.
       -1   -1    0    0    0  501  0.00000000000E+00  0.00000000000E+00 -0.42641379010E+03  0.42641379013E+03  0.50400001928E-02 0. -1.
    10030    2    1    2    0    0  0.00000000000E+00  0.00000000000E+00  0.58928135471E+03  0.14421089349E+04  0.13162164204E+04 0.  0.
        4    1    3    3  502    0  0.47766479892E+03 -0.44775111246E+03  0.36781223666E+03  0.75095417515E+03  0.12699999809E+01 0.  1.
       -4    1    3    3    0  502 -0.47766479892E+03  0.44775111246E+03  0.22146911805E+03  0.69115475980E+03  0.12699999809E+01 0. -1.
</event>
<event>
 5   0  0.2361043E-03  0.1306505E+04  0.7818609E-02  0.9024423E-01
       -2   -1    0    0    0  501  0.00000000000E+00  0.00000000000E+00  0.56394908618E+03  0.56394908619E+03  0.25500000920E-02 0. -1.
        2   -1    0    0  501    0  0.00000000000E+00  0.00000000000E+00 -0.75669730699E+03  0.75669730699E+03  0.25500000920E-02 0.  1.
    10030    2    1    2    0    0  0.00000000000E+00  0.00000000000E+00 -0.19274822081E+03  0.13206463932E+04  0.13065048868E+04 0.  0.
        2    1    3    3  502    0 -0.24824829133E+03 -0.57328548781E+03  0.96625214768E+02  0.63215496266E+03  0.25500000920E-02 0. -1.
       -2    1    3    3    0  502  0.24824829133E+03  0.57328548781E+03 -0.28937343558E+03  0.68849143052E+03  0.25500000920E-02 0.  1.
</event>
<event>
 5   0  0.9131250E-04  0.1239357E+04  0.7818609E-02  0.9079088E-01
        3   -1    0    0  501    0  0.00000000000E+00  0.00000000000E+00  0.71994299191E+03  0.71994299899E+03  0.10100000352E+00 0.  1.
       -3   -1    0    0    0  501  0.00000000000E+00  0.00000000000E+00 -0.53337790636E+03  0.53337791593E+03  0.10100000352E+00 0. -1.
    10030    2    1    2    0    0  0.00000000000E+00  0.00000000000E+00  0.18656508554E+03  0.12533209149E+04  0.12393574079E+04 0.  0.
        2    1    3    3  502    0 -0.21504822138E+03  0.14934500207E+03 -0.47469659308E+03  0.54211301649E+03  0.25500000920E-02 0. -1.
       -2    1    3    3    0  502  0.21504822138E+03 -0.14934500207E+03  0.66126167862E+03  0.71120789843E+03  0.25500000920E-02 0.  1.
</event>
<event>
 5   0  0.2312105E-03  0.1290004E+04  0.7818609E-02  0.9037529E-01
       -2   -1    0    0    0  501  0.00000000000E+00  0.00000000000E+00  0.41813277545E+03  0.41813277546E+03  0.25500000920E-02 0. -1.
        2   -1    0    0  501    0  0.00000000000E+00  0.00000000000E+00 -0.99496596590E+03  0.99496596590E+03  0.25500000920E-02 0.  1.
    10030    2    1    2    0    0  0.00000000000E+00  0.00000000000E+00 -0.57683319045E+03  0.14130987414E+04  0.12900044664E+04 0.  0.
        5    1    3    3  502    0 -0.54738366690E+03  0.24659620385E+03 -0.54663705326E+03  0.81195610999E+03  0.46999998093E+01 0.  1.
       -5    1    3    3    0  502  0.54738366690E+03 -0.24659620385E+03 -0.30196137183E+02  0.60114263137E+03  0.46999998093E+01 0. -1.
</event>
<event>
 5   0  0.2312105E-03  0.1333531E+04  0.7818609E-02  0.9003389E-01
        2   -1    0    0  501    0  0.00000000000E+00  0.00000000000E+00  0.40966668962E+03  0.40966668962E+03  0.25500000920E-02 0.  1.
       -2   -1    0    0    0  501  0.00000000000E+00  0.00000000000E+00 -0.10852147073E+04  0.10852147073E+04  0.25500000920E-02 0. -1.
    10030    2    1    2    0    0  0.00000000000E+00  0.00000000000E+00 -0.67554801771E+03  0.14948813970E+04  0.13335311270E+04 0.  0.
        5    1    3    3  502    0  0.60238319587E+03  0.21488389678E+03 -0.54902612573E+03  0.84290710075E+03  0.46999998093E+01 0.  1.
       -5    1    3    3    0  502 -0.60238319587E+03 -0.21488389678E+03 -0.12652189198E+03  0.65197429620E+03  0.46999998093E+01 0. -1.
</event>
<event>
 5   0  0.1324721E-03  0.1302327E+04  0.7818609E-02  0.9027722E-01
        1   -1    0    0  501    0  0.00000000000E+00  0.00000000000E+00  0.43458436005E+03  0.43458436008E+03  0.50400001928E-02 0. -1.
       -1   -1    0    0    0  501  0.00000000000E+00  0.00000000000E+00 -0.97567728337E+03  0.97567728339E+03  0.50400001928E-02 0.  1.
    10030    2    1    2    0    0  0.00000000000E+00  0.00000000000E+00 -0.54109292332E+03  0.14102616435E+04  0.13023272827E+04 0.  0.
        1    1    3    3  502    0 -0.55939330514E+03  0.20311410095E+03 -0.55671710438E+03  0.81492953203E+03  0.50400001928E-02 0.  1.
       -1    1    3    3    0  502  0.55939330514E+03 -0.20311410095E+03  0.15624181054E+02  0.59533211143E+03  0.50400001928E-02 0. -1.
</event>
<event>
 5   0  0.1310461E-03  0.1292222E+04  0.7818609E-02  0.9035756E-01
        1   -1    0    0  501    0  0.00000000000E+00  0.00000000000E+00  0.55884181190E+03  0.55884181193E+03  0.50400001928E-02 0. -1.
       -1   -1    0    0    0  501  0.00000000000E+00  0.00000000000E+00 -0.74700864358E+03  0.74700864359E+03  0.50400001928E-02 0.  1.
    10030    2    1    2    0    0  0.00000000000E+00  0.00000000000E+00 -0.18816683167E+03  0.13058504555E+04  0.12922223708E+04 0.  0.
        4    1    3    3  502    0 -0.33754490266E+03  0.31063366888E+03  0.36571869097E+03  0.58666993393E+03  0.12699999809E+01 0. -1.
       -4    1    3    3    0  502  0.33754490266E+03 -0.31063366888E+03 -0.55388552264E+03  0.71918052159E+03  0.12699999809E+01 0.  1.
</event>
<event>
 5   0  0.2478236E-03  0.1333823E+04  0.7818609E-02  0.9003165E-01
        2   -1    0    0  501    0  0.00000000000E+00  0.00000000000E+00  0.87688644754E+03  0.87688644754E+03  0.25500000920E-02 0. -1.
       -2   -1    0    0    0  501  0.00000000000E+00  0.00000000000E+00 -0.50721604627E+03  0.50721604628E+03  0.25500000920E-02 0.  1.
    10030    2    1    2    0    0  0.00000000000E+00  0.00000000000E+00  0.36967040127E+03  0.13841024938E+04  0.13338228922E+04 0.  0.
        3    1    3    3  502    0 -0.16912191136E+03  0.38361617222E+03 -0.35337521667E+03  0.54830433379E+03  0.10100000352E+00 0.  1.
       -3    1    3    3    0  502  0.16912191136E+03 -0.38361617222E+03  0.72304561794E+03  0.83579816003E+03  0.10100000352E+00 0. -1.
</event>
<event>
 5   0  0.2334946E-03  0.1295058E+04  0.7818609E-02  0.9033494E-01
        2   -1    0    0  501    0  0.00000000000E+00  0.00000000000E+00  0.33300132309E+03  0.33300132310E+03  0.25500000920E-02 0. -1.
       -2   -1    0    0    0  501  0.00000000000E+00  0.00000000000E+00 -0.12591351002E+04  0.12591351002E+04  0.25500000920E-02 0.  1.
    10030    2    1    2    0    0  0.00000000000E+00  0.00000000000E+00 -0.92613377707E+03  0.15921364233E+04  0.12950577660E+04 0.  0.
        1    1    3    3  502    0  0.59994842854E+03  0.62092691053E+02 -0.17344074191E+03  0.62759486149E+03  0.50400001928E-02 0. -1.
       -1    1    3    3    0  502 -0.59994842854E+03 -0.62092691053E+02 -0.75269303515E+03  0.96454156177E+03  0.50400001928E-02 0.  1.
</event>
<event>
 5   0  0.2312105E-03  0.1296112E+04  0.7818609E-02  0.9032654E-01
        2   -1    0    0  501    0  0.00000000000E+00  0.00000000000E+00  0.18801529535E+04  0.18801529535E+04  0.25500000920E-02 0. -1.
       -2   -1    0    0    0  501  0.00000000000E+00  0.00000000000E+00 -0.22337373811E+03  0.22337373812E+03  0.25500000920E-02 0.  1.
    10030    2    1    2    0    0  0.00000000000E+00  0.00000000000E+00  0.16567792154E+04  0.21035266916E+04  0.12961123307E+04 0.  0.
        5    1    3    3  502    0 -0.28775190957E+03  0.47354411633E+03  0.28304546899E+03  0.62223951907E+03  0.46999998093E+01 0.  1.
       -5    1    3    3    0  502  0.28775190957E+03 -0.47354411633E+03  0.13737337464E+04  0.14812871725E+04  0.46999998093E+01 0. -1.
</event>
<event>
 5   0  0.9131250E-04  0.1335906E+04  0.7818609E-02  0.9001566E-01
        4   -1    0    0  501    0  0.00000000000E+00  0.00000000000E+00  0.79019749869E+03  0.79019851925E+03  0.12699999809E+01 0.  1.
       -4   -1    0    0    0  501  0.00000000000E+00  0.00000000000E+00 -0.56461786449E+03  0.56461929280E+03  0.12699999809E+01 0. -1.
    10030    2    1    2    0    0  0.00000000000E+00  0.00000000000E+00  0.22557963420E+03  0.13548178121E+04  0.13359061092E+04 0.  0.
        2    1    3    3  502    0 -0.38963712876E+03 -0.52252212310E+03 -0.35272934402E+02  0.65275618813E+03  0.25500000920E-02 0. -1.
       -2    1    3    3    0  502  0.38963712876E+03  0.52252212310E+03  0.26085256860E+03  0.70206162392E+03  0.25500000920E-02 0.  1.
</event>
<event>
 5   0  0.2478236E-03  0.1296902E+04  0.7818609E-02  0.9032026E-01
        2   -1    0    0  501    0  0.00000000000E+00  0.00000000000E+00  0.72471148256E+03  0.72471148257E+03  0.25500000920E-02 0. -1.
       -2   -1    0    0    0  501  0.00000000000E+00  0.00000000000E+00 -0.58021497533E+03  0.58021497533E+03  0.25500000920E-02 0.  1.
    10030    2    1    2    0    0  0.00000000000E+00  0.00000000000E+00  0.14449650724E+03  0.13049264579E+04  0.12969016231E+04 0.  0.
        3    1    3    3  502    0  0.46845815510E+03  0.12895152699E+03  0.50433166473E+03  0.70030848748E+03  0.10100000352E+00 0. -1.
       -3    1    3    3    0  502 -0.46845815510E+03 -0.12895152699E+03 -0.35983515749E+03  0.60461797042E+03  0.10100000352E+00 0.  1.
</event>
<event>
 5   0  0.2401211E-03  0.1328215E+04  0.7818609E-02  0.9007485E-01
       -2   -1    0    0    0  501  0.00000000000E+00  0.00000000000E+00  0.10381840950E+04  0.10381840950E+04  0.25500000920E-02 0. -1.
        2   -1    0    0  501    0  0.00000000000E+00  0.00000000000E+00 -0.42481765598E+03  0.42481765599E+03  0.25500000920E-02 0.  1.
    10030    2    1    2    0    0  0.00000000000E+00  0.00000000000E+00  0.61336643902E+03  0.14630017510E+04  0.13282152442E+04 0.  0.
        4    1    3    3  502    0  0.26432399557E+03 -0.54633214825E+03  0.97097225638E+01  0.60699413709E+03  0.12699999809E+01 0.  1.
       -4    1    3    3    0  502 -0.26432399557E+03  0.54633214825E+03  0.60365671646E+03  0.85600761391E+03  0.12699999809E+01 0. -1.
</event>
<event>
 5   0  0.1332630E-03  0.1306801E+04  0.7818609E-02  0.9024190E-01
       -1   -1    0    0    0  501  0.00000000000E+00  0.00000000000E+00  0.56240192821E+03  0.56240192823E+03  0.50400001928E-02 0. -1.
        1   -1    0    0  501    0  0.00000000000E+00  0.00000000000E+00 -0.75912239437E+03  0.75912239438E+03  0.50400001928E-02 0.  1.
    10030    2    1    2    0    0  0.00000000000E+00  0.00000000000E+00 -0.19672046616E+03  0.13215243226E+04  0.13068005179E+04 0.  0.
        5    1    3    3  502    0  0.61856906874E+03 -0.25780734434E+02 -0.30956129370E+03  0.69220128837E+03  0.46999998093E+01 0.  1.
       -5    1    3    3    0  502 -0.61856906874E+03  0.25780734434E+02  0.11284082754E+03  0.62932303424E+03  0.46999998093E+01 0. -1.
</event>
<event>
 5   0  0.2478236E-03  0.1269621E+04  0.7818609E-02  0.9054009E-01
       -2   -1    0    0    0  501  0.00000000000E+00  0.00000000000E+00  0.40439935565E+03  0.40439935565E+03  0.25500000920E-02 0. -1.
        2   -1    0    0  501    0  0.00000000000E+00  0.00000000000E+00 -0.99650066738E+03  0.99650066738E+03  0.25500000920E-02 0.  1.
    10030    2    1    2    0    0  0.00000000000E+00  0.00000000000E+00 -0.59210131173E+03  0.14009000230E+04  0.12696207746E+04 0.  0.
        3    1    3    3  502    0  0.31086024325E+03  0.20527141646E+02 -0.90635052641E+03  0.95839800777E+03  0.10100000352E+00 0.  1.
       -3    1    3    3    0  502 -0.31086024325E+03 -0.20527141646E+02  0.31424921468E+03  0.44250201526E+03  0.10100000352E+00 0. -1.
</event>
<event>
 5   0  0.2401211E-03  0.1308008E+04  0.7818609E-02  0.9023239E-01
       -2   -1    0    0    0  501  0.00000000000E+00  0.00000000000E+00  0.41019322921E+03  0.41019322922E+03  0.25500000920E-02 0.  1.
        2   -1    0    0  501    0  0.00000000000E+00  0.00000000000E+00 -0.10427306899E+04  0.10427306899E+04  0.25500000920E-02 0. -1.
    10030    2    1    2    0    0  0.00000000000E+00  0.00000000000E+00 -0.63253746067E+03  0.14529239191E+04  0.13080077506E+04 0.  0.
        4    1    3    3  502    0 -0.12620363866E+03  0.42816683915E+03 -0.84720529744E+03  0.95760776389E+03  0.12699999809E+01 0. -1.
       -4    1    3    3    0  502  0.12620363866E+03 -0.42816683915E+03  0.21466783677E+03  0.49531615520E+03  0.12699999809E+01 0.  1.
</event>
<event>
 5   0  0.2334946E-03  0.1266835E+04  0.7818609E-02  0.9056287E-01
       -2   -1    0    0    0  501  0.00000000000E+00  0.00000000000E+00  0.69929467811E+03  0.69929467811E+03  0.25500000920E-02 0. -1.
        2   -1    0    0  501    0  0.00000000000E+00  0.00000000000E+00 -0.57374610193E+03  0.57374610193E+03  0.25500000920E-02 0.  1.
    10030    2    1    2    0    0  0.00000000000E+00  0.00000000000E+00  0.12554857618E+03  0.12730407800E+04  0.12668347890E+04 0.  0.
        1    1    3    3  502    0 -0.42369289160E+03 -0.43231076038E+03 -0.12471229855E+03  0.61803027221E+03  0.50400001928E-02 0.  1.
       -1    1    3    3    0  502  0.42369289160E+03  0.43231076038E+03  0.25026087473E+03  0.65501050784E+03  0.50400001928E-02 0. -1.
</event>
<event>
 5   0  0.1310461E-03  0.1239218E+04  0.7818609E-02  0.9079205E-01
       -1   -1    0    0    0  501  0.00000000000E+00  0.00000000000E+00  0.44084916870E+03  0.44084916873E+03  0.50400001928E-02 0. -1.
        1   -1    0    0  501    0  0.00000000000E+00  0.00000000000E+00 -0.87085471097E+03  0.87085471099E+03  0.50400001928E-02 0.  1.
    10030    2    1    2    0    0  0.00000000000E+00  0.00000000000E+00 -0.43000554227E+03  0.13117038797E+04  0.12392184237E+04 0.  0.
        4    1    3    3  502    0 -0.56034420989E+03  0.15530252377E+03  0.11547978942E+02  0.58158359344E+03  0.12699999809E+01 0. -1.
       -4    1    3    3    0  502  0.56034420989E+03 -0.15530252377E+03 -0.44155352121E+03  0.73012028628E+03  0.12699999809E+01 0.  1.
</event>
<event>
 5   0  0.2478236E-03  0.1166343E+04  0.7818609E-02  0.9142838E-01
        2   -1    0    0  501    0  0.00000000000E+00  0.00000000000E+00  0.81151687245E+03  0.81151687245E+03  0.25500000920E-02 0. -1.
       -2   -1    0    0    0  501  0.00000000000E+00  0.00000000000E+00 -0.41907792148E+03  0.41907792149E+03  0.25500000920E-02 0.  1.
    10030    2    1    2    0    0  0.00000000000E+00  0.00000000000E+00  0.39243895097E+03  0.12305947939E+04  0.11663426669E+04 0.  0.
        3    1    3    3  502    0  0.16157427873E+03  0.27307434028E+03 -0.32003369313E+03  0.45066330870E+03  0.10100000352E+00 0.  1.
       -3    1    3    3    0  502 -0.16157427873E+03 -0.27307434028E+03  0.71247264410E+03  0.77993148523E+03  0.10100000352E+00 0. -1.
</event>
<event>
 5   0  0.2312105E-03  0.1296391E+04  0.7818609E-02  0.9032432E-01
        2   -1    0    0  501    0  0.00000000000E+00  0.00000000000E+00  0.19580764245E+04  0.19580764245E+04  0.25500000920E-02 0.  1.
       -2   -1    0    0    0  501  0.00000000000E+00  0.00000000000E+00 -0.21457654110E+03  0.21457654111E+03  0.25500000920E-02 0. -1.
    10030    2    1    2    0    0  0.00000000000E+00  0.00000000000E+00  0.17434998834E+04  0.21726529656E+04  0.12963907843E+04 0.  0.
        5    1    3    3  502    0 -0.34060071948E+03  0.47013255813E+03  0.38862507398E+03  0.69863081126E+03  0.46999998093E+01 0.  1.
       -5    1    3    3    0  502  0.34060071948E+03 -0.47013255813E+03  0.13548748094E+04  0.14740221543E+04  0.46999998093E+01 0. -1.
</event>
<event>
 5   0  0.1387622E-03  0.1303658E+04  0.7818609E-02  0.9026670E-01
       -1   -1    0    0    0  501  0.00000000000E+00  0.00000000000E+00  0.32018920250E+03  0.32018920254E+03  0.50400001928E-02 0.  1.
        1   -1    0    0  501    0  0.00000000000E+00  0.00000000000E+00 -0.13269681054E+04  0.13269681054E+04  0.50400001928E-02 0. -1.
    10030    2    1    2    0    0  0.00000000000E+00  0.00000000000E+00 -0.10067789029E+04  0.16471573080E+04  0.13036577150E+04 0.  0.
        3    1    3    3  502    0  0.27841116298E+03 -0.62108119955E+02 -0.12439176567E+04  0.12762058381E+04  0.10100000352E+00 0. -1.
       -3    1    3    3    0  502 -0.27841116298E+03  0.62108119955E+02  0.23713875382E+03  0.37095146988E+03  0.10100000352E+00 0.  1.
</event>
<event>
 5   0  0.9131250E-04  0.1303927E+04  0.7818609E-02  0.9026457E-01
       -3   -1    0    0    0  501  0.00000000000E+00  0.00000000000E+00  0.59455528541E+03  0.59455529398E+03  0.10100000352E+00 0. -1.
        3   -1    0    0  501    0  0.00000000000E+00  0.00000000000E+00 -0.71491495472E+03  0.71491496186E+03  0.10100000352E+00 0.  1.
    10030    2    1    2    0    0  0.00000000000E+00  0.00000000000E+00 -0.12035966932E+03  0.13094702558E+04  0.13039271072E+04 0.  0.
        1    1    3    3  502    0 -0.56424138549E+03  0.21144094226E+02 -0.38751188023E+03  0.68482178059E+03  0.50400001928E-02 0.  1.
       -1    1    3    3    0  502  0.56424138549E+03 -0.21144094226E+02  0.26715221091E+03  0.62464847526E+03  0.50400001928E-02 0. -1.
</event>
<event>
 5   0  0.1310461E-03  0.1302872E+04  0.7818609E-02  0.9027291E-01
        1   -1    0    0  501    0  0.00000000000E+00  0.00000000000E+00  0.14107281598E+04  0.14107281598E+04  0.50400001928E-02 0.  1.
       -1   -1    0    0    0  501  0.00000000000E+00  0.00000000000E+00 -0.30081531008E+03  0.30081531012E+03  0.50400001928E-02 0. -1.
    10030    2    1    2    0    0  0.00000000000E+00  0.00000000000E+00  0.11099128497E+04  0.17115434699E+04  0.13028716420E+04 0.  0.
        4    1    3    3  502    0 -0.30777017017E+03 -0.35098573631E+03 -0.41937943319E+02  0.46869378994E+03  0.12699999809E+01 0. -1.
       -4    1    3    3    0  502  0.30777017017E+03  0.35098573631E+03  0.11518507930E+04  0.12428496800E+04  0.12699999809E+01 0.  1.
</event>
<event>
 5   0  0.2401211E-03  0.1300954E+04  0.7818609E-02  0.9028809E-01
       -2   -1    0    0    0  501  0.00000000000E+00  0.00000000000E+00  0.43572824139E+03  0.43572824140E+03  0.25500000920E-02 0.  1.
        2   -1    0    0  501    0  0.00000000000E+00  0.00000000000E+00 -0.97106426132E+03  0.97106426132E+03  0.25500000920E-02 0. -1.
    10030    2    1    2    0    0  0.00000000000E+00  0.00000000000E+00 -0.53533601993E+03  0.14067925027E+04  0.13009536854E+04 0.  0.
        4    1    3    3  502    0 -0.16096705354E+03 -0.59695121332E+03 -0.48624447345E+03  0.78657259313E+03  0.12699999809E+01 0. -1.
       -4    1    3    3    0  502  0.16096705354E+03  0.59695121332E+03 -0.49091546477E+02  0.62021990959E+03  0.12699999809E+01 0.  1.
</event>
<event>
 5   0  0.1387622E-03  0.1324978E+04  0.7818609E-02  0.9009988E-01
       -1   -1    0    0    0  501  0.00000000000E+00  0.00000000000E+00  0.55601637411E+03  0.55601637413E+03  0.50400001928E-02 0. -1.
        1   -1    0    0  501    0  0.00000000000E+00  0.00000000000E+00 -0.78935083541E+03  0.78935083542E+03  0.50400001928E-02 0.  1.
    10030    2    1    2    0    0  0.00000000000E+00  0.00000000000E+00 -0.23333446130E+03  0.13453672096E+04  0.13249784744E+04 0.  0.
        3    1    3    3  502    0 -0.26674299228E+03  0.36632869055E+03  0.37403254283E+03  0.58757883450E+03  0.10100000352E+00 0. -1.
       -3    1    3    3    0  502  0.26674299228E+03 -0.36632869055E+03 -0.60736700413E+03  0.75778837505E+03  0.10100000352E+00 0.  1.
</event>
<event>
 5   0  0.2312105E-03  0.1347237E+04  0.7818609E-02  0.8992922E-01
       -2   -1    0    0    0  501  0.00000000000E+00  0.00000000000E+00  0.47190791349E+03  0.47190791350E+03  0.25500000920E-02 0.  1.
        2   -1    0    0  501    0  0.00000000000E+00  0.00000000000E+00 -0.96154750562E+03  0.96154750563E+03  0.25500000920E-02 0. -1.
    10030    2    1    2    0    0  0.00000000000E+00  0.00000000000E+00 -0.48963959213E+03  0.14334554191E+04  0.13472369905E+04 0.  0.
        5    1    3    3  502    0  0.16005219396E+03  0.58475458275E+03 -0.55718053323E+03  0.82342386621E+03  0.46999998093E+01 0. -1.
       -5    1    3    3    0  502 -0.16005219396E+03 -0.58475458275E+03  0.67540941103E+02  0.61003155292E+03  0.46999998093E+01 0.  1.
</event>
<event>
 5   0  0.2361043E-03  0.1365222E+04  0.7818609E-02  0.8979385E-01
        2   -1    0    0  501    0  0.00000000000E+00  0.00000000000E+00  0.11419560356E+04  0.11419560356E+04  0.25500000920E-02 0.  1.
       -2   -1    0    0    0  501  0.00000000000E+00  0.00000000000E+00 -0.40803468687E+03  0.40803468688E+03  0.25500000920E-02 0. -1.
    10030    2    1    2    0    0  0.00000000000E+00  0.00000000000E+00  0.73392134876E+03  0.15499907225E+04  0.13652218478E+04 0.  0.
        2    1    3    3  502    0  0.61313315526E+03 -0.26167095032E+03  0.53364202023E+03  0.85391905827E+03  0.25500000920E-02 0. -1.
       -2    1    3    3    0  502 -0.61313315526E+03  0.26167095032E+03  0.20027932853E+03  0.69607166424E+03  0.25500000920E-02 0.  1.
</event>
<event>
 5   0  0.2312105E-03  0.1310654E+04  0.7818609E-02  0.9021159E-01
        2   -1    0    0  501    0  0.00000000000E+00  0.00000000000E+00  0.10700277865E+04  0.10700277865E+04  0.25500000920E-02 0. -1.
       -2   -1    0    0    0  501  0.00000000000E+00  0.00000000000E+00 -0.40134773349E+03  0.40134773350E+03  0.25500000920E-02 0.  1.
    10030    2    1    2    0    0  0.00000000000E+00  0.00000000000E+00  0.66868005298E+03  0.14713755200E+04  0.13106536184E+04 0.  0.
        5    1    3    3  502    0  0.37279426671E+03  0.14862360963E+03  0.91590711680E+03  0.99998623953E+03  0.46999998093E+01 0. -1.
       -5    1    3    3    0  502 -0.37279426671E+03 -0.14862360963E+03 -0.24722706383E+03  0.47138928045E+03  0.46999998093E+01 0.  1.
</event>
<event>
 5   0  0.1387622E-03  0.1304850E+04  0.7818609E-02  0.9025728E-01
        1   -1    0    0  501    0  0.00000000000E+00  0.00000000000E+00  0.65549265874E+03  0.65549265876E+03  0.50400001928E-02 0.  1.
       -1   -1    0    0    0  501  0.00000000000E+00  0.00000000000E+00 -0.64937151536E+03  0.64937151538E+03  0.50400001928E-02 0. -1.
    10030    2    1    2    0    0  0.00000000000E+00  0.00000000000E+00  0.61211433834E+01  0.13048641741E+04  0.13048498169E+04 0.  0.
        3    1    3    3  502    0 -0.41188476121E+03 -0.50595469433E+03 -0.13031572773E+01  0.65241161673E+03  0.10100000352E+00 0.  1.
       -3    1    3    3    0  502  0.41188476121E+03  0.50595469433E+03  0.74243006607E+01  0.65245255741E+03  0.10100000352E+00 0. -1.
</event>
<event>
 5   0  0.1310461E-03  0.1315889E+04  0.7818609E-02  0.9017059E-01
       -1   -1    0    0    0  501  0.00000000000E+00  0.00000000000E+00  0.22914174588E+03  0.22914174593E+03  0.50400001928E-02 0.  1.
        1   -1    0    0  501    0  0.00000000000E+00  0.00000000000E+00 -0.18891850198E+04  0.18891850198E+04  0.50400001928E-02 0. -1.
    10030    2    1    2    0    0  0.00000000000E+00  0.00000000000E+00 -0.16600432739E+04  0.21183267658E+04  0.13158892868E+04 0.  0.
        4    1    3    3  502    0  0.47510287090E+03 -0.43659591072E+03 -0.62292012115E+03  0.89686666647E+03  0.12699999809E+01 0. -1.
       -4    1    3    3    0  502 -0.47510287090E+03  0.43659591072E+03 -0.10371231528E+04  0.12214600993E+04  0.12699999809E+01 0.  1.
</event>
<event>
 5   0  0.2478236E-03  0.1299545E+04  0.7818609E-02  0.9029926E-01
       -2   -1    0    0    0  501  0.00000000000E+00  0.00000000000E+00  0.34347819839E+03  0.34347819840E+03  0.25500000920E-02 0.  1.
        2   -1    0    0  501    0  0.00000000000E+00  0.00000000000E+00 -0.12292022489E+04  0.12292022489E+04  0.25500000920E-02 0. -1.
    10030    2    1    2    0    0  0.00000000000E+00  0.00000000000E+00 -0.88572405055E+03  0.15726804473E+04  0.12995448033E+04 0.  0.
        3    1    3    3  502    0 -0.56412777751E+02 -0.32166933828E+03  0.23694200496E+03  0.40347873376E+03  0.10100000352E+00 0.  1.
       -3    1    3    3    0  502  0.56412777751E+02  0.32166933828E+03 -0.11226660555E+04  0.11692017136E+04  0.10100000352E+00 0. -1.
</event>
<event>
 5   0  0.1346593E-03  0.1062632E+04  0.7818609E-02  0.9242399E-01
       -1   -1    0    0    0  501  0.00000000000E+00  0.00000000000E+00  0.38511193129E+03  0.38511193132E+03  0.50400001928E-02 0.  1.
        1   -1    0    0  501    0  0.00000000000E+00  0.00000000000E+00 -0.73302483519E+03  0.73302483521E+03  0.50400001928E-02 0. -1.
    10030    2    1    2    0    0  0.00000000000E+00  0.00000000000E+00 -0.34791290390E+03  0.11181367665E+04  0.10626318459E+04 0.  0.
        2    1    3    3  502    0  0.51606985017E+03 -0.35187618560E+02 -0.30166461325E+03  0.59880530864E+03  0.25500000920E-02 0.  1.
       -2    1    3    3    0  502 -0.51606985017E+03  0.35187618560E+02 -0.46248290655E+02  0.51933145789E+03  0.25500000920E-02 0. -1.
</event>
<event>
 5   0  0.2401211E-03  0.1321075E+04  0.7818609E-02  0.9013017E-01
       -2   -1    0    0    0  501  0.00000000000E+00  0.00000000000E+00  0.22220729118E+03  0.22220729119E+03  0.25500000920E-02 0.  1.
        2   -1    0    0  501    0  0.00000000000E+00  0.00000000000E+00 -0.19635265731E+04  0.19635265731E+04  0.25500000920E-02 0. -1.
    10030    2    1    2    0    0  0.00000000000E+00  0.00000000000E+00 -0.17413192819E+04  0.21857338643E+04  0.13210752000E+04 0.  0.
        4    1    3    3  502    0 -0.55549755126E+03 -0.21747944429E+02 -0.28044231231E+03  0.62265560784E+03  0.12699999809E+01 0.  1.
       -4    1    3    3    0  502  0.55549755126E+03  0.21747944429E+02 -0.14608769696E+04  0.15630782565E+04  0.12699999809E+01 0. -1.
</event>
<event>
 5   0  0.1310461E-03  0.1311650E+04  0.7818609E-02  0.9020377E-01
       -1   -1    0    0    0  501  0.00000000000E+00  0.00000000000E+00  0.30388124331E+03  0.30388124335E+03  0.50400001928E-02 0.  1.
        1   -1    0    0  501    0  0.00000000000E+00  0.00000000000E+00 -0.14153767250E+04  0.14153767250E+04  0.50400001928E-02 0. -1.
    10030    2    1    2    0    0  0.00000000000E+00  0.00000000000E+00 -0.11114954817E+04  0.17192579684E+04  0.13116500127E+04 0.  0.
        4    1    3    3  502    0  0.22241714036E+03 -0.24309627632E+03  0.18751153886E+03  0.37911393273E+03  0.12699999809E+01 0.  1.
       -4    1    3    3    0  502 -0.22241714036E+03  0.24309627632E+03 -0.12990070205E+04  0.13401440356E+04  0.12699999809E+01 0. -1.
</event>
<event>
 5   0  0.1324721E-03  0.1295126E+04  0.7818609E-02  0.9033439E-01
        1   -1    0    0  501    0  0.00000000000E+00  0.00000000000E+00  0.11224425554E+04  0.11224425554E+04  0.50400001928E-02 0.  1.
       -1   -1    0    0    0  501  0.00000000000E+00  0.00000000000E+00 -0.37359409881E+03  0.37359409885E+03  0.50400001928E-02 0. -1.
    10030    2    1    2    0    0  0.00000000000E+00  0.00000000000E+00  0.74884845661E+03  0.14960366543E+04  0.12951261174E+04 0.  0.
        1    1    3    3  502    0 -0.12286177596E+03 -0.70873234647E+02  0.11042786689E+04  0.11133505333E+04  0.50400001928E-02 0.  1.
       -1    1    3    3    0  502  0.12286177596E+03  0.70873234647E+02 -0.35543021227E+03  0.38268612100E+03  0.50400001928E-02 0. -1.
</event>
<event>
 5   0  0.1332630E-03  0.1309717E+04  0.7818609E-02  0.9021895E-01
        1   -1    0    0  501    0  0.00000000000E+00  0.00000000000E+00  0.35429262662E+03  0.35429262666E+03  0.50400001928E-02 0.  1.
       -1   -1    0    0    0  501  0.00000000000E+00  0.00000000000E+00 -0.12104113043E+04  0.12104113043E+04  0.50400001928E-02 0. -1.
    10030    2    1    2    0    0  0.00000000000E+00  0.00000000000E+00 -0.85611867765E+03  0.15647039310E+04  0.13097172219E+04 0.  0.
        5    1    3    3  502    0  0.60967035319E+03 -0.19631192649E+03 -0.59091161444E+03  0.87145564323E+03  0.46999998093E+01 0. -1.
       -5    1    3    3    0  502 -0.60967035319E+03  0.19631192649E+03 -0.26520706321E+03  0.69324828772E+03  0.46999998093E+01 0.  1.
</event>
<event>
 5   0  0.1387622E-03  0.1269432E+04  0.7818609E-02  0.9054163E-01
        1   -1    0    0  501    0  0.00000000000E+00  0.00000000000E+00  0.38522571324E+03  0.38522571328E+03  0.50400001928E-02 0. -1.
       -1   -1    0    0    0  501  0.00000000000E+00  0.00000000000E+00 -0.10457879982E+04  0.10457879982E+04  0.50400001928E-02 0.  1.
    10030    2    1    2    0    0  0.00000000000E+00  0.00000000000E+00 -0.66056228496E+03  0.14310137115E+04  0.12694320424E+04 0.  0.
        3    1    3    3  502    0 -0.26842933986E+03  0.29868718242E+02 -0.97777748872E+03  0.10143940450E+04  0.10100000352E+00 0.  1.
       -3    1    3    3    0  502  0.26842933986E+03 -0.29868718242E+02  0.31721520376E+03  0.41661966652E+03  0.10100000352E+00 0. -1.
</event>
<event>
 5   0  0.2361043E-03  0.1296941E+04  0.7818609E-02  0.9031994E-01
        2   -1    0    0  501    0  0.00000000000E+00  0.00000000000E+00  0.87083386566E+03  0.87083386567E+03  0.25500000920E-02 0.  1.
       -2   -1    0    0    0  501  0.00000000000E+00  0.00000000000E+00 -0.48288694077E+03  0.48288694078E+03  0.25500000920E-02 0. -1.
    10030    2    1    2    0    0  0.00000000000E+00  0.00000000000E+00  0.38794692489E+03  0.13537208064E+04  0.12969414810E+04 0.  0.
        2    1    3    3  502    0 -0.11366624460E+03  0.35279252306E+03 -0.36142284521E+03  0.51769590739E+03  0.25500000920E-02 0. -1.
       -2    1    3    3    0  502  0.11366624460E+03 -0.35279252306E+03  0.74936977010E+03  0.83602489905E+03  0.25500000920E-02 0.  1.
</event>
<event>
 5   0  0.1310461E-03  0.1237188E+04  0.7818609E-02  0.9080915E-01
        1   -1    0    0  501    0  0.00000000000E+00  0.00000000000E+00  0.79381858151E+03  0.79381858153E+03  0.50400001928E-02 0.  1.
       -1   -1    0    0    0  501  0.00000000000E+00  0.00000000000E+00 -0.48204750799E+03  0.48204750802E+03  0.50400001928E-02 0. -1.
    10030    2    1    2    0    0  0.00000000000E+00  0.00000000000E+00  0.31177107352E+03  0.12758660895E+04  0.12371875671E+04 0.  0.
        4    1    3    3  502    0 -0.24471815265E+03  0.42815111868E+03  0.54099892716E+03  0.73203948442E+03  0.12699999809E+01 0.  1.
       -4    1    3    3    0  502  0.24471815265E+03 -0.42815111868E+03 -0.22922785364E+03  0.54382660513E+03  0.12699999809E+01 0. -1.
</event>
<event>
 5   0  0.2478236E-03  0.1287784E+04  0.7818609E-02  0.9039309E-01
        2   -1    0    0  501    0  0.00000000000E+00  0.00000000000E+00  0.74532283696E+03  0.74532283696E+03  0.25500000920E-02 0. -1.
       -2   -1    0    0    0  501  0.00000000000E+00  0.00000000000E+00 -0.55626495531E+03  0.55626495531E+03  0.25500000920E-02 0.  1.
    10030    2    1    2    0    0  0.00000000000E+00  0.00000000000E+00  0.18905788166E+03  0.13015877923E+04  0.12877841039E+04 0.  0.
        3    1    3    3  502    0  0.38728042397E+02 -0.16353149724E+03  0.72276581515E+03  0.74204639047E+03  0.10100000352E+00 0. -1.
       -3    1    3    3    0  502 -0.38728042397E+02  0.16353149724E+03 -0.53370793350E+03  0.55954140181E+03  0.10100000352E+00 0.  1.
</event>
<event>
 5   0  0.9131250E-04  0.1315852E+04  0.7818609E-02  0.9017088E-01
       -3   -1    0    0    0  501  0.00000000000E+00  0.00000000000E+00  0.15827217553E+04  0.15827217585E+04  0.10100000352E+00 0. -1.
        3   -1    0    0  501    0  0.00000000000E+00  0.00000000000E+00 -0.27349503601E+03  0.27349505466E+03  0.10100000352E+00 0.  1.
    10030    2    1    2    0    0  0.00000000000E+00  0.00000000000E+00  0.13092267193E+04  0.18562168132E+04  0.13158519123E+04 0.  0.
        1    1    3    3  502    0 -0.35555974145E+03 -0.16986772953E+03  0.13978423593E+04  0.14523226352E+04  0.50400001928E-02 0. -1.
       -1    1    3    3    0  502  0.35555974145E+03  0.16986772953E+03 -0.88615640052E+02  0.40389417793E+03  0.50400001928E-02 0.  1.
</event>
<event>
 5   0  0.2401211E-03  0.1341224E+04  0.7818609E-02  0.8997498E-01
       -2   -1    0    0    0  501  0.00000000000E+00  0.00000000000E+00  0.42045129335E+03  0.42045129336E+03  0.25500000920E-02 0. -1.
        2   -1    0    0  501    0  0.00000000000E+00  0.00000000000E+00 -0.10696137883E+04  0.10696137883E+04  0.25500000920E-02 0.  1.
    10030    2    1    2    0    0  0.00000000000E+00  0.00000000000E+00 -0.64916249499E+03  0.14900650817E+04  0.13412240688E+04 0.  0.
        4    1    3    3  502    0 -0.11130415019E+03  0.65132984489E+03 -0.19742588159E+03  0.68963597087E+03  0.12699999809E+01 0. -1.
       -4    1    3    3    0  502  0.11130415019E+03 -0.65132984489E+03 -0.45173661340E+03  0.80042911084E+03  0.12699999809E+01 0.  1.
</event>
<event>
 5   0  0.1324721E-03  0.1210420E+04  0.7818609E-02  0.9103784E-01
       -1   -1    0    0    0  501  0.00000000000E+00  0.00000000000E+00  0.15312367103E+03  0.15312367111E+03  0.50400001928E-02 0. -1.
        1   -1    0    0  501    0  0.00000000000E+00  0.00000000000E+00 -0.23920481297E+04  0.23920481297E+04  0.50400001928E-02 0.  1.
    10030    2    1    2    0    0  0.00000000000E+00  0.00000000000E+00 -0.22389244587E+04  0.25451718008E+04  0.12104200775E+04 0.  0.
        1    1    3    3  502    0  0.32121882129E+02 -0.41607463038E+03 -0.19778733259E+03  0.46181137093E+03  0.50400001928E-02 0. -1.
       -1    1    3    3    0  502 -0.32121882129E+02  0.41607463038E+03 -0.20411371261E+04  0.20833604299E+04  0.50400001928E-02 0.  1.
</event>
<event>
 5   0  0.2312105E-03  0.1301664E+04  0.7818609E-02  0.9028246E-01
        2   -1    0    0  501    0  0.00000000000E+00  0.00000000000E+00  0.71009870572E+03  0.71009870572E+03  0.25500000920E-02 0. -1.
       -2   -1    0    0    0  501  0.00000000000E+00  0.00000000000E+00 -0.59651219159E+03  0.59651219160E+03  0.25500000920E-02 0.  1.
    10030    2    1    2    0    0  0.00000000000E+00  0.00000000000E+00  0.11358651413E+03  0.13066108973E+04  0.13016643733E+04 0.  0.
        5    1    3    3  502    0  0.48829169870E+03  0.38355313620E+03  0.25251795235E+03  0.67032022017E+03  0.46999998093E+01 0. -1.
       -5    1    3    3    0  502 -0.48829169870E+03 -0.38355313620E+03 -0.13893143822E+03  0.63629067715E+03  0.46999998093E+01 0.  1.
</event>
<event>
 5   0  0.9131250E-04  0.1303115E+04  0.7818609E-02  0.9027099E-01
        3   -1    0    0  501    0  0.00000000000E+00  0.00000000000E+00  0.71752276948E+03  0.71752277659E+03  0.10100000352E+00 0.  1.
       -3   -1    0    0    0  501  0.00000000000E+00  0.00000000000E+00 -0.59165678999E+03  0.59165679862E+03  0.10100000352E+00 0. -1.
    10030    2    1    2    0    0  0.00000000000E+00  0.00000000000E+00  0.12586597948E+03  0.13091795752E+04  0.13031150814E+04 0.  0.
        4    1    3    3  502    0  0.11543934425E+03 -0.44185719492E+03 -0.40394640941E+03  0.60970348324E+03  0.12699999809E+01 0. -1.
       -4    1    3    3    0  502 -0.11543934425E+03  0.44185719492E+03  0.52981238889E+03  0.69947609196E+03  0.12699999809E+01 0.  1.
</event>
<event>
 5   0  0.2334946E-03  0.1301114E+04  0.7818609E-02  0.9028682E-01
        2   -1    0    0  501    0  0.00000000000E+00  0.00000000000E+00  0.90948391247E+03  0.90948391248E+03  0.25500000920E-02 0.  1.
       -2   -1    0    0    0  501  0.00000000000E+00  0.00000000000E+00 -0.46534592152E+03  0.46534592153E+03  0.25500000920E-02 0. -1.
    10030    2    1    2    0    0  0.00000000000E+00  0.00000000000E+00  0.44413799095E+03  0.13748298340E+04  0.13011143368E+04 0.  0.
        1    1    3    3  502    0  0.13653295284E+03 -0.48964827500E+03  0.65106071822E+03  0.82600044749E+03  0.50400001928E-02 0.  1.
       -1    1    3    3    0  502 -0.13653295284E+03  0.48964827500E+03 -0.20692272727E+03  0.54882938651E+03  0.50400001928E-02 0. -1.
</event>
<event>
 5   0  0.2478236E-03  0.1306316E+04  0.7818609E-02  0.9024571E-01
        2   -1    0    0  501    0  0.00000000000E+00  0.00000000000E+00  0.77935685756E+03  0.77935685756E+03  0.25500000920E-02 0.  1.
       -2   -1    0    0    0  501  0.00000000000E+00  0.00000000000E+00 -0.54739425127E+03  0.54739425127E+03  0.25500000920E-02 0. -1.
    10030    2    1    2    0    0  0.00000000000E+00  0.00000000000E+00  0.23196260629E+03  0.13267511088E+04  0.13063161386E+04 0.  0.
        3    1    3    3  502    0 -0.43033844190E+03  0.66860773890E+02  0.61037521251E+03  0.74981294195E+03  0.10100000352E+00 0.  1.
       -3    1    3    3    0  502  0.43033844190E+03 -0.66860773890E+02 -0.37841260622E+03  0.57693816689E+03  0.10100000352E+00 0. -1.
</event>
<event>
 5   0  0.1324721E-03  0.1289744E+04  0.7818609E-02  0.9037738E-01
        1   -1    0    0  501    0  0.00000000000E+00  0.00000000000E+00  0.82038602083E+03  0.82038602085E+03  0.50400001928E-02 0.  1.
       -1   -1    0    0    0  501  0.00000000000E+00  0.00000000000E+00 -0.50690749597E+03  0.50690749600E+03  0.50400001928E-02 0. -1.
    10030    2    1    2    0    0  0.00000000000E+00  0.00000000000E+00  0.31347852486E+03  0.13272935168E+04  0.12897438871E+04 0.  0.
        1    1    3    3  502    0  0.45890957563E+03 -0.18356586971E+03  0.58300295619E+03  0.76432118516E+03  0.50400001928E-02 0.  1.
       -1    1    3    3    0  502 -0.45890957563E+03  0.18356586971E+03 -0.26952443133E+03  0.56297233168E+03  0.50400001928E-02 0. -1.
</event>
<event>
 5   0  0.9131250E-04  0.1252718E+04  0.7818609E-02  0.9067924E-01
       -4   -1    0    0    0  501  0.00000000000E+00  0.00000000000E+00  0.12764631739E+04  0.12764638057E+04  0.12699999809E+01 0.  1.
        4   -1    0    0  501    0  0.00000000000E+00  0.00000000000E+00 -0.30735159582E+03  0.30735421968E+03  0.12699999809E+01 0. -1.
    10030    2    1    2    0    0  0.00000000000E+00  0.00000000000E+00  0.96911157811E+03  0.15838180254E+04  0.12527179598E+04 0.  0.
        5    1    3    3  502    0 -0.79906432767E+02  0.14975276953E+03  0.12468098305E+04  0.12583194242E+04  0.46999998093E+01 0.  1.
       -5    1    3    3    0  502  0.79906432767E+02 -0.14975276953E+03 -0.27769825239E+03  0.32549860116E+03  0.46999998093E+01 0. -1.
</event>
<event>
 5   0  0.2334946E-03  0.1322182E+04  0.7818609E-02  0.9012158E-01
       -2   -1    0    0    0  501  0.00000000000E+00  0.00000000000E+00  0.48244928532E+03  0.48244928533E+03  0.25500000920E-02 0.  1.
        2   -1    0    0  501    0  0.00000000000E+00  0.00000000000E+00 -0.90587977426E+03  0.90587977427E+03  0.25500000920E-02 0. -1.
    10030    2    1    2    0    0  0.00000000000E+00  0.00000000000E+00 -0.42343048894E+03  0.13883290596E+04  0.13221816058E+04 0.  0.
        1    1    3    3  502    0  0.45564398548E+03  0.31492757542E+03 -0.59067278512E+03  0.80974388443E+03  0.50400001928E-02 0. -1.
       -1    1    3    3    0  502 -0.45564398548E+03 -0.31492757542E+03  0.16724229617E+03  0.57858517517E+03  0.50400001928E-02 0.  1.
</event>
<event>
 5   0  0.2478236E-03  0.1298597E+04  0.7818609E-02  0.9030678E-01
        2   -1    0    0  501    0  0.00000000000E+00  0.00000000000E+00  0.20108541882E+04  0.20108541882E+04  0.25500000920E-02 0. -1.
       -2   -1    0    0    0  501  0.00000000000E+00  0.00000000000E+00 -0.20965655017E+03  0.20965655019E+03  0.25500000920E-02 0.  1.
    10030    2    1    2    0    0  0.00000000000E+00  0.00000000000E+00  0.18011976380E+04  0.22205107384E+04  0.12985973233E+04 0.  0.
        3    1    3    3  502    0 -0.59115773304E+03  0.24631091291E+03  0.71761063864E+03  0.96182200539E+03  0.10100000352E+00 0. -1.
       -3    1    3    3    0  502  0.59115773304E+03 -0.24631091291E+03  0.10835869994E+04  0.12586887330E+04  0.10100000352E+00 0.  1.
</event>
<event>
 5   0  0.1332630E-03  0.1243911E+04  0.7818609E-02  0.9075267E-01
        1   -1    0    0  501    0  0.00000000000E+00  0.00000000000E+00  0.10351004421E+04  0.10351004422E+04  0.50400001928E-02 0. -1.
       -1   -1    0    0    0  501  0.00000000000E+00  0.00000000000E+00 -0.37371112509E+03  0.37371112513E+03  0.50400001928E-02 0.  1.
    10030    2    1    2    0    0  0.00000000000E+00  0.00000000000E+00  0.66138931705E+03  0.14088115673E+04  0.12439108503E+04 0.  0.
        5    1    3    3  502    0  0.46958150686E+03  0.19479157352E+00 -0.13116421925E+03  0.48757868281E+03  0.46999998093E+01 0.  1.
       -5    1    3    3    0  502 -0.46958150686E+03 -0.19479157352E+00  0.79255353630E+03  0.92123288447E+03  0.46999998093E+01 0. -1.
</event>
<event>
 5   0  0.2478236E-03  0.1279426E+04  0.7818609E-02  0.9046042E-01
        2   -1    0    0  501    0  0.00000000000E+00  0.00000000000E+00  0.94144217632E+03  0.94144217633E+03  0.25500000920E-02 0. -1.
       -2   -1    0    0    0  501  0.00000000000E+00  0.00000000000E+00 -0.43468675348E+03  0.43468675349E+03  0.25500000920E-02 0.  1.
    10030    2    1    2    0    0  0.00000000000E+00  0.00000000000E+00  0.50675542284E+03  0.13761289298E+04  0.12794255636E+04 0.  0.
        3    1    3    3  502    0 -0.38137741809E+03 -0.42181756819E+03  0.56853216620E+03  0.80411916409E+03  0.10100000352E+00 0. -1.
       -3    1    3    3    0  502  0.38137741809E+03  0.42181756819E+03 -0.61776743359E+02  0.57200976572E+03  0.10100000352E+00 0.  1.
</event>
<event>
 5   0  0.1346593E-03  0.1258826E+04  0.7818609E-02  0.9062870E-01
        1   -1    0    0  501    0  0.00000000000E+00  0.00000000000E+00  0.79127367702E+03  0.79127367704E+03  0.50400001928E-02 0. -1.
       -1   -1    0    0    0  501  0.00000000000E+00  0.00000000000E+00 -0.50066171957E+03  0.50066171960E+03  0.50400001928E-02 0.  1.
    10030    2    1    2    0    0  0.00000000000E+00  0.00000000000E+00  0.29061195745E+03  0.12919353966E+04  0.12588255476E+04 0.  0.
        2    1    3    3  502    0 -0.52814897724E+03 -0.31601247973E+03  0.10101776654E+02  0.61555444552E+03  0.25500000920E-02 0.  1.
       -2    1    3    3    0  502  0.52814897724E+03  0.31601247973E+03  0.28051018080E+03  0.67638095112E+03  0.25500000920E-02 0. -1.
</event>
<event>
 5   0  0.1310461E-03  0.1266695E+04  0.7818609E-02  0.9056401E-01
        1   -1    0    0  501    0  0.00000000000E+00  0.00000000000E+00  0.91332778241E+03  0.91332778243E+03  0.50400001928E-02 0. -1.
       -1   -1    0    0    0  501  0.00000000000E+00  0.00000000000E+00 -0.43919534957E+03  0.43919534960E+03  0.50400001928E-02 0.  1.
    10030    2    1    2    0    0  0.00000000000E+00  0.00000000000E+00  0.47413243284E+03  0.13525231320E+04  0.12666954088E+04 0.  0.
        4    1    3    3  502    0  0.28266287210E+03  0.14125510334E+03  0.82314373222E+03  0.88171340031E+03  0.12699999809E+01 0. -1.
       -4    1    3    3    0  502 -0.28266287210E+03 -0.14125510334E+03 -0.34901129938E+03  0.47080973172E+03  0.12699999809E+01 0.  1.
</event>
<event>
 5   0  0.2478236E-03  0.1309926E+04  0.7818609E-02  0.9021730E-01
       -2   -1    0    0    0  501  0.00000000000E+00  0.00000000000E+00  0.46950779729E+03  0.46950779730E+03  0.25500000920E-02 0. -1.
        2   -1    0    0  501    0  0.00000000000E+00  0.00000000000E+00 -0.91367343423E+03  0.91367343423E+03  0.25500000920E-02 0.  1.
    10030    2    1    2    0    0  0.00000000000E+00  0.00000000000E+00 -0.44416563694E+03  0.13831812315E+04  0.13099264125E+04 0.  0.
        3    1    3    3  502    0 -0.14212799141E+03  0.14110377900E+03  0.43638151808E+03  0.48014527167E+03  0.10100000352E+00 0. -1.
       -3    1    3    3    0  502  0.14212799141E+03 -0.14110377900E+03 -0.88054715502E+03  0.90303595986E+03  0.10100000352E+00 0.  1.
</event>
<event>
 5   0  0.1387622E-03  0.1358757E+04  0.7818609E-02  0.8984226E-01
       -1   -1    0    0    0  501  0.00000000000E+00  0.00000000000E+00  0.15660580492E+04  0.15660580492E+04  0.50400001928E-02 0. -1.
        1   -1    0    0  501    0  0.00000000000E+00  0.00000000000E+00 -0.29472414255E+03  0.29472414259E+03  0.50400001928E-02 0.  1.
    10030    2    1    2    0    0  0.00000000000E+00  0.00000000000E+00  0.12713339066E+04  0.18607821918E+04  0.13587569551E+04 0.  0.
        3    1    3    3  502    0 -0.23561547333E+03  0.26819606935E+03 -0.15592133073E+03  0.38955776782E+03  0.10100000352E+00 0.  1.
       -3    1    3    3    0  502  0.23561547333E+03 -0.26819606935E+03  0.14272552374E+04  0.14712244240E+04  0.10100000352E+00 0. -1.
</event>
<event>
 5   0  0.1324721E-03  0.1303005E+04  0.7818609E-02  0.9027185E-01
        1   -1    0    0  501    0  0.00000000000E+00  0.00000000000E+00  0.93656186183E+03  0.93656186184E+03  0.50400001928E-02 0. -1.
       -1   -1    0    0    0  501  0.00000000000E+00  0.00000000000E+00 -0.45320621068E+03  0.45320621071E+03  0.50400001928E-02 0.  1.
    10030    2    1    2    0    0  0.00000000000E+00  0.00000000000E+00  0.48335565114E+03  0.13897680725E+04  0.13030052225E+04 0.  0.
        1    1    3    3  502    0 -0.12297465721E+03 -0.53749808044E+03 -0.12845804247E+03  0.56615229532E+03  0.50400001928E-02 0. -1.
       -1    1    3    3    0  502  0.12297465721E+03  0.53749808044E+03  0.61181369361E+03  0.82361577723E+03  0.50400001928E-02 0.  1.
</event>
<event>
 5   0  0.1310461E-03  0.1332804E+04  0.7818609E-02  0.9003948E-01
        1   -1    0    0  501    0  0.00000000000E+00  0.00000000000E+00  0.96990907502E+03  0.96990907503E+03  0.50400001928E-02 0.  1.
       -1   -1    0    0    0  501  0.00000000000E+00  0.00000000000E+00 -0.45786939168E+03  0.45786939171E+03  0.50400001928E-02 0. -1.
    10030    2    1    2    0    0  0.00000000000E+00  0.00000000000E+00  0.51203968334E+03  0.14277784667E+04  0.13328040789E+04 0.  0.
        4    1    3    3  502    0  0.27578370366E+02 -0.16161306729E+03 -0.43592621963E+03  0.46573880222E+03  0.12699999809E+01 0. -1.
       -4    1    3    3    0  502 -0.27578370366E+02  0.16161306729E+03  0.94796590297E+03  0.96203966452E+03  0.12699999809E+01 0.  1.
</event>
<event>
 5   0  0.2361043E-03  0.1311008E+04  0.7818609E-02  0.9020881E-01
       -2   -1    0    0    0  501  0.00000000000E+00  0.00000000000E+00  0.40327567905E+03  0.40327567905E+03  0.25500000920E-02 0.  1.
        2   -1    0    0  501    0  0.00000000000E+00  0.00000000000E+00 -0.10654882795E+04  0.10654882795E+04  0.25500000920E-02 0. -1.
    10030    2    1    2    0    0  0.00000000000E+00  0.00000000000E+00 -0.66221260044E+03  0.14687639585E+04  0.13110080235E+04 0.  0.
        2    1    3    3  502    0  0.56624160725E+03  0.30587453345E+03 -0.19164087013E+03  0.67150205592E+03  0.25500000920E-02 0.  1.
       -2    1    3    3    0  502 -0.56624160725E+03 -0.30587453345E+03 -0.47057173030E+03  0.79726190262E+03  0.25500000920E-02 0. -1.
</event>
<event>
 5   0  0.2361043E-03  0.1316550E+04  0.7818609E-02  0.9016543E-01
       -2   -1    0    0    0  501  0.00000000000E+00  0.00000000000E+00  0.40168581410E+03  0.40168581411E+03  0.25500000920E-02 0. -1.
        2   -1    0    0  501    0  0.00000000000E+00  0.00000000000E+00 -0.10787682877E+04  0.10787682877E+04  0.25500000920E-02 0.  1.
    10030    2    1    2    0    0  0.00000000000E+00  0.00000000000E+00 -0.67708247363E+03  0.14804541018E+04  0.13165499123E+04 0.  0.
        2    1    3    3  502    0 -0.43456262986E+03 -0.72921552996E+02 -0.88846848375E+03  0.99173508498E+03  0.25500000920E-02 0.  1.
       -2    1    3    3    0  502  0.43456262986E+03  0.72921552996E+02  0.21138601012E+03  0.48871901686E+03  0.25500000920E-02 0. -1.
</event>
<event>
 5   0  0.2361043E-03  0.1308381E+04  0.7818609E-02  0.9022945E-01
        2   -1    0    0  501    0  0.00000000000E+00  0.00000000000E+00  0.13114051113E+04  0.13114051113E+04  0.25500000920E-02 0.  1.
       -2   -1    0    0    0  501  0.00000000000E+00  0.00000000000E+00 -0.32634101144E+03  0.32634101145E+03  0.25500000920E-02 0. -1.
    10030    2    1    2    0    0  0.00000000000E+00  0.00000000000E+00  0.98506409982E+03  0.16377461227E+04  0.13083810919E+04 0.  0.
        2    1    3    3  502    0 -0.14195469955E+03 -0.56928252556E+03  0.85473906686E+03  0.10367316929E+04  0.25500000920E-02 0. -1.
       -2    1    3    3    0  502  0.14195469955E+03  0.56928252556E+03  0.13032503296E+03  0.60101442982E+03  0.25500000920E-02 0.  1.
</event>
<event>
 5   0  0.1346593E-03  0.1294614E+04  0.7818609E-02  0.9033847E-01
        1   -1    0    0  501    0  0.00000000000E+00  0.00000000000E+00  0.59933722956E+03  0.59933722958E+03  0.50400001928E-02 0. -1.
       -1   -1    0    0    0  501  0.00000000000E+00  0.00000000000E+00 -0.69911582697E+03  0.69911582699E+03  0.50400001928E-02 0.  1.
    10030    2    1    2    0    0  0.00000000000E+00  0.00000000000E+00 -0.99778597408E+02  0.12984530566E+04  0.12946136766E+04 0.  0.
        2    1    3    3  502    0  0.91202204301E+02 -0.54464175564E+02  0.59053545661E+03  0.60001359486E+03  0.25500000920E-02 0. -1.
       -2    1    3    3    0  502 -0.91202204301E+02  0.54464175564E+02 -0.69031405402E+03  0.69843946171E+03  0.25500000920E-02 0.  1.
</event>
<event>
 5   0  0.1310461E-03  0.1253901E+04  0.7818609E-02  0.9066943E-01
        1   -1    0    0  501    0  0.00000000000E+00  0.00000000000E+00  0.71247436663E+03  0.71247436664E+03  0.50400001928E-02 0. -1.
       -1   -1    0    0    0  501  0.00000000000E+00  0.00000000000E+00 -0.55169246129E+03  0.55169246132E+03  0.50400001928E-02 0.  1.
    10030    2    1    2    0    0  0.00000000000E+00  0.00000000000E+00  0.16078190533E+03  0.12641668280E+04  0.12539006930E+04 0.  0.
        4    1    3    3  502    0 -0.15936814651E+03 -0.32170073624E+03  0.59857920303E+03  0.69798871411E+03  0.12699999809E+01 0. -1.
       -4    1    3    3    0  502  0.15936814651E+03  0.32170073624E+03 -0.43779729770E+03  0.56617811385E+03  0.12699999809E+01 0.  1.
</event>
<event>
 5   0  0.1387622E-03  0.1317349E+04  0.7818609E-02  0.9015919E-01
        1   -1    0    0  501    0  0.00000000000E+00  0.00000000000E+00  0.72628136391E+03  0.72628136393E+03  0.50400001928E-02 0.  1.
       -1   -1    0    0    0  501  0.00000000000E+00  0.00000000000E+00 -0.59736075856E+03  0.59736075858E+03  0.50400001928E-02 0. -1.
    10030    2    1    2    0    0  0.00000000000E+00  0.00000000000E+00  0.12892060535E+03  0.13236421225E+04  0.13173488323E+04 0.  0.
        3    1    3    3  502    0  0.19854093343E+03 -0.16746594601E+03 -0.54373180908E+03  0.60258413166E+03  0.10100000352E+00 0. -1.
       -3    1    3    3    0  502 -0.19854093343E+03  0.16746594601E+03  0.67265241444E+03  0.72105799085E+03  0.10100000352E+00 0.  1.
</event>
<event>
 5   0  0.2312105E-03  0.1588157E+04  0.7818609E-02  0.8827857E-01
        2   -1    0    0  501    0  0.00000000000E+00  0.00000000000E+00  0.56305038244E+03  0.56305038244E+03  0.25500000920E-02 0. -1.
       -2   -1    0    0    0  501  0.00000000000E+00  0.00000000000E+00 -0.11199006774E+04  0.11199006774E+04  0.25500000920E-02 0.  1.
    10030    2    1    2    0    0  0.00000000000E+00  0.00000000000E+00 -0.55685029501E+03  0.16829510599E+04  0.15881567992E+04 0.  0.
        5    1    3    3  502    0 -0.53572547810E+02 -0.15656040441E+03 -0.11014129149E+04  0.11137834966E+04  0.46999998093E+01 0.  1.
       -5    1    3    3    0  502  0.53572547810E+02  0.15656040441E+03  0.54456261992E+03  0.56916756330E+03  0.46999998093E+01 0. -1.
</event>
<event>
 5   0  0.1310461E-03  0.1294546E+04  0.7818609E-02  0.9033901E-01
        1   -1    0    0  501    0  0.00000000000E+00  0.00000000000E+00  0.13757480257E+04  0.13757480257E+04  0.50400001928E-02 0.  1.
       -1   -1    0    0    0  501  0.00000000000E+00  0.00000000000E+00 -0.30453441548E+03  0.30453441552E+03  0.50400001928E-02 0. -1.
    10030    2    1    2    0    0  0.00000000000E+00  0.00000000000E+00  0.10712136102E+04  0.16802824412E+04  0.12945464393E+04 0.  0.
        4    1    3    3  502    0  0.49772783306E+03 -0.41331252545E+03  0.50962247976E+03  0.82357569432E+03  0.12699999809E+01 0. -1.
       -4    1    3    3    0  502 -0.49772783306E+03  0.41331252545E+03  0.56159113045E+03  0.85670674691E+03  0.12699999809E+01 0.  1.
</event>
<event>
 5   0  0.2312105E-03  0.1298446E+04  0.7818609E-02  0.9030798E-01
        2   -1    0    0  501    0  0.00000000000E+00  0.00000000000E+00  0.96852758438E+03  0.96852758439E+03  0.25500000920E-02 0.  1.
       -2   -1    0    0    0  501  0.00000000000E+00  0.00000000000E+00 -0.43518696437E+03  0.43518696438E+03  0.25500000920E-02 0. -1.
    10030    2    1    2    0    0  0.00000000000E+00  0.00000000000E+00  0.53334062001E+03  0.14037145488E+04  0.12984461165E+04 0.  0.
        5    1    3    3  502    0  0.25943182280E+02  0.40303745294E+03 -0.28282546471E+03  0.49307663772E+03  0.46999998093E+01 0. -1.
       -5    1    3    3    0  502 -0.25943182280E+02 -0.40303745294E+03  0.81616608472E+03  0.91063791104E+03  0.46999998093E+01 0.  1.
</event>
<event>
 5   0  0.1310461E-03  0.1339703E+04  0.7818609E-02  0.8998660E-01
       -1   -1    0    0    0  501  0.00000000000E+00  0.00000000000E+00  0.72361536664E+03  0.72361536665E+03  0.50400001928E-02 0.  1.
        1   -1    0    0  501    0  0.00000000000E+00  0.00000000000E+00 -0.62008181183E+03  0.62008181185E+03  0.50400001928E-02 0. -1.
    10030    2    1    2    0    0  0.00000000000E+00  0.00000000000E+00  0.10353355481E+03  0.13436971785E+04  0.13397025455E+04 0.  0.
        4    1    3    3  502    0 -0.14968500610E+03 -0.46960287241E+03 -0.40320087756E+03  0.63679276016E+03  0.12699999809E+01 0. -1.
       -4    1    3    3    0  502  0.14968500610E+03  0.46960287241E+03  0.50673443237E+03  0.70690441834E+03  0.12699999809E+01 0.  1.
</event>
<event>
 5   0  0.1332630E-03  0.1257878E+04  0.7818609E-02  0.9063652E-01
       -1   -1    0    0    0  501  0.00000000000E+00  0.00000000000E+00  0.11144710099E+04  0.11144710099E+04  0.50400001928E-02 0. -1.
        1   -1    0    0  501    0  0.00000000000E+00  0.00000000000E+00 -0.35493467458E+03  0.35493467462E+03  0.50400001928E-02 0.  1.
    10030    2    1    2    0    0  0.00000000000E+00  0.00000000000E+00  0.75953633533E+03  0.14694056845E+04  0.12578782219E+04 0.  0.
        5    1    3    3  502    0  0.37608514683E+03  0.30469282255E+03  0.84887589570E+03  0.97718479833E+03  0.46999998093E+01 0. -1.
       -5    1    3    3    0  502 -0.37608514683E+03 -0.30469282255E+03 -0.89339560372E+02  0.49222088621E+03  0.46999998093E+01 0.  1.
</event>
<event>
 5   0  0.1387622E-03  0.1290303E+04  0.7818609E-02  0.9037291E-01
       -1   -1    0    0    0  501  0.00000000000E+00  0.00000000000E+00  0.65641735430E+03  0.65641735432E+03  0.50400001928E-02 0. -1.
        1   -1    0    0  501    0  0.00000000000E+00  0.00000000000E+00 -0.63407863618E+03  0.63407863620E+03  0.50400001928E-02 0.  1.
    10030    2    1    2    0    0  0.00000000000E+00  0.00000000000E+00  0.22338718123E+02  0.12904959905E+04  0.12903026324E+04 0.  0.
        3    1    3    3  502    0 -0.16991634732E+03 -0.61091610770E+03  0.13005750031E+03  0.64730597040E+03  0.10100000352E+00 0. -1.
       -3    1    3    3    0  502  0.16991634732E+03  0.61091610770E+03 -0.10771878218E+03  0.64319002011E+03  0.10100000352E+00 0.  1.
</event>
<event>
 5   0  0.1324721E-03  0.1288214E+04  0.7818609E-02  0.9038964E-01
       -1   -1    0    0    0  501  0.00000000000E+00  0.00000000000E+00  0.65855059728E+03  0.65855059730E+03  0.50400001928E-02 0. -1.
        1   -1    0    0  501    0  0.00000000000E+00  0.00000000000E+00 -0.62997981833E+03  0.62997981835E+03  0.50400001928E-02 0.  1.
    10030    2    1    2    0    0  0.00000000000E+00  0.00000000000E+00  0.28570778949E+02  0.12885304157E+04  0.12882136246E+04 0.  0.
        1    1    3    3  502    0 -0.64310408149E+03 -0.35896151018E+02  0.15766411322E+02  0.64429804675E+03  0.50400001928E-02 0.  1.
       -1    1    3    3    0  502  0.64310408149E+03  0.35896151018E+02  0.12804367626E+02  0.64423236891E+03  0.50400001928E-02 0. -1.
</event>
<event>
 5   0  0.2401211E-03  0.1305970E+04  0.7818609E-02  0.9024844E-01
       -2   -1    0    0    0  501  0.00000000000E+00  0.00000000000E+00  0.10577903228E+04  0.10577903228E+04  0.25500000920E-02 0.  1.
        2   -1    0    0  501    0  0.00000000000E+00  0.00000000000E+00 -0.40309473126E+03  0.40309473126E+03  0.25500000920E-02 0. -1.
    10030    2    1    2    0    0  0.00000000000E+00  0.00000000000E+00  0.65469559158E+03  0.14608850541E+04  0.13059704528E+04 0.  0.
        4    1    3    3  502    0 -0.73272507921E+02  0.10088474940E+03 -0.38965334679E+03  0.40911848729E+03  0.12699999809E+01 0. -1.
       -4    1    3    3    0  502  0.73272507921E+02 -0.10088474940E+03  0.10443489384E+04  0.10517665668E+04  0.12699999809E+01 0.  1.
</event>
<event>
 5   0  0.2361043E-03  0.1285698E+04  0.7818609E-02  0.9040984E-01
       -2   -1    0    0    0  501  0.00000000000E+00  0.00000000000E+00  0.15209371984E+04  0.15209371984E+04  0.25500000920E-02 0. -1.
        2   -1    0    0  501    0  0.00000000000E+00  0.00000000000E+00 -0.27171081946E+03  0.27171081948E+03  0.25500000920E-02 0.  1.
    10030    2    1    2    0    0  0.00000000000E+00  0.00000000000E+00  0.12492263790E+04  0.17926480179E+04  0.12856983978E+04 0.  0.
        2    1    3    3  502    0  0.96805752950E+02 -0.27047793198E+03  0.14264568787E+04  0.14550975542E+04  0.25500000920E-02 0. -1.
       -2    1    3    3    0  502 -0.96805752950E+02  0.27047793198E+03 -0.17723049974E+03  0.33755046369E+03  0.25500000920E-02 0.  1.
</event>
<event>
 5   0  0.1387622E-03  0.1298921E+04  0.7818609E-02  0.9030421E-01
        1   -1    0    0  501    0  0.00000000000E+00  0.00000000000E+00  0.13883111265E+04  0.13883111266E+04  0.50400001928E-02 0.  1.
       -1   -1    0    0    0  501  0.00000000000E+00  0.00000000000E+00 -0.30382161242E+03  0.30382161246E+03  0.50400001928E-02 0. -1.
    10030    2    1    2    0    0  0.00000000000E+00  0.00000000000E+00  0.10844895141E+04  0.16921327390E+04  0.12989209754E+04 0.  0.
        3    1    3    3  502    0  0.55511637179E+03 -0.31487230535E+03  0.38537540793E+03  0.74552865146E+03  0.10100000352E+00 0. -1.
       -3    1    3    3    0  502 -0.55511637179E+03  0.31487230535E+03  0.69911410620E+03  0.94660408756E+03  0.10100000352E+00 0.  1.
</event>
<event>
 5   0  0.2478236E-03  0.1302235E+04  0.7818609E-02  0.9027795E-01
       -2   -1    0    0    0  501  0.00000000000E+00  0.00000000000E+00  0.13845643814E+04  0.13845643814E+04  0.25500000920E-02 0.  1.
        2   -1    0    0  501    0  0.00000000000E+00  0.00000000000E+00 -0.30620029247E+03  0.30620029248E+03  0.25500000920E-02 0. -1.
    10030    2    1    2    0    0  0.00000000000E+00  0.00000000000E+00  0.10783640889E+04  0.16907646739E+04  0.13022350303E+04 0.  0.
        3    1    3    3  502    0  0.57087349618E+03  0.27974567868E+03  0.72187607507E+03  0.96190398239E+03  0.10100000352E+00 0. -1.
       -3    1    3    3    0  502 -0.57087349618E+03 -0.27974567868E+03  0.35648801387E+03  0.72886069151E+03  0.10100000352E+00 0.  1.
</event>
<event>
 5   0  0.1324721E-03  0.1293824E+04  0.7818609E-02  0.9034477E-01
       -1   -1    0    0    0  501  0.00000000000E+00  0.00000000000E+00  0.43913152357E+03  0.43913152360E+03  0.50400001928E-02 0. -1.
        1   -1    0    0  501    0  0.00000000000E+00  0.00000000000E+00 -0.95300690355E+03  0.95300690356E+03  0.50400001928E-02 0.  1.
    10030    2    1    2    0    0  0.00000000000E+00  0.00000000000E+00 -0.51387537998E+03  0.13921384272E+04  0.12938243676E+04 0.  0.
        1    1    3    3  502    0 -0.41644406127E+03  0.38742752723E+03 -0.58852619352E+03  0.81846736374E+03  0.50400001928E-02 0.  1.
       -1    1    3    3    0  502  0.41644406127E+03 -0.38742752723E+03  0.74650813536E+02  0.57367106342E+03  0.50400001928E-02 0. -1.
</event>
<event>
 5   0  0.1310461E-03  0.1337633E+04  0.7818609E-02  0.9000243E-01
        1   -1    0    0  501    0  0.00000000000E+00  0.00000000000E+00  0.44987689345E+03  0.44987689348E+03  0.50400001928E-02 0.  1.
       -1   -1    0    0    0  501  0.00000000000E+00  0.00000000000E+00 -0.99430634071E+03  0.99430634072E+03  0.50400001928E-02 0. -1.
    10030    2    1    2    0    0  0.00000000000E+00  0.00000000000E+00 -0.54442944725E+03  0.14441832342E+04  0.13376329059E+04 0.  0.
        4    1    3    3  502    0  0.16594257989E+03 -0.32925594283E+03  0.33023656604E+03  0.49497900780E+03  0.12699999809E+01 0.  1.
       -4    1    3    3    0  502 -0.16594257989E+03  0.32925594283E+03 -0.87466601329E+03  0.94920422640E+03  0.12699999809E+01 0. -1.
</event>
<event>
 5   0  0.1332630E-03  0.1277154E+04  0.7818609E-02  0.9047881E-01
       -1   -1    0    0    0  501  0.00000000000E+00  0.00000000000E+00  0.41942095738E+03  0.41942095741E+03  0.50400001928E-02 0. -1.
        1   -1    0    0  501    0  0.00000000000E+00  0.00000000000E+00 -0.97224582996E+03  0.97224582997E+03  0.50400001928E-02 0.  1.
    10030    2    1    2    0    0  0.00000000000E+00  0.00000000000E+00 -0.55282487258E+03  0.13916667874E+04  0.12771535175E+04 0.  0.
        5    1    3    3  502    0  0.26105175118E+03 -0.29281005602E+02  0.35779831655E+03  0.44389989796E+03  0.46999998093E+01 0. -1.
       -5    1    3    3    0  502 -0.26105175118E+03  0.29281005602E+02 -0.91062318913E+03  0.94776688942E+03  0.46999998093E+01 0.  1.
</event>
<event>
 5   0  0.2478236E-03  0.1292268E+04  0.7818609E-02  0.9035719E-01
       -2   -1    0    0    0  501  0.00000000000E+00  0.00000000000E+00  0.33860581428E+03  0.33860581429E+03  0.25500000920E-02 0.  1.
        2   -1    0    0  501    0  0.00000000000E+00  0.00000000000E+00 -0.12329654750E+04  0.12329654750E+04  0.25500000920E-02 0. -1.
    10030    2    1    2    0    0  0.00000000000E+00  0.00000000000E+00 -0.89435966070E+03  0.15715712893E+04  0.12922682054E+04 0.  0.
        3    1    3    3  502    0  0.57179189316E+03 -0.27664863306E+03 -0.30323952857E+03  0.70387119358E+03  0.10100000352E+00 0.  1.
       -3    1    3    3    0  502 -0.57179189316E+03  0.27664863306E+03 -0.59112013214E+03  0.86770009570E+03  0.10100000352E+00 0. -1.
</event>
<event>
 5   0  0.1324721E-03  0.1308065E+04  0.7818609E-02  0.9023194E-01
        1   -1    0    0  501    0  0.00000000000E+00  0.00000000000E+00  0.12044875516E+04  0.12044875516E+04  0.50400001928E-02 0. -1.
       -1   -1    0    0    0  501  0.00000000000E+00  0.00000000000E+00 -0.35513754614E+03  0.35513754618E+03  0.50400001928E-02 0.  1.
    10030    2    1    2    0    0  0.00000000000E+00  0.00000000000E+00  0.84935000549E+03  0.15596250978E+04  0.13080653707E+04 0.  0.
        1    1    3    3  502    0 -0.16201610945E+03  0.63355615237E+03  0.41182588488E+03  0.77281509911E+03  0.50400001928E-02 0. -1.
       -1    1    3    3    0  502  0.16201610945E+03 -0.63355615237E+03  0.43752412061E+03  0.78680999871E+03  0.50400001928E-02 0.  1.
</event>
<event>
 5   0  0.2334946E-03  0.1397141E+04  0.7818609E-02  0.8955891E-01
       -2   -1    0    0    0  501  0.00000000000E+00  0.00000000000E+00  0.29618521196E+03  0.29618521197E+03  0.25500000920E-02 0. -1.
        2   -1    0    0  501    0  0.00000000000E+00  0.00000000000E+00 -0.16476199368E+04  0.16476199368E+04  0.25500000920E-02 0.  1.
    10030    2    1    2    0    0  0.00000000000E+00  0.00000000000E+00 -0.13514347248E+04  0.19438051488E+04  0.13971408808E+04 0.  0.
        1    1    3    3  502    0  0.25885865253E+03  0.58015960294E+03 -0.10799240957E+04  0.12529281781E+04  0.50400001928E-02 0.  1.
       -1    1    3    3    0  502 -0.25885865253E+03 -0.58015960294E+03 -0.27151062910E+03  0.69087697068E+03  0.50400001928E-02 0. -1.
</event>
<event>
 5   0  0.1310461E-03  0.1301523E+04  0.7818609E-02  0.9028358E-01
        1   -1    0    0  501    0  0.00000000000E+00  0.00000000000E+00  0.12839057457E+04  0.12839057457E+04  0.50400001928E-02 0.  1.
       -1   -1    0    0    0  501  0.00000000000E+00  0.00000000000E+00 -0.32984544292E+03  0.32984544296E+03  0.50400001928E-02 0. -1.
    10030    2    1    2    0    0  0.00000000000E+00  0.00000000000E+00  0.95406030276E+03  0.16137511887E+04  0.13015228917E+04 0.  0.
        4    1    3    3  502    0 -0.14935887659E+03 -0.20899856138E+03  0.12183796774E+04  0.12451663037E+04  0.12699999809E+01 0.  1.
       -4    1    3    3    0  502  0.14935887659E+03  0.20899856138E+03 -0.26431937467E+03  0.36858488493E+03  0.12699999809E+01 0. -1.
</event>
<event>
 5   0  0.1332630E-03  0.1266820E+04  0.7818609E-02  0.9056299E-01
       -1   -1    0    0    0  501  0.00000000000E+00  0.00000000000E+00  0.45322384068E+03  0.45322384071E+03  0.50400001928E-02 0. -1.
        1   -1    0    0  501    0  0.00000000000E+00  0.00000000000E+00 -0.88523257726E+03  0.88523257728E+03  0.50400001928E-02 0.  1.
    10030    2    1    2    0    0  0.00000000000E+00  0.00000000000E+00 -0.43200873658E+03  0.13384564180E+04  0.12668204428E+04 0.  0.
        5    1    3    3  502    0 -0.14763126027E+03  0.54477884648E+03 -0.51967217177E+03  0.76724196750E+03  0.46999998093E+01 0.  1.
       -5    1    3    3    0  502  0.14763126027E+03 -0.54477884648E+03  0.87663435188E+02  0.57121445049E+03  0.46999998093E+01 0. -1.
</event>
<event>
 5   0  0.1346593E-03  0.1295591E+04  0.7818609E-02  0.9033069E-01
        1   -1    0    0  501    0  0.00000000000E+00  0.00000000000E+00  0.12432063014E+04  0.12432063014E+04  0.50400001928E-02 0. -1.
       -1   -1    0    0    0  501  0.00000000000E+00  0.00000000000E+00 -0.33754562514E+03  0.33754562518E+03  0.50400001928E-02 0.  1.
    10030    2    1    2    0    0  0.00000000000E+00  0.00000000000E+00  0.90566067623E+03  0.15807519266E+04  0.12955907505E+04 0.  0.
        2    1    3    3  502    0  0.48470486036E+03  0.22737373070E+03  0.78675275122E+01  0.53544328651E+03  0.25500000920E-02 0.  1.
       -2    1    3    3    0  502 -0.48470486036E+03 -0.22737373070E+03  0.89779314872E+03  0.10453086401E+04  0.25500000920E-02 0. -1.
</event>
<event>
 5   0  0.1346593E-03  0.1312388E+04  0.7818609E-02  0.9019799E-01
        1   -1    0    0  501    0  0.00000000000E+00  0.00000000000E+00  0.76332497150E+03  0.76332497152E+03  0.50400001928E-02 0.  1.
       -1   -1    0    0    0  501  0.00000000000E+00  0.00000000000E+00 -0.56409866195E+03  0.56409866197E+03  0.50400001928E-02 0. -1.
    10030    2    1    2    0    0  0.00000000000E+00  0.00000000000E+00  0.19922630955E+03  0.13274236335E+04  0.13123880449E+04 0.  0.
        2    1    3    3  502    0  0.16423568939E+03  0.57306804221E+03 -0.17777365329E+03  0.62208023155E+03  0.25500000920E-02 0. -1.
       -2    1    3    3    0  502 -0.16423568939E+03 -0.57306804221E+03  0.37699996284E+03  0.70534340194E+03  0.25500000920E-02 0.  1.
</event>
<event>
 5   0  0.1332630E-03  0.1253973E+04  0.7818609E-02  0.9066883E-01
        1   -1    0    0  501    0  0.00000000000E+00  0.00000000000E+00  0.86025300407E+03  0.86025300409E+03  0.50400001928E-02 0.  1.
       -1   -1    0    0    0  501  0.00000000000E+00  0.00000000000E+00 -0.45697238905E+03  0.45697238908E+03  0.50400001928E-02 0. -1.
    10030    2    1    2    0    0  0.00000000000E+00  0.00000000000E+00  0.40328061502E+03  0.13172253932E+04  0.12539726799E+04 0.  0.
        5    1    3    3  502    0 -0.69082651354E+02  0.29162961361E+02 -0.45222653934E+03  0.45842537442E+03  0.46999998093E+01 0. -1.
       -5    1    3    3    0  502  0.69082651354E+02 -0.29162961361E+02  0.85550715436E+03  0.85880001874E+03  0.46999998093E+01 0.  1.
</event>
<event>
 5   0  0.2361043E-03  0.1263687E+04  0.7818609E-02  0.9058868E-01
        2   -1    0    0  501    0  0.00000000000E+00  0.00000000000E+00  0.10103497061E+04  0.10103497061E+04  0.25500000920E-02 0.  1.
       -2   -1    0    0    0  501  0.00000000000E+00  0.00000000000E+00 -0.39513636365E+03  0.39513636366E+03  0.25500000920E-02 0. -1.
    10030    2    1    2    0    0  0.00000000000E+00  0.00000000000E+00  0.61521334249E+03  0.14054860698E+04  0.12636865259E+04 0.  0.
        2    1    3    3  502    0  0.33076322245E+02 -0.26521181642E+03 -0.32917134327E+03  0.42401075918E+03  0.25500000920E-02 0. -1.
       -2    1    3    3    0  502 -0.33076322245E+02  0.26521181642E+03  0.94438468576E+03  0.98147531063E+03  0.25500000920E-02 0.  1.
</event>
<event>
 5   0  0.1310461E-03  0.1235606E+04  0.7818609E-02  0.9082249E-01
        1   -1    0    0  501    0  0.00000000000E+00  0.00000000000E+00  0.74974096665E+03  0.74974096666E+03  0.50400001928E-02 0. -1.
       -1   -1    0    0    0  501  0.00000000000E+00  0.00000000000E+00 -0.50908324053E+03  0.50908324055E+03  0.50400001928E-02 0.  1.
    10030    2    1    2    0    0  0.00000000000E+00  0.00000000000E+00  0.24065772612E+03  0.12588242072E+04  0.12356060228E+04 0.  0.
        4    1    3    3  502    0 -0.60490704709E+03  0.12362886640E+03  0.97954494133E+02  0.62513464793E+03  0.12699999809E+01 0. -1.
       -4    1    3    3    0  502  0.60490704709E+03 -0.12362886640E+03  0.14270323199E+03  0.63368955928E+03  0.12699999809E+01 0.  1.
</event>
<event>
 5   0  0.1324721E-03  0.1181186E+04  0.7818609E-02  0.9129486E-01
       -1   -1    0    0    0  501  0.00000000000E+00  0.00000000000E+00  0.18336329437E+03  0.18336329444E+03  0.50400001928E-02 0. -1.
        1   -1    0    0  501    0  0.00000000000E+00  0.00000000000E+00 -0.19022349747E+04  0.19022349747E+04  0.50400001928E-02 0.  1.
    10030    2    1    2    0    0  0.00000000000E+00  0.00000000000E+00 -0.17188716803E+04  0.20855982691E+04  0.11811859662E+04 0.  0.
        1    1    3    3  502    0 -0.37282285167E+03  0.45684910402E+03 -0.91778591510E+03  0.10908890725E+04  0.50400001928E-02 0.  1.
       -1    1    3    3    0  502  0.37282285167E+03 -0.45684910402E+03 -0.80108576519E+03  0.99470919660E+03  0.50400001928E-02 0. -1.
</event>
<event>
 5   0  0.1324721E-03  0.1270300E+04  0.7818609E-02  0.9053454E-01
       -1   -1    0    0    0  501  0.00000000000E+00  0.00000000000E+00  0.16215901797E+03  0.16215901805E+03  0.50400001928E-02 0. -1.
        1   -1    0    0  501    0  0.00000000000E+00  0.00000000000E+00 -0.24877790417E+04  0.24877790417E+04  0.50400001928E-02 0.  1.
    10030    2    1    2    0    0  0.00000000000E+00  0.00000000000E+00 -0.23256200237E+04  0.26499380597E+04  0.12703004471E+04 0.  0.
        1    1    3    3  502    0 -0.21487360963E+03  0.10915983567E+02  0.83826935397E+02  0.23090427006E+03  0.50400001928E-02 0. -1.
       -1    1    3    3    0  502  0.21487360963E+03 -0.10915983567E+02 -0.24094469591E+04  0.24190337897E+04  0.50400001928E-02 0.  1.
</event>
<event>
 5   0  0.9131250E-04  0.1314659E+04  0.7818609E-02  0.9018020E-01
        3   -1    0    0  501    0  0.00000000000E+00  0.00000000000E+00  0.41565897027E+03  0.41565898254E+03  0.10100000352E+00 0. -1.
       -3   -1    0    0    0  501  0.00000000000E+00  0.00000000000E+00 -0.10395117388E+04  0.10395117437E+04  0.10100000352E+00 0.  1.
    10030    2    1    2    0    0  0.00000000000E+00  0.00000000000E+00 -0.62385276848E+03  0.14551707262E+04  0.13146594866E+04 0.  0.
        3    1    3    3  502    0  0.73717045231E+02  0.11315552935E+03 -0.10239903419E+04  0.10328574960E+04  0.10100000352E+00 0.  1.
       -3    1    3    3    0  502 -0.73717045231E+02 -0.11315552935E+03  0.40013757338E+03  0.42231323021E+03  0.10100000352E+00 0. -1.
</event>
<event>
 5   0  0.2401211E-03  0.1238549E+04  0.7818609E-02  0.9079768E-01
       -2   -1    0    0    0  501  0.00000000000E+00  0.00000000000E+00  0.15528655842E+03  0.15528655844E+03  0.25500000920E-02 0. -1.
        2   -1    0    0  501    0  0.00000000000E+00  0.00000000000E+00 -0.24696343965E+04  0.24696343965E+04  0.25500000920E-02 0.  1.
    10030    2    1    2    0    0  0.00000000000E+00  0.00000000000E+00 -0.23143478381E+04  0.26249209550E+04  0.12385491932E+04 0.  0.
        4    1    3    3  502    0  0.15735313509E+03  0.54525986410E+03 -0.63188642579E+03  0.84932349345E+03  0.12699999809E+01 0.  1.
       -4    1    3    3    0  502 -0.15735313509E+03 -0.54525986410E+03 -0.16824614123E+04  0.17755974615E+04  0.12699999809E+01 0. -1.
</event>
<event>
 5   0  0.1324721E-03  0.1303980E+04  0.7818609E-02  0.9026415E-01
       -1   -1    0    0    0  501  0.00000000000E+00  0.00000000000E+00  0.48279966895E+03  0.48279966897E+03  0.50400001928E-02 0. -1.
        1   -1    0    0  501    0  0.00000000000E+00  0.00000000000E+00 -0.88047020102E+03  0.88047020104E+03  0.50400001928E-02 0.  1.
    10030    2    1    2    0    0  0.00000000000E+00  0.00000000000E+00 -0.39767053208E+03  0.13632698700E+04  0.13039796342E+04 0.  0.
        1    1    3    3  502    0 -0.58596969756E+03  0.47663498919E+02  0.95865324880E+02  0.59566975425E+03  0.50400001928E-02 0.  1.
       -1    1    3    3    0  502  0.58596969756E+03 -0.47663498919E+02 -0.49353585696E+03  0.76760011576E+03  0.50400001928E-02 0. -1.
</event>
<event>
 5   0  0.2401211E-03  0.1315257E+04  0.7818609E-02  0.9017553E-01
        2   -1    0    0  501    0  0.00000000000E+00  0.00000000000E+00  0.13366000605E+04  0.13366000605E+04  0.25500000920E-02 0. -1.
       -2   -1    0    0    0  501  0.00000000000E+00  0.00000000000E+00 -0.32356382146E+03  0.32356382147E+03  0.25500000920E-02 0.  1.
    10030    2    1    2    0    0  0.00000000000E+00  0.00000000000E+00  0.10130362390E+04  0.16601638820E+04  0.13152572727E+04 0.  0.
        4    1    3    3  502    0  0.58332834320E+03 -0.28418444317E+03  0.64153041429E+03  0.91246678793E+03  0.12699999809E+01 0.  1.
       -4    1    3    3    0  502 -0.58332834320E+03  0.28418444317E+03  0.37150582475E+03  0.74769709404E+03  0.12699999809E+01 0. -1.
</event>
<event>
 5   0  0.2478236E-03  0.1282948E+04  0.7818609E-02  0.9043198E-01
       -2   -1    0    0    0  501  0.00000000000E+00  0.00000000000E+00  0.24243082127E+03  0.24243082129E+03  0.25500000920E-02 0. -1.
        2   -1    0    0  501    0  0.00000000000E+00  0.00000000000E+00 -0.16973450400E+04  0.16973450400E+04  0.25500000920E-02 0.  1.
    10030    2    1    2    0    0  0.00000000000E+00  0.00000000000E+00 -0.14549142187E+04  0.19397758613E+04  0.12829477808E+04 0.  0.
        3    1    3    3  502    0 -0.40979836179E+03 -0.61402795742E+02  0.12919068823E+02  0.41457437595E+03  0.10100000352E+00 0. -1.
       -3    1    3    3    0  502  0.40979836179E+03  0.61402795742E+02 -0.14678332875E+04  0.15252014853E+04  0.10100000352E+00 0.  1.
</event>
<event>
 5   0  0.2334946E-03  0.1319427E+04  0.7818609E-02  0.9014300E-01
       -2   -1    0    0    0  501  0.00000000000E+00  0.00000000000E+00  0.69852868876E+03  0.69852868877E+03  0.25500000920E-02 0.  1.
        2   -1    0    0  501    0  0.00000000000E+00  0.00000000000E+00 -0.62305490387E+03  0.62305490387E+03  0.25500000920E-02 0. -1.
    10030    2    1    2    0    0  0.00000000000E+00  0.00000000000E+00  0.75473784893E+02  0.13215835926E+04  0.13194267316E+04 0.  0.
        1    1    3    3  502    0  0.52703607696E+03 -0.28836309569E+03 -0.23529157236E+03  0.64519952373E+03  0.50400001928E-02 0. -1.
       -1    1    3    3    0  502 -0.52703607696E+03  0.28836309569E+03  0.31076535726E+03  0.67638406891E+03  0.50400001928E-02 0.  1.
</event>
<event>
 5   0  0.2401211E-03  0.1220009E+04  0.7818609E-02  0.9095521E-01
       -2   -1    0    0    0  501  0.00000000000E+00  0.00000000000E+00  0.13485413155E+04  0.13485413155E+04  0.25500000920E-02 0.  1.
        2   -1    0    0  501    0  0.00000000000E+00  0.00000000000E+00 -0.27593184943E+03  0.27593184945E+03  0.25500000920E-02 0. -1.
    10030    2    1    2    0    0  0.00000000000E+00  0.00000000000E+00  0.10726094661E+04  0.16244731650E+04  0.12200090151E+04 0.  0.
        4    1    3    3  502    0 -0.29141864805E+02 -0.44400005133E+03 -0.19307853668E+02  0.44537590862E+03  0.12699999809E+01 0. -1.
       -4    1    3    3    0  502  0.29141864805E+02  0.44400005133E+03  0.10919173198E+04  0.11790972564E+04  0.12699999809E+01 0.  1.
</event>
<event>
 5   0  0.1324721E-03  0.1260905E+04  0.7818609E-02  0.9061156E-01
       -1   -1    0    0    0  501  0.00000000000E+00  0.00000000000E+00  0.30664628563E+03  0.30664628567E+03  0.50400001928E-02 0.  1.
        1   -1    0    0  501    0  0.00000000000E+00  0.00000000000E+00 -0.12961847789E+04  0.12961847790E+04  0.50400001928E-02 0. -1.
    10030    2    1    2    0    0  0.00000000000E+00  0.00000000000E+00 -0.98953849332E+03  0.16028310646E+04  0.12609048307E+04 0.  0.
        1    1    3    3  502    0 -0.42031433604E+03 -0.46362676183E+03 -0.39749042318E+03  0.74135858524E+03  0.50400001928E-02 0. -1.
       -1    1    3    3    0  502  0.42031433604E+03  0.46362676183E+03 -0.59204807014E+03  0.86147247939E+03  0.50400001928E-02 0.  1.
</event>
<event>
 5   0  0.2478236E-03  0.1311994E+04  0.7818609E-02  0.9020108E-01
        2   -1    0    0  501    0  0.00000000000E+00  0.00000000000E+00  0.12145879800E+04  0.12145879800E+04  0.25500000920E-02 0. -1.
       -2   -1    0    0    0  501  0.00000000000E+00  0.00000000000E+00 -0.35430292769E+03  0.35430292770E+03  0.25500000920E-02 0.  1.
    10030    2    1    2    0    0  0.00000000000E+00  0.00000000000E+00  0.86028505232E+03  0.15688909077E+04  0.13119940202E+04 0.  0.
        3    1    3    3  502    0  0.73038136842E+02 -0.33293590541E+03 -0.24009731258E+03  0.41692639189E+03  0.10100000352E+00 0.  1.
       -3    1    3    3    0  502 -0.73038136842E+02  0.33293590541E+03  0.11003823649E+04  0.11519645158E+04  0.10100000352E+00 0. -1.
</event>
<event>
 5   0  0.1324721E-03  0.1302673E+04  0.7818609E-02  0.9027448E-01
       -1   -1    0    0    0  501  0.00000000000E+00  0.00000000000E+00  0.42993062377E+03  0.42993062380E+03  0.50400001928E-02 0.  1.
        1   -1    0    0  501    0  0.00000000000E+00  0.00000000000E+00 -0.98676269652E+03  0.98676269654E+03  0.50400001928E-02 0. -1.
    10030    2    1    2    0    0  0.00000000000E+00  0.00000000000E+00 -0.55683207275E+03  0.14166933203E+04  0.13026734075E+04 0.  0.
        1    1    3    3  502    0 -0.26322053594E+03 -0.35705694528E+03 -0.79709351110E+03  0.91221312103E+03  0.50400001928E-02 0. -1.
       -1    1    3    3    0  502  0.26322053594E+03  0.35705694528E+03  0.24026143835E+03  0.50448019931E+03  0.50400001928E-02 0.  1.
</event>
<event>
 5   0  0.2401211E-03  0.1306739E+04  0.7818609E-02  0.9024238E-01
        2   -1    0    0  501    0  0.00000000000E+00  0.00000000000E+00  0.10589935763E+04  0.10589935763E+04  0.25500000920E-02 0.  1.
       -2   -1    0    0    0  501  0.00000000000E+00  0.00000000000E+00 -0.40311089826E+03  0.40311089827E+03  0.25500000920E-02 0. -1.
    10030    2    1    2    0    0  0.00000000000E+00  0.00000000000E+00  0.65588267804E+03  0.14621044746E+04  0.13067392269E+04 0.  0.
        4    1    3    3  502    0  0.52133674841E+03  0.42156140590E+02 -0.11017599050E+03  0.53451801393E+03  0.12699999809E+01 0. -1.
       -4    1    3    3    0  502 -0.52133674841E+03 -0.42156140590E+02  0.76605866854E+03  0.92758646064E+03  0.12699999809E+01 0.  1.
</event>
<event>
 5   0  0.2361043E-03  0.1281338E+04  0.7818609E-02  0.9044497E-01
       -2   -1    0    0    0  501  0.00000000000E+00  0.00000000000E+00  0.25945032824E+03  0.25945032825E+03  0.25500000920E-02 0.  1.
        2   -1    0    0  501    0  0.00000000000E+00  0.00000000000E+00 -0.15820241931E+04  0.15820241931E+04  0.25500000920E-02 0. -1.
    10030    2    1    2    0    0  0.00000000000E+00  0.00000000000E+00 -0.13225738649E+04  0.18414745214E+04  0.12813378886E+04 0.  0.
        2    1    3    3  502    0  0.39615198064E+03 -0.50349597085E+03 -0.65628536958E+03  0.91714506528E+03  0.25500000920E-02 0. -1.
       -2    1    3    3    0  502 -0.39615198064E+03  0.50349597085E+03 -0.66628849528E+03  0.92432945608E+03  0.25500000920E-02 0.  1.
</event>
<event>
 5   0  0.2334946E-03  0.1290666E+04  0.7818609E-02  0.9037000E-01
       -2   -1    0    0    0  501  0.00000000000E+00  0.00000000000E+00  0.67283376865E+03  0.67283376865E+03  0.25500000920E-02 0.  1.
        2   -1    0    0  501    0  0.00000000000E+00  0.00000000000E+00 -0.61895626897E+03  0.61895626897E+03  0.25500000920E-02 0. -1.
    10030    2    1    2    0    0  0.00000000000E+00  0.00000000000E+00  0.53877499679E+02  0.12917900376E+04  0.12906659972E+04 0.  0.
        1    1    3    3  502    0  0.28018894383E+03  0.45072523055E+03  0.39440370116E+03  0.66122111069E+03  0.50400001928E-02 0.  1.
       -1    1    3    3    0  502 -0.28018894383E+03 -0.45072523055E+03 -0.34052620148E+03  0.63056892694E+03  0.50400001928E-02 0. -1.
</event>
<event>
 5   0  0.2478236E-03  0.1289360E+04  0.7818609E-02  0.9038046E-01
        2   -1    0    0  501    0  0.00000000000E+00  0.00000000000E+00  0.22126518572E+04  0.22126518572E+04  0.25500000920E-02 0.  1.
       -2   -1    0    0    0  501  0.00000000000E+00  0.00000000000E+00 -0.18783438836E+03  0.18783438838E+03  0.25500000920E-02 0. -1.
    10030    2    1    2    0    0  0.00000000000E+00  0.00000000000E+00  0.20248174688E+04  0.24004862456E+04  0.12893596989E+04 0.  0.
        3    1    3    3  502    0 -0.34859809334E+03 -0.47907078189E+03  0.14855415515E+04  0.15993320969E+04  0.10100000352E+00 0.  1.
       -3    1    3    3    0  502  0.34859809334E+03  0.47907078189E+03  0.53927591735E+03  0.80115414870E+03  0.10100000352E+00 0. -1.
</event>
<event>
 5   0  0.9131250E-04  0.1040501E+04  0.7818609E-02  0.9265207E-01
       -3   -1    0    0    0  501  0.00000000000E+00  0.00000000000E+00  0.27951222196E+03  0.27951224021E+03  0.10100000352E+00 0. -1.
        3   -1    0    0  501    0  0.00000000000E+00  0.00000000000E+00 -0.96833152360E+03  0.96833152887E+03  0.10100000352E+00 0.  1.
    10030    2    1    2    0    0  0.00000000000E+00  0.00000000000E+00 -0.68881930164E+03  0.12478437691E+04  0.10405008610E+04 0.  0.
        3    1    3    3  502    0  0.23874244258E+03  0.41880981795E+03 -0.10982733810E+03  0.49443065428E+03  0.10100000352E+00 0. -1.
       -3    1    3    3    0  502 -0.23874244258E+03 -0.41880981795E+03 -0.57899196354E+03  0.75341311480E+03  0.10100000352E+00 0.  1.
</event>
<event>
 5   0  0.2361043E-03  0.1284878E+04  0.7818609E-02  0.9041644E-01
       -2   -1    0    0    0  501  0.00000000000E+00  0.00000000000E+00  0.37240015573E+03  0.37240015574E+03  0.25500000920E-02 0.  1.
        2   -1    0    0  501    0  0.00000000000E+00  0.00000000000E+00 -0.11082913772E+04  0.11082913772E+04  0.25500000920E-02 0. -1.
    10030    2    1    2    0    0  0.00000000000E+00  0.00000000000E+00 -0.73589122145E+03  0.14806915329E+04  0.12848780198E+04 0.  0.
        2    1    3    3  502    0  0.38168103124E+03 -0.16512458897E+03 -0.93224604747E+03  0.10207983310E+04  0.25500000920E-02 0. -1.
       -2    1    3    3    0  502 -0.38168103124E+03  0.16512458897E+03  0.19635482602E+03  0.45989320195E+03  0.25500000920E-02 0.  1.
</event>
<event>
 5   0  0.1346593E-03  0.1300219E+04  0.7818609E-02  0.9029391E-01
       -1   -1    0    0    0  501  0.00000000000E+00  0.00000000000E+00  0.50042503125E+03  0.50042503127E+03  0.50400001928E-02 0.  1.
        1   -1    0    0  501    0  0.00000000000E+00  0.00000000000E+00 -0.84456704605E+03  0.84456704607E+03  0.50400001928E-02 0. -1.
    10030    2    1    2    0    0  0.00000000000E+00  0.00000000000E+00 -0.34414201480E+03  0.13449920773E+04  0.13002191976E+04 0.  0.
        2    1    3    3  502    0 -0.49615923270E+03  0.17162691429E+03  0.22455445515E+03  0.57101180831E+03  0.25500000920E-02 0.  1.
       -2    1    3    3    0  502  0.49615923270E+03 -0.17162691429E+03 -0.56869646995E+03  0.77398026903E+03  0.25500000920E-02 0. -1.
</event>
<event>
 5   0  0.1346593E-03  0.1300418E+04  0.7818609E-02  0.9029234E-01
        1   -1    0    0  501    0  0.00000000000E+00  0.00000000000E+00  0.27582247640E+03  0.27582247645E+03  0.50400001928E-02 0. -1.
       -1   -1    0    0    0  501  0.00000000000E+00  0.00000000000E+00 -0.15327673695E+04  0.15327673695E+04  0.50400001928E-02 0.  1.
    10030    2    1    2    0    0  0.00000000000E+00  0.00000000000E+00 -0.12569448931E+04  0.18085898459E+04  0.13004179200E+04 0.  0.
        2    1    3    3  502    0 -0.31317141001E+03  0.43272894953E+02 -0.14186765009E+04  0.14534757960E+04  0.25500000920E-02 0.  1.
       -2    1    3    3    0  502  0.31317141001E+03 -0.43272894953E+02  0.16173160779E+03  0.35511404992E+03  0.25500000920E-02 0. -1.
</event>
<event>
 5   0  0.1310461E-03  0.1310603E+04  0.7818609E-02  0.9021199E-01
        1   -1    0    0  501    0  0.00000000000E+00  0.00000000000E+00  0.20293098350E+04  0.20293098350E+04  0.50400001928E-02 0. -1.
       -1   -1    0    0    0  501  0.00000000000E+00  0.00000000000E+00 -0.21160895483E+03  0.21160895489E+03  0.50400001928E-02 0.  1.
    10030    2    1    2    0    0  0.00000000000E+00  0.00000000000E+00  0.18177008802E+04  0.22409187899E+04  0.13106031181E+04 0.  0.
        4    1    3    3  502    0  0.25697891161E+03 -0.21812098801E+02 -0.12118259341E+03  0.28495747491E+03  0.12699999809E+01 0.  1.
       -4    1    3    3    0  502 -0.25697891161E+03  0.21812098801E+02  0.19388834736E+04  0.19559613150E+04  0.12699999809E+01 0. -1.
</event>
<event>
 5   0  0.1332630E-03  0.1304830E+04  0.7818609E-02  0.9025744E-01
       -1   -1    0    0    0  501  0.00000000000E+00  0.00000000000E+00  0.12776246680E+04  0.12776246680E+04  0.50400001928E-02 0.  1.
        1   -1    0    0  501    0  0.00000000000E+00  0.00000000000E+00 -0.33315360707E+03  0.33315360711E+03  0.50400001928E-02 0. -1.
    10030    2    1    2    0    0  0.00000000000E+00  0.00000000000E+00  0.94447106095E+03  0.16107782751E+04  0.13048298995E+04 0.  0.
        5    1    3    3  502    0  0.13704964664E+03 -0.30712166563E+03  0.11623459512E+04  0.12100316208E+04  0.46999998093E+01 0.  1.
       -5    1    3    3    0  502 -0.13704964664E+03  0.30712166563E+03 -0.21787489024E+03  0.40074665431E+03  0.46999998093E+01 0. -1.
</event>
<event>
 5   0  0.1332630E-03  0.1294732E+04  0.7818609E-02  0.9033753E-01
       -1   -1    0    0    0  501  0.00000000000E+00  0.00000000000E+00  0.46869676998E+03  0.46869677001E+03  0.50400001928E-02 0. -1.
        1   -1    0    0  501    0  0.00000000000E+00  0.00000000000E+00 -0.89414486497E+03  0.89414486499E+03  0.50400001928E-02 0.  1.
    10030    2    1    2    0    0  0.00000000000E+00  0.00000000000E+00 -0.42544809499E+03  0.13628416350E+04  0.12947321115E+04 0.  0.
        5    1    3    3  502    0 -0.34724455857E+03  0.26358420941E+03  0.29099484689E+03  0.52417126001E+03  0.46999998093E+01 0. -1.
       -5    1    3    3    0  502  0.34724455857E+03 -0.26358420941E+03 -0.71644294188E+03  0.83867037499E+03  0.46999998093E+01 0.  1.
</event>
<event>
 5   0  0.2478236E-03  0.1299164E+04  0.7818609E-02  0.9030229E-01
       -2   -1    0    0    0  501  0.00000000000E+00  0.00000000000E+00  0.28174798882E+03  0.28174798884E+03  0.25500000920E-02 0.  1.
        2   -1    0    0  501    0  0.00000000000E+00  0.00000000000E+00 -0.14976382717E+04  0.14976382717E+04  0.25500000920E-02 0. -1.
    10030    2    1    2    0    0  0.00000000000E+00  0.00000000000E+00 -0.12158902829E+04  0.17793862606E+04  0.12991636865E+04 0.  0.
        3    1    3    3  502    0  0.23343308776E+03 -0.16635597928E+03  0.19044000911E+03  0.34414056078E+03  0.10100000352E+00 0.  1.
       -3    1    3    3    0  502 -0.23343308776E+03  0.16635597928E+03 -0.14063302920E+04  0.14352456998E+04  0.10100000352E+00 0. -1.
</event>
<event>
 5   0  0.2478236E-03  0.1268888E+04  0.7818609E-02  0.9054607E-01
        2   -1    0    0  501    0  0.00000000000E+00  0.00000000000E+00  0.86179350562E+03  0.86179350563E+03  0.25500000920E-02 0. -1.
       -2   -1    0    0    0  501  0.00000000000E+00  0.00000000000E+00 -0.46707186527E+03  0.46707186527E+03  0.25500000920E-02 0.  1.
    10030    2    1    2    0    0  0.00000000000E+00  0.00000000000E+00  0.39472164036E+03  0.13288653709E+04  0.12688884902E+04 0.  0.
        3    1    3    3  502    0  0.49589092817E+03 -0.31625053634E+03  0.44650760625E+03  0.73843839757E+03  0.10100000352E+00 0. -1.
       -3    1    3    3    0  502 -0.49589092817E+03  0.31625053634E+03 -0.51785965888E+02  0.59042697333E+03  0.10100000352E+00 0.  1.
</event>
<event>
 5   0  0.1332630E-03  0.1303112E+04  0.7818609E-02  0.9027101E-01
        1   -1    0    0  501    0  0.00000000000E+00  0.00000000000E+00  0.69552645942E+03  0.69552645944E+03  0.50400001928E-02 0. -1.
       -1   -1    0    0    0  501  0.00000000000E+00  0.00000000000E+00 -0.61036577271E+03  0.61036577273E+03  0.50400001928E-02 0.  1.
    10030    2    1    2    0    0  0.00000000000E+00  0.00000000000E+00  0.85160686706E+02  0.13058922322E+04  0.13031124969E+04 0.  0.
        5    1    3    3  502    0  0.35487987335E+02  0.54026717292E+03 -0.32062268402E+03  0.62926068595E+03  0.46999998093E+01 0.  1.
       -5    1    3    3    0  502 -0.35487987335E+02 -0.54026717292E+03  0.40578337073E+03  0.67663154622E+03  0.46999998093E+01 0. -1.
</event>
<event>
 5   0  0.2334946E-03  0.1295421E+04  0.7818609E-02  0.9033204E-01
        2   -1    0    0  501    0  0.00000000000E+00  0.00000000000E+00  0.19324034811E+04  0.19324034811E+04  0.25500000920E-02 0. -1.
       -2   -1    0    0    0  501  0.00000000000E+00  0.00000000000E+00 -0.21710210636E+03  0.21710210637E+03  0.25500000920E-02 0.  1.
    10030    2    1    2    0    0  0.00000000000E+00  0.00000000000E+00  0.17153013748E+04  0.21495055875E+04  0.12954209603E+04 0.  0.
        1    1    3    3  502    0  0.44989790678E+02 -0.49436849957E+03  0.15480207132E+04  0.16256667627E+04  0.50400001928E-02 0. -1.
       -1    1    3    3    0  502 -0.44989790678E+02  0.49436849957E+03  0.16728066152E+03  0.52383882481E+03  0.50400001928E-02 0.  1.
</event>
<event>
 5   0  0.1346593E-03  0.1306702E+04  0.7818609E-02  0.9024267E-01
        1   -1    0    0  501    0  0.00000000000E+00  0.00000000000E+00  0.16393437955E+04  0.16393437955E+04  0.50400001928E-02 0.  1.
       -1   -1    0    0    0  501  0.00000000000E+00  0.00000000000E+00 -0.26038927033E+03  0.26038927038E+03  0.50400001928E-02 0. -1.
    10030    2    1    2    0    0  0.00000000000E+00  0.00000000000E+00  0.13789545252E+04  0.18997330659E+04  0.13067020085E+04 0.  0.
        2    1    3    3  502    0  0.58898177613E+03  0.22838009050E+03  0.44702809004E+03  0.77388055385E+03  0.25500000920E-02 0.  1.
       -2    1    3    3    0  502 -0.58898177613E+03 -0.22838009050E+03  0.93192643514E+03  0.11258525120E+04  0.25500000920E-02 0. -1.
</event>
<event>
 5   0  0.2478236E-03  0.1296511E+04  0.7818609E-02  0.9032337E-01
       -2   -1    0    0    0  501  0.00000000000E+00  0.00000000000E+00  0.46744504502E+03  0.46744504502E+03  0.25500000920E-02 0.  1.
        2   -1    0    0  501    0  0.00000000000E+00  0.00000000000E+00 -0.89900435034E+03  0.89900435034E+03  0.25500000920E-02 0. -1.
    10030    2    1    2    0    0  0.00000000000E+00  0.00000000000E+00 -0.43155930532E+03  0.13664493954E+04  0.12965109009E+04 0.  0.
        3    1    3    3  502    0  0.18442077012E+03  0.29453083368E+03 -0.79254367866E+03  0.86538137560E+03  0.10100000352E+00 0. -1.
       -3    1    3    3    0  502 -0.18442077012E+03 -0.29453083368E+03  0.36098437334E+03  0.50106801977E+03  0.10100000352E+00 0.  1.
</event>
<event>
 5   0  0.2401211E-03  0.1305891E+04  0.7818609E-02  0.9024907E-01
        2   -1    0    0  501    0  0.00000000000E+00  0.00000000000E+00  0.77341032709E+03  0.77341032709E+03  0.25500000920E-02 0. -1.
       -2   -1    0    0    0  501  0.00000000000E+00  0.00000000000E+00 -0.55124400497E+03  0.55124400498E+03  0.25500000920E-02 0.  1.
    10030    2    1    2    0    0  0.00000000000E+00  0.00000000000E+00  0.22216632212E+03  0.13246543321E+04  0.13058909697E+04 0.  0.
        4    1    3    3  502    0 -0.26334472661E+03 -0.27406408516E+03  0.64963019270E+03  0.75265036237E+03  0.12699999809E+01 0. -1.
       -4    1    3    3    0  502  0.26334472661E+03  0.27406408516E+03 -0.42746387058E+03  0.57200396970E+03  0.12699999809E+01 0.  1.
</event>
<event>
 5   0  0.2312105E-03  0.1253577E+04  0.7818609E-02  0.9067211E-01
        2   -1    0    0  501    0  0.00000000000E+00  0.00000000000E+00  0.72488548476E+03  0.72488548476E+03  0.25500000920E-02 0.  1.
       -2   -1    0    0    0  501  0.00000000000E+00  0.00000000000E+00 -0.54196707797E+03  0.54196707798E+03  0.25500000920E-02 0. -1.
    10030    2    1    2    0    0  0.00000000000E+00  0.00000000000E+00  0.18291840678E+03  0.12668525627E+04  0.12535773898E+04 0.  0.
        5    1    3    3  502    0  0.14181818924E+03  0.36966661213E+02 -0.52438983287E+03  0.54450502262E+03  0.46999998093E+01 0. -1.
       -5    1    3    3    0  502 -0.14181818924E+03 -0.36966661213E+02  0.70730823965E+03  0.72234754012E+03  0.46999998093E+01 0.  1.
</event>
<event>
 5   0  0.1324721E-03  0.1303005E+04  0.7818609E-02  0.9027185E-01
       -1   -1    0    0    0  501  0.00000000000E+00  0.00000000000E+00  0.84399573951E+03  0.84399573953E+03  0.50400001928E-02 0.  1.
        1   -1    0    0  501    0  0.00000000000E+00  0.00000000000E+00 -0.50291204625E+03  0.50291204628E+03  0.50400001928E-02 0. -1.
    10030    2    1    2    0    0  0.00000000000E+00  0.00000000000E+00  0.34108369326E+03  0.13469077858E+04  0.13030051794E+04 0.  0.
        1    1    3    3  502    0  0.61312290983E+03 -0.32969000456E+02 -0.54625340010E+02  0.61643376396E+03  0.50400001928E-02 0. -1.
       -1    1    3    3    0  502 -0.61312290983E+03  0.32969000456E+02  0.39570903327E+03  0.73047402184E+03  0.50400001928E-02 0.  1.
</event>
<event>
 5   0  0.1387622E-03  0.1206176E+04  0.7818609E-02  0.9107468E-01
        1   -1    0    0  501    0  0.00000000000E+00  0.00000000000E+00  0.15820434516E+04  0.15820434516E+04  0.50400001928E-02 0.  1.
       -1   -1    0    0    0  501  0.00000000000E+00  0.00000000000E+00 -0.22990196376E+03  0.22990196382E+03  0.50400001928E-02 0. -1.
    10030    2    1    2    0    0  0.00000000000E+00  0.00000000000E+00  0.13521414878E+04  0.18119454154E+04  0.12061756030E+04 0.  0.
        3    1    3    3  502    0 -0.10180499255E+03  0.69718289740E+02  0.15628789933E+04  0.15677422155E+04  0.10100000352E+00 0.  1.
       -3    1    3    3    0  502  0.10180499255E+03 -0.69718289740E+02 -0.21073750546E+03  0.24420319990E+03  0.10100000352E+00 0. -1.
</event>
<event>
 5   0  0.1310461E-03  0.1140653E+04  0.7818609E-02  0.9166450E-01
       -1   -1    0    0    0  501  0.00000000000E+00  0.00000000000E+00  0.32424662326E+03  0.32424662330E+03  0.50400001928E-02 0.  1.
        1   -1    0    0  501    0  0.00000000000E+00  0.00000000000E+00 -0.10031628256E+04  0.10031628256E+04  0.50400001928E-02 0. -1.
    10030    2    1    2    0    0  0.00000000000E+00  0.00000000000E+00 -0.67891620231E+03  0.13274094489E+04  0.11406527233E+04 0.  0.
        4    1    3    3  502    0  0.16736439639E+03  0.77132522076E+02 -0.96755893137E+03  0.98495287487E+03  0.12699999809E+01 0. -1.
       -4    1    3    3    0  502 -0.16736439639E+03 -0.77132522076E+02  0.28864272906E+03  0.34245657401E+03  0.12699999809E+01 0.  1.
</event>
<event>
 5   0  0.1332630E-03  0.1301753E+04  0.7818609E-02  0.9028176E-01
        1   -1    0    0  501    0  0.00000000000E+00  0.00000000000E+00  0.10667184678E+04  0.10667184678E+04  0.50400001928E-02 0.  1.
       -1   -1    0    0    0  501  0.00000000000E+00  0.00000000000E+00 -0.39714354651E+03  0.39714354655E+03  0.50400001928E-02 0. -1.
    10030    2    1    2    0    0  0.00000000000E+00  0.00000000000E+00  0.66957492128E+03  0.14638620143E+04  0.13017532108E+04 0.  0.
        5    1    3    3  502    0 -0.51799532670E+03 -0.27822041936E+03  0.64863542778E+03  0.87548601839E+03  0.46999998093E+01 0.  1.
       -5    1    3    3    0  502  0.51799532670E+03  0.27822041936E+03  0.20939493495E+02  0.58837599595E+03  0.46999998093E+01 0. -1.
</event>
<event>
 5   0  0.2478236E-03  0.1319780E+04  0.7818609E-02  0.9014025E-01
       -2   -1    0    0    0  501  0.00000000000E+00  0.00000000000E+00  0.12802740605E+04  0.12802740605E+04  0.25500000920E-02 0.  1.
        2   -1    0    0  501    0  0.00000000000E+00  0.00000000000E+00 -0.34012643452E+03  0.34012643453E+03  0.25500000920E-02 0. -1.
    10030    2    1    2    0    0  0.00000000000E+00  0.00000000000E+00  0.94014762594E+03  0.16204004950E+04  0.13197803626E+04 0.  0.
        3    1    3    3  502    0 -0.36410513315E+03  0.51058961139E+03  0.21791287433E+03  0.66389783118E+03  0.10100000352E+00 0.  1.
       -3    1    3    3    0  502  0.36410513315E+03 -0.51058961139E+03  0.72223475161E+03  0.95650266381E+03  0.10100000352E+00 0. -1.
</event>
<event>
 5   0  0.1346593E-03  0.1310351E+04  0.7818609E-02  0.9021397E-01
       -1   -1    0    0    0  501  0.00000000000E+00  0.00000000000E+00  0.72636639867E+03  0.72636639869E+03  0.50400001928E-02 0.  1.
        1   -1    0    0  501    0  0.00000000000E+00  0.00000000000E+00 -0.59096163761E+03  0.59096163763E+03  0.50400001928E-02 0. -1.
    10030    2    1    2    0    0  0.00000000000E+00  0.00000000000E+00  0.13540476106E+03  0.13173280363E+04  0.13103506042E+04 0.  0.
        2    1    3    3  502    0 -0.17231752823E+02 -0.19061241529E+03  0.69763660296E+03  0.72341333687E+03  0.25500000920E-02 0.  1.
       -2    1    3    3    0  502  0.17231752823E+02  0.19061241529E+03 -0.56223184190E+03  0.59391469945E+03  0.25500000920E-02 0. -1.
</event>
<event>
 5   0  0.1310461E-03  0.1302062E+04  0.7818609E-02  0.9027932E-01
        1   -1    0    0  501    0  0.00000000000E+00  0.00000000000E+00  0.43805104227E+03  0.43805104230E+03  0.50400001928E-02 0.  1.
       -1   -1    0    0    0  501  0.00000000000E+00  0.00000000000E+00 -0.96756090663E+03  0.96756090664E+03  0.50400001928E-02 0. -1.
    10030    2    1    2    0    0  0.00000000000E+00  0.00000000000E+00 -0.52950986436E+03  0.14056119489E+04  0.13020615402E+04 0.  0.
        4    1    3    3  502    0 -0.15673595538E+03  0.26878012249E+03  0.35259027800E+03  0.47024507546E+03  0.12699999809E+01 0.  1.
       -4    1    3    3    0  502  0.15673595538E+03 -0.26878012249E+03 -0.88210014236E+03  0.93536687348E+03  0.12699999809E+01 0. -1.
</event>
<event>
 5   0  0.1387622E-03  0.1382195E+04  0.7818609E-02  0.8966809E-01
        1   -1    0    0  501    0  0.00000000000E+00  0.00000000000E+00  0.91089476097E+03  0.91089476099E+03  0.50400001928E-02 0. -1.
       -1   -1    0    0    0  501  0.00000000000E+00  0.00000000000E+00 -0.52433657273E+03  0.52433657275E+03  0.50400001928E-02 0.  1.
    10030    2    1    2    0    0  0.00000000000E+00  0.00000000000E+00  0.38655818824E+03  0.14352313337E+04  0.13821945407E+04 0.  0.
        3    1    3    3  502    0 -0.17285029678E+03  0.25712705967E+03  0.83474045841E+03  0.89038373358E+03  0.10100000352E+00 0. -1.
       -3    1    3    3    0  502  0.17285029678E+03 -0.25712705967E+03 -0.44818227017E+03  0.54484760016E+03  0.10100000352E+00 0.  1.
</event>
<event>
 5   0  0.1310461E-03  0.1309566E+04  0.7818609E-02  0.9022014E-01
        1   -1    0    0  501    0  0.00000000000E+00  0.00000000000E+00  0.13141082684E+04  0.13141082684E+04  0.50400001928E-02 0.  1.
       -1   -1    0    0    0  501  0.00000000000E+00  0.00000000000E+00 -0.32625970726E+03  0.32625970729E+03  0.50400001928E-02 0. -1.
    10030    2    1    2    0    0  0.00000000000E+00  0.00000000000E+00  0.98784856115E+03  0.16403679757E+04  0.13095656975E+04 0.  0.
        4    1    3    3  502    0  0.30019083841E+03  0.49437385940E+03  0.87841250018E+03  0.10517272392E+04  0.12699999809E+01 0.  1.
       -4    1    3    3    0  502 -0.30019083841E+03 -0.49437385940E+03  0.10943606096E+03  0.58864073649E+03  0.12699999809E+01 0. -1.
</event>
<event>
 5   0  0.2361043E-03  0.1585883E+04  0.7818609E-02  0.8829268E-01
       -2   -1    0    0    0  501  0.00000000000E+00  0.00000000000E+00  0.10585796814E+04  0.10585796814E+04  0.25500000920E-02 0.  1.
        2   -1    0    0  501    0  0.00000000000E+00  0.00000000000E+00 -0.59396188312E+03  0.59396188312E+03  0.25500000920E-02 0. -1.
    10030    2    1    2    0    0  0.00000000000E+00  0.00000000000E+00  0.46461779824E+03  0.16525415645E+04  0.15858826955E+04 0.  0.
        2    1    3    3  502    0  0.46455757506E+03 -0.73351344009E+02  0.89754847528E+03  0.10133051987E+04  0.25500000920E-02 0.  1.
       -2    1    3    3    0  502 -0.46455757506E+03  0.73351344009E+02 -0.43293067704E+03  0.63923636579E+03  0.25500000920E-02 0. -1.
</event>
<event>
 5   0  0.2312105E-03  0.1299877E+04  0.7818609E-02  0.9029663E-01
       -2   -1    0    0    0  501  0.00000000000E+00  0.00000000000E+00  0.71218153756E+03  0.71218153757E+03  0.25500000920E-02 0. -1.
        2   -1    0    0  501    0  0.00000000000E+00  0.00000000000E+00 -0.59313554968E+03  0.59313554969E+03  0.25500000920E-02 0.  1.
    10030    2    1    2    0    0  0.00000000000E+00  0.00000000000E+00  0.11904598788E+03  0.13053170873E+04  0.12998772061E+04 0.  0.
        5    1    3    3  502    0  0.30705972259E+03  0.17270781400E+03 -0.48891684056E+03  0.60264038135E+03  0.46999998093E+01 0.  1.
       -5    1    3    3    0  502 -0.30705972259E+03 -0.17270781400E+03  0.60796282844E+03  0.70267670590E+03  0.46999998093E+01 0. -1.
</event>
<event>
 5   0  0.2478236E-03  0.1292098E+04  0.7818609E-02  0.9035855E-01
       -2   -1    0    0    0  501  0.00000000000E+00  0.00000000000E+00  0.43852951362E+03  0.43852951362E+03  0.25500000920E-02 0.  1.
        2   -1    0    0  501    0  0.00000000000E+00  0.00000000000E+00 -0.95176996367E+03  0.95176996367E+03  0.25500000920E-02 0. -1.
    10030    2    1    2    0    0  0.00000000000E+00  0.00000000000E+00 -0.51324045005E+03  0.13902994773E+04  0.12920978589E+04 0.  0.
        3    1    3    3  502    0 -0.30507109013E+03 -0.38947432501E+03 -0.70367346830E+03  0.86018310845E+03  0.10100000352E+00 0. -1.
       -3    1    3    3    0  502  0.30507109013E+03  0.38947432501E+03  0.19043301825E+03  0.53011636884E+03  0.10100000352E+00 0.  1.
</event>
<event>
 5   0  0.2312105E-03  0.1293745E+04  0.7818609E-02  0.9034540E-01
        2   -1    0    0  501    0  0.00000000000E+00  0.00000000000E+00  0.59535245683E+03  0.59535245684E+03  0.25500000920E-02 0.  1.
       -2   -1    0    0    0  501  0.00000000000E+00  0.00000000000E+00 -0.70285053309E+03  0.70285053309E+03  0.25500000920E-02 0. -1.
    10030    2    1    2    0    0  0.00000000000E+00  0.00000000000E+00 -0.10749807626E+03  0.12982029899E+04  0.12937446296E+04 0.  0.
        5    1    3    3  502    0 -0.18273585444E+03  0.19002545280E+03  0.53898074596E+03  0.60002033276E+03  0.46999998093E+01 0.  1.
       -5    1    3    3    0  502  0.18273585444E+03 -0.19002545280E+03 -0.64647882221E+03  0.69818265718E+03  0.46999998093E+01 0. -1.
</event>
<event>
 5   0  0.1310461E-03  0.1327215E+04  0.7818609E-02  0.9008258E-01
        1   -1    0    0  501    0  0.00000000000E+00  0.00000000000E+00  0.13458638030E+04  0.13458638030E+04  0.50400001928E-02 0.  1.
       -1   -1    0    0    0  501  0.00000000000E+00  0.00000000000E+00 -0.32720607055E+03  0.32720607059E+03  0.50400001928E-02 0. -1.
    10030    2    1    2    0    0  0.00000000000E+00  0.00000000000E+00  0.10186577324E+04  0.16730698736E+04  0.13272148379E+04 0.  0.
        4    1    3    3  502    0 -0.19383452674E+03 -0.62188926509E+03  0.34960143101E+03  0.73928401528E+03  0.12699999809E+01 0. -1.
       -4    1    3    3    0  502  0.19383452674E+03  0.62188926509E+03  0.66905630143E+03  0.93378585830E+03  0.12699999809E+01 0.  1.
</event>
<event>
 5   0  0.1387622E-03  0.1292596E+04  0.7818609E-02  0.9035458E-01
       -1   -1    0    0    0  501  0.00000000000E+00  0.00000000000E+00  0.89046124397E+03  0.89046124399E+03  0.50400001928E-02 0.  1.
        1   -1    0    0  501    0  0.00000000000E+00  0.00000000000E+00 -0.46908368792E+03  0.46908368794E+03  0.50400001928E-02 0. -1.
    10030    2    1    2    0    0  0.00000000000E+00  0.00000000000E+00  0.42137755605E+03  0.13595449319E+04  0.12925955969E+04 0.  0.
        3    1    3    3  502    0 -0.45999079797E+03 -0.35073970666E+03 -0.92496267629E+02  0.58580324835E+03  0.10100000352E+00 0. -1.
       -3    1    3    3    0  502  0.45999079797E+03  0.35073970666E+03  0.51387382368E+03  0.77374168358E+03  0.10100000352E+00 0.  1.
</event>
<event>
 5   0  0.1387622E-03  0.1266917E+04  0.7818609E-02  0.9056220E-01
       -1   -1    0    0    0  501  0.00000000000E+00  0.00000000000E+00  0.46297971174E+03  0.46297971176E+03  0.50400001928E-02 0. -1.
        1   -1    0    0  501    0  0.00000000000E+00  0.00000000000E+00 -0.86671122661E+03  0.86671122662E+03  0.50400001928E-02 0.  1.
    10030    2    1    2    0    0  0.00000000000E+00  0.00000000000E+00 -0.40373151488E+03  0.13296909384E+04  0.12669170673E+04 0.  0.
        3    1    3    3  502    0 -0.19231011056E+03  0.29373012899E+03 -0.75525671266E+03  0.83287050586E+03  0.10100000352E+00 0.  1.
       -3    1    3    3    0  502  0.19231011056E+03 -0.29373012899E+03  0.35152519779E+03  0.49682043253E+03  0.10100000352E+00 0. -1.
</event>
<event>
 5   0  0.1332630E-03  0.1285935E+04  0.7818609E-02  0.9040793E-01
       -1   -1    0    0    0  501  0.00000000000E+00  0.00000000000E+00  0.30059585322E+03  0.30059585326E+03  0.50400001928E-02 0. -1.
        1   -1    0    0  501    0  0.00000000000E+00  0.00000000000E+00 -0.13752932202E+04  0.13752932202E+04  0.50400001928E-02 0.  1.
    10030    2    1    2    0    0  0.00000000000E+00  0.00000000000E+00 -0.10746973670E+04  0.16758890735E+04  0.12859353623E+04 0.  0.
        5    1    3    3  502    0  0.60784565028E+03 -0.20935746341E+03 -0.54889303439E+03  0.84534758250E+03  0.46999998093E+01 0. -1.
       -5    1    3    3    0  502 -0.60784565028E+03  0.20935746341E+03 -0.52580433258E+03  0.83054149096E+03  0.46999998093E+01 0.  1.
</event>
<event>
 5   0  0.2361043E-03  0.1299143E+04  0.7818609E-02  0.9030245E-01
       -2   -1    0    0    0  501  0.00000000000E+00  0.00000000000E+00  0.69823595541E+03  0.69823595541E+03  0.25500000920E-02 0. -1.
        2   -1    0    0  501    0  0.00000000000E+00  0.00000000000E+00 -0.60429878703E+03  0.60429878703E+03  0.25500000920E-02 0.  1.
    10030    2    1    2    0    0  0.00000000000E+00  0.00000000000E+00  0.93937168379E+02  0.13025347424E+04  0.12991430112E+04 0.  0.
        2    1    3    3  502    0 -0.98812081985E+01  0.83357591757E+02 -0.59883806112E+03  0.60469260772E+03  0.25500000920E-02 0.  1.
       -2    1    3    3    0  502  0.98812081985E+01 -0.83357591757E+02  0.69277522950E+03  0.69784213472E+03  0.25500000920E-02 0. -1.
</event>
<event>
 5   0  0.2478236E-03  0.1291625E+04  0.7818609E-02  0.9036233E-01
       -2   -1    0    0    0  501  0.00000000000E+00  0.00000000000E+00  0.47513233908E+03  0.47513233909E+03  0.25500000920E-02 0. -1.
        2   -1    0    0  501    0  0.00000000000E+00  0.00000000000E+00 -0.87780582350E+03  0.87780582350E+03  0.25500000920E-02 0.  1.
    10030    2    1    2    0    0  0.00000000000E+00  0.00000000000E+00 -0.40267348442E+03  0.13529381626E+04  0.12916252308E+04 0.  0.
        3    1    3    3  502    0 -0.26930200239E+03 -0.10156692988E+03  0.40423705399E+03  0.49623282414E+03  0.10100000352E+00 0.  1.
       -3    1    3    3    0  502  0.26930200239E+03  0.10156692988E+03 -0.80691053841E+03  0.85670533845E+03  0.10100000352E+00 0. -1.
</event>
<event>
 5   0  0.2478236E-03  0.1309657E+04  0.7818609E-02  0.9021942E-01
        2   -1    0    0  501    0  0.00000000000E+00  0.00000000000E+00  0.10193717720E+04  0.10193717720E+04  0.25500000920E-02 0. -1.
       -2   -1    0    0    0  501  0.00000000000E+00  0.00000000000E+00 -0.42065135582E+03  0.42065135583E+03  0.25500000920E-02 0.  1.
    10030    2    1    2    0    0  0.00000000000E+00  0.00000000000E+00  0.59872041616E+03  0.14400231278E+04  0.13096566237E+04 0.  0.
        3    1    3    3  502    0  0.45402236802E+03  0.23870526062E+03 -0.14820032145E+03  0.53392870085E+03  0.10100000352E+00 0.  1.
       -3    1    3    3    0  502 -0.45402236802E+03 -0.23870526062E+03  0.74692073761E+03  0.90609442697E+03  0.10100000352E+00 0. -1.
</event>
<event>
 5   0  0.1346593E-03  0.1304510E+04  0.7818609E-02  0.9025996E-01
        1   -1    0    0  501    0  0.00000000000E+00  0.00000000000E+00  0.61334786873E+03  0.61334786875E+03  0.50400001928E-02 0.  1.
       -1   -1    0    0    0  501  0.00000000000E+00  0.00000000000E+00 -0.69362999713E+03  0.69362999715E+03  0.50400001928E-02 0. -1.
    10030    2    1    2    0    0  0.00000000000E+00  0.00000000000E+00 -0.80282128398E+02  0.13069778659E+04  0.13045098397E+04 0.  0.
        2    1    3    3  502    0  0.38914446112E+03 -0.19227772698E+02 -0.56423048884E+03  0.68568153206E+03  0.25500000920E-02 0. -1.
       -2    1    3    3    0  502 -0.38914446112E+03  0.19227772698E+02  0.48394836045E+03  0.62129633384E+03  0.25500000920E-02 0.  1.
</event>
<event>
 5   0  0.2401211E-03  0.1296452E+04  0.7818609E-02  0.9032383E-01
       -2   -1    0    0    0  501  0.00000000000E+00  0.00000000000E+00  0.72448188615E+03  0.72448188616E+03  0.25500000920E-02 0.  1.
        2   -1    0    0  501    0  0.00000000000E+00  0.00000000000E+00 -0.57999678440E+03  0.57999678440E+03  0.25500000920E-02 0. -1.
    10030    2    1    2    0    0  0.00000000000E+00  0.00000000000E+00  0.14448510176E+03  0.13044786706E+04  0.12964523352E+04 0.  0.
        4    1    3    3  502    0 -0.83598903287E+02  0.22843112002E+03 -0.53233172837E+03  0.58527620416E+03  0.12699999809E+01 0. -1.
       -4    1    3    3    0  502  0.83598903287E+02 -0.22843112002E+03  0.67681683013E+03  0.71920246640E+03  0.12699999809E+01 0.  1.
</event>
<event>
 5   0  0.2478236E-03  0.1331713E+04  0.7818609E-02  0.9004787E-01
        2   -1    0    0  501    0  0.00000000000E+00  0.00000000000E+00  0.51929121085E+03  0.51929121086E+03  0.25500000920E-02 0. -1.
       -2   -1    0    0    0  501  0.00000000000E+00  0.00000000000E+00 -0.85378913344E+03  0.85378913344E+03  0.25500000920E-02 0.  1.
    10030    2    1    2    0    0  0.00000000000E+00  0.00000000000E+00 -0.33449792259E+03  0.13730803443E+04  0.13317134721E+04 0.  0.
        3    1    3    3  502    0  0.57952419966E+03 -0.32132986065E+03 -0.23457670012E+03  0.70294197184E+03  0.10100000352E+00 0.  1.
       -3    1    3    3    0  502 -0.57952419966E+03  0.32132986065E+03 -0.99921222472E+02  0.67013837246E+03  0.10100000352E+00 0. -1.
</event>
<event>
 5   0  0.2478236E-03  0.1275983E+04  0.7818609E-02  0.9048830E-01
       -2   -1    0    0    0  501  0.00000000000E+00  0.00000000000E+00  0.20124653469E+03  0.20124653471E+03  0.25500000920E-02 0. -1.
        2   -1    0    0  501    0  0.00000000000E+00  0.00000000000E+00 -0.20225605968E+04  0.20225605968E+04  0.25500000920E-02 0.  1.
    10030    2    1    2    0    0  0.00000000000E+00  0.00000000000E+00 -0.18213140621E+04  0.22238071315E+04  0.12759832465E+04 0.  0.
        3    1    3    3  502    0 -0.36913807004E+03 -0.41222626397E+03 -0.14640942164E+04  0.15651726078E+04  0.10100000352E+00 0.  1.
       -3    1    3    3    0  502  0.36913807004E+03  0.41222626397E+03 -0.35721984566E+03  0.65863452369E+03  0.10100000352E+00 0. -1.
</event>
<event>
 5   0  0.9131250E-04  0.1343976E+04  0.7818609E-02  0.8995401E-01
        3   -1    0    0  501    0  0.00000000000E+00  0.00000000000E+00  0.10864638702E+04  0.10864638749E+04  0.10100000352E+00 0.  1.
       -3   -1    0    0    0  501  0.00000000000E+00  0.00000000000E+00 -0.41563084251E+03  0.41563085478E+03  0.10100000352E+00 0. -1.
    10030    2    1    2    0    0  0.00000000000E+00  0.00000000000E+00  0.67083302770E+03  0.15020947297E+04  0.13439760511E+04 0.  0.
        5    1    3    3  502    0 -0.34857036400E+01  0.39069583416E+03  0.94644547968E+03  0.10239318927E+04  0.46999998093E+01 0.  1.
       -5    1    3    3    0  502  0.34857036400E+01 -0.39069583416E+03 -0.27561245198E+03  0.47816283695E+03  0.46999998093E+01 0. -1.
</event>
<event>
 5   0  0.2478236E-03  0.1157430E+04  0.7818609E-02  0.9150956E-01
       -2   -1    0    0    0  501  0.00000000000E+00  0.00000000000E+00  0.79844226337E+03  0.79844226338E+03  0.25500000920E-02 0. -1.
        2   -1    0    0  501    0  0.00000000000E+00  0.00000000000E+00 -0.41945568160E+03  0.41945568161E+03  0.25500000920E-02 0.  1.
    10030    2    1    2    0    0  0.00000000000E+00  0.00000000000E+00  0.37898658178E+03  0.12178979450E+04  0.11574301600E+04 0.  0.
        3    1    3    3  502    0 -0.22827632672E+03  0.44067011482E+03 -0.12373406320E+03  0.51147860173E+03  0.10100000352E+00 0.  1.
       -3    1    3    3    0  502  0.22827632672E+03 -0.44067011482E+03  0.50272064498E+03  0.70641934325E+03  0.10100000352E+00 0. -1.
</event>
<event>
 5   0  0.2312105E-03  0.1307056E+04  0.7818609E-02  0.9023988E-01
       -2   -1    0    0    0  501  0.00000000000E+00  0.00000000000E+00  0.32258709763E+03  0.32258709764E+03  0.25500000920E-02 0.  1.
        2   -1    0    0  501    0  0.00000000000E+00  0.00000000000E+00 -0.13239804376E+04  0.13239804376E+04  0.25500000920E-02 0. -1.
    10030    2    1    2    0    0  0.00000000000E+00  0.00000000000E+00 -0.10013933400E+04  0.16465675353E+04  0.13070562447E+04 0.  0.
        5    1    3    3  502    0  0.25387616387E+03 -0.13757045553E+02 -0.12590997182E+04  0.12845219163E+04  0.46999998093E+01 0. -1.
       -5    1    3    3    0  502 -0.25387616387E+03  0.13757045553E+02  0.25770637822E+03  0.36204561903E+03  0.46999998093E+01 0.  1.
</event>
<event>
 5   0  0.1387622E-03  0.1442573E+04  0.7818609E-02  0.8923566E-01
        1   -1    0    0  501    0  0.00000000000E+00  0.00000000000E+00  0.22017868176E+04  0.22017868176E+04  0.50400001928E-02 0.  1.
       -1   -1    0    0    0  501  0.00000000000E+00  0.00000000000E+00 -0.23628728286E+03  0.23628728291E+03  0.50400001928E-02 0. -1.
    10030    2    1    2    0    0  0.00000000000E+00  0.00000000000E+00  0.19654995347E+04  0.24380741005E+04  0.14425730132E+04 0.  0.
        3    1    3    3  502    0 -0.46446123698E+02 -0.47594466556E+03  0.70143950966E+02  0.48332261600E+03  0.10100000352E+00 0. -1.
       -3    1    3    3    0  502  0.46446123698E+02  0.47594466556E+03  0.18953555838E+04  0.19547514845E+04  0.10100000352E+00 0.  1.
</event>
<event>
 5   0  0.9131250E-04  0.1297115E+04  0.7818609E-02  0.9031856E-01
        3   -1    0    0  501    0  0.00000000000E+00  0.00000000000E+00  0.51251713074E+03  0.51251714069E+03  0.10100000352E+00 0.  1.
       -3   -1    0    0    0  501  0.00000000000E+00  0.00000000000E+00 -0.82070787175E+03  0.82070787796E+03  0.10100000352E+00 0. -1.
    10030    2    1    2    0    0  0.00000000000E+00  0.00000000000E+00 -0.30819074101E+03  0.13332250187E+04  0.12971150363E+04 0.  0.
        3    1    3    3  502    0 -0.65231781949E+01  0.62107997772E+03  0.37766500120E+02  0.62226136736E+03  0.10100000352E+00 0.  1.
       -3    1    3    3    0  502  0.65231781949E+01 -0.62107997772E+03 -0.34595724113E+03  0.71096365130E+03  0.10100000352E+00 0. -1.
</event>
<event>
 5   0  0.1346593E-03  0.1298182E+04  0.7818609E-02  0.9031008E-01
        1   -1    0    0  501    0  0.00000000000E+00  0.00000000000E+00  0.95308243133E+03  0.95308243134E+03  0.50400001928E-02 0. -1.
       -1   -1    0    0    0  501  0.00000000000E+00  0.00000000000E+00 -0.44205919259E+03  0.44205919262E+03  0.50400001928E-02 0.  1.
    10030    2    1    2    0    0  0.00000000000E+00  0.00000000000E+00  0.51102323873E+03  0.13951416240E+04  0.12981815745E+04 0.  0.
        2    1    3    3  502    0  0.15299823984E+03 -0.45024681703E+03 -0.21928719570E+03  0.52365783852E+03  0.25500000920E-02 0.  1.
       -2    1    3    3    0  502 -0.15299823984E+03  0.45024681703E+03  0.73031043444E+03  0.87148378544E+03  0.25500000920E-02 0. -1.
</event>
<event>
 5   0  0.1310461E-03  0.1296881E+04  0.7818609E-02  0.9032042E-01
        1   -1    0    0  501    0  0.00000000000E+00  0.00000000000E+00  0.10981178154E+04  0.10981178154E+04  0.50400001928E-02 0. -1.
       -1   -1    0    0    0  501  0.00000000000E+00  0.00000000000E+00 -0.38290505503E+03  0.38290505506E+03  0.50400001928E-02 0.  1.
    10030    2    1    2    0    0  0.00000000000E+00  0.00000000000E+00  0.71521276039E+03  0.14810228705E+04  0.12968806615E+04 0.  0.
        4    1    3    3  502    0 -0.40422722600E+03 -0.46723706286E+03  0.13276763641E+03  0.63193273482E+03  0.12699999809E+01 0.  1.
       -4    1    3    3    0  502  0.40422722600E+03  0.46723706286E+03  0.58244512398E+03  0.84909013568E+03  0.12699999809E+01 0. -1.
</event>
<event>
 5   0  0.2478236E-03  0.1329974E+04  0.7818609E-02  0.9006127E-01
       -2   -1    0    0    0  501  0.00000000000E+00  0.00000000000E+00  0.27287753913E+03  0.27287753914E+03  0.25500000920E-02 0.  1.
        2   -1    0    0  501    0  0.00000000000E+00  0.00000000000E+00 -0.16205364397E+04  0.16205364397E+04  0.25500000920E-02 0. -1.
    10030    2    1    2    0    0  0.00000000000E+00  0.00000000000E+00 -0.13476589005E+04  0.18934139788E+04  0.13299744294E+04 0.  0.
        3    1    3    3  502    0  0.35165321626E+03  0.55733124659E+03 -0.54705385249E+03  0.85647301805E+03  0.10100000352E+00 0. -1.
       -3    1    3    3    0  502 -0.35165321626E+03 -0.55733124659E+03 -0.80060504805E+03  0.10369409608E+04  0.10100000352E+00 0.  1.
</event>
<event>
 5   0  0.2478236E-03  0.1302045E+04  0.7818609E-02  0.9027945E-01
       -2   -1    0    0    0  501  0.00000000000E+00  0.00000000000E+00  0.64034676105E+03  0.64034676105E+03  0.25500000920E-02 0.  1.
        2   -1    0    0  501    0  0.00000000000E+00  0.00000000000E+00 -0.66187600311E+03  0.66187600312E+03  0.25500000920E-02 0. -1.
    10030    2    1    2    0    0  0.00000000000E+00  0.00000000000E+00 -0.21529242069E+02  0.13022227642E+04  0.13020447839E+04 0.  0.
        3    1    3    3  502    0 -0.20486469493E+03  0.33410529872E+02  0.60636456730E+03  0.64090857804E+03  0.10100000352E+00 0.  1.
       -3    1    3    3    0  502  0.20486469493E+03 -0.33410529872E+02 -0.62789380936E+03  0.66131418613E+03  0.10100000352E+00 0. -1.
</event>
<event>
 5   0  0.2334946E-03  0.1347842E+04  0.7818609E-02  0.8992463E-01
       -2   -1    0    0    0  501  0.00000000000E+00  0.00000000000E+00  0.11967701170E+04  0.11967701170E+04  0.25500000920E-02 0.  1.
        2   -1    0    0  501    0  0.00000000000E+00  0.00000000000E+00 -0.37949593209E+03  0.37949593210E+03  0.25500000920E-02 0. -1.
    10030    2    1    2    0    0  0.00000000000E+00  0.00000000000E+00  0.81727418489E+03  0.15762660491E+04  0.13478418172E+04 0.  0.
        1    1    3    3  502    0 -0.56307082046E+03 -0.36203689526E+03  0.31767389431E+03  0.74096974671E+03  0.50400001928E-02 0. -1.
       -1    1    3    3    0  502  0.56307082046E+03  0.36203689526E+03  0.49960029058E+03  0.83529630237E+03  0.50400001928E-02 0.  1.
</event>
<event>
 5   0  0.1324721E-03  0.1304218E+04  0.7818609E-02  0.9026227E-01
        1   -1    0    0  501    0  0.00000000000E+00  0.00000000000E+00  0.15100744515E+04  0.15100744515E+04  0.50400001928E-02 0.  1.
       -1   -1    0    0    0  501  0.00000000000E+00  0.00000000000E+00 -0.28160610275E+03  0.28160610279E+03  0.50400001928E-02 0. -1.
    10030    2    1    2    0    0  0.00000000000E+00  0.00000000000E+00  0.12284683487E+04  0.17916805543E+04  0.13042180511E+04 0.  0.
        1    1    3    3  502    0 -0.16608905435E+03 -0.32693971690E+03  0.13550085308E+04  0.14037532800E+04  0.50400001928E-02 0.  1.
       -1    1    3    3    0  502  0.16608905435E+03  0.32693971690E+03 -0.12654018206E+03  0.38792727432E+03  0.50400001928E-02 0. -1.
</event>
<event>
 5   0  0.2361043E-03  0.1309319E+04  0.7818609E-02  0.9022208E-01
       -2   -1    0    0    0  501  0.00000000000E+00  0.00000000000E+00  0.40053602588E+03  0.40053602589E+03  0.25500000920E-02 0. -1.
        2   -1    0    0  501    0  0.00000000000E+00  0.00000000000E+00 -0.10700138155E+04  0.10700138155E+04  0.25500000920E-02 0.  1.
    10030    2    1    2    0    0  0.00000000000E+00  0.00000000000E+00 -0.66947778963E+03  0.14705498414E+04  0.13093190311E+04 0.  0.
        2    1    3    3  502    0 -0.33317338760E+03  0.41169680215E+03  0.97459289127E+02  0.53851376598E+03  0.25500000920E-02 0. -1.
       -2    1    3    3    0  502  0.33317338760E+03 -0.41169680215E+03 -0.76693707876E+03  0.93203607542E+03  0.25500000920E-02 0.  1.
</event>
<event>
 5   0  0.2478236E-03  0.1370589E+04  0.7818609E-02  0.8975387E-01
       -2   -1    0    0    0  501  0.00000000000E+00  0.00000000000E+00  0.41862470081E+03  0.41862470082E+03  0.25500000920E-02 0.  1.
        2   -1    0    0  501    0  0.00000000000E+00  0.00000000000E+00 -0.11218373357E+04  0.11218373357E+04  0.25500000920E-02 0. -1.
    10030    2    1    2    0    0  0.00000000000E+00  0.00000000000E+00 -0.70321263486E+03  0.15404620365E+04  0.13705893900E+04 0.  0.
        3    1    3    3  502    0  0.37730842716E+03  0.56738565444E+03 -0.43374388955E+03  0.80772637817E+03  0.10100000352E+00 0.  1.
       -3    1    3    3    0  502 -0.37730842716E+03 -0.56738565444E+03 -0.26946874531E+03  0.73273565832E+03  0.10100000352E+00 0. -1.
</event>
<event>
 5   0  0.1324721E-03  0.1304052E+04  0.7818609E-02  0.9026358E-01
        1   -1    0    0  501    0  0.00000000000E+00  0.00000000000E+00  0.41122306265E+03  0.41122306268E+03  0.50400001928E-02 0.  1.
       -1   -1    0    0    0  501  0.00000000000E+00  0.00000000000E+00 -0.10338369791E+04  0.10338369791E+04  0.50400001928E-02 0. -1.
    10030    2    1    2    0    0  0.00000000000E+00  0.00000000000E+00 -0.62261391646E+03  0.14450600418E+04  0.13040515463E+04 0.  0.
        1    1    3    3  502    0 -0.38876553559E+03 -0.22977824285E+03  0.20986927708E+03  0.49797770636E+03  0.50400001928E-02 0.  1.
       -1    1    3    3    0  502  0.38876553559E+03  0.22977824285E+03 -0.83248319354E+03  0.94708233544E+03  0.50400001928E-02 0. -1.
</event>
<event>
 5   0  0.2401211E-03  0.1309373E+04  0.7818609E-02  0.9022165E-01
       -2   -1    0    0    0  501  0.00000000000E+00  0.00000000000E+00  0.23223179861E+03  0.23223179862E+03  0.25500000920E-02 0. -1.
        2   -1    0    0  501    0  0.00000000000E+00  0.00000000000E+00 -0.18456318595E+04  0.18456318595E+04  0.25500000920E-02 0.  1.
    10030    2    1    2    0    0  0.00000000000E+00  0.00000000000E+00 -0.16134000609E+04  0.20778636582E+04  0.13093729894E+04 0.  0.
        4    1    3    3  502    0 -0.49648278892E+03 -0.34489836165E+03 -0.12055267056E+04  0.13486090205E+04  0.12699999809E+01 0. -1.
       -4    1    3    3    0  502  0.49648278892E+03  0.34489836165E+03 -0.40787335535E+03  0.72925463761E+03  0.12699999809E+01 0.  1.
</event>
<event>
 5   0  0.1332630E-03  0.1313506E+04  0.7818609E-02  0.9018923E-01
        1   -1    0    0  501    0  0.00000000000E+00  0.00000000000E+00  0.65352790643E+03  0.65352790645E+03  0.50400001928E-02 0. -1.
       -1   -1    0    0    0  501  0.00000000000E+00  0.00000000000E+00 -0.65999415196E+03  0.65999415198E+03  0.50400001928E-02 0.  1.
    10030    2    1    2    0    0  0.00000000000E+00  0.00000000000E+00 -0.64662455280E+01  0.13135220584E+04  0.13135061422E+04 0.  0.
        5    1    3    3  502    0  0.20895144031E+03  0.20783212035E+03 -0.59013682815E+03  0.65965025626E+03  0.46999998093E+01 0.  1.
       -5    1    3    3    0  502 -0.20895144031E+03 -0.20783212035E+03  0.58367058262E+03  0.65387180217E+03  0.46999998093E+01 0. -1.
</event>
<event>
 5   0  0.2312105E-03  0.1277428E+04  0.7818609E-02  0.9047659E-01
       -2   -1    0    0    0  501  0.00000000000E+00  0.00000000000E+00  0.96096058081E+03  0.96096058081E+03  0.25500000920E-02 0.  1.
        2   -1    0    0  501    0  0.00000000000E+00  0.00000000000E+00 -0.42452908148E+03  0.42452908148E+03  0.25500000920E-02 0. -1.
    10030    2    1    2    0    0  0.00000000000E+00  0.00000000000E+00  0.53643149933E+03  0.13854896623E+04  0.12774282175E+04 0.  0.
        5    1    3    3  502    0 -0.69723731127E+01 -0.46626786289E+03 -0.20514327877E+03  0.50947049843E+03  0.46999998093E+01 0. -1.
       -5    1    3    3    0  502  0.69723731127E+01  0.46626786289E+03  0.74157477809E+03  0.87601916386E+03  0.46999998093E+01 0.  1.
</event>
<event>
 5   0  0.2401211E-03  0.1357624E+04  0.7818609E-02  0.8985077E-01
        2   -1    0    0  501    0  0.00000000000E+00  0.00000000000E+00  0.12499575622E+04  0.12499575622E+04  0.25500000920E-02 0. -1.
       -2   -1    0    0    0  501  0.00000000000E+00  0.00000000000E+00 -0.36864122969E+03  0.36864122970E+03  0.25500000920E-02 0.  1.
    10030    2    1    2    0    0  0.00000000000E+00  0.00000000000E+00  0.88131633254E+03  0.16185987919E+04  0.13576242379E+04 0.  0.
        4    1    3    3  502    0 -0.61073874357E+03 -0.13437758660E+03  0.12584397659E+03  0.63788515269E+03  0.12699999809E+01 0.  1.
       -4    1    3    3    0  502  0.61073874357E+03  0.13437758660E+03  0.75547235595E+03  0.98071363924E+03  0.12699999809E+01 0. -1.
</event>
<event>
 5   0  0.2478236E-03  0.1327113E+04  0.7818609E-02  0.9008337E-01
       -2   -1    0    0    0  501  0.00000000000E+00  0.00000000000E+00  0.10958097028E+04  0.10958097028E+04  0.25500000920E-02 0.  1.
        2   -1    0    0  501    0  0.00000000000E+00  0.00000000000E+00 -0.40180979575E+03  0.40180979575E+03  0.25500000920E-02 0. -1.
    10030    2    1    2    0    0  0.00000000000E+00  0.00000000000E+00  0.69399990709E+03  0.14976194986E+04  0.13271127652E+04 0.  0.
        3    1    3    3  502    0  0.28999771658E+03  0.58008559301E+03  0.18857376795E+03  0.67539473421E+03  0.10100000352E+00 0. -1.
       -3    1    3    3    0  502 -0.28999771658E+03 -0.58008559301E+03  0.50542613914E+03  0.82222476439E+03  0.10100000352E+00 0.  1.
</event>
<event>
 5   0  0.2478236E-03  0.1308518E+04  0.7818609E-02  0.9022838E-01
       -2   -1    0    0    0  501  0.00000000000E+00  0.00000000000E+00  0.64679018406E+03  0.64679018407E+03  0.25500000920E-02 0.  1.
        2   -1    0    0  501    0  0.00000000000E+00  0.00000000000E+00 -0.66181374354E+03  0.66181374355E+03  0.25500000920E-02 0. -1.
    10030    2    1    2    0    0  0.00000000000E+00  0.00000000000E+00 -0.15023559484E+02  0.13086039276E+04  0.13085176850E+04 0.  0.
        3    1    3    3  502    0 -0.12493578231E+02 -0.31122163913E+03  0.56788657167E+03  0.64769604495E+03  0.10100000352E+00 0.  1.
       -3    1    3    3    0  502  0.12493578231E+02  0.31122163913E+03 -0.58291013115E+03  0.66090788266E+03  0.10100000352E+00 0. -1.
</event>
<event>
 5   0  0.2401211E-03  0.1308640E+04  0.7818609E-02  0.9022741E-01
       -2   -1    0    0    0  501  0.00000000000E+00  0.00000000000E+00  0.45487425754E+03  0.45487425755E+03  0.25500000920E-02 0.  1.
        2   -1    0    0  501    0  0.00000000000E+00  0.00000000000E+00 -0.94121557453E+03  0.94121557453E+03  0.25500000920E-02 0. -1.
    10030    2    1    2    0    0  0.00000000000E+00  0.00000000000E+00 -0.48634131699E+03  0.13960898321E+04  0.13086401120E+04 0.  0.
        4    1    3    3  502    0 -0.52897939885E+02  0.56698313447E+02  0.44995379351E+03  0.45658834850E+03  0.12699999809E+01 0.  1.
       -4    1    3    3    0  502  0.52897939885E+02 -0.56698313447E+02 -0.93629511050E+03  0.93950148358E+03  0.12699999809E+01 0. -1.
</event>
<event>
 5   0  0.2478236E-03  0.1320849E+04  0.7818609E-02  0.9013193E-01
        2   -1    0    0  501    0  0.00000000000E+00  0.00000000000E+00  0.11853212160E+04  0.11853212160E+04  0.25500000920E-02 0.  1.
       -2   -1    0    0    0  501  0.00000000000E+00  0.00000000000E+00 -0.36796843914E+03  0.36796843914E+03  0.25500000920E-02 0. -1.
    10030    2    1    2    0    0  0.00000000000E+00  0.00000000000E+00  0.81735277688E+03  0.15532896552E+04  0.13208494202E+04 0.  0.
        3    1    3    3  502    0 -0.21919652642E+02  0.65730472563E+03  0.33781638933E+03  0.73935775955E+03  0.10100000352E+00 0. -1.
       -3    1    3    3    0  502  0.21919652642E+02 -0.65730472563E+03  0.47953638755E+03  0.81393189561E+03  0.10100000352E+00 0.  1.
</event>
<event>
 5   0  0.9131250E-04  0.1308831E+04  0.7818609E-02  0.9022592E-01
        3   -1    0    0  501    0  0.00000000000E+00  0.00000000000E+00  0.88807163230E+03  0.88807163804E+03  0.10100000352E+00 0. -1.
       -3   -1    0    0    0  501  0.00000000000E+00  0.00000000000E+00 -0.48223510696E+03  0.48223511753E+03  0.10100000352E+00 0.  1.
    10030    2    1    2    0    0  0.00000000000E+00  0.00000000000E+00  0.40583652534E+03  0.13703067556E+04  0.13088305158E+04 0.  0.
        3    1    3    3  502    0  0.10938183600E+03  0.20039162965E+03 -0.43918971572E+03  0.49498364405E+03  0.10100000352E+00 0.  1.
       -3    1    3    3    0  502 -0.10938183600E+03 -0.20039162965E+03  0.84502624106E+03  0.87532311152E+03  0.10100000352E+00 0. -1.
</event>
<event>
 5   0  0.1332630E-03  0.1309350E+04  0.7818609E-02  0.9022183E-01
        1   -1    0    0  501    0  0.00000000000E+00  0.00000000000E+00  0.66297148908E+03  0.66297148910E+03  0.50400001928E-02 0. -1.
       -1   -1    0    0    0  501  0.00000000000E+00  0.00000000000E+00 -0.64648201399E+03  0.64648201401E+03  0.50400001928E-02 0.  1.
    10030    2    1    2    0    0  0.00000000000E+00  0.00000000000E+00  0.16489475090E+02  0.13094535031E+04  0.13093496760E+04 0.  0.
        5    1    3    3  502    0 -0.12559534485E+03 -0.23204801990E+03  0.60742209837E+03  0.66227197568E+03  0.46999998093E+01 0. -1.
       -5    1    3    3    0  502  0.12559534485E+03  0.23204801990E+03 -0.59093262328E+03  0.64718152743E+03  0.46999998093E+01 0.  1.
</event>
<event>
 5   0  0.2334946E-03  0.1279393E+04  0.7818609E-02  0.9046069E-01
        2   -1    0    0  501    0  0.00000000000E+00  0.00000000000E+00  0.14403860173E+04  0.14403860173E+04  0.25500000920E-02 0.  1.
       -2   -1    0    0    0  501  0.00000000000E+00  0.00000000000E+00 -0.28409837543E+03  0.28409837544E+03  0.25500000920E-02 0. -1.
    10030    2    1    2    0    0  0.00000000000E+00  0.00000000000E+00  0.11562876419E+04  0.17244843928E+04  0.12793925551E+04 0.  0.
        1    1    3    3  502    0 -0.61138369687E+03  0.14839468068E+03  0.42211204301E+03  0.75762100217E+03  0.50400001928E-02 0. -1.
       -1    1    3    3    0  502  0.61138369687E+03 -0.14839468068E+03  0.73417559888E+03  0.96686339060E+03  0.50400001928E-02 0.  1.
</event>
<event>
 5   0  0.1324721E-03  0.1319012E+04  0.7818609E-02  0.9014623E-01
        1   -1    0    0  501    0  0.00000000000E+00  0.00000000000E+00  0.10108389907E+04  0.10108389907E+04  0.50400001928E-02 0.  1.
       -1   -1    0    0    0  501  0.00000000000E+00  0.00000000000E+00 -0.43028463517E+03  0.43028463520E+03  0.50400001928E-02 0. -1.
    10030    2    1    2    0    0  0.00000000000E+00  0.00000000000E+00  0.58055435554E+03  0.14411236259E+04  0.13190124887E+04 0.  0.
        1    1    3    3  502    0 -0.45562417776E+03 -0.47136101199E+03  0.21168831893E+03  0.68890241645E+03  0.50400001928E-02 0. -1.
       -1    1    3    3    0  502  0.45562417776E+03  0.47136101199E+03  0.36886603661E+03  0.75222120947E+03  0.50400001928E-02 0.  1.
</event>
<event>
 5   0  0.2401211E-03  0.1250276E+04  0.7818609E-02  0.9069954E-01
        2   -1    0    0  501    0  0.00000000000E+00  0.00000000000E+00  0.11957791474E+04  0.11957791474E+04  0.25500000920E-02 0. -1.
       -2   -1    0    0    0  501  0.00000000000E+00  0.00000000000E+00 -0.32681390394E+03  0.32681390395E+03  0.25500000920E-02 0.  1.
    10030    2    1    2    0    0  0.00000000000E+00  0.00000000000E+00  0.86896524348E+03  0.15225930514E+04  0.12502755719E+04 0.  0.
        4    1    3    3  502    0  0.41060678713E+03  0.44597187075E+03  0.62039974009E+03  0.86740203685E+03  0.12699999809E+01 0.  1.
       -4    1    3    3    0  502 -0.41060678713E+03 -0.44597187075E+03  0.24856550339E+03  0.65519101452E+03  0.12699999809E+01 0. -1.
</event>
<event>
 5   0  0.2401211E-03  0.1303042E+04  0.7818609E-02  0.9027156E-01
        2   -1    0    0  501    0  0.00000000000E+00  0.00000000000E+00  0.10813010192E+04  0.10813010192E+04  0.25500000920E-02 0.  1.
       -2   -1    0    0    0  501  0.00000000000E+00  0.00000000000E+00 -0.39256374928E+03  0.39256374929E+03  0.25500000920E-02 0. -1.
    10030    2    1    2    0    0  0.00000000000E+00  0.00000000000E+00  0.68873726996E+03  0.14738647685E+04  0.13030419521E+04 0.  0.
        4    1    3    3  502    0  0.42585662568E+02 -0.36298836215E+03  0.95443066548E+03  0.10220144802E+04  0.12699999809E+01 0.  1.
       -4    1    3    3    0  502 -0.42585662568E+02  0.36298836215E+03 -0.26569339552E+03  0.45185028830E+03  0.12699999809E+01 0. -1.
</event>
<event>
 5   0  0.9131250E-04  0.1448869E+04  0.7818609E-02  0.8919185E-01
       -3   -1    0    0    0  501  0.00000000000E+00  0.00000000000E+00  0.35857432106E+03  0.35857433529E+03  0.10100000352E+00 0. -1.
        3   -1    0    0  501    0  0.00000000000E+00  0.00000000000E+00 -0.14635883616E+04  0.14635883651E+04  0.10100000352E+00 0.  1.
    10030    2    1    2    0    0  0.00000000000E+00  0.00000000000E+00 -0.11050140406E+04  0.18221627004E+04  0.14488688267E+04 0.  0.
        2    1    3    3  502    0  0.90939355741E+02  0.63047358152E+03 -0.11859521016E+03  0.64794423163E+03  0.25500000920E-02 0. -1.
       -2    1    3    3    0  502 -0.90939355741E+02 -0.63047358152E+03 -0.98641883043E+03  0.11742184688E+04  0.25500000920E-02 0.  1.
</event>
<event>
 5   0  0.2401211E-03  0.1296372E+04  0.7818609E-02  0.9032447E-01
        2   -1    0    0  501    0  0.00000000000E+00  0.00000000000E+00  0.20508423943E+04  0.20508423943E+04  0.25500000920E-02 0. -1.
       -2   -1    0    0    0  501  0.00000000000E+00  0.00000000000E+00 -0.20486453398E+03  0.20486453400E+03  0.25500000920E-02 0.  1.
    10030    2    1    2    0    0  0.00000000000E+00  0.00000000000E+00  0.18459778603E+04  0.22557069283E+04  0.12963716618E+04 0.  0.
        4    1    3    3  502    0 -0.46705477789E+03  0.39365031566E+03  0.54559193106E+03  0.81900726780E+03  0.12699999809E+01 0.  1.
       -4    1    3    3    0  502  0.46705477789E+03 -0.39365031566E+03  0.13003859293E+04  0.14366996605E+04  0.12699999809E+01 0. -1.
</event>
<event>
 5   0  0.2334946E-03  0.1291532E+04  0.7818609E-02  0.9036308E-01
        2   -1    0    0  501    0  0.00000000000E+00  0.00000000000E+00  0.15370477377E+04  0.15370477377E+04  0.25500000920E-02 0. -1.
       -2   -1    0    0    0  501  0.00000000000E+00  0.00000000000E+00 -0.27130820100E+03  0.27130820101E+03  0.25500000920E-02 0.  1.
    10030    2    1    2    0    0  0.00000000000E+00  0.00000000000E+00  0.12657395367E+04  0.18083559387E+04  0.12915318913E+04 0.  0.
        1    1    3    3  502    0  0.21841868105E+02  0.73513526198E+02 -0.26490957356E+03  0.27578685234E+03  0.50400001928E-02 0.  1.
       -1    1    3    3    0  502 -0.21841868105E+02 -0.73513526198E+02  0.15306491102E+04  0.15325690863E+04  0.50400001928E-02 0. -1.
</event>
<event>
 5   0  0.1310461E-03  0.1306534E+04  0.7818609E-02  0.9024400E-01
       -1   -1    0    0    0  501  0.00000000000E+00  0.00000000000E+00  0.25149045664E+03  0.25149045669E+03  0.50400001928E-02 0.  1.
        1   -1    0    0  501    0  0.00000000000E+00  0.00000000000E+00 -0.16969134484E+04  0.16969134484E+04  0.50400001928E-02 0. -1.
    10030    2    1    2    0    0  0.00000000000E+00  0.00000000000E+00 -0.14454229918E+04  0.19484039051E+04  0.13065336400E+04 0.  0.
        4    1    3    3  502    0  0.86473487862E+02  0.17415148167E+03 -0.16527587534E+04  0.16641572980E+04  0.12699999809E+01 0. -1.
       -4    1    3    3    0  502 -0.86473487862E+02 -0.17415148167E+03  0.20733576166E+03  0.28424660708E+03  0.12699999809E+01 0.  1.
</event>
<event>
 5   0  0.9131250E-04  0.1259499E+04  0.7818609E-02  0.9062314E-01
       -3   -1    0    0    0  501  0.00000000000E+00  0.00000000000E+00  0.33953013657E+03  0.33953015159E+03  0.10100000352E+00 0.  1.
        3   -1    0    0  501    0  0.00000000000E+00  0.00000000000E+00 -0.11680383264E+04  0.11680383308E+04  0.10100000352E+00 0. -1.
    10030    2    1    2    0    0  0.00000000000E+00  0.00000000000E+00 -0.82850818982E+03  0.15075684824E+04  0.12594986734E+04 0.  0.
        4    1    3    3  502    0 -0.60290964171E+03  0.17888998098E+03 -0.45360753545E+03  0.77541154910E+03  0.12699999809E+01 0. -1.
       -4    1    3    3    0  502  0.60290964171E+03 -0.17888998098E+03 -0.37490065437E+03  0.73215693325E+03  0.12699999809E+01 0.  1.
</event>
<event>
 5   0  0.1387622E-03  0.1299390E+04  0.7818609E-02  0.9030049E-01
        1   -1    0    0  501    0  0.00000000000E+00  0.00000000000E+00  0.17309139831E+04  0.17309139831E+04  0.50400001928E-02 0. -1.
       -1   -1    0    0    0  501  0.00000000000E+00  0.00000000000E+00 -0.24386179615E+03  0.24386179620E+03  0.50400001928E-02 0.  1.
    10030    2    1    2    0    0  0.00000000000E+00  0.00000000000E+00  0.14870521870E+04  0.19747757793E+04  0.12993903077E+04 0.  0.
        3    1    3    3  502    0 -0.23489394503E+03 -0.59581902900E+03  0.57754161335E+03  0.86239770760E+03  0.10100000352E+00 0.  1.
       -3    1    3    3    0  502  0.23489394503E+03  0.59581902900E+03  0.90951057364E+03  0.11123780717E+04  0.10100000352E+00 0. -1.
</event>
<event>
 5   0  0.2401211E-03  0.1424120E+04  0.7818609E-02  0.8936542E-01
       -2   -1    0    0    0  501  0.00000000000E+00  0.00000000000E+00  0.24096433117E+03  0.24096433118E+03  0.25500000920E-02 0. -1.
        2   -1    0    0  501    0  0.00000000000E+00  0.00000000000E+00 -0.21041672155E+04  0.21041672155E+04  0.25500000920E-02 0.  1.
    10030    2    1    2    0    0  0.00000000000E+00  0.00000000000E+00 -0.18632028844E+04  0.23451315467E+04  0.14241197222E+04 0.  0.
        4    1    3    3  502    0 -0.15882640273E+03  0.56676331012E+03 -0.27171683290E+03  0.64828861326E+03  0.12699999809E+01 0. -1.
       -4    1    3    3    0  502  0.15882640273E+03 -0.56676331012E+03 -0.15914860515E+04  0.16968429335E+04  0.12699999809E+01 0.  1.
</event>
<event>
 5   0  0.2334946E-03  0.1293716E+04  0.7818609E-02  0.9034563E-01
       -2   -1    0    0    0  501  0.00000000000E+00  0.00000000000E+00  0.57466502929E+03  0.57466502930E+03  0.25500000920E-02 0.  1.
        2   -1    0    0  501    0  0.00000000000E+00  0.00000000000E+00 -0.72812078187E+03  0.72812078187E+03  0.25500000920E-02 0. -1.
    10030    2    1    2    0    0  0.00000000000E+00  0.00000000000E+00 -0.15345575258E+03  0.13027858112E+04  0.12937164302E+04 0.  0.
        1    1    3    3  502    0  0.15846573637E+03 -0.13316638065E+03  0.54041491639E+03  0.57869936618E+03  0.50400001928E-02 0.  1.
       -1    1    3    3    0  502 -0.15846573637E+03  0.13316638065E+03 -0.69387066897E+03  0.72408644499E+03  0.50400001928E-02 0. -1.
</event>
<event>
 5   0  0.2361043E-03  0.1312925E+04  0.7818609E-02  0.9019378E-01
        2   -1    0    0  501    0  0.00000000000E+00  0.00000000000E+00  0.63374475233E+03  0.63374475234E+03  0.25500000920E-02 0. -1.
       -2   -1    0    0    0  501  0.00000000000E+00  0.00000000000E+00 -0.67999412505E+03  0.67999412506E+03  0.25500000920E-02 0.  1.
    10030    2    1    2    0    0  0.00000000000E+00  0.00000000000E+00 -0.46249372718E+02  0.13137388774E+04  0.13129245346E+04 0.  0.
        2    1    3    3  502    0 -0.11043452997E+03  0.56543488934E+03 -0.33801068840E+03  0.66795480758E+03  0.25500000920E-02 0.  1.
       -2    1    3    3    0  502  0.11043452997E+03 -0.56543488934E+03  0.29176131568E+03  0.64578406982E+03  0.25500000920E-02 0. -1.
</event>
<event>
 5   0  0.2312105E-03  0.1286620E+04  0.7818609E-02  0.9040244E-01
       -2   -1    0    0    0  501  0.00000000000E+00  0.00000000000E+00  0.41485020442E+03  0.41485020443E+03  0.25500000920E-02 0.  1.
        2   -1    0    0  501    0  0.00000000000E+00  0.00000000000E+00 -0.99758335129E+03  0.99758335130E+03  0.25500000920E-02 0. -1.
    10030    2    1    2    0    0  0.00000000000E+00  0.00000000000E+00 -0.58273314687E+03  0.14124335557E+04  0.12866198463E+04 0.  0.
        5    1    3    3  502    0  0.26902349319E+03 -0.56805057512E+03 -0.44176918270E+03  0.76826896109E+03  0.46999998093E+01 0. -1.
       -5    1    3    3    0  502 -0.26902349319E+03  0.56805057512E+03 -0.14096396417E+03  0.64416459463E+03  0.46999998093E+01 0.  1.
</event>
<event>
 5   0  0.2361043E-03  0.1302903E+04  0.7818609E-02  0.9027266E-01
        2   -1    0    0  501    0  0.00000000000E+00  0.00000000000E+00  0.63441690348E+03  0.63441690348E+03  0.25500000920E-02 0.  1.
       -2   -1    0    0    0  501  0.00000000000E+00  0.00000000000E+00 -0.66894365960E+03  0.66894365960E+03  0.25500000920E-02 0. -1.
    10030    2    1    2    0    0  0.00000000000E+00  0.00000000000E+00 -0.34526756120E+02  0.13033605631E+04  0.13029031662E+04 0.  0.
        2    1    3    3  502    0  0.45814027975E+03 -0.44459038218E+03  0.11253594494E+03  0.64824182430E+03  0.25500000920E-02 0.  1.
       -2    1    3    3    0  502 -0.45814027975E+03  0.44459038218E+03 -0.14706270106E+03  0.65511873879E+03  0.25500000920E-02 0. -1.
</event>
<event>
 5   0  0.1387622E-03  0.1284659E+04  0.7818609E-02  0.9041820E-01
       -1   -1    0    0    0  501  0.00000000000E+00  0.00000000000E+00  0.20754533392E+03  0.20754533398E+03  0.50400001928E-02 0.  1.
        1   -1    0    0  501    0  0.00000000000E+00  0.00000000000E+00 -0.19879384409E+04  0.19879384409E+04  0.50400001928E-02 0. -1.
    10030    2    1    2    0    0  0.00000000000E+00  0.00000000000E+00 -0.17803931070E+04  0.21954837749E+04  0.12846592507E+04 0.  0.
        3    1    3    3  502    0 -0.96856888444E+02 -0.40997128030E+03 -0.61499177874E+02  0.42572275790E+03  0.10100000352E+00 0.  1.
       -3    1    3    3    0  502  0.96856888444E+02  0.40997128030E+03 -0.17188939291E+04  0.17697610170E+04  0.10100000352E+00 0. -1.
</event>
<event>
 5   0  0.2334946E-03  0.1294810E+04  0.7818609E-02  0.9033691E-01
       -2   -1    0    0    0  501  0.00000000000E+00  0.00000000000E+00  0.47139804641E+03  0.47139804641E+03  0.25500000920E-02 0. -1.
        2   -1    0    0  501    0  0.00000000000E+00  0.00000000000E+00 -0.88912749659E+03  0.88912749660E+03  0.25500000920E-02 0.  1.
    10030    2    1    2    0    0  0.00000000000E+00  0.00000000000E+00 -0.41772945019E+03  0.13605255430E+04  0.12948095843E+04 0.  0.
        1    1    3    3  502    0 -0.39148298497E+03  0.42559372433E+03 -0.51474771253E+03  0.77417966474E+03  0.50400001928E-02 0.  1.
       -1    1    3    3    0  502  0.39148298497E+03 -0.42559372433E+03  0.97018262342E+02  0.58634587827E+03  0.50400001928E-02 0. -1.
</event>
<event>
 5   0  0.1346593E-03  0.1277727E+04  0.7818609E-02  0.9047417E-01
        1   -1    0    0  501    0  0.00000000000E+00  0.00000000000E+00  0.13725895570E+04  0.13725895570E+04  0.50400001928E-02 0. -1.
       -1   -1    0    0    0  501  0.00000000000E+00  0.00000000000E+00 -0.29735500849E+03  0.29735500853E+03  0.50400001928E-02 0.  1.
    10030    2    1    2    0    0  0.00000000000E+00  0.00000000000E+00  0.10752345485E+04  0.16699445655E+04  0.12777266991E+04 0.  0.
        2    1    3    3  502    0  0.43470511047E+01 -0.15030728897E+03 -0.27389688879E+03  0.31245909119E+03  0.25500000920E-02 0.  1.
       -2    1    3    3    0  502 -0.43470511047E+01  0.15030728897E+03  0.13491314373E+04  0.13574854743E+04  0.25500000920E-02 0. -1.
</event>
<event>
 5   0  0.1310461E-03  0.1314375E+04  0.7818609E-02  0.9018242E-01
       -1   -1    0    0    0  501  0.00000000000E+00  0.00000000000E+00  0.46249925628E+03  0.46249925630E+03  0.50400001928E-02 0. -1.
        1   -1    0    0  501    0  0.00000000000E+00  0.00000000000E+00 -0.93382993447E+03  0.93382993449E+03  0.50400001928E-02 0.  1.
    10030    2    1    2    0    0  0.00000000000E+00  0.00000000000E+00 -0.47133067819E+03  0.13963291908E+04  0.13143753653E+04 0.  0.
        4    1    3    3  502    0 -0.93561272785E+02  0.18270003298E+03 -0.89890060395E+03  0.92203954498E+03  0.12699999809E+01 0.  1.
       -4    1    3    3    0  502  0.93561272785E+02 -0.18270003298E+03  0.42756992576E+03  0.47428964581E+03  0.12699999809E+01 0. -1.
</event>
<event>
 5   0  0.2478236E-03  0.1343666E+04  0.7818609E-02  0.8995637E-01
       -2   -1    0    0    0  501  0.00000000000E+00  0.00000000000E+00  0.39618033612E+03  0.39618033613E+03  0.25500000920E-02 0.  1.
        2   -1    0    0  501    0  0.00000000000E+00  0.00000000000E+00 -0.11392779115E+04  0.11392779115E+04  0.25500000920E-02 0. -1.
    10030    2    1    2    0    0  0.00000000000E+00  0.00000000000E+00 -0.74309757534E+03  0.15354582476E+04  0.13436658899E+04 0.  0.
        3    1    3    3  502    0  0.61115395996E+03 -0.48719745180E+02 -0.57604036358E+02  0.61579299408E+03  0.10100000352E+00 0.  1.
       -3    1    3    3    0  502 -0.61115395996E+03  0.48719745180E+02 -0.68549353899E+03  0.91966525353E+03  0.10100000352E+00 0. -1.
</event>
<event>
 5   0  0.2312105E-03  0.1274039E+04  0.7818609E-02  0.9050410E-01
       -2   -1    0    0    0  501  0.00000000000E+00  0.00000000000E+00  0.95788158797E+03  0.95788158798E+03  0.25500000920E-02 0.  1.
        2   -1    0    0  501    0  0.00000000000E+00  0.00000000000E+00 -0.42363666645E+03  0.42363666645E+03  0.25500000920E-02 0. -1.
    10030    2    1    2    0    0  0.00000000000E+00  0.00000000000E+00  0.53424492153E+03  0.13815182544E+04  0.12740388735E+04 0.  0.
        5    1    3    3  502    0  0.59922088486E+03  0.14145267824E+03  0.44429905465E+03  0.75927483100E+03  0.46999998093E+01 0.  1.
       -5    1    3    3    0  502 -0.59922088486E+03 -0.14145267824E+03  0.89945866879E+02  0.62224342343E+03  0.46999998093E+01 0. -1.
</event>
<event>
 5   0  0.9131250E-04  0.1210432E+04  0.7818609E-02  0.9103774E-01
       -3   -1    0    0    0  501  0.00000000000E+00  0.00000000000E+00  0.78447238028E+03  0.78447238678E+03  0.10100000352E+00 0.  1.
        3   -1    0    0  501    0  0.00000000000E+00  0.00000000000E+00 -0.46692037645E+03  0.46692038738E+03  0.10100000352E+00 0. -1.
    10030    2    1    2    0    0  0.00000000000E+00  0.00000000000E+00  0.31755200383E+03  0.12513927742E+04  0.12104315760E+04 0.  0.
        5    1    3    3  502    0 -0.56996400847E+03 -0.20143495801E+03  0.12900846434E+03  0.61814261068E+03  0.46999998093E+01 0. -1.
       -5    1    3    3    0  502  0.56996400847E+03  0.20143495801E+03  0.18854353948E+03  0.63325016348E+03  0.46999998093E+01 0.  1.
</event>
<event>
 5   0  0.9131250E-04  0.1225601E+04  0.7818609E-02  0.9090738E-01
        3   -1    0    0  501    0  0.00000000000E+00  0.00000000000E+00  0.13197112558E+04  0.13197112596E+04  0.10100000352E+00 0. -1.
       -3   -1    0    0    0  501  0.00000000000E+00  0.00000000000E+00 -0.28455052800E+03  0.28455054593E+03  0.10100000352E+00 0.  1.
    10030    2    1    2    0    0  0.00000000000E+00  0.00000000000E+00  0.10351607278E+04  0.16042618056E+04  0.12256011621E+04 0.  0.
        2    1    3    3  502    0  0.25942227490E+03 -0.31856890730E+03 -0.77583762708E+02  0.41809724425E+03  0.25500000920E-02 0.  1.
       -2    1    3    3    0  502 -0.25942227490E+03  0.31856890730E+03  0.11127444905E+04  0.11861645613E+04  0.25500000920E-02 0. -1.
</event>
<event>
 5   0  0.2312105E-03  0.1318161E+04  0.7818609E-02  0.9015286E-01
        2   -1    0    0  501    0  0.00000000000E+00  0.00000000000E+00  0.15269141424E+04  0.15269141424E+04  0.25500000920E-02 0.  1.
       -2   -1    0    0    0  501  0.00000000000E+00  0.00000000000E+00 -0.28448693374E+03  0.28448693375E+03  0.25500000920E-02 0. -1.
    10030    2    1    2    0    0  0.00000000000E+00  0.00000000000E+00  0.12424272087E+04  0.18114010762E+04  0.13181610258E+04 0.  0.
        5    1    3    3  502    0  0.19882263620E+03  0.13987142121E+03  0.14630320012E+04  0.14830978328E+04  0.46999998093E+01 0.  1.
       -5    1    3    3    0  502 -0.19882263620E+03 -0.13987142121E+03 -0.22060479251E+03  0.32830324338E+03  0.46999998093E+01 0. -1.
</event>
<event>
 5   0  0.2334946E-03  0.1306964E+04  0.7818609E-02  0.9024061E-01
       -2   -1    0    0    0  501  0.00000000000E+00  0.00000000000E+00  0.62193403779E+03  0.62193403780E+03  0.25500000920E-02 0. -1.
        2   -1    0    0  501    0  0.00000000000E+00  0.00000000000E+00 -0.68663008922E+03  0.68663008922E+03  0.25500000920E-02 0.  1.
    10030    2    1    2    0    0  0.00000000000E+00  0.00000000000E+00 -0.64696051427E+02  0.13085641270E+04  0.13069638463E+04 0.  0.
        1    1    3    3  502    0 -0.39221325706E+03  0.27658336096E+03 -0.47640999835E+03  0.67623670496E+03  0.50400001928E-02 0.  1.
       -1    1    3    3    0  502  0.39221325706E+03 -0.27658336096E+03  0.41171394692E+03  0.63232742206E+03  0.50400001928E-02 0. -1.
</event>
<event>
 5   0  0.1310461E-03  0.1300118E+04  0.7818609E-02  0.9029472E-01
        1   -1    0    0  501    0  0.00000000000E+00  0.00000000000E+00  0.15337816300E+04  0.15337816300E+04  0.50400001928E-02 0.  1.
       -1   -1    0    0    0  501  0.00000000000E+00  0.00000000000E+00 -0.27551281761E+03  0.27551281766E+03  0.50400001928E-02 0. -1.
    10030    2    1    2    0    0  0.00000000000E+00  0.00000000000E+00  0.12582688124E+04  0.18092944477E+04  0.13001176847E+04 0.  0.
        4    1    3    3  502    0  0.40332460508E+03 -0.50856306747E+03  0.67868447330E+03  0.93910668076E+03  0.12699999809E+01 0.  1.
       -4    1    3    3    0  502 -0.40332460508E+03  0.50856306747E+03  0.57958433911E+03  0.87018776692E+03  0.12699999809E+01 0. -1.
</event>
<event>
 5   0  0.1332630E-03  0.1337415E+04  0.7818609E-02  0.9000410E-01
       -1   -1    0    0    0  501  0.00000000000E+00  0.00000000000E+00  0.40824157795E+03  0.40824157798E+03  0.50400001928E-02 0. -1.
        1   -1    0    0  501    0  0.00000000000E+00  0.00000000000E+00 -0.10953562450E+04  0.10953562450E+04  0.50400001928E-02 0.  1.
    10030    2    1    2    0    0  0.00000000000E+00  0.00000000000E+00 -0.68711466707E+03  0.15035978230E+04  0.13374153609E+04 0.  0.
        5    1    3    3  502    0  0.12859641027E+03 -0.61216821112E+03 -0.77840291314E+02  0.63037144319E+03  0.46999998093E+01 0. -1.
       -5    1    3    3    0  502 -0.12859641027E+03  0.61216821112E+03 -0.60927437575E+03  0.87322637981E+03  0.46999998093E+01 0.  1.
</event>
<event>
 5   0  0.2312105E-03  0.1306924E+04  0.7818609E-02  0.9024092E-01
       -2   -1    0    0    0  501  0.00000000000E+00  0.00000000000E+00  0.72792949317E+03  0.72792949317E+03  0.25500000920E-02 0. -1.
        2   -1    0    0  501    0  0.00000000000E+00  0.00000000000E+00 -0.58661296931E+03  0.58661296932E+03  0.25500000920E-02 0.  1.
    10030    2    1    2    0    0  0.00000000000E+00  0.00000000000E+00  0.14131652386E+03  0.13145424625E+04  0.13069244530E+04 0.  0.
        5    1    3    3  502    0 -0.21525995096E+03  0.15762242298E+03  0.67063259449E+03  0.72176993669E+03  0.46999998093E+01 0. -1.
       -5    1    3    3    0  502  0.21525995096E+03 -0.15762242298E+03 -0.52931607063E+03  0.59277252580E+03  0.46999998093E+01 0.  1.
</event>
<event>
 5   0  0.2361043E-03  0.1316608E+04  0.7818609E-02  0.9016498E-01
        2   -1    0    0  501    0  0.00000000000E+00  0.00000000000E+00  0.15312970559E+04  0.15312970559E+04  0.25500000920E-02 0.  1.
       -2   -1    0    0    0  501  0.00000000000E+00  0.00000000000E+00 -0.28300462648E+03  0.28300462650E+03  0.25500000920E-02 0. -1.
    10030    2    1    2    0    0  0.00000000000E+00  0.00000000000E+00  0.12482924294E+04  0.18143016824E+04  0.13166079923E+04 0.  0.
        2    1    3    3  502    0 -0.12837251449E+03 -0.33504933291E+03  0.13847122429E+04  0.14304424328E+04  0.25500000920E-02 0.  1.
       -2    1    3    3    0  502  0.12837251449E+03  0.33504933291E+03 -0.13641981349E+03  0.38385924957E+03  0.25500000920E-02 0. -1.
</event>
<event>
 5   0  0.2478236E-03  0.1277119E+04  0.7818609E-02  0.9047909E-01
       -2   -1    0    0    0  501  0.00000000000E+00  0.00000000000E+00  0.30647282351E+03  0.30647282352E+03  0.25500000920E-02 0. -1.
        2   -1    0    0  501    0  0.00000000000E+00  0.00000000000E+00 -0.13304878193E+04  0.13304878193E+04  0.25500000920E-02 0.  1.
    10030    2    1    2    0    0  0.00000000000E+00  0.00000000000E+00 -0.10240149958E+04  0.16369606428E+04  0.12771191935E+04 0.  0.
        3    1    3    3  502    0 -0.61197182338E+03 -0.13012749243E+03 -0.67573034288E+03  0.92089857389E+03  0.10100000352E+00 0.  1.
       -3    1    3    3    0  502  0.61197182338E+03  0.13012749243E+03 -0.34828465290E+03  0.71606206892E+03  0.10100000352E+00 0. -1.
</event>
<event>
 5   0  0.1324721E-03  0.1302266E+04  0.7818609E-02  0.9027770E-01
        1   -1    0    0  501    0  0.00000000000E+00  0.00000000000E+00  0.10354534302E+04  0.10354534302E+04  0.50400001928E-02 0. -1.
       -1   -1    0    0    0  501  0.00000000000E+00  0.00000000000E+00 -0.40945727961E+03  0.40945727964E+03  0.50400001928E-02 0.  1.
    10030    2    1    2    0    0  0.00000000000E+00  0.00000000000E+00  0.62599615057E+03  0.14449107098E+04  0.13022656330E+04 0.  0.
        1    1    3    3  502    0  0.52930165695E+03  0.35524848842E+03  0.16575042133E+03  0.65866147206E+03  0.50400001928E-02 0.  1.
       -1    1    3    3    0  502 -0.52930165695E+03 -0.35524848842E+03  0.46024572924E+03  0.78624923777E+03  0.50400001928E-02 0. -1.
</event>
<event>
 5   0  0.2478236E-03  0.1287202E+04  0.7818609E-02  0.9039776E-01
        2   -1    0    0  501    0  0.00000000000E+00  0.00000000000E+00  0.97652444399E+03  0.97652444399E+03  0.25500000920E-02 0.  1.
       -2   -1    0    0    0  501  0.00000000000E+00  0.00000000000E+00 -0.42418032599E+03  0.42418032600E+03  0.25500000920E-02 0. -1.
    10030    2    1    2    0    0  0.00000000000E+00  0.00000000000E+00  0.55234411800E+03  0.14007047700E+04  0.12872023260E+04 0.  0.
        3    1    3    3  502    0  0.29865142048E+03  0.35686579874E+03  0.75998490836E+03  0.89113575868E+03  0.10100000352E+00 0.  1.
       -3    1    3    3    0  502 -0.29865142048E+03 -0.35686579874E+03 -0.20764079035E+03  0.50956901131E+03  0.10100000352E+00 0. -1.
</event>
<event>
 5   0  0.2312105E-03  0.1291345E+04  0.7818609E-02  0.9036457E-01
        2   -1    0    0  501    0  0.00000000000E+00  0.00000000000E+00  0.11471564658E+04  0.11471564658E+04  0.25500000920E-02 0.  1.
       -2   -1    0    0    0  501  0.00000000000E+00  0.00000000000E+00 -0.36341404969E+03  0.36341404970E+03  0.25500000920E-02 0. -1.
    10030    2    1    2    0    0  0.00000000000E+00  0.00000000000E+00  0.78374241607E+03  0.15105705155E+04  0.12913446896E+04 0.  0.
        5    1    3    3  502    0 -0.66320284869E+02 -0.13174241348E+03  0.11271656184E+04  0.11367844408E+04  0.46999998093E+01 0.  1.
       -5    1    3    3    0  502  0.66320284869E+02  0.13174241348E+03 -0.34342320231E+03  0.37378607462E+03  0.46999998093E+01 0. -1.
</event>
<event>
 5   0  0.1324721E-03  0.1298605E+04  0.7818609E-02  0.9030672E-01
        1   -1    0    0  501    0  0.00000000000E+00  0.00000000000E+00  0.81740704015E+03  0.81740704017E+03  0.50400001928E-02 0.  1.
       -1   -1    0    0    0  501  0.00000000000E+00  0.00000000000E+00 -0.51576967230E+03  0.51576967232E+03  0.50400001928E-02 0. -1.
    10030    2    1    2    0    0  0.00000000000E+00  0.00000000000E+00  0.30163736785E+03  0.13331767125E+04  0.12986050381E+04 0.  0.
        1    1    3    3  502    0 -0.40140492598E+02  0.43567833109E+03  0.64334797564E+03  0.77802537562E+03  0.50400001928E-02 0.  1.
       -1    1    3    3    0  502  0.40140492598E+02 -0.43567833109E+03 -0.34171060778E+03  0.55515133687E+03  0.50400001928E-02 0. -1.
</event>
<event>
 5   0  0.1346593E-03  0.1315346E+04  0.7818609E-02  0.9017484E-01
        1   -1    0    0  501    0  0.00000000000E+00  0.00000000000E+00  0.61365465295E+03  0.61365465297E+03  0.50400001928E-02 0.  1.
       -1   -1    0    0    0  501  0.00000000000E+00  0.00000000000E+00 -0.70484833862E+03  0.70484833864E+03  0.50400001928E-02 0. -1.
    10030    2    1    2    0    0  0.00000000000E+00  0.00000000000E+00 -0.91193685672E+02  0.13185029916E+04  0.13153455252E+04 0.  0.
        2    1    3    3  502    0  0.60736122015E+02  0.51965573796E+03  0.35386006479E+03  0.63162323261E+03  0.25500000920E-02 0.  1.
       -2    1    3    3    0  502 -0.60736122015E+02 -0.51965573796E+03 -0.44505375046E+03  0.68687975900E+03  0.25500000920E-02 0. -1.
</event>
<event>
 5   0  0.2401211E-03  0.1313773E+04  0.7818609E-02  0.9018713E-01
       -2   -1    0    0    0  501  0.00000000000E+00  0.00000000000E+00  0.56206951926E+03  0.56206951926E+03  0.25500000920E-02 0.  1.
        2   -1    0    0  501    0  0.00000000000E+00  0.00000000000E+00 -0.76769885838E+03  0.76769885839E+03  0.25500000920E-02 0. -1.
    10030    2    1    2    0    0  0.00000000000E+00  0.00000000000E+00 -0.20562933913E+03  0.13297683776E+04  0.13137733873E+04 0.  0.
        4    1    3    3  502    0  0.39893363851E+03 -0.49304495170E+03 -0.27594433841E+03  0.69165617407E+03  0.12699999809E+01 0. -1.
       -4    1    3    3    0  502 -0.39893363851E+03  0.49304495170E+03  0.70314999286E+02  0.63811220358E+03  0.12699999809E+01 0.  1.
</event>
<event>
 5   0  0.2401211E-03  0.1301301E+04  0.7818609E-02  0.9028534E-01
        2   -1    0    0  501    0  0.00000000000E+00  0.00000000000E+00  0.80681589911E+03  0.80681589912E+03  0.25500000920E-02 0. -1.
       -2   -1    0    0    0  501  0.00000000000E+00  0.00000000000E+00 -0.52471175205E+03  0.52471175206E+03  0.25500000920E-02 0.  1.
    10030    2    1    2    0    0  0.00000000000E+00  0.00000000000E+00  0.28210414706E+03  0.13315276512E+04  0.13013005556E+04 0.  0.
        4    1    3    3  502    0 -0.98013240267E+01  0.40794821254E+03  0.65960414513E+03  0.77562687630E+03  0.12699999809E+01 0. -1.
       -4    1    3    3    0  502  0.98013240267E+01 -0.40794821254E+03 -0.37749999806E+03  0.55590077487E+03  0.12699999809E+01 0.  1.
</event>
<event>
 5   0  0.2361043E-03  0.1312913E+04  0.7818609E-02  0.9019387E-01
       -2   -1    0    0    0  501  0.00000000000E+00  0.00000000000E+00  0.25820642599E+03  0.25820642600E+03  0.25500000920E-02 0. -1.
        2   -1    0    0  501    0  0.00000000000E+00  0.00000000000E+00 -0.16689557789E+04  0.16689557789E+04  0.25500000920E-02 0.  1.
    10030    2    1    2    0    0  0.00000000000E+00  0.00000000000E+00 -0.14107493530E+04  0.19271622049E+04  0.13129129550E+04 0.  0.
        2    1    3    3  502    0  0.48945207581E+03 -0.26222468031E+03 -0.19139580860E+03  0.58733080375E+03  0.25500000920E-02 0. -1.
       -2    1    3    3    0  502 -0.48945207581E+03  0.26222468031E+03 -0.12193535444E+04  0.13398314012E+04  0.25500000920E-02 0.  1.
</event>
<event>
 5   0  0.2334946E-03  0.1304832E+04  0.7818609E-02  0.9025742E-01
        2   -1    0    0  501    0  0.00000000000E+00  0.00000000000E+00  0.14842765369E+04  0.14842765369E+04  0.25500000920E-02 0. -1.
       -2   -1    0    0    0  501  0.00000000000E+00  0.00000000000E+00 -0.28677048583E+03  0.28677048584E+03  0.25500000920E-02 0.  1.
    10030    2    1    2    0    0  0.00000000000E+00  0.00000000000E+00  0.11975060511E+04  0.17710470228E+04  0.13048321020E+04 0.  0.
        1    1    3    3  502    0  0.53754872073E+02 -0.24771596001E+03 -0.21720135921E+03  0.33381014602E+03  0.50400001928E-02 0.  1.
       -1    1    3    3    0  502 -0.53754872073E+02  0.24771596001E+03  0.14147074103E+04  0.14372368767E+04  0.50400001928E-02 0. -1.
</event>
<event>
 5   0  0.2401211E-03  0.1310933E+04  0.7818609E-02  0.9020940E-01
        2   -1    0    0  501    0  0.00000000000E+00  0.00000000000E+00  0.13047669800E+04  0.13047669800E+04  0.25500000920E-02 0.  1.
       -2   -1    0    0    0  501  0.00000000000E+00  0.00000000000E+00 -0.32928218083E+03  0.32928218084E+03  0.25500000920E-02 0. -1.
    10030    2    1    2    0    0  0.00000000000E+00  0.00000000000E+00  0.97548479917E+03  0.16340491608E+04  0.13109332808E+04 0.  0.
        4    1    3    3  502    0  0.40571608634E+03 -0.15373436120E+03  0.11001615474E+04  0.11826228646E+04  0.12699999809E+01 0.  1.
       -4    1    3    3    0  502 -0.40571608634E+03  0.15373436120E+03 -0.12467674821E+03  0.45142629628E+03  0.12699999809E+01 0. -1.
</event>
<event>
 5   0  0.2478236E-03  0.1316195E+04  0.7818609E-02  0.9016820E-01
       -2   -1    0    0    0  501  0.00000000000E+00  0.00000000000E+00  0.67421692403E+03  0.67421692403E+03  0.25500000920E-02 0.  1.
        2   -1    0    0  501    0  0.00000000000E+00  0.00000000000E+00 -0.64236368283E+03  0.64236368283E+03  0.25500000920E-02 0. -1.
    10030    2    1    2    0    0  0.00000000000E+00  0.00000000000E+00  0.31853241197E+02  0.13165806069E+04  0.13161952231E+04 0.  0.
        3    1    3    3  502    0 -0.29715136268E+02  0.22726460714E+03 -0.60114967526E+03  0.64336081109E+03  0.10100000352E+00 0. -1.
       -3    1    3    3    0  502  0.29715136268E+02 -0.22726460714E+03  0.63300291646E+03  0.67321979577E+03  0.10100000352E+00 0.  1.
</event>
<event>
 5   0  0.1324721E-03  0.1303414E+04  0.7818609E-02  0.9026862E-01
        1   -1    0    0  501    0  0.00000000000E+00  0.00000000000E+00  0.18086183138E+04  0.18086183138E+04  0.50400001928E-02 0. -1.
       -1   -1    0    0    0  501  0.00000000000E+00  0.00000000000E+00 -0.23483225620E+03  0.23483225625E+03  0.50400001928E-02 0.  1.
    10030    2    1    2    0    0  0.00000000000E+00  0.00000000000E+00  0.15737860576E+04  0.20434505700E+04  0.13034138549E+04 0.  0.
        1    1    3    3  502    0 -0.42116201441E+03  0.64108707144E+02  0.15600976414E+04  0.16172173692E+04  0.50400001928E-02 0. -1.
       -1    1    3    3    0  502  0.42116201441E+03 -0.64108707144E+02  0.13688416217E+02  0.42623320081E+03  0.50400001928E-02 0.  1.
</event>
<event>
 5   0  0.1324721E-03  0.1285870E+04  0.7818609E-02  0.9040846E-01
        1   -1    0    0  501    0  0.00000000000E+00  0.00000000000E+00  0.26401125328E+04  0.26401125328E+04  0.50400001928E-02 0. -1.
       -1   -1    0    0    0  501  0.00000000000E+00  0.00000000000E+00 -0.15657113027E+03  0.15657113035E+03  0.50400001928E-02 0.  1.
    10030    2    1    2    0    0  0.00000000000E+00  0.00000000000E+00  0.24835414025E+04  0.27966836632E+04  0.12858699832E+04 0.  0.
        1    1    3    3  502    0  0.49648704248E+02 -0.25730323371E+02 -0.15127197291E+03  0.16127694562E+03  0.50400001928E-02 0.  1.
       -1    1    3    3    0  502 -0.49648704248E+02  0.25730323371E+02  0.26348133755E+04  0.26354067175E+04  0.50400001928E-02 0. -1.
</event>
<event>
 5   0  0.1310461E-03  0.1242681E+04  0.7818609E-02  0.9076297E-01
       -1   -1    0    0    0  501  0.00000000000E+00  0.00000000000E+00  0.19502754679E+04  0.19502754679E+04  0.50400001928E-02 0. -1.
        1   -1    0    0  501    0  0.00000000000E+00  0.00000000000E+00 -0.19795348739E+03  0.19795348745E+03  0.50400001928E-02 0.  1.
    10030    2    1    2    0    0  0.00000000000E+00  0.00000000000E+00  0.17523219805E+04  0.21482289553E+04  0.12426806996E+04 0.  0.
        4    1    3    3  502    0 -0.47123287784E+03 -0.32698767795E+03  0.12891763769E+04  0.14110133629E+04  0.12699999809E+01 0. -1.
       -4    1    3    3    0  502  0.47123287784E+03  0.32698767795E+03  0.46314560365E+03  0.73721559246E+03  0.12699999809E+01 0.  1.
</event>
<event>
 5   0  0.1324721E-03  0.1270136E+04  0.7818609E-02  0.9053589E-01
       -1   -1    0    0    0  501  0.00000000000E+00  0.00000000000E+00  0.65021702219E+03  0.65021702221E+03  0.50400001928E-02 0. -1.
        1   -1    0    0  501    0  0.00000000000E+00  0.00000000000E+00 -0.62027154134E+03  0.62027154136E+03  0.50400001928E-02 0.  1.
    10030    2    1    2    0    0  0.00000000000E+00  0.00000000000E+00  0.29945480856E+02  0.12704885636E+04  0.12701356063E+04 0.  0.
        1    1    3    3  502    0 -0.17174396573E+03 -0.25903605497E+02  0.62599773376E+03  0.64964617234E+03  0.50400001928E-02 0. -1.
       -1    1    3    3    0  502  0.17174396573E+03  0.25903605497E+02 -0.59605225290E+03  0.62084239123E+03  0.50400001928E-02 0.  1.
</event>
<event>
 5   0  0.2334946E-03  0.1294029E+04  0.7818609E-02  0.9034314E-01
       -2   -1    0    0    0  501  0.00000000000E+00  0.00000000000E+00  0.10009854188E+04  0.10009854188E+04  0.25500000920E-02 0. -1.
        2   -1    0    0  501    0  0.00000000000E+00  0.00000000000E+00 -0.41821544580E+03  0.41821544581E+03  0.25500000920E-02 0.  1.
    10030    2    1    2    0    0  0.00000000000E+00  0.00000000000E+00  0.58276997296E+03  0.14192008646E+04  0.12940286908E+04 0.  0.
        1    1    3    3  502    0 -0.22512523128E+03  0.57154066066E+03  0.68536812830E+02  0.61809173371E+03  0.50400001928E-02 0.  1.
       -1    1    3    3    0  502  0.22512523128E+03 -0.57154066066E+03  0.51423316013E+03  0.80110913086E+03  0.50400001928E-02 0. -1.
</event>
<event>
 5   0  0.2401211E-03  0.1296197E+04  0.7818609E-02  0.9032587E-01
        2   -1    0    0  501    0  0.00000000000E+00  0.00000000000E+00  0.14482810437E+04  0.14482810437E+04  0.25500000920E-02 0.  1.
       -2   -1    0    0    0  501  0.00000000000E+00  0.00000000000E+00 -0.29002061293E+03  0.29002061294E+03  0.25500000920E-02 0. -1.
    10030    2    1    2    0    0  0.00000000000E+00  0.00000000000E+00  0.11582604308E+04  0.17383016566E+04  0.12961965221E+04 0.  0.
        4    1    3    3  502    0  0.46920865818E+03  0.44690294164E+03  0.56266501532E+03  0.85817978100E+03  0.12699999809E+01 0.  1.
       -4    1    3    3    0  502 -0.46920865818E+03 -0.44690294164E+03  0.59559541544E+03  0.88012187562E+03  0.12699999809E+01 0. -1.
</event>
<event>
 5   0  0.2361043E-03  0.1305805E+04  0.7818609E-02  0.9024974E-01
        2   -1    0    0  501    0  0.00000000000E+00  0.00000000000E+00  0.65169840801E+03  0.65169840801E+03  0.25500000920E-02 0. -1.
       -2   -1    0    0    0  501  0.00000000000E+00  0.00000000000E+00 -0.65410895217E+03  0.65410895218E+03  0.25500000920E-02 0.  1.
    10030    2    1    2    0    0  0.00000000000E+00  0.00000000000E+00 -0.24105441688E+01  0.13058073602E+04  0.13058051352E+04 0.  0.
        2    1    3    3  502    0 -0.15928735043E+03 -0.14341384253E+03  0.61551433088E+03  0.65176520448E+03  0.25500000920E-02 0. -1.
       -2    1    3    3    0  502  0.15928735043E+03  0.14341384253E+03 -0.61792487505E+03  0.65404215571E+03  0.25500000920E-02 0.  1.
</event>
<event>
 5   0  0.1332630E-03  0.1239737E+04  0.7818609E-02  0.9078769E-01
        1   -1    0    0  501    0  0.00000000000E+00  0.00000000000E+00  0.65357437893E+03  0.65357437895E+03  0.50400001928E-02 0.  1.
       -1   -1    0    0    0  501  0.00000000000E+00  0.00000000000E+00 -0.58790073383E+03  0.58790073386E+03  0.50400001928E-02 0. -1.
    10030    2    1    2    0    0  0.00000000000E+00  0.00000000000E+00  0.65673645094E+02  0.12414751128E+04  0.12397368382E+04 0.  0.
        5    1    3    3  502    0 -0.29271234472E+03  0.69263396611E+02 -0.50989803464E+03  0.59202705224E+03  0.46999998093E+01 0. -1.
       -5    1    3    3    0  502  0.29271234472E+03 -0.69263396611E+02  0.57557167973E+03  0.64944806056E+03  0.46999998093E+01 0.  1.
</event>
<event>
 5   0  0.1387622E-03  0.1290069E+04  0.7818609E-02  0.9037477E-01
        1   -1    0    0  501    0  0.00000000000E+00  0.00000000000E+00  0.82830910401E+03  0.82830910403E+03  0.50400001928E-02 0.  1.
       -1   -1    0    0    0  501  0.00000000000E+00  0.00000000000E+00 -0.50231226778E+03  0.50231226781E+03  0.50400001928E-02 0. -1.
    10030    2    1    2    0    0  0.00000000000E+00  0.00000000000E+00  0.32599683623E+03  0.13306213718E+04  0.12900694935E+04 0.  0.
        3    1    3    3  502    0  0.61360304202E+02  0.84278904148E+02  0.81956242173E+03  0.82616620236E+03  0.10100000352E+00 0.  1.
       -3    1    3    3    0  502 -0.61360304202E+02 -0.84278904148E+02 -0.49356558550E+03  0.50445516947E+03  0.10100000352E+00 0. -1.
</event>
<event>
 5   0  0.2334946E-03  0.1307607E+04  0.7818609E-02  0.9023554E-01
       -2   -1    0    0    0  501  0.00000000000E+00  0.00000000000E+00  0.57722272863E+03  0.57722272864E+03  0.25500000920E-02 0.  1.
        2   -1    0    0  501    0  0.00000000000E+00  0.00000000000E+00 -0.74054460621E+03  0.74054460622E+03  0.25500000920E-02 0. -1.
    10030    2    1    2    0    0  0.00000000000E+00  0.00000000000E+00 -0.16332187758E+03  0.13177673349E+04  0.13076072473E+04 0.  0.
        1    1    3    3  502    0 -0.15157156998E+03 -0.62847057622E+03 -0.17993774715E+03  0.67106393054E+03  0.50400001928E-02 0. -1.
       -1    1    3    3    0  502  0.15157156998E+03  0.62847057622E+03  0.16615869573E+02  0.64670340431E+03  0.50400001928E-02 0.  1.
</event>
<event>
 5   0  0.1310461E-03  0.1222221E+04  0.7818609E-02  0.9093626E-01
       -1   -1    0    0    0  501  0.00000000000E+00  0.00000000000E+00  0.64176339344E+03  0.64176339346E+03  0.50400001928E-02 0. -1.
        1   -1    0    0  501    0  0.00000000000E+00  0.00000000000E+00 -0.58192171434E+03  0.58192171437E+03  0.50400001928E-02 0.  1.
    10030    2    1    2    0    0  0.00000000000E+00  0.00000000000E+00  0.59841679099E+02  0.12236851078E+04  0.12222210179E+04 0.  0.
        4    1    3    3  502    0 -0.16744200586E+03 -0.39153946547E+03 -0.40891284613E+03  0.59038233966E+03  0.12699999809E+01 0.  1.
       -4    1    3    3    0  502  0.16744200586E+03  0.39153946547E+03  0.46875452523E+03  0.63330276817E+03  0.12699999809E+01 0. -1.
</event>
<event>
 5   0  0.1387622E-03  0.1299867E+04  0.7818609E-02  0.9029671E-01
       -1   -1    0    0    0  501  0.00000000000E+00  0.00000000000E+00  0.76108969445E+03  0.76108969447E+03  0.50400001928E-02 0.  1.
        1   -1    0    0  501    0  0.00000000000E+00  0.00000000000E+00 -0.55501167211E+03  0.55501167213E+03  0.50400001928E-02 0. -1.
    10030    2    1    2    0    0  0.00000000000E+00  0.00000000000E+00  0.20607802234E+03  0.13161013666E+04  0.12998671686E+04 0.  0.
        3    1    3    3  502    0  0.43095398590E+03  0.26023740977E+03  0.51923092058E+03  0.72321892017E+03  0.10100000352E+00 0.  1.
       -3    1    3    3    0  502 -0.43095398590E+03 -0.26023740977E+03 -0.31315289824E+03  0.59288244643E+03  0.10100000352E+00 0. -1.
</event>
<event>
 5   0  0.1324721E-03  0.1338049E+04  0.7818609E-02  0.8999925E-01
       -1   -1    0    0    0  501  0.00000000000E+00  0.00000000000E+00  0.84265769163E+03  0.84265769164E+03  0.50400001928E-02 0.  1.
        1   -1    0    0  501    0  0.00000000000E+00  0.00000000000E+00 -0.53116892244E+03  0.53116892246E+03  0.50400001928E-02 0. -1.
    10030    2    1    2    0    0  0.00000000000E+00  0.00000000000E+00  0.31148876919E+03  0.13738266141E+04  0.13380486958E+04 0.  0.
        1    1    3    3  502    0 -0.20887049163E+03  0.63362837312E+03  0.20689392017E+03  0.69851048075E+03  0.50400001928E-02 0.  1.
       -1    1    3    3    0  502  0.20887049163E+03 -0.63362837312E+03  0.10459484902E+03  0.67531613335E+03  0.50400001928E-02 0. -1.
</event>
<event>
 5   0  0.9131250E-04  0.1301829E+04  0.7818609E-02  0.9028116E-01
        3   -1    0    0  501    0  0.00000000000E+00  0.00000000000E+00  0.25946322923E+03  0.25946324888E+03  0.10100000352E+00 0. -1.
       -3   -1    0    0    0  501  0.00000000000E+00  0.00000000000E+00 -0.16329459643E+04  0.16329459674E+04  0.10100000352E+00 0.  1.
    10030    2    1    2    0    0  0.00000000000E+00  0.00000000000E+00 -0.13734827351E+04  0.18924092163E+04  0.13018286440E+04 0.  0.
        3    1    3    3  502    0 -0.40779721843E+03  0.11425826020E+03 -0.14052878917E+04  0.14677150916E+04  0.10100000352E+00 0.  1.
       -3    1    3    3    0  502  0.40779721843E+03 -0.11425826020E+03  0.31805156607E+02  0.42469412472E+03  0.10100000352E+00 0. -1.
</event>
<event>
 5   0  0.1332630E-03  0.1109855E+04  0.7818609E-02  0.9195640E-01
       -1   -1    0    0    0  501  0.00000000000E+00  0.00000000000E+00  0.79938134450E+03  0.79938134451E+03  0.50400001928E-02 0.  1.
        1   -1    0    0  501    0  0.00000000000E+00  0.00000000000E+00 -0.38522838240E+03  0.38522838243E+03  0.50400001928E-02 0. -1.
    10030    2    1    2    0    0  0.00000000000E+00  0.00000000000E+00  0.41415296210E+03  0.11846097269E+04  0.11098547334E+04 0.  0.
        5    1    3    3  502    0 -0.26814139779E+03 -0.48500980376E+03  0.17711488680E+03  0.58182995117E+03  0.46999998093E+01 0. -1.
       -5    1    3    3    0  502  0.26814139779E+03  0.48500980376E+03  0.23703807530E+03  0.60277977578E+03  0.46999998093E+01 0.  1.
</event>
<event>
 5   0  0.1387622E-03  0.1308427E+04  0.7818609E-02  0.9022909E-01
       -1   -1    0    0    0  501  0.00000000000E+00  0.00000000000E+00  0.56486931085E+03  0.56486931088E+03  0.50400001928E-02 0. -1.
        1   -1    0    0  501    0  0.00000000000E+00  0.00000000000E+00 -0.75768901909E+03  0.75768901911E+03  0.50400001928E-02 0.  1.
    10030    2    1    2    0    0  0.00000000000E+00  0.00000000000E+00 -0.19281970824E+03  0.13225583300E+04  0.13084269549E+04 0.  0.
        3    1    3    3  502    0 -0.12260222778E+03 -0.61834827546E+03 -0.27325475143E+03  0.68706190798E+03  0.10100000352E+00 0.  1.
       -3    1    3    3    0  502  0.12260222778E+03  0.61834827546E+03  0.80435043187E+02  0.63549642201E+03  0.10100000352E+00 0. -1.
</event>
<event>
 5   0  0.2401211E-03  0.1311200E+04  0.7818609E-02  0.9020731E-01
       -2   -1    0    0    0  501  0.00000000000E+00  0.00000000000E+00  0.40668315897E+03  0.40668315898E+03  0.25500000920E-02 0. -1.
        2   -1    0    0  501    0  0.00000000000E+00  0.00000000000E+00 -0.10568699360E+04  0.10568699360E+04  0.25500000920E-02 0.  1.
    10030    2    1    2    0    0  0.00000000000E+00  0.00000000000E+00 -0.65018677700E+03  0.14635530950E+04  0.13111997623E+04 0.  0.
        4    1    3    3  502    0 -0.39522019368E+03  0.22764626802E+03  0.20057082791E+03  0.49824902884E+03  0.12699999809E+01 0. -1.
       -4    1    3    3    0  502  0.39522019368E+03 -0.22764626802E+03 -0.85075760491E+03  0.96530406611E+03  0.12699999809E+01 0.  1.
</event>
<event>
 5   0  0.2334946E-03  0.1303676E+04  0.7818609E-02  0.9026655E-01
       -2   -1    0    0    0  501  0.00000000000E+00  0.00000000000E+00  0.53571328821E+03  0.53571328821E+03  0.25500000920E-02 0. -1.
        2   -1    0    0  501    0  0.00000000000E+00  0.00000000000E+00 -0.79313505010E+03  0.79313505011E+03  0.25500000920E-02 0.  1.
    10030    2    1    2    0    0  0.00000000000E+00  0.00000000000E+00 -0.25742176190E+03  0.13288483383E+04  0.13036763182E+04 0.  0.
        1    1    3    3  502    0 -0.55490785732E+03 -0.32886938471E+03 -0.22441294752E+03  0.68296337629E+03  0.50400001928E-02 0.  1.
       -1    1    3    3    0  502  0.55490785732E+03  0.32886938471E+03 -0.33008814379E+02  0.64588496203E+03  0.50400001928E-02 0. -1.
</event>
<event>
 5   0  0.1310461E-03  0.1241791E+04  0.7818609E-02  0.9077043E-01
        1   -1    0    0  501    0  0.00000000000E+00  0.00000000000E+00  0.78296608601E+03  0.78296608603E+03  0.50400001928E-02 0. -1.
       -1   -1    0    0    0  501  0.00000000000E+00  0.00000000000E+00 -0.49237286557E+03  0.49237286559E+03  0.50400001928E-02 0.  1.
    10030    2    1    2    0    0  0.00000000000E+00  0.00000000000E+00  0.29059322045E+03  0.12753389516E+04  0.12417910540E+04 0.  0.
        4    1    3    3  502    0 -0.60120048444E+03 -0.36085349711E+02 -0.96618830014E+01  0.60236130340E+03  0.12699999809E+01 0. -1.
       -4    1    3    3    0  502  0.60120048444E+03  0.36085349711E+02  0.30025510345E+03  0.67297764822E+03  0.12699999809E+01 0.  1.
</event>
<event>
 5   0  0.2312105E-03  0.1305223E+04  0.7818609E-02  0.9025434E-01
        2   -1    0    0  501    0  0.00000000000E+00  0.00000000000E+00  0.77790176872E+03  0.77790176873E+03  0.25500000920E-02 0. -1.
       -2   -1    0    0    0  501  0.00000000000E+00  0.00000000000E+00 -0.54750048489E+03  0.54750048489E+03  0.25500000920E-02 0.  1.
    10030    2    1    2    0    0  0.00000000000E+00  0.00000000000E+00  0.23040128384E+03  0.13254022536E+04  0.13052227328E+04 0.  0.
        5    1    3    3  502    0  0.34610599859E+03 -0.24669955346E+03  0.61806332523E+03  0.75011625494E+03  0.46999998093E+01 0. -1.
       -5    1    3    3    0  502 -0.34610599859E+03  0.24669955346E+03 -0.38766204139E+03  0.57528599868E+03  0.46999998093E+01 0.  1.
</event>
<event>
 5   0  0.1310461E-03  0.1308492E+04  0.7818609E-02  0.9022858E-01
       -1   -1    0    0    0  501  0.00000000000E+00  0.00000000000E+00  0.37480235906E+03  0.37480235910E+03  0.50400001928E-02 0.  1.
        1   -1    0    0  501    0  0.00000000000E+00  0.00000000000E+00 -0.11420367673E+04  0.11420367673E+04  0.50400001928E-02 0. -1.
    10030    2    1    2    0    0  0.00000000000E+00  0.00000000000E+00 -0.76723440826E+03  0.15168391264E+04  0.13084923761E+04 0.  0.
        4    1    3    3  502    0 -0.21944080938E+03  0.37508271488E+03 -0.95056687914E+03  0.10451891295E+04  0.12699999809E+01 0. -1.
       -4    1    3    3    0  502  0.21944080938E+03 -0.37508271488E+03  0.18333247088E+03  0.47164999692E+03  0.12699999809E+01 0.  1.
</event>
<event>
 5   0  0.1324721E-03  0.1296342E+04  0.7818609E-02  0.9032471E-01
       -1   -1    0    0    0  501  0.00000000000E+00  0.00000000000E+00  0.27747550628E+03  0.27747550633E+03  0.50400001928E-02 0.  1.
        1   -1    0    0  501    0  0.00000000000E+00  0.00000000000E+00 -0.15140992410E+04  0.15140992410E+04  0.50400001928E-02 0. -1.
    10030    2    1    2    0    0  0.00000000000E+00  0.00000000000E+00 -0.12366237347E+04  0.17915747473E+04  0.12963417042E+04 0.  0.
        1    1    3    3  502    0 -0.43141523493E+03  0.83665204378E+02  0.40155972979E+02  0.44128389223E+03  0.50400001928E-02 0.  1.
       -1    1    3    3    0  502  0.43141523493E+03 -0.83665204378E+02 -0.12767797077E+04  0.13502908551E+04  0.50400001928E-02 0. -1.
</event>
<event>
 5   0  0.1324721E-03  0.1089238E+04  0.7818609E-02  0.9215745E-01
       -1   -1    0    0    0  501  0.00000000000E+00  0.00000000000E+00  0.41597539641E+03  0.41597539644E+03  0.50400001928E-02 0.  1.
        1   -1    0    0  501    0  0.00000000000E+00  0.00000000000E+00 -0.71304706960E+03  0.71304706962E+03  0.50400001928E-02 0. -1.
    10030    2    1    2    0    0  0.00000000000E+00  0.00000000000E+00 -0.29707167318E+03  0.11290224661E+04  0.10892383347E+04 0.  0.
        1    1    3    3  502    0  0.36465503854E+03 -0.35309988521E+03 -0.35312074651E+03  0.61834220923E+03  0.50400001928E-02 0. -1.
       -1    1    3    3    0  502 -0.36465503854E+03  0.35309988521E+03  0.56049073327E+02  0.51068025683E+03  0.50400001928E-02 0.  1.
</event>
<event>
 5   0  0.1387622E-03  0.1288152E+04  0.7818609E-02  0.9039014E-01
       -1   -1    0    0    0  501  0.00000000000E+00  0.00000000000E+00  0.12080880935E+04  0.12080880935E+04  0.50400001928E-02 0. -1.
        1   -1    0    0  501    0  0.00000000000E+00  0.00000000000E+00 -0.34338053075E+03  0.34338053079E+03  0.50400001928E-02 0.  1.
    10030    2    1    2    0    0  0.00000000000E+00  0.00000000000E+00  0.86470756271E+03  0.15514686243E+04  0.12881520574E+04 0.  0.
        3    1    3    3  502    0 -0.75635541463E+02  0.26582053164E+03  0.11330419954E+04  0.11662613188E+04  0.10100000352E+00 0. -1.
       -3    1    3    3    0  502  0.75635541463E+02 -0.26582053164E+03 -0.26833443272E+03  0.38520730543E+03  0.10100000352E+00 0.  1.
</event>
<event>
 5   0  0.2312105E-03  0.1311289E+04  0.7818609E-02  0.9020661E-01
       -2   -1    0    0    0  501  0.00000000000E+00  0.00000000000E+00  0.30133229893E+03  0.30133229894E+03  0.25500000920E-02 0.  1.
        2   -1    0    0  501    0  0.00000000000E+00  0.00000000000E+00 -0.14265627336E+04  0.14265627336E+04  0.25500000920E-02 0. -1.
    10030    2    1    2    0    0  0.00000000000E+00  0.00000000000E+00 -0.11252304347E+04  0.17278950326E+04  0.13112885695E+04 0.  0.
        5    1    3    3  502    0 -0.43071733302E+03 -0.18391350811E+03  0.41960988183E+02  0.47023867765E+03  0.46999998093E+01 0.  1.
       -5    1    3    3    0  502  0.43071733302E+03  0.18391350811E+03 -0.11671914229E+04  0.12576563549E+04  0.46999998093E+01 0. -1.
</event>
<event>
 5   0  0.2334946E-03  0.1344967E+04  0.7818609E-02  0.8994647E-01
       -2   -1    0    0    0  501  0.00000000000E+00  0.00000000000E+00  0.38445454508E+03  0.38445454509E+03  0.25500000920E-02 0.  1.
        2   -1    0    0  501    0  0.00000000000E+00  0.00000000000E+00 -0.11762998196E+04  0.11762998196E+04  0.25500000920E-02 0. -1.
    10030    2    1    2    0    0  0.00000000000E+00  0.00000000000E+00 -0.79184527452E+03  0.15607543647E+04  0.13449666346E+04 0.  0.
        1    1    3    3  502    0 -0.41713599342E+03 -0.52295874605E+03 -0.47586282749E+03  0.82093466103E+03  0.50400001928E-02 0.  1.
       -1    1    3    3    0  502  0.41713599342E+03  0.52295874605E+03 -0.31598244703E+03  0.73981970366E+03  0.50400001928E-02 0. -1.
</event>
<event>
 5   0  0.1310461E-03  0.1387395E+04  0.7818609E-02  0.8962993E-01
       -1   -1    0    0    0  501  0.00000000000E+00  0.00000000000E+00  0.46280895590E+03  0.46280895593E+03  0.50400001928E-02 0. -1.
        1   -1    0    0  501    0  0.00000000000E+00  0.00000000000E+00 -0.10397730965E+04  0.10397730965E+04  0.50400001928E-02 0.  1.
    10030    2    1    2    0    0  0.00000000000E+00  0.00000000000E+00 -0.57696414061E+03  0.15025820525E+04  0.13873951149E+04 0.  0.
        4    1    3    3  502    0  0.36788822404E+03 -0.83580154445E+02 -0.91895389555E+03  0.99338072392E+03  0.12699999809E+01 0.  1.
       -4    1    3    3    0  502 -0.36788822404E+03  0.83580154445E+02  0.34198975494E+03  0.50920132854E+03  0.12699999809E+01 0. -1.
</event>
<event>
 5   0  0.1387622E-03  0.1325506E+04  0.7818609E-02  0.9009580E-01
       -1   -1    0    0    0  501  0.00000000000E+00  0.00000000000E+00  0.56542399864E+03  0.56542399866E+03  0.50400001928E-02 0. -1.
        1   -1    0    0  501    0  0.00000000000E+00  0.00000000000E+00 -0.77683553929E+03  0.77683553931E+03  0.50400001928E-02 0.  1.
    10030    2    1    2    0    0  0.00000000000E+00  0.00000000000E+00 -0.21141154065E+03  0.13422595380E+04  0.13255058762E+04 0.  0.
        3    1    3    3  502    0 -0.21942374933E+03  0.17956552569E+03  0.50090742539E+03  0.57558563116E+03  0.10100000352E+00 0. -1.
       -3    1    3    3    0  502  0.21942374933E+03 -0.17956552569E+03 -0.71231896604E+03  0.76667390680E+03  0.10100000352E+00 0.  1.
</event>
<event>
 5   0  0.2312105E-03  0.1294795E+04  0.7818609E-02  0.9033703E-01
        2   -1    0    0  501    0  0.00000000000E+00  0.00000000000E+00  0.68641785944E+03  0.68641785945E+03  0.25500000920E-02 0. -1.
       -2   -1    0    0    0  501  0.00000000000E+00  0.00000000000E+00 -0.61059518167E+03  0.61059518168E+03  0.25500000920E-02 0.  1.
    10030    2    1    2    0    0  0.00000000000E+00  0.00000000000E+00  0.75822677771E+02  0.12970130411E+04  0.12947948681E+04 0.  0.
        5    1    3    3  502    0  0.38589589037E+03 -0.36886119062E+03  0.40477246233E+03  0.66995302254E+03  0.46999998093E+01 0.  1.
       -5    1    3    3    0  502 -0.38589589037E+03  0.36886119062E+03 -0.32894978456E+03  0.62706001859E+03  0.46999998093E+01 0. -1.
</event>
<event>
 5   0  0.1387622E-03  0.1315112E+04  0.7818609E-02  0.9017667E-01
        1   -1    0    0  501    0  0.00000000000E+00  0.00000000000E+00  0.12308092200E+04  0.12308092200E+04  0.50400001928E-02 0.  1.
       -1   -1    0    0    0  501  0.00000000000E+00  0.00000000000E+00 -0.35129699417E+03  0.35129699421E+03  0.50400001928E-02 0. -1.
    10030    2    1    2    0    0  0.00000000000E+00  0.00000000000E+00  0.87951222579E+03  0.15821062142E+04  0.13151115229E+04 0.  0.
        3    1    3    3  502    0  0.60604012045E+03 -0.14625928783E+03  0.18826103771E+03  0.65124391390E+03  0.10100000352E+00 0.  1.
       -3    1    3    3    0  502 -0.60604012045E+03  0.14625928783E+03  0.69125118808E+03  0.93086230028E+03  0.10100000352E+00 0. -1.
</event>
<event>
 5   0  0.1324721E-03  0.1291259E+04  0.7818609E-02  0.9036525E-01
       -1   -1    0    0    0  501  0.00000000000E+00  0.00000000000E+00  0.14520206913E+04  0.14520206913E+04  0.50400001928E-02 0. -1.
        1   -1    0    0  501    0  0.00000000000E+00  0.00000000000E+00 -0.28707422661E+03  0.28707422665E+03  0.50400001928E-02 0.  1.
    10030    2    1    2    0    0  0.00000000000E+00  0.00000000000E+00  0.11649464647E+04  0.17390949179E+04  0.12912594116E+04 0.  0.
        1    1    3    3  502    0 -0.14577575484E+03 -0.58723147500E+03  0.88587084070E+03  0.10727807429E+04  0.50400001928E-02 0. -1.
       -1    1    3    3    0  502  0.14577575484E+03  0.58723147500E+03  0.27907562397E+03  0.66631417503E+03  0.50400001928E-02 0.  1.
</event>
<event>
 5   0  0.2401211E-03  0.1295339E+04  0.7818609E-02  0.9033269E-01
       -2   -1    0    0    0  501  0.00000000000E+00  0.00000000000E+00  0.43642458457E+03  0.43642458458E+03  0.25500000920E-02 0. -1.
        2   -1    0    0  501    0  0.00000000000E+00  0.00000000000E+00 -0.96116513965E+03  0.96116513965E+03  0.25500000920E-02 0.  1.
    10030    2    1    2    0    0  0.00000000000E+00  0.00000000000E+00 -0.52474055507E+03  0.13975897242E+04  0.12953394872E+04 0.  0.
        4    1    3    3  502    0 -0.60462559300E+03  0.15226106765E+03 -0.73266923712E+02  0.62779391160E+03  0.12699999809E+01 0. -1.
       -4    1    3    3    0  502  0.60462559300E+03 -0.15226106765E+03 -0.45147363136E+03  0.76979581263E+03  0.12699999809E+01 0.  1.
</event>
<event>
 5   0  0.2361043E-03  0.1299545E+04  0.7818609E-02  0.9029926E-01
        2   -1    0    0  501    0  0.00000000000E+00  0.00000000000E+00  0.65495482144E+03  0.65495482145E+03  0.25500000920E-02 0. -1.
       -2   -1    0    0    0  501  0.00000000000E+00  0.00000000000E+00 -0.64463157306E+03  0.64463157307E+03  0.25500000920E-02 0.  1.
    10030    2    1    2    0    0  0.00000000000E+00  0.00000000000E+00  0.10323248381E+02  0.12995863945E+04  0.12995453926E+04 0.  0.
        2    1    3    3  502    0 -0.37179046565E+03  0.53272092458E+03  0.18757015457E+02  0.64990119208E+03  0.25500000920E-02 0. -1.
       -2    1    3    3    0  502  0.37179046565E+03 -0.53272092458E+03 -0.84337670758E+01  0.64968520244E+03  0.25500000920E-02 0.  1.
</event>
<event>
 5   0  0.1346593E-03  0.1284540E+04  0.7818609E-02  0.9041916E-01
        1   -1    0    0  501    0  0.00000000000E+00  0.00000000000E+00  0.71915033433E+03  0.71915033435E+03  0.50400001928E-02 0.  1.
       -1   -1    0    0    0  501  0.00000000000E+00  0.00000000000E+00 -0.57360873091E+03  0.57360873093E+03  0.50400001928E-02 0. -1.
    10030    2    1    2    0    0  0.00000000000E+00  0.00000000000E+00  0.14554160342E+03  0.12927590653E+04  0.12845402456E+04 0.  0.
        2    1    3    3  502    0  0.30027373220E+03 -0.25323151204E+03 -0.43863440945E+03  0.58880443112E+03  0.25500000920E-02 0. -1.
       -2    1    3    3    0  502 -0.30027373220E+03  0.25323151204E+03  0.58417601288E+03  0.70395463417E+03  0.25500000920E-02 0.  1.
</event>
<event>
 5   0  0.2361043E-03  0.1287017E+04  0.7818609E-02  0.9039925E-01
       -2   -1    0    0    0  501  0.00000000000E+00  0.00000000000E+00  0.29211712887E+03  0.29211712888E+03  0.25500000920E-02 0. -1.
        2   -1    0    0  501    0  0.00000000000E+00  0.00000000000E+00 -0.14175919580E+04  0.14175919580E+04  0.25500000920E-02 0.  1.
    10030    2    1    2    0    0  0.00000000000E+00  0.00000000000E+00 -0.11254748291E+04  0.17097090869E+04  0.12870165387E+04 0.  0.
        2    1    3    3  502    0  0.89266104380E+02 -0.31571819134E+03 -0.12981355017E+04  0.13389556357E+04  0.25500000920E-02 0.  1.
       -2    1    3    3    0  502 -0.89266104380E+02  0.31571819134E+03  0.17266067251E+03  0.37075345119E+03  0.25500000920E-02 0. -1.
</event>
<event>
 5   0  0.1346593E-03  0.1282352E+04  0.7818609E-02  0.9043678E-01
       -1   -1    0    0    0  501  0.00000000000E+00  0.00000000000E+00  0.32330503987E+03  0.32330503991E+03  0.50400001928E-02 0. -1.
        1   -1    0    0  501    0  0.00000000000E+00  0.00000000000E+00 -0.12715760276E+04  0.12715760276E+04  0.50400001928E-02 0.  1.
    10030    2    1    2    0    0  0.00000000000E+00  0.00000000000E+00 -0.94827098775E+03  0.15948810675E+04  0.12823524295E+04 0.  0.
        2    1    3    3  502    0 -0.35534324606E+03  0.29717646012E+03 -0.10254875477E+04  0.11252588065E+04  0.25500000920E-02 0.  1.
       -2    1    3    3    0  502  0.35534324606E+03 -0.29717646012E+03  0.77216559973E+02  0.46962226109E+03  0.25500000920E-02 0. -1.
</event>
<event>
 5   0  0.9131250E-04  0.1315416E+04  0.7818609E-02  0.9017429E-01
       -3   -1    0    0    0  501  0.00000000000E+00  0.00000000000E+00  0.76187876574E+03  0.76187877244E+03  0.10100000352E+00 0. -1.
        3   -1    0    0  501    0  0.00000000000E+00  0.00000000000E+00 -0.56778013536E+03  0.56778014435E+03  0.10100000352E+00 0.  1.
    10030    2    1    2    0    0  0.00000000000E+00  0.00000000000E+00  0.19409863038E+03  0.13296589168E+04  0.13154157353E+04 0.  0.
        2    1    3    3  502    0  0.41162835990E+03 -0.51035832222E+03  0.44757991173E+02  0.65719616669E+03  0.25500000920E-02 0. -1.
       -2    1    3    3    0  502 -0.41162835990E+03  0.51035832222E+03  0.14934063921E+03  0.67246275009E+03  0.25500000920E-02 0.  1.
</event>
<event>
 5   0  0.1324721E-03  0.1295175E+04  0.7818609E-02  0.9033400E-01
       -1   -1    0    0    0  501  0.00000000000E+00  0.00000000000E+00  0.50083583452E+03  0.50083583454E+03  0.50400001928E-02 0.  1.
        1   -1    0    0  501    0  0.00000000000E+00  0.00000000000E+00 -0.83733895612E+03  0.83733895613E+03  0.50400001928E-02 0. -1.
    10030    2    1    2    0    0  0.00000000000E+00  0.00000000000E+00 -0.33650312160E+03  0.13381747907E+04  0.12951746676E+04 0.  0.
        1    1    3    3  502    0 -0.35565163068E+03 -0.24316092457E+03  0.33128130021E+03  0.54347273854E+03  0.50400001928E-02 0. -1.
       -1    1    3    3    0  502  0.35565163068E+03  0.24316092457E+03 -0.66778442181E+03  0.79470205214E+03  0.50400001928E-02 0.  1.
</event>
<event>
 5   0  0.2361043E-03  0.1487161E+04  0.7818609E-02  0.8893036E-01
        2   -1    0    0  501    0  0.00000000000E+00  0.00000000000E+00  0.67109329807E+03  0.67109329808E+03  0.25500000920E-02 0. -1.
       -2   -1    0    0    0  501  0.00000000000E+00  0.00000000000E+00 -0.82389739945E+03  0.82389739945E+03  0.25500000920E-02 0.  1.
    10030    2    1    2    0    0  0.00000000000E+00  0.00000000000E+00 -0.15280410137E+03  0.14949906975E+04  0.14871610849E+04 0.  0.
        2    1    3    3  502    0  0.31128965331E+03 -0.61865686551E+03  0.19571564448E+03  0.71968199852E+03  0.25500000920E-02 0. -1.
       -2    1    3    3    0  502 -0.31128965331E+03  0.61865686551E+03 -0.34851974585E+03  0.77530869901E+03  0.25500000920E-02 0.  1.
</event>
<event>
 5   0  0.2401211E-03  0.1273072E+04  0.7818609E-02  0.9051196E-01
        2   -1    0    0  501    0  0.00000000000E+00  0.00000000000E+00  0.17570943869E+04  0.17570943869E+04  0.25500000920E-02 0.  1.
       -2   -1    0    0    0  501  0.00000000000E+00  0.00000000000E+00 -0.23059558082E+03  0.23059558084E+03  0.25500000920E-02 0. -1.
    10030    2    1    2    0    0  0.00000000000E+00  0.00000000000E+00  0.15264988061E+04  0.19876899678E+04  0.12730721908E+04 0.  0.
        4    1    3    3  502    0 -0.82224840039E+02 -0.57604958555E+03  0.36036932853E+03  0.68444263104E+03  0.12699999809E+01 0. -1.
       -4    1    3    3    0  502  0.82224840039E+02  0.57604958555E+03  0.11661294776E+04  0.13032473367E+04  0.12699999809E+01 0.  1.
</event>
<event>
 5   0  0.2334946E-03  0.1392397E+04  0.7818609E-02  0.8959340E-01
        2   -1    0    0  501    0  0.00000000000E+00  0.00000000000E+00  0.11845028275E+04  0.11845028275E+04  0.25500000920E-02 0. -1.
       -2   -1    0    0    0  501  0.00000000000E+00  0.00000000000E+00 -0.40919479846E+03  0.40919479847E+03  0.25500000920E-02 0.  1.
    10030    2    1    2    0    0  0.00000000000E+00  0.00000000000E+00  0.77530802908E+03  0.15936976260E+04  0.13923970638E+04 0.  0.
        1    1    3    3  502    0  0.87592115890E+01  0.41046206488E+03 -0.25589286997E+03  0.48377369856E+03  0.50400001928E-02 0.  1.
       -1    1    3    3    0  502 -0.87592115890E+01 -0.41046206488E+03  0.10312008991E+04  0.11099239275E+04  0.50400001928E-02 0. -1.
</event>
<event>
 5   0  0.2334946E-03  0.1205270E+04  0.7818609E-02  0.9108256E-01
       -2   -1    0    0    0  501  0.00000000000E+00  0.00000000000E+00  0.64468078121E+03  0.64468078122E+03  0.25500000920E-02 0.  1.
        2   -1    0    0  501    0  0.00000000000E+00  0.00000000000E+00 -0.56333145241E+03  0.56333145241E+03  0.25500000920E-02 0. -1.
    10030    2    1    2    0    0  0.00000000000E+00  0.00000000000E+00  0.81349328805E+02  0.12080122336E+04  0.12052700292E+04 0.  0.
        1    1    3    3  502    0  0.38286219923E+03  0.16272309868E+03 -0.39632960072E+03  0.57457760387E+03  0.50400001928E-02 0. -1.
       -1    1    3    3    0  502 -0.38286219923E+03 -0.16272309868E+03  0.47767892952E+03  0.63343462976E+03  0.50400001928E-02 0.  1.
</event>
<event>
 5   0  0.1346593E-03  0.1302790E+04  0.7818609E-02  0.9027356E-01
        1   -1    0    0  501    0  0.00000000000E+00  0.00000000000E+00  0.27695136252E+03  0.27695136257E+03  0.50400001928E-02 0. -1.
       -1   -1    0    0    0  501  0.00000000000E+00  0.00000000000E+00 -0.15320936477E+04  0.15320936477E+04  0.50400001928E-02 0.  1.
    10030    2    1    2    0    0  0.00000000000E+00  0.00000000000E+00 -0.12551422852E+04  0.18090450103E+04  0.13027899651E+04 0.  0.
        2    1    3    3  502    0  0.62580654699E+03  0.18074882401E+03 -0.62287210317E+03  0.90126224183E+03  0.25500000920E-02 0.  1.
       -2    1    3    3    0  502 -0.62580654699E+03 -0.18074882401E+03 -0.63227018205E+03  0.90778276848E+03  0.25500000920E-02 0. -1.
</event>
<event>
 5   0  0.9131250E-04  0.1310604E+04  0.7818609E-02  0.9021198E-01
        4   -1    0    0  501    0  0.00000000000E+00  0.00000000000E+00  0.47975575883E+03  0.47975743979E+03  0.12699999809E+01 0. -1.
       -4   -1    0    0    0  501  0.00000000000E+00  0.00000000000E+00 -0.89507861884E+03  0.89507951983E+03  0.12699999809E+01 0.  1.
    10030    2    1    2    0    0  0.00000000000E+00  0.00000000000E+00 -0.41532286002E+03  0.13748369596E+04  0.13106042833E+04 0.  0.
        2    1    3    3  502    0  0.23031180005E+03  0.52600044567E+03  0.12356818600E+03  0.58735771953E+03  0.25500000920E-02 0. -1.
       -2    1    3    3    0  502 -0.23031180005E+03 -0.52600044567E+03 -0.53889104601E+03  0.78747924009E+03  0.25500000920E-02 0.  1.
</event>
<event>
 5   0  0.2334946E-03  0.1242239E+04  0.7818609E-02  0.9076667E-01
        2   -1    0    0  501    0  0.00000000000E+00  0.00000000000E+00  0.12998837345E+04  0.12998837345E+04  0.25500000920E-02 0. -1.
       -2   -1    0    0    0  501  0.00000000000E+00  0.00000000000E+00 -0.29678767734E+03  0.29678767735E+03  0.25500000920E-02 0.  1.
    10030    2    1    2    0    0  0.00000000000E+00  0.00000000000E+00  0.10030960572E+04  0.15966714118E+04  0.12422390662E+04 0.  0.
        1    1    3    3  502    0 -0.57193214304E+03 -0.18779914703E+03  0.69822501194E+03  0.92189644928E+03  0.50400001928E-02 0. -1.
       -1    1    3    3    0  502  0.57193214304E+03  0.18779914703E+03  0.30487104521E+03  0.67477496256E+03  0.50400001928E-02 0.  1.
</event>
<event>
 5   0  0.2312105E-03  0.1283125E+04  0.7818609E-02  0.9043056E-01
        2   -1    0    0  501    0  0.00000000000E+00  0.00000000000E+00  0.12719308761E+04  0.12719308761E+04  0.25500000920E-02 0.  1.
       -2   -1    0    0    0  501  0.00000000000E+00  0.00000000000E+00 -0.32360418619E+03  0.32360418620E+03  0.25500000920E-02 0. -1.
    10030    2    1    2    0    0  0.00000000000E+00  0.00000000000E+00  0.94832668994E+03  0.15955350623E+04  0.12831245552E+04 0.  0.
        5    1    3    3  502    0 -0.27159740322E+03 -0.22826393835E+03  0.11388250083E+04  0.11928176996E+04  0.46999998093E+01 0.  1.
       -5    1    3    3    0  502  0.27159740322E+03  0.22826393835E+03 -0.19049831831E+03  0.40271736276E+03  0.46999998093E+01 0. -1.
</event>
<event>
 5   0  0.2401211E-03  0.1217238E+04  0.7818609E-02  0.9097901E-01
        2   -1    0    0  501    0  0.00000000000E+00  0.00000000000E+00  0.11513150994E+04  0.11513150994E+04  0.25500000920E-02 0. -1.
       -2   -1    0    0    0  501  0.00000000000E+00  0.00000000000E+00 -0.32173378972E+03  0.32173378973E+03  0.25500000920E-02 0.  1.
    10030    2    1    2    0    0  0.00000000000E+00  0.00000000000E+00  0.82958130967E+03  0.14730488891E+04  0.12172378077E+04 0.  0.
        4    1    3    3  502    0 -0.50898130932E+03  0.32588482640E+03  0.50165653125E+03  0.78544495769E+03  0.12699999809E+01 0.  1.
       -4    1    3    3    0  502  0.50898130932E+03 -0.32588482640E+03  0.32792477842E+03  0.68760393143E+03  0.12699999809E+01 0. -1.
</event>
<event>
 5   0  0.1324721E-03  0.1294165E+04  0.7818609E-02  0.9034205E-01
       -1   -1    0    0    0  501  0.00000000000E+00  0.00000000000E+00  0.56944878280E+03  0.56944878283E+03  0.50400001928E-02 0.  1.
        1   -1    0    0  501    0  0.00000000000E+00  0.00000000000E+00 -0.73530041369E+03  0.73530041371E+03  0.50400001928E-02 0. -1.
    10030    2    1    2    0    0  0.00000000000E+00  0.00000000000E+00 -0.16585163089E+03  0.13047491965E+04  0.12941652531E+04 0.  0.
        1    1    3    3  502    0  0.21685388091E+03 -0.19916948573E+03 -0.66385156372E+03  0.72621827875E+03  0.50400001928E-02 0. -1.
       -1    1    3    3    0  502 -0.21685388091E+03  0.19916948573E+03  0.49799993283E+03  0.57853091779E+03  0.50400001928E-02 0.  1.
</event>
<event>
 5   0  0.2478236E-03  0.1292828E+04  0.7818609E-02  0.9035272E-01
       -2   -1    0    0    0  501  0.00000000000E+00  0.00000000000E+00  0.10159453945E+04  0.10159453945E+04  0.25500000920E-02 0.  1.
        2   -1    0    0  501    0  0.00000000000E+00  0.00000000000E+00 -0.41129283997E+03  0.41129283998E+03  0.25500000920E-02 0. -1.
    10030    2    1    2    0    0  0.00000000000E+00  0.00000000000E+00  0.60465255456E+03  0.14272382345E+04  0.12928280111E+04 0.  0.
        3    1    3    3  502    0 -0.35820759691E+03 -0.53171670276E+03  0.39346682815E+03  0.75223100809E+03  0.10100000352E+00 0.  1.
       -3    1    3    3    0  502  0.35820759691E+03  0.53171670276E+03  0.21118572641E+03  0.67500722642E+03  0.10100000352E+00 0. -1.
</event>
<event>
 5   0  0.2334946E-03  0.1298919E+04  0.7818609E-02  0.9030423E-01
        2   -1    0    0  501    0  0.00000000000E+00  0.00000000000E+00  0.20850146632E+04  0.20850146632E+04  0.25500000920E-02 0. -1.
       -2   -1    0    0    0  501  0.00000000000E+00  0.00000000000E+00 -0.20229951859E+03  0.20229951861E+03  0.25500000920E-02 0.  1.
    10030    2    1    2    0    0  0.00000000000E+00  0.00000000000E+00  0.18827151446E+04  0.22873141818E+04  0.12989187236E+04 0.  0.
        1    1    3    3  502    0 -0.62785542819E+03 -0.85268515871E+02  0.11924026370E+04  0.13502952296E+04  0.50400001928E-02 0. -1.
       -1    1    3    3    0  502  0.62785542819E+03  0.85268515871E+02  0.69031250762E+03  0.93701895215E+03  0.50400001928E-02 0.  1.
</event>
<event>
 5   0  0.1310461E-03  0.1296239E+04  0.7818609E-02  0.9032553E-01
        1   -1    0    0  501    0  0.00000000000E+00  0.00000000000E+00  0.15927175519E+04  0.15927175519E+04  0.50400001928E-02 0.  1.
       -1   -1    0    0    0  501  0.00000000000E+00  0.00000000000E+00 -0.26373711477E+03  0.26373711481E+03  0.50400001928E-02 0. -1.
    10030    2    1    2    0    0  0.00000000000E+00  0.00000000000E+00  0.13289804372E+04  0.18564546668E+04  0.12962387617E+04 0.  0.
        4    1    3    3  502    0 -0.72974939472E+02 -0.29329450103E+03 -0.15662835730E+03  0.34041307457E+03  0.12699999809E+01 0. -1.
       -4    1    3    3    0  502  0.72974939472E+02  0.29329450103E+03  0.14856087945E+04  0.15160415922E+04  0.12699999809E+01 0.  1.
</event>
<event>
 5   0  0.2478236E-03  0.1315667E+04  0.7818609E-02  0.9017233E-01
        2   -1    0    0  501    0  0.00000000000E+00  0.00000000000E+00  0.85232048037E+03  0.85232048038E+03  0.25500000920E-02 0. -1.
       -2   -1    0    0    0  501  0.00000000000E+00  0.00000000000E+00 -0.50772521970E+03  0.50772521971E+03  0.25500000920E-02 0.  1.
    10030    2    1    2    0    0  0.00000000000E+00  0.00000000000E+00  0.34459526067E+03  0.13600457001E+04  0.13156665279E+04 0.  0.
        3    1    3    3  502    0  0.37184889945E+03  0.49734225807E+03  0.39669988507E+03  0.73687972879E+03  0.10100000352E+00 0. -1.
       -3    1    3    3    0  502 -0.37184889945E+03 -0.49734225807E+03 -0.52104624401E+02  0.62316597129E+03  0.10100000352E+00 0.  1.
</event>
<event>
 5   0  0.2334946E-03  0.1301488E+04  0.7818609E-02  0.9028386E-01
        2   -1    0    0  501    0  0.00000000000E+00  0.00000000000E+00  0.57842113672E+03  0.57842113673E+03  0.25500000920E-02 0. -1.
       -2   -1    0    0    0  501  0.00000000000E+00  0.00000000000E+00 -0.73211015437E+03  0.73211015437E+03  0.25500000920E-02 0.  1.
    10030    2    1    2    0    0  0.00000000000E+00  0.00000000000E+00 -0.15368901764E+03  0.13105312911E+04  0.13014883598E+04 0.  0.
        1    1    3    3  502    0  0.60605601996E+03 -0.18550963072E+03 -0.22534893073E+03  0.67268110054E+03  0.50400001928E-02 0.  1.
       -1    1    3    3    0  502 -0.60605601996E+03  0.18550963072E+03  0.71659913083E+02  0.63785019055E+03  0.50400001928E-02 0. -1.
</event>
<event>
 5   0  0.1346593E-03  0.1282477E+04  0.7818609E-02  0.9043578E-01
       -1   -1    0    0    0  501  0.00000000000E+00  0.00000000000E+00  0.31885197812E+03  0.31885197816E+03  0.50400001928E-02 0.  1.
        1   -1    0    0  501    0  0.00000000000E+00  0.00000000000E+00 -0.12895849003E+04  0.12895849003E+04  0.50400001928E-02 0. -1.
    10030    2    1    2    0    0  0.00000000000E+00  0.00000000000E+00 -0.97073292214E+03  0.16084368784E+04  0.12824768168E+04 0.  0.
        2    1    3    3  502    0  0.38626969390E+03  0.44439722689E+03 -0.80386874824E+03  0.99644274101E+03  0.25500000920E-02 0. -1.
       -2    1    3    3    0  502 -0.38626969390E+03 -0.44439722689E+03 -0.16686417390E+03  0.61199413742E+03  0.25500000920E-02 0.  1.
</event>
<event>
 5   0  0.2312105E-03  0.1305475E+04  0.7818609E-02  0.9025235E-01
       -2   -1    0    0    0  501  0.00000000000E+00  0.00000000000E+00  0.28170578643E+03  0.28170578644E+03  0.25500000920E-02 0.  1.
        2   -1    0    0  501    0  0.00000000000E+00  0.00000000000E+00 -0.15124510956E+04  0.15124510956E+04  0.25500000920E-02 0. -1.
    10030    2    1    2    0    0  0.00000000000E+00  0.00000000000E+00 -0.12307453092E+04  0.17941568821E+04  0.13054749716E+04 0.  0.
        5    1    3    3  502    0  0.53368681908E+03  0.22932913173E+03 -0.20622141962E+03  0.61641125511E+03  0.46999998093E+01 0.  1.
       -5    1    3    3    0  502 -0.53368681908E+03 -0.22932913173E+03 -0.10245238896E+04  0.11777456270E+04  0.46999998093E+01 0. -1.
</event>
<event>
 5   0  0.1324721E-03  0.1249552E+04  0.7818609E-02  0.9070556E-01
       -1   -1    0    0    0  501  0.00000000000E+00  0.00000000000E+00  0.81133819411E+03  0.81133819413E+03  0.50400001928E-02 0. -1.
        1   -1    0    0  501    0  0.00000000000E+00  0.00000000000E+00 -0.48111285968E+03  0.48111285970E+03  0.50400001928E-02 0.  1.
    10030    2    1    2    0    0  0.00000000000E+00  0.00000000000E+00  0.33022533443E+03  0.12924510538E+04  0.12495523018E+04 0.  0.
        1    1    3    3  502    0 -0.20800640490E+03 -0.54792856874E+03  0.38899906519E+03  0.70342921012E+03  0.50400001928E-02 0.  1.
       -1    1    3    3    0  502  0.20800640490E+03  0.54792856874E+03 -0.58773730751E+02  0.58902184371E+03  0.50400001928E-02 0. -1.
</event>
<event>
 5   0  0.2334946E-03  0.1305718E+04  0.7818609E-02  0.9025043E-01
        2   -1    0    0  501    0  0.00000000000E+00  0.00000000000E+00  0.40373381972E+03  0.40373381973E+03  0.25500000920E-02 0. -1.
       -2   -1    0    0    0  501  0.00000000000E+00  0.00000000000E+00 -0.10557080777E+04  0.10557080777E+04  0.25500000920E-02 0.  1.
    10030    2    1    2    0    0  0.00000000000E+00  0.00000000000E+00 -0.65197425798E+03  0.14594418974E+04  0.13057182770E+04 0.  0.
        1    1    3    3  502    0 -0.13997297486E+03  0.19485522377E+03  0.35267361505E+03  0.42654386726E+03  0.50400001928E-02 0. -1.
       -1    1    3    3    0  502  0.13997297486E+03 -0.19485522377E+03 -0.10046478730E+04  0.10328980302E+04  0.50400001928E-02 0.  1.
</event>
<event>
 5   0  0.2361043E-03  0.1160333E+04  0.7818609E-02  0.9148303E-01
        2   -1    0    0  501    0  0.00000000000E+00  0.00000000000E+00  0.88150543477E+03  0.88150543478E+03  0.25500000920E-02 0.  1.
       -2   -1    0    0    0  501  0.00000000000E+00  0.00000000000E+00 -0.38183915428E+03  0.38183915429E+03  0.25500000920E-02 0. -1.
    10030    2    1    2    0    0  0.00000000000E+00  0.00000000000E+00  0.49966628050E+03  0.12633445891E+04  0.11603332103E+04 0.  0.
        2    1    3    3  502    0  0.16623744198E+03  0.28128350820E+01  0.85501171840E+03  0.87102688694E+03  0.25500000920E-02 0.  1.
       -2    1    3    3    0  502 -0.16623744198E+03 -0.28128350820E+01 -0.35534543790E+03  0.39231770213E+03  0.25500000920E-02 0. -1.
</event>
<event>
 5   0  0.1332630E-03  0.1242988E+04  0.7818609E-02  0.9076040E-01
       -1   -1    0    0    0  501  0.00000000000E+00  0.00000000000E+00  0.43729425715E+03  0.43729425718E+03  0.50400001928E-02 0.  1.
        1   -1    0    0  501    0  0.00000000000E+00  0.00000000000E+00 -0.88328278427E+03  0.88328278429E+03  0.50400001928E-02 0. -1.
    10030    2    1    2    0    0  0.00000000000E+00  0.00000000000E+00 -0.44598852712E+03  0.13205770415E+04  0.12429875125E+04 0.  0.
        5    1    3    3  502    0 -0.58709675090E+03  0.91208176304E+00 -0.43955370358E+03  0.73342550756E+03  0.46999998093E+01 0. -1.
       -5    1    3    3    0  502  0.58709675090E+03 -0.91208176304E+00 -0.64348235442E+01  0.58715153391E+03  0.46999998093E+01 0.  1.
</event>
<event>
 5   0  0.1387622E-03  0.1299842E+04  0.7818609E-02  0.9029691E-01
        1   -1    0    0  501    0  0.00000000000E+00  0.00000000000E+00  0.13499922957E+04  0.13499922957E+04  0.50400001928E-02 0.  1.
       -1   -1    0    0    0  501  0.00000000000E+00  0.00000000000E+00 -0.31288845098E+03  0.31288845102E+03  0.50400001928E-02 0. -1.
    10030    2    1    2    0    0  0.00000000000E+00  0.00000000000E+00  0.10371038447E+04  0.16628807467E+04  0.12998415261E+04 0.  0.
        3    1    3    3  502    0 -0.16722373165E+03 -0.22055713273E+03 -0.23372113457E+03  0.36226344581E+03  0.10100000352E+00 0. -1.
       -3    1    3    3    0  502  0.16722373165E+03  0.22055713273E+03  0.12708249793E+04  0.13006173009E+04  0.10100000352E+00 0.  1.
</event>
<event>
 5   0  0.2478236E-03  0.1243625E+04  0.7818609E-02  0.9075506E-01
        2   -1    0    0  501    0  0.00000000000E+00  0.00000000000E+00  0.28075760521E+03  0.28075760522E+03  0.25500000920E-02 0. -1.
       -2   -1    0    0    0  501  0.00000000000E+00  0.00000000000E+00 -0.13771692678E+04  0.13771692678E+04  0.25500000920E-02 0.  1.
    10030    2    1    2    0    0  0.00000000000E+00  0.00000000000E+00 -0.10964116626E+04  0.16579268730E+04  0.12436249364E+04 0.  0.
        3    1    3    3  502    0  0.13995041456E+03 -0.18337998195E+03 -0.13180138896E+04  0.13380489377E+04  0.10100000352E+00 0.  1.
       -3    1    3    3    0  502 -0.13995041456E+03  0.18337998195E+03  0.22160222698E+03  0.31987793534E+03  0.10100000352E+00 0. -1.
</event>
<event>
 5   0  0.2312105E-03  0.1308629E+04  0.7818609E-02  0.9022750E-01
       -2   -1    0    0    0  501  0.00000000000E+00  0.00000000000E+00  0.16504747144E+03  0.16504747146E+03  0.25500000920E-02 0. -1.
        2   -1    0    0  501    0  0.00000000000E+00  0.00000000000E+00 -0.25939651191E+04  0.25939651191E+04  0.25500000920E-02 0.  1.
    10030    2    1    2    0    0  0.00000000000E+00  0.00000000000E+00 -0.24289176476E+04  0.27590125905E+04  0.13086288763E+04 0.  0.
        5    1    3    3  502    0  0.38822483287E+03  0.21576473405E+03 -0.20151462380E+03  0.48775319058E+03  0.46999998093E+01 0.  1.
       -5    1    3    3    0  502 -0.38822483287E+03 -0.21576473405E+03 -0.22274030238E+04  0.22712594000E+04  0.46999998093E+01 0. -1.
</event>
<event>
 5   0  0.1332630E-03  0.1305697E+04  0.7818609E-02  0.9025060E-01
        1   -1    0    0  501    0  0.00000000000E+00  0.00000000000E+00  0.79077659699E+03  0.79077659700E+03  0.50400001928E-02 0. -1.
       -1   -1    0    0    0  501  0.00000000000E+00  0.00000000000E+00 -0.53897760697E+03  0.53897760699E+03  0.50400001928E-02 0.  1.
    10030    2    1    2    0    0  0.00000000000E+00  0.00000000000E+00  0.25179899002E+03  0.13297542040E+04  0.13056965619E+04 0.  0.
        5    1    3    3  502    0  0.20740905357E+03 -0.48689237433E+03 -0.26338155960E+03  0.59116379762E+03  0.46999998093E+01 0.  1.
       -5    1    3    3    0  502 -0.20740905357E+03  0.48689237433E+03  0.51518054962E+03  0.73859040637E+03  0.46999998093E+01 0. -1.
</event>
<event>
 5   0  0.2334946E-03  0.1286204E+04  0.7818609E-02  0.9040578E-01
       -2   -1    0    0    0  501  0.00000000000E+00  0.00000000000E+00  0.56178396398E+03  0.56178396398E+03  0.25500000920E-02 0. -1.
        2   -1    0    0  501    0  0.00000000000E+00  0.00000000000E+00 -0.73619024579E+03  0.73619024579E+03  0.25500000920E-02 0.  1.
    10030    2    1    2    0    0  0.00000000000E+00  0.00000000000E+00 -0.17440628181E+03  0.12979742098E+04  0.12862035213E+04 0.  0.
        1    1    3    3  502    0 -0.31748341623E+03 -0.50424465411E+03 -0.33132913979E+03  0.68178984275E+03  0.50400001928E-02 0.  1.
       -1    1    3    3    0  502  0.31748341623E+03  0.50424465411E+03  0.15692285798E+03  0.61618436702E+03  0.50400001928E-02 0. -1.
</event>
<event>
 5   0  0.1310461E-03  0.1310133E+04  0.7818609E-02  0.9021568E-01
       -1   -1    0    0    0  501  0.00000000000E+00  0.00000000000E+00  0.34036826242E+03  0.34036826246E+03  0.50400001928E-02 0.  1.
        1   -1    0    0  501    0  0.00000000000E+00  0.00000000000E+00 -0.12607285055E+04  0.12607285055E+04  0.50400001928E-02 0. -1.
    10030    2    1    2    0    0  0.00000000000E+00  0.00000000000E+00 -0.92036024309E+03  0.16010967680E+04  0.13101327732E+04 0.  0.
        4    1    3    3  502    0  0.28455505169E+03 -0.61749776904E+02 -0.11772921685E+04  0.12127667027E+04  0.12699999809E+01 0. -1.
       -4    1    3    3    0  502 -0.28455505169E+03  0.61749776904E+02  0.25693192539E+03  0.38833006525E+03  0.12699999809E+01 0.  1.
</event>
<event>
 5   0  0.2478236E-03  0.1278705E+04  0.7818609E-02  0.9046625E-01
       -2   -1    0    0    0  501  0.00000000000E+00  0.00000000000E+00  0.12763780176E+04  0.12763780176E+04  0.25500000920E-02 0.  1.
        2   -1    0    0  501    0  0.00000000000E+00  0.00000000000E+00 -0.32025896045E+03  0.32025896046E+03  0.25500000920E-02 0. -1.
    10030    2    1    2    0    0  0.00000000000E+00  0.00000000000E+00  0.95611905714E+03  0.15966369781E+04  0.12787048089E+04 0.  0.
        3    1    3    3  502    0 -0.50400992260E+03 -0.37080941672E+03  0.31408426834E+03  0.70012467705E+03  0.10100000352E+00 0. -1.
       -3    1    3    3    0  502  0.50400992260E+03  0.37080941672E+03  0.64203478881E+03  0.89651230100E+03  0.10100000352E+00 0.  1.
</event>
<event>
 5   0  0.2401211E-03  0.1288886E+04  0.7818609E-02  0.9038425E-01
       -2   -1    0    0    0  501  0.00000000000E+00  0.00000000000E+00  0.34227559333E+03  0.34227559334E+03  0.25500000920E-02 0.  1.
        2   -1    0    0  501    0  0.00000000000E+00  0.00000000000E+00 -0.12133701499E+04  0.12133701499E+04  0.25500000920E-02 0. -1.
    10030    2    1    2    0    0  0.00000000000E+00  0.00000000000E+00 -0.87109455655E+03  0.15556457432E+04  0.12888863224E+04 0.  0.
        4    1    3    3  502    0 -0.15999800070E+03 -0.54126295909E+03 -0.81095230465E+03  0.98803350369E+03  0.12699999809E+01 0.  1.
       -4    1    3    3    0  502  0.15999800070E+03  0.54126295909E+03 -0.60142251909E+02  0.56761223954E+03  0.12699999809E+01 0. -1.
</event>
<event>
 5   0  0.2361043E-03  0.1301869E+04  0.7818609E-02  0.9028084E-01
       -2   -1    0    0    0  501  0.00000000000E+00  0.00000000000E+00  0.42553893445E+03  0.42553893446E+03  0.25500000920E-02 0. -1.
        2   -1    0    0  501    0  0.00000000000E+00  0.00000000000E+00 -0.99571624087E+03  0.99571624087E+03  0.25500000920E-02 0.  1.
    10030    2    1    2    0    0  0.00000000000E+00  0.00000000000E+00 -0.57017730642E+03  0.14212551753E+04  0.13018694684E+04 0.  0.
        2    1    3    3  502    0 -0.34290438920E+03 -0.45823300015E+03 -0.62361372346E+03  0.84643663594E+03  0.25500000920E-02 0.  1.
       -2    1    3    3    0  502  0.34290438920E+03  0.45823300015E+03  0.53436417041E+02  0.57481853939E+03  0.25500000920E-02 0. -1.
</event>
<event>
 5   0  0.2361043E-03  0.1271829E+04  0.7818609E-02  0.9052208E-01
       -2   -1    0    0    0  501  0.00000000000E+00  0.00000000000E+00  0.39187745998E+03  0.39187745999E+03  0.25500000920E-02 0.  1.
        2   -1    0    0  501    0  0.00000000000E+00  0.00000000000E+00 -0.10319233926E+04  0.10319233926E+04  0.25500000920E-02 0. -1.
    10030    2    1    2    0    0  0.00000000000E+00  0.00000000000E+00 -0.64004593260E+03  0.14238008526E+04  0.12718294194E+04 0.  0.
        2    1    3    3  502    0 -0.15851317869E+03  0.59930565580E+03 -0.47871372901E+03  0.78323721263E+03  0.25500000920E-02 0. -1.
       -2    1    3    3    0  502  0.15851317869E+03 -0.59930565580E+03 -0.16133220358E+03  0.64056363994E+03  0.25500000920E-02 0.  1.
</event>
<event>
 5   0  0.2334946E-03  0.1336318E+04  0.7818609E-02  0.9001250E-01
        2   -1    0    0  501    0  0.00000000000E+00  0.00000000000E+00  0.23597871171E+04  0.23597871171E+04  0.25500000920E-02 0.  1.
       -2   -1    0    0    0  501  0.00000000000E+00  0.00000000000E+00 -0.18918507635E+03  0.18918507637E+03  0.25500000920E-02 0. -1.
    10030    2    1    2    0    0  0.00000000000E+00  0.00000000000E+00  0.21706020407E+04  0.25489721934E+04  0.13363180848E+04 0.  0.
        1    1    3    3  502    0  0.28072445194E+03 -0.34162096002E+03  0.12980788528E+03  0.46082663264E+03  0.50400001928E-02 0. -1.
       -1    1    3    3    0  502 -0.28072445194E+03  0.34162096002E+03  0.20407941554E+04  0.20881455608E+04  0.50400001928E-02 0.  1.
</event>
<event>
 5   0  0.1332630E-03  0.1414055E+04  0.7818609E-02  0.8943707E-01
       -1   -1    0    0    0  501  0.00000000000E+00  0.00000000000E+00  0.25538195026E+03  0.25538195031E+03  0.50400001928E-02 0. -1.
        1   -1    0    0  501    0  0.00000000000E+00  0.00000000000E+00 -0.19574134012E+04  0.19574134012E+04  0.50400001928E-02 0.  1.
    10030    2    1    2    0    0  0.00000000000E+00  0.00000000000E+00 -0.17020314510E+04  0.22127953515E+04  0.14140552350E+04 0.  0.
        5    1    3    3  502    0 -0.15077080489E+03  0.55952381339E+03 -0.21716674299E+03  0.61885557089E+03  0.46999998093E+01 0. -1.
       -5    1    3    3    0  502  0.15077080489E+03 -0.55952381339E+03 -0.14848647080E+04  0.15939397807E+04  0.46999998093E+01 0.  1.
</event>
<event>
 5   0  0.1324721E-03  0.1291911E+04  0.7818609E-02  0.9036005E-01
       -1   -1    0    0    0  501  0.00000000000E+00  0.00000000000E+00  0.73405909993E+03  0.73405909995E+03  0.50400001928E-02 0. -1.
        1   -1    0    0  501    0  0.00000000000E+00  0.00000000000E+00 -0.56842624338E+03  0.56842624340E+03  0.50400001928E-02 0.  1.
    10030    2    1    2    0    0  0.00000000000E+00  0.00000000000E+00  0.16563285655E+03  0.13024853433E+04  0.12919109205E+04 0.  0.
        1    1    3    3  502    0  0.36688577276E+03  0.12984713835E+03  0.60258743543E+03  0.71734027278E+03  0.50400001928E-02 0. -1.
       -1    1    3    3    0  502 -0.36688577276E+03 -0.12984713835E+03 -0.43695457888E+03  0.58514507057E+03  0.50400001928E-02 0.  1.
</event>
<event>
 5   0  0.2334946E-03  0.1320150E+04  0.7818609E-02  0.9013737E-01
       -2   -1    0    0    0  501  0.00000000000E+00  0.00000000000E+00  0.27896973249E+03  0.27896973250E+03  0.25500000920E-02 0. -1.
        2   -1    0    0  501    0  0.00000000000E+00  0.00000000000E+00 -0.15618148535E+04  0.15618148535E+04  0.25500000920E-02 0.  1.
    10030    2    1    2    0    0  0.00000000000E+00  0.00000000000E+00 -0.12828451210E+04  0.18407845860E+04  0.13201501004E+04 0.  0.
        1    1    3    3  502    0 -0.16626949883E+03  0.39290615111E+03 -0.13437203475E+04  0.14098245147E+04  0.50400001928E-02 0.  1.
       -1    1    3    3    0  502  0.16626949883E+03 -0.39290615111E+03  0.60875226543E+02  0.43096007130E+03  0.50400001928E-02 0. -1.
</event>
<event>
 5   0  0.1346593E-03  0.1322289E+04  0.7818609E-02  0.9012074E-01
        1   -1    0    0  501    0  0.00000000000E+00  0.00000000000E+00  0.17478230394E+04  0.17478230394E+04  0.50400001928E-02 0.  1.
       -1   -1    0    0    0  501  0.00000000000E+00  0.00000000000E+00 -0.25008934645E+03  0.25008934650E+03  0.50400001928E-02 0. -1.
    10030    2    1    2    0    0  0.00000000000E+00  0.00000000000E+00  0.14977336929E+04  0.19979123859E+04  0.13222888061E+04 0.  0.
        2    1    3    3  502    0 -0.23280996193E+03  0.30172807783E+03 -0.67426102228E+02  0.38702272620E+03  0.25500000920E-02 0. -1.
       -2    1    3    3    0  502  0.23280996193E+03 -0.30172807783E+03  0.15651597952E+04  0.16108896597E+04  0.25500000920E-02 0.  1.
</event>
<event>
 5   0  0.1387622E-03  0.1303522E+04  0.7818609E-02  0.9026777E-01
        1   -1    0    0  501    0  0.00000000000E+00  0.00000000000E+00  0.14245266362E+04  0.14245266362E+04  0.50400001928E-02 0.  1.
       -1   -1    0    0    0  501  0.00000000000E+00  0.00000000000E+00 -0.29819897239E+03  0.29819897243E+03  0.50400001928E-02 0. -1.
    10030    2    1    2    0    0  0.00000000000E+00  0.00000000000E+00  0.11263276638E+04  0.17227256086E+04  0.13035219662E+04 0.  0.
        3    1    3    3  502    0  0.20819885386E+02  0.22016119967E+03  0.13734286010E+04  0.13911184543E+04  0.10100000352E+00 0.  1.
       -3    1    3    3    0  502 -0.20819885386E+02 -0.22016119967E+03 -0.24710093721E+03  0.33160715438E+03  0.10100000352E+00 0. -1.
</event>
<event>
 5   0  0.1310461E-03  0.1291370E+04  0.7818609E-02  0.9036437E-01
       -1   -1    0    0    0  501  0.00000000000E+00  0.00000000000E+00  0.98378333529E+03  0.98378333530E+03  0.50400001928E-02 0.  1.
        1   -1    0    0  501    0  0.00000000000E+00  0.00000000000E+00 -0.42378155759E+03  0.42378155762E+03  0.50400001928E-02 0. -1.
    10030    2    1    2    0    0  0.00000000000E+00  0.00000000000E+00  0.56000177770E+03  0.14075648929E+04  0.12913701780E+04 0.  0.
        4    1    3    3  502    0 -0.10120647448E+03  0.55208347112E+03 -0.67886015156E+02  0.56537512637E+03  0.12699999809E+01 0. -1.
       -4    1    3    3    0  502  0.10120647448E+03 -0.55208347112E+03  0.62788779285E+03  0.84218976655E+03  0.12699999809E+01 0.  1.
</event>
<event>
 5   0  0.2334946E-03  0.1304263E+04  0.7818609E-02  0.9026191E-01
        2   -1    0    0  501    0  0.00000000000E+00  0.00000000000E+00  0.15576001935E+04  0.15576001935E+04  0.25500000920E-02 0.  1.
       -2   -1    0    0    0  501  0.00000000000E+00  0.00000000000E+00 -0.27303262085E+03  0.27303262087E+03  0.25500000920E-02 0. -1.
    10030    2    1    2    0    0  0.00000000000E+00  0.00000000000E+00  0.12845675727E+04  0.18306328144E+04  0.13042632604E+04 0.  0.
        1    1    3    3  502    0  0.28626238507E+03 -0.43712104294E+03  0.11899567994E+04  0.12996223082E+04  0.50400001928E-02 0.  1.
       -1    1    3    3    0  502 -0.28626238507E+03  0.43712104294E+03  0.94610773220E+02  0.53101050623E+03  0.50400001928E-02 0. -1.
</event>
<event>
 5   0  0.1346593E-03  0.1309900E+04  0.7818609E-02  0.9021751E-01
        1   -1    0    0  501    0  0.00000000000E+00  0.00000000000E+00  0.71568981308E+03  0.71568981310E+03  0.50400001928E-02 0. -1.
       -1   -1    0    0    0  501  0.00000000000E+00  0.00000000000E+00 -0.59936501652E+03  0.59936501654E+03  0.50400001928E-02 0.  1.
    10030    2    1    2    0    0  0.00000000000E+00  0.00000000000E+00  0.11632479657E+03  0.13150548296E+04  0.13098998995E+04 0.  0.
        2    1    3    3  502    0  0.49277784319E+03 -0.20005477420E+03 -0.32558199055E+03  0.62358283170E+03  0.25500000920E-02 0.  1.
       -2    1    3    3    0  502 -0.49277784319E+03  0.20005477420E+03  0.44190678711E+03  0.69147199793E+03  0.25500000920E-02 0. -1.
</event>
<event>
 5   0  0.1387622E-03  0.1302740E+04  0.7818609E-02  0.9027395E-01
       -1   -1    0    0    0  501  0.00000000000E+00  0.00000000000E+00  0.13061981999E+04  0.13061981999E+04  0.50400001928E-02 0. -1.
        1   -1    0    0  501    0  0.00000000000E+00  0.00000000000E+00 -0.32482280084E+03  0.32482280088E+03  0.50400001928E-02 0.  1.
    10030    2    1    2    0    0  0.00000000000E+00  0.00000000000E+00  0.98137539908E+03  0.16310210008E+04  0.13027401242E+04 0.  0.
        3    1    3    3  502    0  0.39599553421E+02 -0.36526756706E+03 -0.18271026212E+03  0.41033104959E+03  0.10100000352E+00 0.  1.
       -3    1    3    3    0  502 -0.39599553421E+02  0.36526756706E+03  0.11640856612E+04  0.12206899512E+04  0.10100000352E+00 0. -1.
</event>
<event>
 5   0  0.1332630E-03  0.1305590E+04  0.7818609E-02  0.9025144E-01
        1   -1    0    0  501    0  0.00000000000E+00  0.00000000000E+00  0.62462283876E+03  0.62462283878E+03  0.50400001928E-02 0.  1.
       -1   -1    0    0    0  501  0.00000000000E+00  0.00000000000E+00 -0.68223820092E+03  0.68223820094E+03  0.50400001928E-02 0. -1.
    10030    2    1    2    0    0  0.00000000000E+00  0.00000000000E+00 -0.57615362164E+02  0.13068610397E+04  0.13055903826E+04 0.  0.
        5    1    3    3  502    0 -0.49809951899E+03 -0.41106521392E+03 -0.12398824136E+03  0.65762672916E+03  0.46999998093E+01 0. -1.
       -5    1    3    3    0  502  0.49809951899E+03  0.41106521392E+03  0.66372879200E+02  0.64923431056E+03  0.46999998093E+01 0.  1.
</event>
<event>
 5   0  0.2334946E-03  0.1319041E+04  0.7818609E-02  0.9014600E-01
       -2   -1    0    0    0  501  0.00000000000E+00  0.00000000000E+00  0.27159457765E+03  0.27159457766E+03  0.25500000920E-02 0.  1.
        2   -1    0    0  501    0  0.00000000000E+00  0.00000000000E+00 -0.16015319947E+04  0.16015319947E+04  0.25500000920E-02 0. -1.
    10030    2    1    2    0    0  0.00000000000E+00  0.00000000000E+00 -0.13299374170E+04  0.18731265723E+04  0.13190411755E+04 0.  0.
        1    1    3    3  502    0 -0.34555974481E+02  0.21563971426E+03 -0.15486939749E+04  0.15640165056E+04  0.50400001928E-02 0. -1.
       -1    1    3    3    0  502  0.34555974481E+02 -0.21563971426E+03  0.21875655788E+03  0.30911006677E+03  0.50400001928E-02 0.  1.
</event>
<event>
 5   0  0.9131250E-04  0.1335453E+04  0.7818609E-02  0.9001913E-01
       -3   -1    0    0    0  501  0.00000000000E+00  0.00000000000E+00  0.16193259238E+04  0.16193259269E+04  0.10100000352E+00 0. -1.
        3   -1    0    0  501    0  0.00000000000E+00  0.00000000000E+00 -0.27533616567E+03  0.27533618420E+03  0.10100000352E+00 0.  1.
    10030    2    1    2    0    0  0.00000000000E+00  0.00000000000E+00  0.13439897581E+04  0.18946621111E+04  0.13354534981E+04 0.  0.
        1    1    3    3  502    0 -0.27290989502E+03  0.40917904246E+03  0.31277244002E+02  0.49283421716E+03  0.50400001928E-02 0.  1.
       -1    1    3    3    0  502  0.27290989502E+03 -0.40917904246E+03  0.13127125141E+04  0.14018278940E+04  0.50400001928E-02 0. -1.
</event>
<event>
 5   0  0.1332630E-03  0.1556868E+04  0.7818609E-02  0.8847493E-01
        1   -1    0    0  501    0  0.00000000000E+00  0.00000000000E+00  0.58513916707E+03  0.58513916709E+03  0.50400001928E-02 0. -1.
       -1   -1    0    0    0  501  0.00000000000E+00  0.00000000000E+00 -0.10355819273E+04  0.10355819273E+04  0.50400001928E-02 0.  1.
    10030    2    1    2    0    0  0.00000000000E+00  0.00000000000E+00 -0.45044276026E+03  0.16207210944E+04  0.15568680695E+04 0.  0.
        5    1    3    3  502    0 -0.30045098711E+02  0.40633564373E+03  0.46525103682E+03  0.61845936049E+03  0.46999998093E+01 0. -1.
       -5    1    3    3    0  502  0.30045098711E+02 -0.40633564373E+03 -0.91569379707E+03  0.10022617339E+04  0.46999998093E+01 0.  1.
</event>
<event>
 5   0  0.2361043E-03  0.1301434E+04  0.7818609E-02  0.9028429E-01
        2   -1    0    0  501    0  0.00000000000E+00  0.00000000000E+00  0.98875644387E+03  0.98875644388E+03  0.25500000920E-02 0. -1.
       -2   -1    0    0    0  501  0.00000000000E+00  0.00000000000E+00 -0.42824777166E+03  0.42824777167E+03  0.25500000920E-02 0.  1.
    10030    2    1    2    0    0  0.00000000000E+00  0.00000000000E+00  0.56050867222E+03  0.14170042155E+04  0.13014341994E+04 0.  0.
        2    1    3    3  502    0  0.27995341356E+03  0.24151598294E+03 -0.30276724550E+03  0.47788271441E+03  0.25500000920E-02 0.  1.
       -2    1    3    3    0  502 -0.27995341356E+03 -0.24151598294E+03  0.86327591772E+03  0.93912150113E+03  0.25500000920E-02 0. -1.
</event>
<event>
 5   0  0.1346593E-03  0.1293464E+04  0.7818609E-02  0.9034765E-01
        1   -1    0    0  501    0  0.00000000000E+00  0.00000000000E+00  0.17299010350E+04  0.17299010351E+04  0.50400001928E-02 0. -1.
       -1   -1    0    0    0  501  0.00000000000E+00  0.00000000000E+00 -0.24178378114E+03  0.24178378119E+03  0.50400001928E-02 0.  1.
    10030    2    1    2    0    0  0.00000000000E+00  0.00000000000E+00  0.14881172539E+04  0.19716848162E+04  0.12934635879E+04 0.  0.
        2    1    3    3  502    0  0.55040300691E+03 -0.10349492500E+03  0.12370784390E+04  0.13579461454E+04  0.25500000920E-02 0. -1.
       -2    1    3    3    0  502 -0.55040300691E+03  0.10349492500E+03  0.25103881492E+03  0.61373867087E+03  0.25500000920E-02 0.  1.
</event>
<event>
 5   0  0.2312105E-03  0.1282735E+04  0.7818609E-02  0.9043370E-01
       -2   -1    0    0    0  501  0.00000000000E+00  0.00000000000E+00  0.52916831547E+03  0.52916831548E+03  0.25500000920E-02 0.  1.
        2   -1    0    0  501    0  0.00000000000E+00  0.00000000000E+00 -0.77735625878E+03  0.77735625879E+03  0.25500000920E-02 0. -1.
    10030    2    1    2    0    0  0.00000000000E+00  0.00000000000E+00 -0.24818794331E+03  0.13065245743E+04  0.12827350498E+04 0.  0.
        5    1    3    3  502    0  0.35195940433E+03 -0.53090383425E+03 -0.20028712047E+03  0.66773596889E+03  0.46999998093E+01 0. -1.
       -5    1    3    3    0  502 -0.35195940433E+03  0.53090383425E+03 -0.47900822839E+02  0.63878860537E+03  0.46999998093E+01 0.  1.
</event>
<event>
 5   0  0.2401211E-03  0.1302541E+04  0.7818609E-02  0.9027552E-01
       -2   -1    0    0    0  501  0.00000000000E+00  0.00000000000E+00  0.56726169131E+03  0.56726169132E+03  0.25500000920E-02 0. -1.
        2   -1    0    0  501    0  0.00000000000E+00  0.00000000000E+00 -0.74772078500E+03  0.74772078501E+03  0.25500000920E-02 0.  1.
    10030    2    1    2    0    0  0.00000000000E+00  0.00000000000E+00 -0.18045909369E+03  0.13149824763E+04  0.13025411427E+04 0.  0.
        4    1    3    3  502    0  0.31881409057E+03  0.43250425228E+03  0.28132026418E+03  0.60650231370E+03  0.12699999809E+01 0. -1.
       -4    1    3    3    0  502 -0.31881409057E+03 -0.43250425228E+03 -0.46177935787E+03  0.70848016263E+03  0.12699999809E+01 0.  1.
</event>
<event>
 5   0  0.2401211E-03  0.1287210E+04  0.7818609E-02  0.9039770E-01
        2   -1    0    0  501    0  0.00000000000E+00  0.00000000000E+00  0.12986713171E+04  0.12986713171E+04  0.25500000920E-02 0.  1.
       -2   -1    0    0    0  501  0.00000000000E+00  0.00000000000E+00 -0.31896248761E+03  0.31896248762E+03  0.25500000920E-02 0. -1.
    10030    2    1    2    0    0  0.00000000000E+00  0.00000000000E+00  0.97970882946E+03  0.16176338047E+04  0.12872100588E+04 0.  0.
        4    1    3    3  502    0 -0.42829300120E+03  0.47985112201E+03  0.51889002647E+03  0.82640212164E+03  0.12699999809E+01 0.  1.
       -4    1    3    3    0  502  0.42829300120E+03 -0.47985112201E+03  0.46081880299E+03  0.79123168305E+03  0.12699999809E+01 0. -1.
</event>
<event>
 5   0  0.1332630E-03  0.1309585E+04  0.7818609E-02  0.9021999E-01
       -1   -1    0    0    0  501  0.00000000000E+00  0.00000000000E+00  0.22487752949E+03  0.22487752955E+03  0.50400001928E-02 0. -1.
        1   -1    0    0  501    0  0.00000000000E+00  0.00000000000E+00 -0.19066066401E+04  0.19066066401E+04  0.50400001928E-02 0.  1.
    10030    2    1    2    0    0  0.00000000000E+00  0.00000000000E+00 -0.16817291106E+04  0.21314841697E+04  0.13095846532E+04 0.  0.
        5    1    3    3  502    0  0.13284186118E+03 -0.46140963846E+03 -0.11628843042E+03  0.49405556732E+03  0.46999998093E+01 0. -1.
       -5    1    3    3    0  502 -0.13284186118E+03  0.46140963846E+03 -0.15654406802E+04  0.16374286023E+04  0.46999998093E+01 0.  1.
</event>
<event>
 5   0  0.1332630E-03  0.1305960E+04  0.7818609E-02  0.9024852E-01
       -1   -1    0    0    0  501  0.00000000000E+00  0.00000000000E+00  0.10752694940E+04  0.10752694940E+04  0.50400001928E-02 0.  1.
        1   -1    0    0  501    0  0.00000000000E+00  0.00000000000E+00 -0.39653612567E+03  0.39653612570E+03  0.50400001928E-02 0. -1.
    10030    2    1    2    0    0  0.00000000000E+00  0.00000000000E+00  0.67873336834E+03  0.14718056197E+04  0.13059604883E+04 0.  0.
        5    1    3    3  502    0  0.92107000405E+02  0.60536443627E+03  0.83832062276E+02  0.61806124687E+03  0.46999998093E+01 0. -1.
       -5    1    3    3    0  502 -0.92107000405E+02 -0.60536443627E+03  0.59490130606E+03  0.85374437285E+03  0.46999998093E+01 0.  1.
</event>
<event>
 5   0  0.1332630E-03  0.1293231E+04  0.7818609E-02  0.9034950E-01
       -1   -1    0    0    0  501  0.00000000000E+00  0.00000000000E+00  0.43667005176E+03  0.43667005178E+03  0.50400001928E-02 0.  1.
        1   -1    0    0  501    0  0.00000000000E+00  0.00000000000E+00 -0.95749986727E+03  0.95749986729E+03  0.50400001928E-02 0. -1.
    10030    2    1    2    0    0  0.00000000000E+00  0.00000000000E+00 -0.52082981552E+03  0.13941699191E+04  0.12932308636E+04 0.  0.
        5    1    3    3  502    0  0.17004490173E+03 -0.19622613579E+03  0.37797883362E+03  0.45859574097E+03  0.46999998093E+01 0.  1.
       -5    1    3    3    0  502 -0.17004490173E+03  0.19622613579E+03 -0.89880864914E+03  0.93557417810E+03  0.46999998093E+01 0. -1.
</event>
<event>
 5   0  0.2401211E-03  0.1286688E+04  0.7818609E-02  0.9040189E-01
        2   -1    0    0  501    0  0.00000000000E+00  0.00000000000E+00  0.89258850319E+03  0.89258850320E+03  0.25500000920E-02 0. -1.
       -2   -1    0    0    0  501  0.00000000000E+00  0.00000000000E+00 -0.46369766696E+03  0.46369766697E+03  0.25500000920E-02 0.  1.
    10030    2    1    2    0    0  0.00000000000E+00  0.00000000000E+00  0.42889083623E+03  0.13562861702E+04  0.12866875401E+04 0.  0.
        4    1    3    3  502    0  0.28843502107E+03 -0.30451759781E+03 -0.29975656213E+03  0.51553985122E+03  0.12699999809E+01 0.  1.
       -4    1    3    3    0  502 -0.28843502107E+03  0.30451759781E+03  0.72864739837E+03  0.84074631894E+03  0.12699999809E+01 0. -1.
</event>
<event>
 5   0  0.2312105E-03  0.1217353E+04  0.7818609E-02  0.9097801E-01
        2   -1    0    0  501    0  0.00000000000E+00  0.00000000000E+00  0.11494713686E+04  0.11494713686E+04  0.25500000920E-02 0. -1.
       -2   -1    0    0    0  501  0.00000000000E+00  0.00000000000E+00 -0.32231106241E+03  0.32231106242E+03  0.25500000920E-02 0.  1.
    10030    2    1    2    0    0  0.00000000000E+00  0.00000000000E+00  0.82716030620E+03  0.14717824310E+04  0.12173534212E+04 0.  0.
        5    1    3    3  502    0  0.35266245933E+03  0.25338637931E+03  0.92920173069E+03  0.10256770514E+04  0.46999998093E+01 0. -1.
       -5    1    3    3    0  502 -0.35266245933E+03 -0.25338637931E+03 -0.10204142449E+03  0.44610537965E+03  0.46999998093E+01 0.  1.
</event>
<event>
 5   0  0.1387622E-03  0.1265652E+04  0.7818609E-02  0.9057256E-01
       -1   -1    0    0    0  501  0.00000000000E+00  0.00000000000E+00  0.97929938576E+03  0.97929938577E+03  0.50400001928E-02 0. -1.
        1   -1    0    0  501    0  0.00000000000E+00  0.00000000000E+00 -0.40893367107E+03  0.40893367111E+03  0.50400001928E-02 0.  1.
    10030    2    1    2    0    0  0.00000000000E+00  0.00000000000E+00  0.57036571468E+03  0.13882330569E+04  0.12656515997E+04 0.  0.
        3    1    3    3  502    0 -0.54911475964E+03 -0.19370071735E+03  0.13345961144E+02  0.58243034952E+03  0.10100000352E+00 0.  1.
       -3    1    3    3    0  502  0.54911475964E+03  0.19370071735E+03  0.55701975354E+03  0.80580270736E+03  0.10100000352E+00 0. -1.
</event>
<event>
 5   0  0.2401211E-03  0.1150667E+04  0.7818609E-02  0.9157168E-01
        2   -1    0    0  501    0  0.00000000000E+00  0.00000000000E+00  0.35638661904E+03  0.35638661904E+03  0.25500000920E-02 0. -1.
       -2   -1    0    0    0  501  0.00000000000E+00  0.00000000000E+00 -0.92879128187E+03  0.92879128188E+03  0.25500000920E-02 0.  1.
    10030    2    1    2    0    0  0.00000000000E+00  0.00000000000E+00 -0.57240466284E+03  0.12851779009E+04  0.11506672582E+04 0.  0.
        4    1    3    3  502    0 -0.41841696373E+03 -0.10621478071E+03  0.13859029622E+03  0.45339080083E+03  0.12699999809E+01 0. -1.
       -4    1    3    3    0  502  0.41841696373E+03  0.10621478071E+03 -0.71099495905E+03  0.83178710009E+03  0.12699999809E+01 0.  1.
</event>
<event>
 5   0  0.2334946E-03  0.1231507E+04  0.7818609E-02  0.9085717E-01
        2   -1    0    0  501    0  0.00000000000E+00  0.00000000000E+00  0.10282182216E+04  0.10282182216E+04  0.25500000920E-02 0. -1.
       -2   -1    0    0    0  501  0.00000000000E+00  0.00000000000E+00 -0.36874712746E+03  0.36874712747E+03  0.25500000920E-02 0.  1.
    10030    2    1    2    0    0  0.00000000000E+00  0.00000000000E+00  0.65947109410E+03  0.13969653490E+04  0.12315072320E+04 0.  0.
        1    1    3    3  502    0 -0.25488247225E+03  0.43062621308E+03  0.73675931047E+03  0.89062803214E+03  0.50400001928E-02 0. -1.
       -1    1    3    3    0  502  0.25488247225E+03 -0.43062621308E+03 -0.77288216368E+02  0.50633731688E+03  0.50400001928E-02 0.  1.
</event>
<event>
 5   0  0.1324721E-03  0.1250232E+04  0.7818609E-02  0.9069990E-01
       -1   -1    0    0    0  501  0.00000000000E+00  0.00000000000E+00  0.15995130387E+04  0.15995130387E+04  0.50400001928E-02 0. -1.
        1   -1    0    0  501    0  0.00000000000E+00  0.00000000000E+00 -0.24430550003E+03  0.24430550008E+03  0.50400001928E-02 0.  1.
    10030    2    1    2    0    0  0.00000000000E+00  0.00000000000E+00  0.13552075387E+04  0.18438185388E+04  0.12502317110E+04 0.  0.
        1    1    3    3  502    0 -0.32474520766E+03 -0.12506651673E+03 -0.88244927215E+02  0.35901009834E+03  0.50400001928E-02 0.  1.
       -1    1    3    3    0  502  0.32474520766E+03  0.12506651673E+03  0.14434524659E+04  0.14848084404E+04  0.50400001928E-02 0. -1.
</event>
<event>
 5   0  0.2478236E-03  0.1283703E+04  0.7818609E-02  0.9042590E-01
       -2   -1    0    0    0  501  0.00000000000E+00  0.00000000000E+00  0.51256258526E+03  0.51256258526E+03  0.25500000920E-02 0. -1.
        2   -1    0    0  501    0  0.00000000000E+00  0.00000000000E+00 -0.80375212618E+03  0.80375212618E+03  0.25500000920E-02 0.  1.
    10030    2    1    2    0    0  0.00000000000E+00  0.00000000000E+00 -0.29118954092E+03  0.13163147114E+04  0.12837028748E+04 0.  0.
        3    1    3    3  502    0 -0.50329823763E+03 -0.24664190014E+03 -0.46632175255E+03  0.72910721434E+03  0.10100000352E+00 0.  1.
       -3    1    3    3    0  502  0.50329823763E+03  0.24664190014E+03  0.17513221163E+03  0.58720749710E+03  0.10100000352E+00 0. -1.
</event>
<event>
 5   0  0.1387622E-03  0.1280050E+04  0.7818609E-02  0.9045537E-01
        1   -1    0    0  501    0  0.00000000000E+00  0.00000000000E+00  0.17986741605E+04  0.17986741605E+04  0.50400001928E-02 0.  1.
       -1   -1    0    0    0  501  0.00000000000E+00  0.00000000000E+00 -0.22774108449E+03  0.22774108455E+03  0.50400001928E-02 0. -1.
    10030    2    1    2    0    0  0.00000000000E+00  0.00000000000E+00  0.15709330760E+04  0.20264152450E+04  0.12800500053E+04 0.  0.
        3    1    3    3  502    0 -0.91879840539E+02 -0.12482516496E+03  0.17685150675E+04  0.17752939985E+04  0.10100000352E+00 0.  1.
       -3    1    3    3    0  502  0.91879840539E+02  0.12482516496E+03 -0.19758199150E+03  0.25112124655E+03  0.10100000352E+00 0. -1.
</event>
<event>
 5   0  0.1332630E-03  0.1292484E+04  0.7818609E-02  0.9035547E-01
        1   -1    0    0  501    0  0.00000000000E+00  0.00000000000E+00  0.74065432058E+03  0.74065432060E+03  0.50400001928E-02 0. -1.
       -1   -1    0    0    0  501  0.00000000000E+00  0.00000000000E+00 -0.56386413317E+03  0.56386413319E+03  0.50400001928E-02 0.  1.
    10030    2    1    2    0    0  0.00000000000E+00  0.00000000000E+00  0.17679018742E+03  0.13045184538E+04  0.12924835109E+04 0.  0.
        5    1    3    3  502    0 -0.83823867299E+02  0.58548641788E+03  0.35117594462E+03  0.68787165978E+03  0.46999998093E+01 0. -1.
       -5    1    3    3    0  502  0.83823867299E+02 -0.58548641788E+03 -0.17438575720E+03  0.61664679401E+03  0.46999998093E+01 0.  1.
</event>
<event>
 5   0  0.1324721E-03  0.1268584E+04  0.7818609E-02  0.9054856E-01
        1   -1    0    0  501    0  0.00000000000E+00  0.00000000000E+00  0.43231814334E+03  0.43231814337E+03  0.50400001928E-02 0. -1.
       -1   -1    0    0    0  501  0.00000000000E+00  0.00000000000E+00 -0.93062629554E+03  0.93062629555E+03  0.50400001928E-02 0.  1.
    10030    2    1    2    0    0  0.00000000000E+00  0.00000000000E+00 -0.49830815220E+03  0.13629444389E+04  0.12685844588E+04 0.  0.
        1    1    3    3  502    0 -0.21495552447E+03  0.43655649324E+03  0.18797447057E+03  0.52165299855E+03  0.50400001928E-02 0. -1.
       -1    1    3    3    0  502  0.21495552447E+03 -0.43655649324E+03 -0.68628262277E+03  0.84129144037E+03  0.50400001928E-02 0.  1.
</event>
<event>
 5   0  0.1324721E-03  0.1299699E+04  0.7818609E-02  0.9029804E-01
       -1   -1    0    0    0  501  0.00000000000E+00  0.00000000000E+00  0.31267812268E+03  0.31267812272E+03  0.50400001928E-02 0. -1.
        1   -1    0    0  501    0  0.00000000000E+00  0.00000000000E+00 -0.13506051312E+04  0.13506051312E+04  0.50400001928E-02 0.  1.
    10030    2    1    2    0    0  0.00000000000E+00  0.00000000000E+00 -0.10379270086E+04  0.16632832540E+04  0.12996994683E+04 0.  0.
        1    1    3    3  502    0  0.52711325007E+03 -0.38504664337E+01 -0.32590762638E+02  0.52813384887E+03  0.50400001928E-02 0. -1.
       -1    1    3    3    0  502 -0.52711325007E+03  0.38504664337E+01 -0.10053362459E+04  0.11351494051E+04  0.50400001928E-02 0.  1.
</event>
<event>
 5   0  0.2478236E-03  0.1377281E+04  0.7818609E-02  0.8970430E-01
       -2   -1    0    0    0  501  0.00000000000E+00  0.00000000000E+00  0.29706681834E+03  0.29706681835E+03  0.25500000920E-02 0.  1.
        2   -1    0    0  501    0  0.00000000000E+00  0.00000000000E+00 -0.15963607141E+04  0.15963607141E+04  0.25500000920E-02 0. -1.
    10030    2    1    2    0    0  0.00000000000E+00  0.00000000000E+00 -0.12992938957E+04  0.18934275324E+04  0.13772810872E+04 0.  0.
        3    1    3    3  502    0  0.37444114395E+03  0.26318345237E+03  0.57724362390E+02  0.46130663566E+03  0.10100000352E+00 0.  1.
       -3    1    3    3    0  502 -0.37444114395E+03 -0.26318345237E+03 -0.13570182581E+04  0.14321208968E+04  0.10100000352E+00 0. -1.
</event>
<event>
 5   0  0.1324721E-03  0.1292638E+04  0.7818609E-02  0.9035424E-01
       -1   -1    0    0    0  501  0.00000000000E+00  0.00000000000E+00  0.49638965019E+03  0.49638965021E+03  0.50400001928E-02 0.  1.
        1   -1    0    0  501    0  0.00000000000E+00  0.00000000000E+00 -0.84153231160E+03  0.84153231162E+03  0.50400001928E-02 0. -1.
    10030    2    1    2    0    0  0.00000000000E+00  0.00000000000E+00 -0.34514266141E+03  0.13379219618E+04  0.12926375050E+04 0.  0.
        1    1    3    3  502    0 -0.38402793664E+03  0.61900860498E+02 -0.70681136446E+03  0.80677845633E+03  0.50400001928E-02 0. -1.
       -1    1    3    3    0  502  0.38402793664E+03 -0.61900860498E+02  0.36166870304E+03  0.53114350550E+03  0.50400001928E-02 0.  1.
</event>
<event>
 5   0  0.1346593E-03  0.1366079E+04  0.7818609E-02  0.8978745E-01
       -1   -1    0    0    0  501  0.00000000000E+00  0.00000000000E+00  0.67534700482E+03  0.67534700483E+03  0.50400001928E-02 0. -1.
        1   -1    0    0  501    0  0.00000000000E+00  0.00000000000E+00 -0.69081989417E+03  0.69081989419E+03  0.50400001928E-02 0.  1.
    10030    2    1    2    0    0  0.00000000000E+00  0.00000000000E+00 -0.15472889358E+02  0.13661668990E+04  0.13660792750E+04 0.  0.
        2    1    3    3  502    0  0.38912142865E+03  0.56129093297E+03 -0.16689602062E+02  0.68318485090E+03  0.25500000920E-02 0. -1.
       -2    1    3    3    0  502 -0.38912142865E+03 -0.56129093297E+03  0.12167127034E+01  0.68298204813E+03  0.25500000920E-02 0.  1.
</event>
<event>
 5   0  0.1332630E-03  0.1307367E+04  0.7818609E-02  0.9023743E-01
        1   -1    0    0  501    0  0.00000000000E+00  0.00000000000E+00  0.14627923271E+04  0.14627923271E+04  0.50400001928E-02 0. -1.
       -1   -1    0    0    0  501  0.00000000000E+00  0.00000000000E+00 -0.29211408831E+03  0.29211408835E+03  0.50400001928E-02 0.  1.
    10030    2    1    2    0    0  0.00000000000E+00  0.00000000000E+00  0.11706782388E+04  0.17549064155E+04  0.13073671972E+04 0.  0.
        5    1    3    3  502    0  0.50902581470E+03 -0.31886187208E+02  0.11341434820E+04  0.12435543964E+04  0.46999998093E+01 0. -1.
       -5    1    3    3    0  502 -0.50902581470E+03  0.31886187208E+02  0.36534756764E+02  0.51135201907E+03  0.46999998093E+01 0.  1.
</event>
<event>
 5   0  0.2401211E-03  0.1291922E+04  0.7818609E-02  0.9035995E-01
       -2   -1    0    0    0  501  0.00000000000E+00  0.00000000000E+00  0.14934123514E+03  0.14934123516E+03  0.25500000920E-02 0. -1.
        2   -1    0    0  501    0  0.00000000000E+00  0.00000000000E+00 -0.27940434895E+04  0.27940434895E+04  0.25500000920E-02 0.  1.
    10030    2    1    2    0    0  0.00000000000E+00  0.00000000000E+00 -0.26447022544E+04  0.29433847247E+04  0.12919224524E+04 0.  0.
        4    1    3    3  502    0 -0.39959613677E+03  0.47350806128E+03 -0.17385840443E+04  0.18456876899E+04  0.12699999809E+01 0. -1.
       -4    1    3    3    0  502  0.39959613677E+03 -0.47350806128E+03 -0.90611821005E+03  0.10976970348E+04  0.12699999809E+01 0.  1.
</event>
<event>
 5   0  0.2478236E-03  0.1369667E+04  0.7818609E-02  0.8976073E-01
        2   -1    0    0  501    0  0.00000000000E+00  0.00000000000E+00  0.23606519521E+04  0.23606519521E+04  0.25500000920E-02 0.  1.
       -2   -1    0    0    0  501  0.00000000000E+00  0.00000000000E+00 -0.19867262408E+03  0.19867262409E+03  0.25500000920E-02 0. -1.
    10030    2    1    2    0    0  0.00000000000E+00  0.00000000000E+00  0.21619793280E+04  0.25593245762E+04  0.13696669929E+04 0.  0.
        3    1    3    3  502    0  0.15472963870E+03 -0.14158084838E+03 -0.13718682114E+03  0.25061251329E+03  0.10100000352E+00 0. -1.
       -3    1    3    3    0  502 -0.15472963870E+03  0.14158084838E+03  0.22991661492E+04  0.23087120629E+04  0.10100000352E+00 0.  1.
</event>
<event>
 5   0  0.1310461E-03  0.1297810E+04  0.7818609E-02  0.9031303E-01
        1   -1    0    0  501    0  0.00000000000E+00  0.00000000000E+00  0.20231228172E+04  0.20231228172E+04  0.50400001928E-02 0.  1.
       -1   -1    0    0    0  501  0.00000000000E+00  0.00000000000E+00 -0.20813263471E+03  0.20813263477E+03  0.50400001928E-02 0. -1.
    10030    2    1    2    0    0  0.00000000000E+00  0.00000000000E+00  0.18149901825E+04  0.22312554520E+04  0.12978102825E+04 0.  0.
        4    1    3    3  502    0 -0.58646198104E+03 -0.13546927162E+03  0.13243429648E+04  0.14547080395E+04  0.12699999809E+01 0. -1.
       -4    1    3    3    0  502  0.58646198104E+03  0.13546927162E+03  0.49064721771E+03  0.77654741253E+03  0.12699999809E+01 0.  1.
</event>
<event>
 5   0  0.1346593E-03  0.1286642E+04  0.7818609E-02  0.9040226E-01
       -1   -1    0    0    0  501  0.00000000000E+00  0.00000000000E+00  0.46568904973E+03  0.46568904976E+03  0.50400001928E-02 0.  1.
        1   -1    0    0  501    0  0.00000000000E+00  0.00000000000E+00 -0.88870898564E+03  0.88870898565E+03  0.50400001928E-02 0. -1.
    10030    2    1    2    0    0  0.00000000000E+00  0.00000000000E+00 -0.42301993591E+03  0.13543980354E+04  0.12866422083E+04 0.  0.
        2    1    3    3  502    0  0.48939723855E+03 -0.30514055566E+03 -0.51154904963E+03  0.77091040076E+03  0.25500000920E-02 0. -1.
       -2    1    3    3    0  502 -0.48939723855E+03  0.30514055566E+03  0.88529113723E+02  0.58348763465E+03  0.25500000920E-02 0.  1.
</event>
<event>
 5   0  0.1310461E-03  0.1289434E+04  0.7818609E-02  0.9037986E-01
       -1   -1    0    0    0  501  0.00000000000E+00  0.00000000000E+00  0.32884419959E+03  0.32884419963E+03  0.50400001928E-02 0.  1.
        1   -1    0    0  501    0  0.00000000000E+00  0.00000000000E+00 -0.12640033624E+04  0.12640033624E+04  0.50400001928E-02 0. -1.
    10030    2    1    2    0    0  0.00000000000E+00  0.00000000000E+00 -0.93515916278E+03  0.15928475620E+04  0.12894342543E+04 0.  0.
        4    1    3    3  502    0  0.15651999144E+03 -0.23968343093E+03  0.24603031276E+03  0.37746414728E+03  0.12699999809E+01 0.  1.
       -4    1    3    3    0  502 -0.15651999144E+03  0.23968343093E+03 -0.11811894755E+04  0.12153834147E+04  0.12699999809E+01 0. -1.
</event>
<event>
 5   0  0.1324721E-03  0.1296077E+04  0.7818609E-02  0.9032682E-01
        1   -1    0    0  501    0  0.00000000000E+00  0.00000000000E+00  0.92452283144E+03  0.92452283146E+03  0.50400001928E-02 0. -1.
       -1   -1    0    0    0  501  0.00000000000E+00  0.00000000000E+00 -0.45423881019E+03  0.45423881022E+03  0.50400001928E-02 0.  1.
    10030    2    1    2    0    0  0.00000000000E+00  0.00000000000E+00  0.47028402125E+03  0.13787616417E+04  0.12960773912E+04 0.  0.
        1    1    3    3  502    0 -0.25646325495E+03  0.25156692219E+03 -0.33861269655E+03  0.49367790690E+03  0.50400001928E-02 0.  1.
       -1    1    3    3    0  502  0.25646325495E+03 -0.25156692219E+03  0.80889671780E+03  0.88508373478E+03  0.50400001928E-02 0. -1.
</event>
<event>
 5   0  0.9131250E-04  0.1277199E+04  0.7818609E-02  0.9047844E-01
       -3   -1    0    0    0  501  0.00000000000E+00  0.00000000000E+00  0.11969601644E+04  0.11969601687E+04  0.10100000352E+00 0.  1.
        3   -1    0    0  501    0  0.00000000000E+00  0.00000000000E+00 -0.34070440270E+03  0.34070441767E+03  0.10100000352E+00 0. -1.
    10030    2    1    2    0    0  0.00000000000E+00  0.00000000000E+00  0.85625576170E+03  0.15376645863E+04  0.12771994561E+04 0.  0.
        2    1    3    3  502    0  0.39570090353E+03  0.45867181940E+03  0.18479435664E+03  0.63333087500E+03  0.25500000920E-02 0.  1.
       -2    1    3    3    0  502 -0.39570090353E+03 -0.45867181940E+03  0.67146140506E+03  0.90433371134E+03  0.25500000920E-02 0. -1.
</event>
<event>
 5   0  0.1310461E-03  0.1293867E+04  0.7818609E-02  0.9034443E-01
       -1   -1    0    0    0  501  0.00000000000E+00  0.00000000000E+00  0.57385452352E+03  0.57385452354E+03  0.50400001928E-02 0.  1.
        1   -1    0    0  501    0  0.00000000000E+00  0.00000000000E+00 -0.72931931759E+03  0.72931931761E+03  0.50400001928E-02 0. -1.
    10030    2    1    2    0    0  0.00000000000E+00  0.00000000000E+00 -0.15546479407E+03  0.13031738411E+04  0.12938673649E+04 0.  0.
        4    1    3    3  502    0 -0.42279123290E+02  0.57906349325E+03  0.20966105708E+03  0.61730172949E+03  0.12699999809E+01 0.  1.
       -4    1    3    3    0  502  0.42279123290E+02 -0.57906349325E+03 -0.36512585115E+03  0.68587211166E+03  0.12699999809E+01 0. -1.
</event>
<event>
 5   0  0.2401211E-03  0.1322340E+04  0.7818609E-02  0.9012035E-01
       -2   -1    0    0    0  501  0.00000000000E+00  0.00000000000E+00  0.94321134990E+03  0.94321134990E+03  0.25500000920E-02 0. -1.
        2   -1    0    0  501    0  0.00000000000E+00  0.00000000000E+00 -0.46346528724E+03  0.46346528725E+03  0.25500000920E-02 0.  1.
    10030    2    1    2    0    0  0.00000000000E+00  0.00000000000E+00  0.47974606266E+03  0.14066766372E+04  0.13223399249E+04 0.  0.
        4    1    3    3  502    0  0.46275164149E+03 -0.38191289465E+03  0.53534227255E+03  0.80410789231E+03  0.12699999809E+01 0. -1.
       -4    1    3    3    0  502 -0.46275164149E+03  0.38191289465E+03 -0.55596209891E+02  0.60256874484E+03  0.12699999809E+01 0.  1.
</event>
<event>
 5   0  0.9131250E-04  0.1216130E+04  0.7818609E-02  0.9098854E-01
        3   -1    0    0  501    0  0.00000000000E+00  0.00000000000E+00  0.36741468809E+03  0.36741470197E+03  0.10100000352E+00 0.  1.
       -3   -1    0    0    0  501  0.00000000000E+00  0.00000000000E+00 -0.10063377987E+04  0.10063378038E+04  0.10100000352E+00 0. -1.
    10030    2    1    2    0    0  0.00000000000E+00  0.00000000000E+00 -0.63892311061E+03  0.13737525057E+04  0.12161304230E+04 0.  0.
        3    1    3    3  502    0  0.32668044824E+03  0.49972078489E+03 -0.44974580847E+03  0.74747058842E+03  0.10100000352E+00 0. -1.
       -3    1    3    3    0  502 -0.32668044824E+03 -0.49972078489E+03 -0.18917730214E+03  0.62628191732E+03  0.10100000352E+00 0.  1.
</event>
<event>
 5   0  0.2401211E-03  0.1317744E+04  0.7818609E-02  0.9015612E-01
        2   -1    0    0  501    0  0.00000000000E+00  0.00000000000E+00  0.82859815237E+03  0.82859815238E+03  0.25500000920E-02 0. -1.
       -2   -1    0    0    0  501  0.00000000000E+00  0.00000000000E+00 -0.52391136607E+03  0.52391136608E+03  0.25500000920E-02 0.  1.
    10030    2    1    2    0    0  0.00000000000E+00  0.00000000000E+00  0.30468678630E+03  0.13525095185E+04  0.13177435106E+04 0.  0.
        4    1    3    3  502    0  0.49779874293E+03  0.42775033555E+03  0.21162924163E+03  0.68961038771E+03  0.12699999809E+01 0. -1.
       -4    1    3    3    0  502 -0.49779874293E+03 -0.42775033555E+03  0.93057544668E+02  0.66289913075E+03  0.12699999809E+01 0.  1.
</event>
<event>
 5   0  0.1324721E-03  0.1308184E+04  0.7818609E-02  0.9023100E-01
        1   -1    0    0  501    0  0.00000000000E+00  0.00000000000E+00  0.68703347233E+03  0.68703347235E+03  0.50400001928E-02 0.  1.
       -1   -1    0    0    0  501  0.00000000000E+00  0.00000000000E+00 -0.62273010152E+03  0.62273010154E+03  0.50400001928E-02 0. -1.
    10030    2    1    2    0    0  0.00000000000E+00  0.00000000000E+00  0.64303370819E+02  0.13097635739E+04  0.13081841216E+04 0.  0.
        1    1    3    3  502    0 -0.15393352312E+03  0.13885919125E+03  0.65327076341E+03  0.68537587854E+03  0.50400001928E-02 0.  1.
       -1    1    3    3    0  502  0.15393352312E+03 -0.13885919125E+03 -0.58896739259E+03  0.62438769535E+03  0.50400001928E-02 0. -1.
</event>
<event>
 5   0  0.1310461E-03  0.1292839E+04  0.7818609E-02  0.9035263E-01
        1   -1    0    0  501    0  0.00000000000E+00  0.00000000000E+00  0.80220334991E+03  0.80220334993E+03  0.50400001928E-02 0. -1.
       -1   -1    0    0    0  501  0.00000000000E+00  0.00000000000E+00 -0.52088805988E+03  0.52088805991E+03  0.50400001928E-02 0.  1.
    10030    2    1    2    0    0  0.00000000000E+00  0.00000000000E+00  0.28131529003E+03  0.13230914098E+04  0.12928389638E+04 0.  0.
        4    1    3    3  502    0 -0.26351996801E+03 -0.47901677429E+03 -0.21231402780E+03  0.58649697603E+03  0.12699999809E+01 0.  1.
       -4    1    3    3    0  502  0.26351996801E+03  0.47901677429E+03  0.49362931783E+03  0.73659443381E+03  0.12699999809E+01 0. -1.
</event>
<event>
 5   0  0.2401211E-03  0.1290349E+04  0.7818609E-02  0.9037254E-01
        2   -1    0    0  501    0  0.00000000000E+00  0.00000000000E+00  0.14404412487E+04  0.14404412487E+04  0.25500000920E-02 0.  1.
       -2   -1    0    0    0  501  0.00000000000E+00  0.00000000000E+00 -0.28897412476E+03  0.28897412477E+03  0.25500000920E-02 0. -1.
    10030    2    1    2    0    0  0.00000000000E+00  0.00000000000E+00  0.11514671239E+04  0.17294153735E+04  0.12903491762E+04 0.  0.
        4    1    3    3  502    0 -0.41909725053E+03 -0.45681250269E+03  0.33624702277E+03  0.70525445141E+03  0.12699999809E+01 0. -1.
       -4    1    3    3    0  502  0.41909725053E+03  0.45681250269E+03  0.81522010116E+03  0.10241609220E+04  0.12699999809E+01 0.  1.
</event>
<event>
 5   0  0.2401211E-03  0.1280955E+04  0.7818609E-02  0.9044806E-01
       -2   -1    0    0    0  501  0.00000000000E+00  0.00000000000E+00  0.18906098567E+03  0.18906098568E+03  0.25500000920E-02 0. -1.
        2   -1    0    0  501    0  0.00000000000E+00  0.00000000000E+00 -0.21697296369E+04  0.21697296369E+04  0.25500000920E-02 0.  1.
    10030    2    1    2    0    0  0.00000000000E+00  0.00000000000E+00 -0.19806686512E+04  0.23587906226E+04  0.12809546812E+04 0.  0.
        4    1    3    3  502    0  0.22520580545E+03 -0.48560418065E+03 -0.16379335300E+04  0.17231822122E+04  0.12699999809E+01 0.  1.
       -4    1    3    3    0  502 -0.22520580545E+03  0.48560418065E+03 -0.34273512129E+03  0.63560841037E+03  0.12699999809E+01 0. -1.
</event>
<event>
 5   0  0.2312105E-03  0.1347248E+04  0.7818609E-02  0.8992914E-01
        2   -1    0    0  501    0  0.00000000000E+00  0.00000000000E+00  0.10295800628E+04  0.10295800628E+04  0.25500000920E-02 0. -1.
       -2   -1    0    0    0  501  0.00000000000E+00  0.00000000000E+00 -0.44073208356E+03  0.44073208356E+03  0.25500000920E-02 0.  1.
    10030    2    1    2    0    0  0.00000000000E+00  0.00000000000E+00  0.58884797926E+03  0.14703121464E+04  0.13472475144E+04 0.  0.
        5    1    3    3  502    0 -0.13884187597E+02 -0.45880044447E+03  0.83246522039E+03  0.95063718193E+03  0.46999998093E+01 0. -1.
       -5    1    3    3    0  502  0.13884187597E+02  0.45880044447E+03 -0.24361724113E+03  0.51967496446E+03  0.46999998093E+01 0.  1.
</event>
<event>
 5   0  0.2334946E-03  0.1300049E+04  0.7818609E-02  0.9029526E-01
       -2   -1    0    0    0  501  0.00000000000E+00  0.00000000000E+00  0.58588425754E+03  0.58588425755E+03  0.25500000920E-02 0. -1.
        2   -1    0    0  501    0  0.00000000000E+00  0.00000000000E+00 -0.72118645366E+03  0.72118645367E+03  0.25500000920E-02 0.  1.
    10030    2    1    2    0    0  0.00000000000E+00  0.00000000000E+00 -0.13530219612E+03  0.13070707112E+04  0.13000489067E+04 0.  0.
        1    1    3    3  502    0 -0.12171669376E+02 -0.64635728787E+03  0.58222069455E+00  0.64647214334E+03  0.50400001928E-02 0. -1.
       -1    1    3    3    0  502  0.12171669376E+02  0.64635728787E+03 -0.13588441681E+03  0.66059856787E+03  0.50400001928E-02 0.  1.
</event>
<event>
 5   0  0.1332630E-03  0.1282066E+04  0.7818609E-02  0.9043909E-01
       -1   -1    0    0    0  501  0.00000000000E+00  0.00000000000E+00  0.36047286895E+03  0.36047286898E+03  0.50400001928E-02 0. -1.
        1   -1    0    0  501    0  0.00000000000E+00  0.00000000000E+00 -0.11399562752E+04  0.11399562752E+04  0.50400001928E-02 0.  1.
    10030    2    1    2    0    0  0.00000000000E+00  0.00000000000E+00 -0.77948340623E+03  0.15004291442E+04  0.12820660030E+04 0.  0.
        5    1    3    3  502    0 -0.36738506486E+03 -0.32072986317E+03 -0.87660350316E+03  0.10031426732E+04  0.46999998093E+01 0.  1.
       -5    1    3    3    0  502  0.36738506486E+03  0.32072986317E+03  0.97120096924E+02  0.49728647099E+03  0.46999998093E+01 0. -1.
</event>
<event>
 5   0  0.2312105E-03  0.1277368E+04  0.7818609E-02  0.9047708E-01
       -2   -1    0    0    0  501  0.00000000000E+00  0.00000000000E+00  0.30395920936E+03  0.30395920937E+03  0.25500000920E-02 0.  1.
        2   -1    0    0  501    0  0.00000000000E+00  0.00000000000E+00 -0.13420130861E+04  0.13420130861E+04  0.25500000920E-02 0. -1.
    10030    2    1    2    0    0  0.00000000000E+00  0.00000000000E+00 -0.10380538767E+04  0.16459722955E+04  0.12773679761E+04 0.  0.
        5    1    3    3  502    0 -0.42619360506E+03  0.46889847205E+02 -0.11289629862E+04  0.12076502644E+04  0.46999998093E+01 0. -1.
       -5    1    3    3    0  502  0.42619360506E+03 -0.46889847205E+02  0.90909109496E+02  0.43832203110E+03  0.46999998093E+01 0.  1.
</event>
<event>
 5   0  0.9131250E-04  0.1285384E+04  0.7818609E-02  0.9041237E-01
        4   -1    0    0  501    0  0.00000000000E+00  0.00000000000E+00  0.63385063005E+03  0.63385190235E+03  0.12699999809E+01 0. -1.
       -4   -1    0    0    0  501  0.00000000000E+00  0.00000000000E+00 -0.65165383383E+03  0.65165507137E+03  0.12699999809E+01 0.  1.
    10030    2    1    2    0    0  0.00000000000E+00  0.00000000000E+00 -0.17803203780E+02  0.12855069737E+04  0.12853836880E+04 0.  0.
        5    1    3    3  502    0  0.60811556527E+03  0.84028277629E+02 -0.19909193296E+03  0.64538746497E+03  0.46999998093E+01 0.  1.
       -5    1    3    3    0  502 -0.60811556527E+03 -0.84028277629E+02  0.18128872918E+03  0.64011950876E+03  0.46999998093E+01 0. -1.
</event>
<event>
 5   0  0.2312105E-03  0.1300178E+04  0.7818609E-02  0.9029424E-01
        2   -1    0    0  501    0  0.00000000000E+00  0.00000000000E+00  0.46761770673E+03  0.46761770673E+03  0.25500000920E-02 0.  1.
       -2   -1    0    0    0  501  0.00000000000E+00  0.00000000000E+00 -0.90376275705E+03  0.90376275705E+03  0.25500000920E-02 0. -1.
    10030    2    1    2    0    0  0.00000000000E+00  0.00000000000E+00 -0.43614505032E+03  0.13713804638E+04  0.13001776308E+04 0.  0.
        5    1    3    3  502    0 -0.64693766838E+03 -0.38207507293E+02 -0.16423597006E+03  0.66856839907E+03  0.46999998093E+01 0. -1.
       -5    1    3    3    0  502  0.64693766838E+03  0.38207507293E+02 -0.27190908027E+03  0.70281206472E+03  0.46999998093E+01 0.  1.
</event>
<event>
 5   0  0.1387622E-03  0.1301451E+04  0.7818609E-02  0.9028415E-01
        1   -1    0    0  501    0  0.00000000000E+00  0.00000000000E+00  0.50470112976E+03  0.50470112978E+03  0.50400001928E-02 0. -1.
       -1   -1    0    0    0  501  0.00000000000E+00  0.00000000000E+00 -0.83899862578E+03  0.83899862579E+03  0.50400001928E-02 0.  1.
    10030    2    1    2    0    0  0.00000000000E+00  0.00000000000E+00 -0.33429749602E+03  0.13436997556E+04  0.13014508125E+04 0.  0.
        3    1    3    3  502    0  0.46184294900E+03  0.10103478294E+03  0.29450954176E+03  0.55699444997E+03  0.10100000352E+00 0. -1.
       -3    1    3    3    0  502 -0.46184294900E+03 -0.10103478294E+03 -0.62880703778E+03  0.78670530561E+03  0.10100000352E+00 0.  1.
</event>
<event>
 5   0  0.1310461E-03  0.1312967E+04  0.7818609E-02  0.9019345E-01
       -1   -1    0    0    0  501  0.00000000000E+00  0.00000000000E+00  0.68813436056E+03  0.68813436058E+03  0.50400001928E-02 0. -1.
        1   -1    0    0  501    0  0.00000000000E+00  0.00000000000E+00 -0.62628814667E+03  0.62628814669E+03  0.50400001928E-02 0.  1.
    10030    2    1    2    0    0  0.00000000000E+00  0.00000000000E+00  0.61846213896E+02  0.13144225073E+04  0.13129667069E+04 0.  0.
        4    1    3    3  502    0  0.16184183666E+03  0.23757033510E+03 -0.55993155036E+03  0.62941035756E+03  0.12699999809E+01 0.  1.
       -4    1    3    3    0  502 -0.16184183666E+03 -0.23757033510E+03  0.62177776426E+03  0.68501214970E+03  0.12699999809E+01 0. -1.
</event>
<event>
 5   0  0.1387622E-03  0.1289408E+04  0.7818609E-02  0.9038007E-01
        1   -1    0    0  501    0  0.00000000000E+00  0.00000000000E+00  0.42045534035E+03  0.42045534038E+03  0.50400001928E-02 0.  1.
       -1   -1    0    0    0  501  0.00000000000E+00  0.00000000000E+00 -0.98855568965E+03  0.98855568967E+03  0.50400001928E-02 0. -1.
    10030    2    1    2    0    0  0.00000000000E+00  0.00000000000E+00 -0.56810034930E+03  0.14090110301E+04  0.12894084209E+04 0.  0.
        3    1    3    3  502    0 -0.24442440121E+03  0.59472138654E+03 -0.33538296540E+03  0.72520242636E+03  0.10100000352E+00 0.  1.
       -3    1    3    3    0  502  0.24442440121E+03 -0.59472138654E+03 -0.23271738389E+03  0.68380860369E+03  0.10100000352E+00 0. -1.
</event>
<event>
 5   0  0.1387622E-03  0.1273438E+04  0.7818609E-02  0.9050898E-01
        1   -1    0    0  501    0  0.00000000000E+00  0.00000000000E+00  0.18906082588E+04  0.18906082588E+04  0.50400001928E-02 0.  1.
       -1   -1    0    0    0  501  0.00000000000E+00  0.00000000000E+00 -0.21443423384E+03  0.21443423390E+03  0.50400001928E-02 0. -1.
    10030    2    1    2    0    0  0.00000000000E+00  0.00000000000E+00  0.16761740250E+04  0.21050424927E+04  0.12734380763E+04 0.  0.
        3    1    3    3  502    0  0.27717833242E+03 -0.31275032229E+03  0.43990642697E+02  0.42020920849E+03  0.10100000352E+00 0. -1.
       -3    1    3    3    0  502 -0.27717833242E+03  0.31275032229E+03  0.16321833823E+04  0.16848332842E+04  0.10100000352E+00 0.  1.
</event>
<event>
 5   0  0.2361043E-03  0.1285744E+04  0.7818609E-02  0.9040948E-01
       -2   -1    0    0    0  501  0.00000000000E+00  0.00000000000E+00  0.50661831158E+03  0.50661831159E+03  0.25500000920E-02 0.  1.
        2   -1    0    0  501    0  0.00000000000E+00  0.00000000000E+00 -0.81577014750E+03  0.81577014750E+03  0.25500000920E-02 0. -1.
    10030    2    1    2    0    0  0.00000000000E+00  0.00000000000E+00 -0.30915183592E+03  0.13223884591E+04  0.12857435122E+04 0.  0.
        2    1    3    3  502    0  0.46967269429E+03  0.82553328766E+02  0.28884591427E+03  0.55752977862E+03  0.25500000920E-02 0.  1.
       -2    1    3    3    0  502 -0.46967269429E+03 -0.82553328766E+02 -0.59799775019E+03  0.76485868047E+03  0.25500000920E-02 0. -1.
</event>
<event>
 5   0  0.1332630E-03  0.1351763E+04  0.7818609E-02  0.8989495E-01
        1   -1    0    0  501    0  0.00000000000E+00  0.00000000000E+00  0.72569257745E+03  0.72569257747E+03  0.50400001928E-02 0. -1.
       -1   -1    0    0    0  501  0.00000000000E+00  0.00000000000E+00 -0.62948895888E+03  0.62948895890E+03  0.50400001928E-02 0.  1.
    10030    2    1    2    0    0  0.00000000000E+00  0.00000000000E+00  0.96203618573E+02  0.13551815364E+04  0.13517625014E+04 0.  0.
        5    1    3    3  502    0 -0.59687105123E+03  0.23163297129E+03  0.26517774354E+03  0.69300087363E+03  0.46999998093E+01 0. -1.
       -5    1    3    3    0  502  0.59687105123E+03 -0.23163297129E+03 -0.16897412497E+03  0.66218066273E+03  0.46999998093E+01 0.  1.
</event>
<event>
 5   0  0.1346593E-03  0.9331920E+03  0.7818609E-02  0.9385015E-01
       -1   -1    0    0    0  501  0.00000000000E+00  0.00000000000E+00  0.17666940602E+03  0.17666940609E+03  0.50400001928E-02 0. -1.
        1   -1    0    0  501    0  0.00000000000E+00  0.00000000000E+00 -0.12323121202E+04  0.12323121202E+04  0.50400001928E-02 0.  1.
    10030    2    1    2    0    0  0.00000000000E+00  0.00000000000E+00 -0.10556427142E+04  0.14089815263E+04  0.93319204960E+03 0.  0.
        2    1    3    3  502    0  0.21259733898E+03  0.98021231724E+02 -0.11372219729E+04  0.11610683038E+04  0.25500000920E-02 0.  1.
       -2    1    3    3    0  502 -0.21259733898E+03 -0.98021231724E+02  0.81579258758E+02  0.24791322247E+03  0.25500000920E-02 0. -1.
</event>
<event>
 5   0  0.1387622E-03  0.1311999E+04  0.7818609E-02  0.9020104E-01
        1   -1    0    0  501    0  0.00000000000E+00  0.00000000000E+00  0.11839789089E+04  0.11839789089E+04  0.50400001928E-02 0.  1.
       -1   -1    0    0    0  501  0.00000000000E+00  0.00000000000E+00 -0.36346511938E+03  0.36346511942E+03  0.50400001928E-02 0. -1.
    10030    2    1    2    0    0  0.00000000000E+00  0.00000000000E+00  0.82051378953E+03  0.15474440283E+04  0.13119985297E+04 0.  0.
        3    1    3    3  502    0  0.44406610300E+03  0.25623689983E+03 -0.72431582291E+02  0.51778219068E+03  0.10100000352E+00 0. -1.
       -3    1    3    3    0  502 -0.44406610300E+03 -0.25623689983E+03  0.89294537182E+03  0.10296618377E+04  0.10100000352E+00 0.  1.
</event>
<event>
 5   0  0.2334946E-03  0.1335086E+04  0.7818609E-02  0.9002195E-01
        2   -1    0    0  501    0  0.00000000000E+00  0.00000000000E+00  0.16723428794E+04  0.16723428794E+04  0.25500000920E-02 0.  1.
       -2   -1    0    0    0  501  0.00000000000E+00  0.00000000000E+00 -0.26646058028E+03  0.26646058029E+03  0.25500000920E-02 0. -1.
    10030    2    1    2    0    0  0.00000000000E+00  0.00000000000E+00  0.14058822991E+04  0.19388034597E+04  0.13350856963E+04 0.  0.
        1    1    3    3  502    0  0.22309097249E+02  0.66697947821E+03  0.72609141298E+03  0.98618865345E+03  0.50400001928E-02 0.  1.
       -1    1    3    3    0  502 -0.22309097249E+02 -0.66697947821E+03  0.67979088615E+03  0.95261480625E+03  0.50400001928E-02 0. -1.
</event>
<event>
 5   0  0.2361043E-03  0.1302750E+04  0.7818609E-02  0.9027387E-01
        2   -1    0    0  501    0  0.00000000000E+00  0.00000000000E+00  0.49481079096E+03  0.49481079096E+03  0.25500000920E-02 0.  1.
       -2   -1    0    0    0  501  0.00000000000E+00  0.00000000000E+00 -0.85747823632E+03  0.85747823632E+03  0.25500000920E-02 0. -1.
    10030    2    1    2    0    0  0.00000000000E+00  0.00000000000E+00 -0.36266744536E+03  0.13522890273E+04  0.13027501439E+04 0.  0.
        2    1    3    3  502    0  0.43119633577E+03 -0.33483159282E+02  0.32425874684E+03  0.54055077176E+03  0.25500000920E-02 0.  1.
       -2    1    3    3    0  502 -0.43119633577E+03  0.33483159282E+02 -0.68692619220E+03  0.81173825552E+03  0.25500000920E-02 0. -1.
</event>
<event>
 5   0  0.1387622E-03  0.1285829E+04  0.7818609E-02  0.9040879E-01
       -1   -1    0    0    0  501  0.00000000000E+00  0.00000000000E+00  0.21698596875E+03  0.21698596881E+03  0.50400001928E-02 0. -1.
        1   -1    0    0  501    0  0.00000000000E+00  0.00000000000E+00 -0.19049104349E+04  0.19049104349E+04  0.50400001928E-02 0.  1.
    10030    2    1    2    0    0  0.00000000000E+00  0.00000000000E+00 -0.16879244662E+04  0.21218964037E+04  0.12858286607E+04 0.  0.
        3    1    3    3  502    0 -0.19715123884E+03  0.46432542620E+03 -0.18620609192E+03  0.53771686905E+03  0.10100000352E+00 0. -1.
       -3    1    3    3    0  502  0.19715123884E+03 -0.46432542620E+03 -0.15017183743E+04  0.15841795347E+04  0.10100000352E+00 0.  1.
</event>
<event>
 5   0  0.2334946E-03  0.1297614E+04  0.7818609E-02  0.9031459E-01
       -2   -1    0    0    0  501  0.00000000000E+00  0.00000000000E+00  0.36721814378E+03  0.36721814379E+03  0.25500000920E-02 0.  1.
        2   -1    0    0  501    0  0.00000000000E+00  0.00000000000E+00 -0.11463229671E+04  0.11463229671E+04  0.25500000920E-02 0. -1.
    10030    2    1    2    0    0  0.00000000000E+00  0.00000000000E+00 -0.77910482336E+03  0.15135411109E+04  0.12976141062E+04 0.  0.
        1    1    3    3  502    0  0.97759462387E+02  0.58690356848E+03 -0.87776449244E+02  0.60142947737E+03  0.50400001928E-02 0.  1.
       -1    1    3    3    0  502 -0.97759462387E+02 -0.58690356848E+03 -0.69132837411E+03  0.91211163355E+03  0.50400001928E-02 0. -1.
</event>
<event>
 5   0  0.1324721E-03  0.1273926E+04  0.7818609E-02  0.9050501E-01
       -1   -1    0    0    0  501  0.00000000000E+00  0.00000000000E+00  0.12916068606E+04  0.12916068607E+04  0.50400001928E-02 0. -1.
        1   -1    0    0  501    0  0.00000000000E+00  0.00000000000E+00 -0.31412182296E+03  0.31412182300E+03  0.50400001928E-02 0.  1.
    10030    2    1    2    0    0  0.00000000000E+00  0.00000000000E+00  0.97748503769E+03  0.16057286837E+04  0.12739260601E+04 0.  0.
        1    1    3    3  502    0  0.60511693889E+02  0.54071508132E+03  0.71290670215E+02  0.54874112653E+03  0.50400001928E-02 0.  1.
       -1    1    3    3    0  502 -0.60511693889E+02 -0.54071508132E+03  0.90619436747E+03  0.10569875571E+04  0.50400001928E-02 0. -1.
</event>
<event>
 5   0  0.1387622E-03  0.1225051E+04  0.7818609E-02  0.9091208E-01
       -1   -1    0    0    0  501  0.00000000000E+00  0.00000000000E+00  0.23400493287E+03  0.23400493292E+03  0.50400001928E-02 0. -1.
        1   -1    0    0  501    0  0.00000000000E+00  0.00000000000E+00 -0.16033311704E+04  0.16033311705E+04  0.50400001928E-02 0.  1.
    10030    2    1    2    0    0  0.00000000000E+00  0.00000000000E+00 -0.13693262376E+04  0.18373361034E+04  0.12250508609E+04 0.  0.
        3    1    3    3  502    0 -0.15264027718E+03  0.12374932326E+03  0.18544867908E+03  0.27019284224E+03  0.10100000352E+00 0. -1.
       -3    1    3    3    0  502  0.15264027718E+03 -0.12374932326E+03 -0.15547749167E+04  0.15671432611E+04  0.10100000352E+00 0.  1.
</event>
<event>
 5   0  0.2401211E-03  0.1347893E+04  0.7818609E-02  0.8992425E-01
        2   -1    0    0  501    0  0.00000000000E+00  0.00000000000E+00  0.17164374359E+04  0.17164374359E+04  0.25500000920E-02 0. -1.
       -2   -1    0    0    0  501  0.00000000000E+00  0.00000000000E+00 -0.26462010286E+03  0.26462010287E+03  0.25500000920E-02 0.  1.
    10030    2    1    2    0    0  0.00000000000E+00  0.00000000000E+00  0.14518173331E+04  0.19810575388E+04  0.13478929496E+04 0.  0.
        4    1    3    3  502    0 -0.21510099009E+02 -0.66258893176E+03  0.90419934009E+03  0.11211890279E+04  0.12699999809E+01 0.  1.
       -4    1    3    3    0  502  0.21510099009E+02  0.66258893176E+03  0.54761799298E+03  0.85986851087E+03  0.12699999809E+01 0. -1.
</event>
<event>
 5   0  0.2312105E-03  0.1298240E+04  0.7818609E-02  0.9030962E-01
        2   -1    0    0  501    0  0.00000000000E+00  0.00000000000E+00  0.16843914137E+04  0.16843914137E+04  0.25500000920E-02 0.  1.
       -2   -1    0    0    0  501  0.00000000000E+00  0.00000000000E+00 -0.25015355710E+03  0.25015355711E+03  0.25500000920E-02 0. -1.
    10030    2    1    2    0    0  0.00000000000E+00  0.00000000000E+00  0.14342378566E+04  0.19345449708E+04  0.12982395830E+04 0.  0.
        5    1    3    3  502    0 -0.44766376172E+03 -0.24952412483E+03  0.12355102252E+03  0.52721160609E+03  0.46999998093E+01 0. -1.
       -5    1    3    3    0  502  0.44766376172E+03  0.24952412483E+03  0.13106868340E+04  0.14073333647E+04  0.46999998093E+01 0.  1.
</event>
<event>
 5   0  0.9131250E-04  0.1292215E+04  0.7818609E-02  0.9035761E-01
       -3   -1    0    0    0  501  0.00000000000E+00  0.00000000000E+00  0.79173961870E+03  0.79173962514E+03  0.10100000352E+00 0.  1.
        3   -1    0    0  501    0  0.00000000000E+00  0.00000000000E+00 -0.52726314784E+03  0.52726315752E+03  0.10100000352E+00 0. -1.
    10030    2    1    2    0    0  0.00000000000E+00  0.00000000000E+00  0.26447647086E+03  0.13190027827E+04  0.12922153602E+04 0.  0.
        4    1    3    3  502    0 -0.20191455165E+03 -0.43379717643E+03  0.57540904773E+03  0.74836265376E+03  0.12699999809E+01 0.  1.
       -4    1    3    3    0  502  0.20191455165E+03  0.43379717643E+03 -0.31093257687E+03  0.57064012889E+03  0.12699999809E+01 0. -1.
</event>
<event>
 5   0  0.2334946E-03  0.1305458E+04  0.7818609E-02  0.9025248E-01
        2   -1    0    0  501    0  0.00000000000E+00  0.00000000000E+00  0.14903225920E+04  0.14903225920E+04  0.25500000920E-02 0. -1.
       -2   -1    0    0    0  501  0.00000000000E+00  0.00000000000E+00 -0.28588110688E+03  0.28588110689E+03  0.25500000920E-02 0.  1.
    10030    2    1    2    0    0  0.00000000000E+00  0.00000000000E+00  0.12044414852E+04  0.17762036989E+04  0.13054578848E+04 0.  0.
        1    1    3    3  502    0  0.14106955423E+03 -0.40353105728E+03  0.12733655818E+04  0.13432043174E+04  0.50400001928E-02 0. -1.
       -1    1    3    3    0  502 -0.14106955423E+03  0.40353105728E+03 -0.68924096608E+02  0.43299938157E+03  0.50400001928E-02 0.  1.
</event>
<event>
 5   0  0.2312105E-03  0.1285081E+04  0.7818609E-02  0.9041481E-01
        2   -1    0    0  501    0  0.00000000000E+00  0.00000000000E+00  0.84799592093E+03  0.84799592093E+03  0.25500000920E-02 0.  1.
       -2   -1    0    0    0  501  0.00000000000E+00  0.00000000000E+00 -0.48686323120E+03  0.48686323120E+03  0.25500000920E-02 0. -1.
    10030    2    1    2    0    0  0.00000000000E+00  0.00000000000E+00  0.36113268973E+03  0.13348591521E+04  0.12850805953E+04 0.  0.
        5    1    3    3  502    0 -0.35732866139E+03 -0.17548285446E+03  0.70444140887E+03  0.80915869456E+03  0.46999998093E+01 0.  1.
       -5    1    3    3    0  502  0.35732866139E+03  0.17548285446E+03 -0.34330871914E+03  0.52570045757E+03  0.46999998093E+01 0. -1.
</event>
<event>
 5   0  0.2401211E-03  0.1291261E+04  0.7818609E-02  0.9036524E-01
       -2   -1    0    0    0  501  0.00000000000E+00  0.00000000000E+00  0.36865795375E+03  0.36865795376E+03  0.25500000920E-02 0.  1.
        2   -1    0    0  501    0  0.00000000000E+00  0.00000000000E+00 -0.11306932362E+04  0.11306932362E+04  0.25500000920E-02 0. -1.
    10030    2    1    2    0    0  0.00000000000E+00  0.00000000000E+00 -0.76203528243E+03  0.14993511899E+04  0.12912614836E+04 0.  0.
        4    1    3    3  502    0 -0.36495481846E+02  0.37471774983E+03 -0.99003301298E+03  0.10592036121E+04  0.12699999809E+01 0. -1.
       -4    1    3    3    0  502  0.36495481846E+02 -0.37471774983E+03  0.22799773055E+03  0.44014757783E+03  0.12699999809E+01 0.  1.
</event>
<event>
 5   0  0.1387622E-03  0.1313575E+04  0.7818609E-02  0.9018869E-01
       -1   -1    0    0    0  501  0.00000000000E+00  0.00000000000E+00  0.11315654227E+04  0.11315654227E+04  0.50400001928E-02 0.  1.
        1   -1    0    0  501    0  0.00000000000E+00  0.00000000000E+00 -0.38121518079E+03  0.38121518083E+03  0.50400001928E-02 0. -1.
    10030    2    1    2    0    0  0.00000000000E+00  0.00000000000E+00  0.75035024193E+03  0.15127806036E+04  0.13135751478E+04 0.  0.
        3    1    3    3  502    0  0.40727157753E+03  0.27566787145E+03  0.87651660869E+03  0.10050593459E+04  0.10100000352E+00 0.  1.
       -3    1    3    3    0  502 -0.40727157753E+03 -0.27566787145E+03 -0.12616636676E+03  0.50772125769E+03  0.10100000352E+00 0. -1.
</event>
<event>
 5   0  0.1387622E-03  0.1231556E+04  0.7818609E-02  0.9085675E-01
       -1   -1    0    0    0  501  0.00000000000E+00  0.00000000000E+00  0.82361230817E+03  0.82361230818E+03  0.50400001928E-02 0.  1.
        1   -1    0    0  501    0  0.00000000000E+00  0.00000000000E+00 -0.46038996719E+03  0.46038996722E+03  0.50400001928E-02 0. -1.
    10030    2    1    2    0    0  0.00000000000E+00  0.00000000000E+00  0.36322234098E+03  0.12840022754E+04  0.12315564844E+04 0.  0.
        3    1    3    3  502    0 -0.43211935654E+01 -0.23486707017E+03  0.77506242053E+03  0.80987837314E+03  0.10100000352E+00 0.  1.
       -3    1    3    3    0  502  0.43211935654E+01  0.23486707017E+03 -0.41184007955E+03  0.47412390226E+03  0.10100000352E+00 0. -1.
</event>
<event>
 5   0  0.2478236E-03  0.1302026E+04  0.7818609E-02  0.9027960E-01
        2   -1    0    0  501    0  0.00000000000E+00  0.00000000000E+00  0.14602993601E+04  0.14602993601E+04  0.25500000920E-02 0. -1.
       -2   -1    0    0    0  501  0.00000000000E+00  0.00000000000E+00 -0.29022677927E+03  0.29022677928E+03  0.25500000920E-02 0.  1.
    10030    2    1    2    0    0  0.00000000000E+00  0.00000000000E+00  0.11700725808E+04  0.17505261394E+04  0.13020260828E+04 0.  0.
        3    1    3    3  502    0 -0.23391146799E+03  0.15124297937E+03  0.13761348779E+04  0.14040428149E+04  0.10100000352E+00 0. -1.
       -3    1    3    3    0  502  0.23391146799E+03 -0.15124297937E+03 -0.20606229708E+03  0.34648332449E+03  0.10100000352E+00 0.  1.
</event>
<event>
 5   0  0.2401211E-03  0.1302769E+04  0.7818609E-02  0.9027372E-01
       -2   -1    0    0    0  501  0.00000000000E+00  0.00000000000E+00  0.31883654222E+03  0.31883654223E+03  0.25500000920E-02 0. -1.
        2   -1    0    0  501    0  0.00000000000E+00  0.00000000000E+00 -0.13307820163E+04  0.13307820163E+04  0.25500000920E-02 0.  1.
    10030    2    1    2    0    0  0.00000000000E+00  0.00000000000E+00 -0.10119454741E+04  0.16496185586E+04  0.13027692605E+04 0.  0.
        4    1    3    3  502    0 -0.32774948198E+03  0.11946762635E+03 -0.12025291521E+04  0.12521063098E+04  0.12699999809E+01 0.  1.
       -4    1    3    3    0  502  0.32774948198E+03 -0.11946762635E+03  0.19058367795E+03  0.39751224872E+03  0.12699999809E+01 0. -1.
</event>
<event>
 5   0  0.1346593E-03  0.1277306E+04  0.7818609E-02  0.9047758E-01
       -1   -1    0    0    0  501  0.00000000000E+00  0.00000000000E+00  0.72111778035E+03  0.72111778037E+03  0.50400001928E-02 0.  1.
        1   -1    0    0  501    0  0.00000000000E+00  0.00000000000E+00 -0.56561879011E+03  0.56561879013E+03  0.50400001928E-02 0. -1.
    10030    2    1    2    0    0  0.00000000000E+00  0.00000000000E+00  0.15549899024E+03  0.12867365705E+04  0.12773061755E+04 0.  0.
        2    1    3    3  502    0  0.41869644526E+03  0.47669193974E+03  0.41632998860E+01  0.63447557223E+03  0.25500000920E-02 0. -1.
       -2    1    3    3    0  502 -0.41869644526E+03 -0.47669193974E+03  0.15133569036E+03  0.65226099827E+03  0.25500000920E-02 0.  1.
</event>
<event>
 5   0  0.1324721E-03  0.1275080E+04  0.7818609E-02  0.9049564E-01
       -1   -1    0    0    0  501  0.00000000000E+00  0.00000000000E+00  0.34852586363E+03  0.34852586367E+03  0.50400001928E-02 0. -1.
        1   -1    0    0  501    0  0.00000000000E+00  0.00000000000E+00 -0.11662178395E+04  0.11662178395E+04  0.50400001928E-02 0.  1.
    10030    2    1    2    0    0  0.00000000000E+00  0.00000000000E+00 -0.81769197588E+03  0.15147437032E+04  0.12750797304E+04 0.  0.
        1    1    3    3  502    0 -0.84384078410E+02  0.25452555673E+03  0.27827683541E+03  0.38644783460E+03  0.50400001928E-02 0. -1.
       -1    1    3    3    0  502  0.84384078410E+02 -0.25452555673E+03 -0.10959688113E+04  0.11282958686E+04  0.50400001928E-02 0.  1.
</event>
<event>
 5   0  0.1346593E-03  0.1285635E+04  0.7818609E-02  0.9041035E-01
       -1   -1    0    0    0  501  0.00000000000E+00  0.00000000000E+00  0.33632278613E+03  0.33632278617E+03  0.50400001928E-02 0.  1.
        1   -1    0    0  501    0  0.00000000000E+00  0.00000000000E+00 -0.12286233977E+04  0.12286233977E+04  0.50400001928E-02 0. -1.
    10030    2    1    2    0    0  0.00000000000E+00  0.00000000000E+00 -0.89230061152E+03  0.15649461838E+04  0.12856345425E+04 0.  0.
        2    1    3    3  502    0 -0.90969840816E+02 -0.59142766436E+03 -0.16028469216E+03  0.61947831007E+03  0.25500000920E-02 0. -1.
       -2    1    3    3    0  502  0.90969840816E+02  0.59142766436E+03 -0.73201591936E+03  0.94546787376E+03  0.25500000920E-02 0.  1.
</event>
<event>
 5   0  0.9131250E-04  0.1305773E+04  0.7818609E-02  0.9025000E-01
        3   -1    0    0  501    0  0.00000000000E+00  0.00000000000E+00  0.11294869494E+04  0.11294869539E+04  0.10100000352E+00 0.  1.
       -3   -1    0    0    0  501  0.00000000000E+00  0.00000000000E+00 -0.37739307656E+03  0.37739309007E+03  0.10100000352E+00 0. -1.
    10030    2    1    2    0    0  0.00000000000E+00  0.00000000000E+00  0.75209387286E+03  0.15068800440E+04  0.13057726730E+04 0.  0.
        3    1    3    3  502    0 -0.49396394880E+03  0.42675291658E+03  0.38980458636E+03  0.76030655677E+03  0.10100000352E+00 0. -1.
       -3    1    3    3    0  502  0.49396394880E+03 -0.42675291658E+03  0.36228928650E+03  0.74657348723E+03  0.10100000352E+00 0.  1.
</event>
<event>
 5   0  0.2401211E-03  0.1310674E+04  0.7818609E-02  0.9021143E-01
       -2   -1    0    0    0  501  0.00000000000E+00  0.00000000000E+00  0.52056588991E+03  0.52056588992E+03  0.25500000920E-02 0.  1.
        2   -1    0    0  501    0  0.00000000000E+00  0.00000000000E+00 -0.82499930908E+03  0.82499930908E+03  0.25500000920E-02 0. -1.
    10030    2    1    2    0    0  0.00000000000E+00  0.00000000000E+00 -0.30443341916E+03  0.13455651990E+04  0.13106738717E+04 0.  0.
        4    1    3    3  502    0 -0.11096170433E+03  0.18804617073E+03 -0.78655797109E+03  0.81630197657E+03  0.12699999809E+01 0. -1.
       -4    1    3    3    0  502  0.11096170433E+03 -0.18804617073E+03  0.48212455193E+03  0.52926322244E+03  0.12699999809E+01 0.  1.
</event>
<event>
 5   0  0.2401211E-03  0.1300118E+04  0.7818609E-02  0.9029471E-01
       -2   -1    0    0    0  501  0.00000000000E+00  0.00000000000E+00  0.80503885340E+03  0.80503885341E+03  0.25500000920E-02 0.  1.
        2   -1    0    0  501    0  0.00000000000E+00  0.00000000000E+00 -0.52491506713E+03  0.52491506713E+03  0.25500000920E-02 0. -1.
    10030    2    1    2    0    0  0.00000000000E+00  0.00000000000E+00  0.28012378627E+03  0.13299539205E+04  0.13001184927E+04 0.  0.
        4    1    3    3  502    0 -0.83742857561E+02  0.64344739726E+03  0.99944690120E+02  0.65652720676E+03  0.12699999809E+01 0.  1.
       -4    1    3    3    0  502  0.83742857561E+02 -0.64344739726E+03  0.18017909616E+03  0.67342671378E+03  0.12699999809E+01 0. -1.
</event>
<event>
 5   0  0.2312105E-03  0.1276064E+04  0.7818609E-02  0.9048765E-01
       -2   -1    0    0    0  501  0.00000000000E+00  0.00000000000E+00  0.20782484093E+03  0.20782484095E+03  0.25500000920E-02 0.  1.
        2   -1    0    0  501    0  0.00000000000E+00  0.00000000000E+00 -0.19587895390E+04  0.19587895390E+04  0.25500000920E-02 0. -1.
    10030    2    1    2    0    0  0.00000000000E+00  0.00000000000E+00 -0.17509646981E+04  0.21666143800E+04  0.12760644567E+04 0.  0.
        5    1    3    3  502    0  0.19645386120E+03 -0.48556180009E+03 -0.25697869948E+03  0.58345910163E+03  0.46999998093E+01 0.  1.
       -5    1    3    3    0  502 -0.19645386120E+03  0.48556180009E+03 -0.14939859986E+04  0.15831552783E+04  0.46999998093E+01 0. -1.
</event>
<event>
 5   0  0.1387622E-03  0.1306584E+04  0.7818609E-02  0.9024360E-01
       -1   -1    0    0    0  501  0.00000000000E+00  0.00000000000E+00  0.46249654206E+03  0.46249654209E+03  0.50400001928E-02 0. -1.
        1   -1    0    0  501    0  0.00000000000E+00  0.00000000000E+00 -0.92279667962E+03  0.92279667963E+03  0.50400001928E-02 0.  1.
    10030    2    1    2    0    0  0.00000000000E+00  0.00000000000E+00 -0.46030013756E+03  0.13852932217E+04  0.13065837491E+04 0.  0.
        3    1    3    3  502    0  0.10980845614E+03  0.61073814496E+03 -0.13561599054E+02  0.62067939060E+03  0.10100000352E+00 0. -1.
       -3    1    3    3    0  502 -0.10980845614E+03 -0.61073814496E+03 -0.44673853851E+03  0.76461383112E+03  0.10100000352E+00 0.  1.
</event>
<event>
 5   0  0.1346593E-03  0.1182780E+04  0.7818609E-02  0.9128064E-01
       -1   -1    0    0    0  501  0.00000000000E+00  0.00000000000E+00  0.64077140199E+03  0.64077140201E+03  0.50400001928E-02 0.  1.
        1   -1    0    0  501    0  0.00000000000E+00  0.00000000000E+00 -0.54581417888E+03  0.54581417891E+03  0.50400001928E-02 0. -1.
    10030    2    1    2    0    0  0.00000000000E+00  0.00000000000E+00  0.94957223113E+02  0.11865855809E+04  0.11827799739E+04 0.  0.
        2    1    3    3  502    0  0.83709501821E+02 -0.29013931095E+03  0.55759672865E+03  0.63411529887E+03  0.25500000920E-02 0.  1.
       -2    1    3    3    0  502 -0.83709501821E+02  0.29013931095E+03 -0.46263950554E+03  0.55247028205E+03  0.25500000920E-02 0. -1.
</event>
<event>
 5   0  0.2334946E-03  0.1327834E+04  0.7818609E-02  0.9007779E-01
       -2   -1    0    0    0  501  0.00000000000E+00  0.00000000000E+00  0.82240443926E+03  0.82240443926E+03  0.25500000920E-02 0. -1.
        2   -1    0    0  501    0  0.00000000000E+00  0.00000000000E+00 -0.53597174374E+03  0.53597174375E+03  0.25500000920E-02 0.  1.
    10030    2    1    2    0    0  0.00000000000E+00  0.00000000000E+00  0.28643269552E+03  0.13583761830E+04  0.13278336362E+04 0.  0.
        1    1    3    3  502    0 -0.26678011671E+03  0.25243129783E+02 -0.47819025098E+03  0.54815578299E+03  0.50400001928E-02 0.  1.
       -1    1    3    3    0  502  0.26678011671E+03 -0.25243129783E+02  0.76462294649E+03  0.81022040002E+03  0.50400001928E-02 0. -1.
</event>
<event>
 5   0  0.1310461E-03  0.1313965E+04  0.7818609E-02  0.9018564E-01
        1   -1    0    0  501    0  0.00000000000E+00  0.00000000000E+00  0.11076950313E+04  0.11076950313E+04  0.50400001928E-02 0. -1.
       -1   -1    0    0    0  501  0.00000000000E+00  0.00000000000E+00 -0.38966137692E+03  0.38966137696E+03  0.50400001928E-02 0.  1.
    10030    2    1    2    0    0  0.00000000000E+00  0.00000000000E+00  0.71803365438E+03  0.14973564083E+04  0.13139649480E+04 0.  0.
        4    1    3    3  502    0 -0.50879902749E+03 -0.41091407446E+03  0.43016048822E+03  0.78279402495E+03  0.12699999809E+01 0. -1.
       -4    1    3    3    0  502  0.50879902749E+03  0.41091407446E+03  0.28787316615E+03  0.71456238332E+03  0.12699999809E+01 0.  1.
</event>
<event>
 5   0  0.2401211E-03  0.1289924E+04  0.7818609E-02  0.9037594E-01
        2   -1    0    0  501    0  0.00000000000E+00  0.00000000000E+00  0.56202816249E+03  0.56202816250E+03  0.25500000920E-02 0. -1.
       -2   -1    0    0    0  501  0.00000000000E+00  0.00000000000E+00 -0.74013379214E+03  0.74013379214E+03  0.25500000920E-02 0.  1.
    10030    2    1    2    0    0  0.00000000000E+00  0.00000000000E+00 -0.17810562965E+03  0.13021619546E+04  0.12899240833E+04 0.  0.
        4    1    3    3  502    0  0.30222916529E+03  0.37487093319E+03 -0.52219666599E+03  0.71032503530E+03  0.12699999809E+01 0.  1.
       -4    1    3    3    0  502 -0.30222916529E+03 -0.37487093319E+03  0.34409103634E+03  0.59183691934E+03  0.12699999809E+01 0. -1.
</event>
<event>
 5   0  0.9131250E-04  0.1301919E+04  0.7818609E-02  0.9028045E-01
       -3   -1    0    0    0  501  0.00000000000E+00  0.00000000000E+00  0.51210141180E+03  0.51210142176E+03  0.10100000352E+00 0. -1.
        3   -1    0    0  501    0  0.00000000000E+00  0.00000000000E+00 -0.82746961153E+03  0.82746961769E+03  0.10100000352E+00 0.  1.
    10030    2    1    2    0    0  0.00000000000E+00  0.00000000000E+00 -0.31536819973E+03  0.13395710394E+04  0.13019191482E+04 0.  0.
        4    1    3    3  502    0  0.23150669497E+03  0.29647570323E+03  0.38895595442E+03  0.54109291236E+03  0.12699999809E+01 0. -1.
       -4    1    3    3    0  502 -0.23150669497E+03 -0.29647570323E+03 -0.70432415415E+03  0.79847812709E+03  0.12699999809E+01 0.  1.
</event>
<event>
 5   0  0.2361043E-03  0.1313992E+04  0.7818609E-02  0.9018542E-01
       -2   -1    0    0    0  501  0.00000000000E+00  0.00000000000E+00  0.31468825531E+03  0.31468825532E+03  0.25500000920E-02 0. -1.
        2   -1    0    0  501    0  0.00000000000E+00  0.00000000000E+00 -0.13716559470E+04  0.13716559470E+04  0.25500000920E-02 0.  1.
    10030    2    1    2    0    0  0.00000000000E+00  0.00000000000E+00 -0.10569676917E+04  0.16863442024E+04  0.13139924153E+04 0.  0.
        2    1    3    3  502    0 -0.33816771631E+03 -0.86094292234E+02 -0.12428916739E+04  0.12909490093E+04  0.25500000920E-02 0.  1.
       -2    1    3    3    0  502  0.33816771631E+03  0.86094292234E+02  0.18592398222E+03  0.39539519304E+03  0.25500000920E-02 0. -1.
</event>
<event>
 5   0  0.1310461E-03  0.1282040E+04  0.7818609E-02  0.9043930E-01
       -1   -1    0    0    0  501  0.00000000000E+00  0.00000000000E+00  0.56781244291E+03  0.56781244293E+03  0.50400001928E-02 0. -1.
        1   -1    0    0  501    0  0.00000000000E+00  0.00000000000E+00 -0.72366670123E+03  0.72366670125E+03  0.50400001928E-02 0.  1.
    10030    2    1    2    0    0  0.00000000000E+00  0.00000000000E+00 -0.15585425832E+03  0.12914791442E+04  0.12820404947E+04 0.  0.
        4    1    3    3  502    0 -0.51585697425E+03  0.24657408362E+03 -0.36988521632E+03  0.68097274743E+03  0.12699999809E+01 0.  1.
       -4    1    3    3    0  502  0.51585697425E+03 -0.24657408362E+03  0.21403095799E+03  0.61050639675E+03  0.12699999809E+01 0. -1.
</event>
<event>
 5   0  0.2401211E-03  0.1261205E+04  0.7818609E-02  0.9060908E-01
       -2   -1    0    0    0  501  0.00000000000E+00  0.00000000000E+00  0.51669532805E+03  0.51669532805E+03  0.25500000920E-02 0.  1.
        2   -1    0    0  501    0  0.00000000000E+00  0.00000000000E+00 -0.76962114164E+03  0.76962114164E+03  0.25500000920E-02 0. -1.
    10030    2    1    2    0    0  0.00000000000E+00  0.00000000000E+00 -0.25292581359E+03  0.12863164697E+04  0.12612052145E+04 0.  0.
        4    1    3    3  502    0  0.38553249415E+03 -0.19133215148E+03 -0.59652409801E+03  0.73558541900E+03  0.12699999809E+01 0. -1.
       -4    1    3    3    0  502 -0.38553249415E+03  0.19133215148E+03  0.34359828442E+03  0.55073105069E+03  0.12699999809E+01 0.  1.
</event>
<event>
 5   0  0.1387622E-03  0.1266529E+04  0.7818609E-02  0.9056537E-01
       -1   -1    0    0    0  501  0.00000000000E+00  0.00000000000E+00  0.58383018576E+03  0.58383018579E+03  0.50400001928E-02 0. -1.
        1   -1    0    0  501    0  0.00000000000E+00  0.00000000000E+00 -0.68688451298E+03  0.68688451299E+03  0.50400001928E-02 0.  1.
    10030    2    1    2    0    0  0.00000000000E+00  0.00000000000E+00 -0.10305432721E+03  0.12707146988E+04  0.12665289777E+04 0.  0.
        3    1    3    3  502    0  0.30420613735E+02  0.10379243049E+02  0.58301122659E+03  0.58389660297E+03  0.10100000352E+00 0. -1.
       -3    1    3    3    0  502 -0.30420613735E+02 -0.10379243049E+02 -0.68606555380E+03  0.68681809581E+03  0.10100000352E+00 0.  1.
</event>
<event>
 5   0  0.2312105E-03  0.1279959E+04  0.7818609E-02  0.9045611E-01
        2   -1    0    0  501    0  0.00000000000E+00  0.00000000000E+00  0.46591838678E+03  0.46591838679E+03  0.25500000920E-02 0.  1.
       -2   -1    0    0    0  501  0.00000000000E+00  0.00000000000E+00 -0.87906715965E+03  0.87906715966E+03  0.25500000920E-02 0. -1.
    10030    2    1    2    0    0  0.00000000000E+00  0.00000000000E+00 -0.41314877287E+03  0.13449855465E+04  0.12799586758E+04 0.  0.
        5    1    3    3  502    0 -0.60425196724E+03  0.20015246801E+03 -0.13710987094E+03  0.65115486412E+03  0.46999998093E+01 0. -1.
       -5    1    3    3    0  502  0.60425196724E+03 -0.20015246801E+03 -0.27603890193E+03  0.69383068233E+03  0.46999998093E+01 0.  1.
</event>
<event>
 5   0  0.2312105E-03  0.1297001E+04  0.7818609E-02  0.9031947E-01
        2   -1    0    0  501    0  0.00000000000E+00  0.00000000000E+00  0.13457640232E+04  0.13457640232E+04  0.25500000920E-02 0. -1.
       -2   -1    0    0    0  501  0.00000000000E+00  0.00000000000E+00 -0.31250136879E+03  0.31250136880E+03  0.25500000920E-02 0.  1.
    10030    2    1    2    0    0  0.00000000000E+00  0.00000000000E+00  0.10332626544E+04  0.16582653920E+04  0.12970013097E+04 0.  0.
        5    1    3    3  502    0  0.59558374008E+03 -0.15537309894E+03  0.25563973987E+03  0.66650923318E+03  0.46999998093E+01 0.  1.
       -5    1    3    3    0  502 -0.59558374008E+03  0.15537309894E+03  0.77762291453E+03  0.99175615880E+03  0.46999998093E+01 0. -1.
</event>
<event>
 5   0  0.2334946E-03  0.1332988E+04  0.7818609E-02  0.9003807E-01
       -2   -1    0    0    0  501  0.00000000000E+00  0.00000000000E+00  0.37158873664E+03  0.37158873665E+03  0.25500000920E-02 0. -1.
        2   -1    0    0  501    0  0.00000000000E+00  0.00000000000E+00 -0.11954457179E+04  0.11954457179E+04  0.25500000920E-02 0.  1.
    10030    2    1    2    0    0  0.00000000000E+00  0.00000000000E+00 -0.82385698125E+03  0.15670344545E+04  0.13329878680E+04 0.  0.
        1    1    3    3  502    0  0.40696673432E+03 -0.18366208262E+03  0.16978843132E+03  0.47768378126E+03  0.50400001928E-02 0. -1.
       -1    1    3    3    0  502 -0.40696673432E+03  0.18366208262E+03 -0.99364541257E+03  0.10893506733E+04  0.50400001928E-02 0.  1.
</event>
<event>
 5   0  0.1346593E-03  0.1295146E+04  0.7818609E-02  0.9033424E-01
       -1   -1    0    0    0  501  0.00000000000E+00  0.00000000000E+00  0.27557981521E+03  0.27557981526E+03  0.50400001928E-02 0. -1.
        1   -1    0    0  501    0  0.00000000000E+00  0.00000000000E+00 -0.15217025956E+04  0.15217025956E+04  0.50400001928E-02 0.  1.
    10030    2    1    2    0    0  0.00000000000E+00  0.00000000000E+00 -0.12461227804E+04  0.17972824109E+04  0.12951455828E+04 0.  0.
        2    1    3    3  502    0  0.23128592650E+03 -0.21453973580E+03  0.16173566188E+03  0.35451220341E+03  0.25500000920E-02 0. -1.
       -2    1    3    3    0  502 -0.23128592650E+03  0.21453973580E+03 -0.14078584423E+04  0.14427702075E+04  0.25500000920E-02 0.  1.
</event>
<event>
 5   0  0.1387622E-03  0.1413183E+04  0.7818609E-02  0.8944331E-01
        1   -1    0    0  501    0  0.00000000000E+00  0.00000000000E+00  0.45242284290E+03  0.45242284293E+03  0.50400001928E-02 0.  1.
       -1   -1    0    0    0  501  0.00000000000E+00  0.00000000000E+00 -0.11035510643E+04  0.11035510643E+04  0.50400001928E-02 0. -1.
    10030    2    1    2    0    0  0.00000000000E+00  0.00000000000E+00 -0.65112822135E+03  0.15559739072E+04  0.14131832292E+04 0.  0.
        3    1    3    3  502    0 -0.63215062781E+03 -0.30985822800E+03 -0.39203970770E+03  0.80580498901E+03  0.10100000352E+00 0.  1.
       -3    1    3    3    0  502  0.63215062781E+03  0.30985822800E+03 -0.25908851365E+03  0.75016891818E+03  0.10100000352E+00 0. -1.
</event>
<event>
 5   0  0.1324721E-03  0.1256023E+04  0.7818609E-02  0.9065185E-01
       -1   -1    0    0    0  501  0.00000000000E+00  0.00000000000E+00  0.23631553659E+03  0.23631553664E+03  0.50400001928E-02 0. -1.
        1   -1    0    0  501    0  0.00000000000E+00  0.00000000000E+00 -0.16689489635E+04  0.16689489635E+04  0.50400001928E-02 0.  1.
    10030    2    1    2    0    0  0.00000000000E+00  0.00000000000E+00 -0.14326334269E+04  0.19052645001E+04  0.12560232003E+04 0.  0.
        1    1    3    3  502    0 -0.31982669272E+02  0.55336508426E+03 -0.26847648094E+03  0.61588588915E+03  0.50400001928E-02 0. -1.
       -1    1    3    3    0  502  0.31982669272E+02 -0.55336508426E+03 -0.11641569460E+04  0.12893786110E+04  0.50400001928E-02 0.  1.
</event>
<event>
 5   0  0.2401211E-03  0.1307504E+04  0.7818609E-02  0.9023636E-01
       -2   -1    0    0    0  501  0.00000000000E+00  0.00000000000E+00  0.53921128459E+03  0.53921128459E+03  0.25500000920E-02 0.  1.
        2   -1    0    0  501    0  0.00000000000E+00  0.00000000000E+00 -0.79262356745E+03  0.79262356745E+03  0.25500000920E-02 0. -1.
    10030    2    1    2    0    0  0.00000000000E+00  0.00000000000E+00 -0.25341228286E+03  0.13318348520E+04  0.13075038386E+04 0.  0.
        4    1    3    3  502    0  0.32517390188E+03  0.33717828544E+03 -0.59122154811E+03  0.75430219043E+03  0.12699999809E+01 0. -1.
       -4    1    3    3    0  502 -0.32517390188E+03 -0.33717828544E+03  0.33780926526E+03  0.57753266161E+03  0.12699999809E+01 0.  1.
</event>
<event>
 5   0  0.1332630E-03  0.1296537E+04  0.7818609E-02  0.9032316E-01
        1   -1    0    0  501    0  0.00000000000E+00  0.00000000000E+00  0.55150826961E+03  0.55150826963E+03  0.50400001928E-02 0. -1.
       -1   -1    0    0    0  501  0.00000000000E+00  0.00000000000E+00 -0.76200444907E+03  0.76200444909E+03  0.50400001928E-02 0.  1.
    10030    2    1    2    0    0  0.00000000000E+00  0.00000000000E+00 -0.21049617946E+03  0.13135127187E+04  0.12965365481E+04 0.  0.
        5    1    3    3  502    0 -0.14746141316E+03  0.36758017819E+03  0.41466691172E+03  0.57343769796E+03  0.46999998093E+01 0. -1.
       -5    1    3    3    0  502  0.14746141316E+03 -0.36758017819E+03 -0.62516309118E+03  0.74007502076E+03  0.46999998093E+01 0.  1.
</event>
<event>
 5   0  0.1310461E-03  0.1290744E+04  0.7818609E-02  0.9036938E-01
        1   -1    0    0  501    0  0.00000000000E+00  0.00000000000E+00  0.11104967305E+04  0.11104967305E+04  0.50400001928E-02 0. -1.
       -1   -1    0    0    0  501  0.00000000000E+00  0.00000000000E+00 -0.37506181662E+03  0.37506181666E+03  0.50400001928E-02 0.  1.
    10030    2    1    2    0    0  0.00000000000E+00  0.00000000000E+00  0.73543491390E+03  0.14855585472E+04  0.12907438493E+04 0.  0.
        4    1    3    3  502    0  0.32143921418E+03 -0.48714949114E+03  0.50708226454E+02  0.58584190040E+03  0.12699999809E+01 0.  1.
       -4    1    3    3    0  502 -0.32143921418E+03  0.48714949114E+03  0.68472668745E+03  0.89971664680E+03  0.12699999809E+01 0. -1.
</event>
<event>
 5   0  0.1346593E-03  0.1421286E+04  0.7818609E-02  0.8938553E-01
        1   -1    0    0  501    0  0.00000000000E+00  0.00000000000E+00  0.72391669636E+03  0.72391669638E+03  0.50400001928E-02 0.  1.
       -1   -1    0    0    0  501  0.00000000000E+00  0.00000000000E+00 -0.69761241409E+03  0.69761241410E+03  0.50400001928E-02 0. -1.
    10030    2    1    2    0    0  0.00000000000E+00  0.00000000000E+00  0.26304282274E+02  0.14215291105E+04  0.14212857196E+04 0.  0.
        2    1    3    3  502    0 -0.49672401992E+03  0.47444007950E+03  0.19535120766E+03  0.71413600619E+03  0.25500000920E-02 0.  1.
       -2    1    3    3    0  502  0.49672401992E+03 -0.47444007950E+03 -0.16904692538E+03  0.70739310429E+03  0.25500000920E-02 0. -1.
</event>
<event>
 5   0  0.2478236E-03  0.1294792E+04  0.7818609E-02  0.9033705E-01
       -2   -1    0    0    0  501  0.00000000000E+00  0.00000000000E+00  0.41990185513E+03  0.41990185514E+03  0.25500000920E-02 0. -1.
        2   -1    0    0  501    0  0.00000000000E+00  0.00000000000E+00 -0.99814164383E+03  0.99814164383E+03  0.25500000920E-02 0.  1.
    10030    2    1    2    0    0  0.00000000000E+00  0.00000000000E+00 -0.57823978870E+03  0.14180434990E+04  0.12947919183E+04 0.  0.
        3    1    3    3  502    0  0.39602765361E+03 -0.20603848671E+03  0.22437341467E+03  0.49963306520E+03  0.10100000352E+00 0. -1.
       -3    1    3    3    0  502 -0.39602765361E+03  0.20603848671E+03 -0.80261320337E+03  0.91841043377E+03  0.10100000352E+00 0.  1.
</event>
<event>
 5   0  0.2401211E-03  0.1578359E+04  0.7818609E-02  0.8833954E-01
        2   -1    0    0  501    0  0.00000000000E+00  0.00000000000E+00  0.10748560346E+04  0.10748560346E+04  0.25500000920E-02 0.  1.
       -2   -1    0    0    0  501  0.00000000000E+00  0.00000000000E+00 -0.57943074318E+03  0.57943074318E+03  0.25500000920E-02 0. -1.
    10030    2    1    2    0    0  0.00000000000E+00  0.00000000000E+00  0.49542529140E+03  0.16542867778E+04  0.15783594406E+04 0.  0.
        4    1    3    3  502    0  0.51719552490E+02  0.31317075936E+03  0.10050019861E+04  0.10539361658E+04  0.12699999809E+01 0.  1.
       -4    1    3    3    0  502 -0.51719552490E+02 -0.31317075936E+03 -0.50957669469E+03  0.60035061197E+03  0.12699999809E+01 0. -1.
</event>
<event>
 5   0  0.2334946E-03  0.1338065E+04  0.7818609E-02  0.8999912E-01
        2   -1    0    0  501    0  0.00000000000E+00  0.00000000000E+00  0.85585934648E+03  0.85585934648E+03  0.25500000920E-02 0.  1.
       -2   -1    0    0    0  501  0.00000000000E+00  0.00000000000E+00 -0.52298823681E+03  0.52298823682E+03  0.25500000920E-02 0. -1.
    10030    2    1    2    0    0  0.00000000000E+00  0.00000000000E+00  0.33287110967E+03  0.13788475833E+04  0.13380648274E+04 0.  0.
        1    1    3    3  502    0 -0.43572582094E+03 -0.50171951577E+03  0.86449499037E+02  0.67011415404E+03  0.50400001928E-02 0.  1.
       -1    1    3    3    0  502  0.43572582094E+03  0.50171951577E+03  0.24642161063E+03  0.70873342926E+03  0.50400001928E-02 0. -1.
</event>
<event>
 5   0  0.2478236E-03  0.1291343E+04  0.7818609E-02  0.9036458E-01
       -2   -1    0    0    0  501  0.00000000000E+00  0.00000000000E+00  0.45860639159E+03  0.45860639159E+03  0.25500000920E-02 0.  1.
        2   -1    0    0  501    0  0.00000000000E+00  0.00000000000E+00 -0.90904083840E+03  0.90904083840E+03  0.25500000920E-02 0. -1.
    10030    2    1    2    0    0  0.00000000000E+00  0.00000000000E+00 -0.45043444681E+03  0.13676472300E+04  0.12913433915E+04 0.  0.
        3    1    3    3  502    0 -0.33348430203E+03  0.50814095419E+03 -0.45597445293E+03  0.75982348013E+03  0.10100000352E+00 0. -1.
       -3    1    3    3    0  502  0.33348430203E+03 -0.50814095419E+03  0.55400061220E+01  0.60782374987E+03  0.10100000352E+00 0.  1.
</event>
<event>
 5   0  0.1332630E-03  0.1301047E+04  0.7818609E-02  0.9028735E-01
        1   -1    0    0  501    0  0.00000000000E+00  0.00000000000E+00  0.10664414758E+04  0.10664414758E+04  0.50400001928E-02 0. -1.
       -1   -1    0    0    0  501  0.00000000000E+00  0.00000000000E+00 -0.39681564356E+03  0.39681564359E+03  0.50400001928E-02 0.  1.
    10030    2    1    2    0    0  0.00000000000E+00  0.00000000000E+00  0.66962583219E+03  0.14632571194E+04  0.13010467487E+04 0.  0.
        5    1    3    3  502    0 -0.96068118203E+02  0.19678879696E+03 -0.35409515867E+03  0.41636568703E+03  0.46999998093E+01 0.  1.
       -5    1    3    3    0  502  0.96068118203E+02 -0.19678879696E+03  0.10237209909E+04  0.10468914323E+04  0.46999998093E+01 0. -1.
</event>
<event>
 5   0  0.1310461E-03  0.1299606E+04  0.7818609E-02  0.9029877E-01
        1   -1    0    0  501    0  0.00000000000E+00  0.00000000000E+00  0.98726041353E+03  0.98726041354E+03  0.50400001928E-02 0.  1.
       -1   -1    0    0    0  501  0.00000000000E+00  0.00000000000E+00 -0.42769273905E+03  0.42769273908E+03  0.50400001928E-02 0. -1.
    10030    2    1    2    0    0  0.00000000000E+00  0.00000000000E+00  0.55956767448E+03  0.14149531526E+04  0.12996062641E+04 0.  0.
        4    1    3    3  502    0 -0.31944179018E+03 -0.28089223237E+03 -0.25503663214E+03  0.49597258004E+03  0.12699999809E+01 0. -1.
       -4    1    3    3    0  502  0.31944179018E+03  0.28089223237E+03  0.81460430662E+03  0.91898057258E+03  0.12699999809E+01 0.  1.
</event>
<event>
 5   0  0.1332630E-03  0.1280437E+04  0.7818609E-02  0.9045224E-01
        1   -1    0    0  501    0  0.00000000000E+00  0.00000000000E+00  0.17524067673E+04  0.17524067673E+04  0.50400001928E-02 0.  1.
       -1   -1    0    0    0  501  0.00000000000E+00  0.00000000000E+00 -0.23389522294E+03  0.23389522299E+03  0.50400001928E-02 0. -1.
    10030    2    1    2    0    0  0.00000000000E+00  0.00000000000E+00  0.15185115444E+04  0.19863019903E+04  0.12804367561E+04 0.  0.
        5    1    3    3  502    0  0.60872526955E+03  0.13848856660E+03  0.53915072074E+03  0.82488249256E+03  0.46999998093E+01 0. -1.
       -5    1    3    3    0  502 -0.60872526955E+03 -0.13848856660E+03  0.97936082363E+03  0.11614194977E+04  0.46999998093E+01 0.  1.
</event>
<event>
 5   0  0.1324721E-03  0.1300978E+04  0.7818609E-02  0.9028790E-01
       -1   -1    0    0    0  501  0.00000000000E+00  0.00000000000E+00  0.69208579075E+03  0.69208579077E+03  0.50400001928E-02 0.  1.
        1   -1    0    0  501    0  0.00000000000E+00  0.00000000000E+00 -0.61139185275E+03  0.61139185277E+03  0.50400001928E-02 0. -1.
    10030    2    1    2    0    0  0.00000000000E+00  0.00000000000E+00  0.80693938004E+02  0.13034776435E+04  0.13009775000E+04 0.  0.
        1    1    3    3  502    0 -0.56555738121E+03  0.26353263788E+03  0.22463252219E+03  0.66314732354E+03  0.50400001928E-02 0.  1.
       -1    1    3    3    0  502  0.56555738121E+03 -0.26353263788E+03 -0.14393858418E+03  0.64033032000E+03  0.50400001928E-02 0. -1.
</event>
<event>
 5   0  0.2401211E-03  0.1298884E+04  0.7818609E-02  0.9030451E-01
        2   -1    0    0  501    0  0.00000000000E+00  0.00000000000E+00  0.26311886982E+03  0.26311886983E+03  0.25500000920E-02 0. -1.
       -2   -1    0    0    0  501  0.00000000000E+00  0.00000000000E+00 -0.16029821565E+04  0.16029821565E+04  0.25500000920E-02 0.  1.
    10030    2    1    2    0    0  0.00000000000E+00  0.00000000000E+00 -0.13398632867E+04  0.18661010263E+04  0.12988839107E+04 0.  0.
        4    1    3    3  502    0 -0.16474448419E+03  0.43222508706E+03 -0.13248726508E+04  0.14032991216E+04  0.12699999809E+01 0.  1.
       -4    1    3    3    0  502  0.16474448419E+03 -0.43222508706E+03 -0.14990635870E+02  0.46280190472E+03  0.12699999809E+01 0. -1.
</event>
<event>
 5   0  0.2334946E-03  0.1263464E+04  0.7818609E-02  0.9059051E-01
        2   -1    0    0  501    0  0.00000000000E+00  0.00000000000E+00  0.10649563442E+04  0.10649563442E+04  0.25500000920E-02 0.  1.
       -2   -1    0    0    0  501  0.00000000000E+00  0.00000000000E+00 -0.37474308937E+03  0.37474308938E+03  0.25500000920E-02 0. -1.
    10030    2    1    2    0    0  0.00000000000E+00  0.00000000000E+00  0.69021325480E+03  0.14396994335E+04  0.12634635420E+04 0.  0.
        1    1    3    3  502    0  0.13320687025E+03  0.23232858377E+03  0.99707246056E+03  0.10324118039E+04  0.50400001928E-02 0.  1.
       -1    1    3    3    0  502 -0.13320687025E+03 -0.23232858377E+03 -0.30685920576E+03  0.40728762969E+03  0.50400001928E-02 0. -1.
</event>
<event>
 5   0  0.2361043E-03  0.1333615E+04  0.7818609E-02  0.9003325E-01
       -2   -1    0    0    0  501  0.00000000000E+00  0.00000000000E+00  0.35122034358E+03  0.35122034359E+03  0.25500000920E-02 0.  1.
        2   -1    0    0  501    0  0.00000000000E+00  0.00000000000E+00 -0.12659635300E+04  0.12659635300E+04  0.25500000920E-02 0. -1.
    10030    2    1    2    0    0  0.00000000000E+00  0.00000000000E+00 -0.91474318644E+03  0.16171838736E+04  0.13336148559E+04 0.  0.
        2    1    3    3  502    0  0.17422781467E+03 -0.64286030734E+03 -0.49586076223E+03  0.83036293371E+03  0.25500000920E-02 0.  1.
       -2    1    3    3    0  502 -0.17422781467E+03  0.64286030734E+03 -0.41888242422E+03  0.78682093991E+03  0.25500000920E-02 0. -1.
</event>
<event>
 5   0  0.1387622E-03  0.1305358E+04  0.7818609E-02  0.9025327E-01
       -1   -1    0    0    0  501  0.00000000000E+00  0.00000000000E+00  0.53700777092E+03  0.53700777094E+03  0.50400001928E-02 0.  1.
        1   -1    0    0  501    0  0.00000000000E+00  0.00000000000E+00 -0.79326526556E+03  0.79326526558E+03  0.50400001928E-02 0. -1.
    10030    2    1    2    0    0  0.00000000000E+00  0.00000000000E+00 -0.25625749464E+03  0.13302730365E+04  0.13053575940E+04 0.  0.
        3    1    3    3  502    0 -0.24842739029E+03  0.60313614026E+03 -0.15092146503E+03  0.66952719940E+03  0.10100000352E+00 0.  1.
       -3    1    3    3    0  502  0.24842739029E+03 -0.60313614026E+03 -0.10533602961E+03  0.66074583711E+03  0.10100000352E+00 0. -1.
</event>
<event>
 5   0  0.2478236E-03  0.1200779E+04  0.7818609E-02  0.9112175E-01
        2   -1    0    0  501    0  0.00000000000E+00  0.00000000000E+00  0.17146630766E+04  0.17146630766E+04  0.25500000920E-02 0.  1.
       -2   -1    0    0    0  501  0.00000000000E+00  0.00000000000E+00 -0.21022639177E+03  0.21022639179E+03  0.25500000920E-02 0. -1.
    10030    2    1    2    0    0  0.00000000000E+00  0.00000000000E+00  0.15044366848E+04  0.19248894684E+04  0.12007788002E+04 0.  0.
        3    1    3    3  502    0 -0.35074806147E+03  0.48526512345E+03  0.68123127416E+03  0.90696334091E+03  0.10100000352E+00 0. -1.
       -3    1    3    3    0  502  0.35074806147E+03 -0.48526512345E+03  0.82320541069E+03  0.10179261275E+04  0.10100000352E+00 0.  1.
</event>
<event>
 5   0  0.2312105E-03  0.1314535E+04  0.7818609E-02  0.9018117E-01
        2   -1    0    0  501    0  0.00000000000E+00  0.00000000000E+00  0.12469388596E+04  0.12469388596E+04  0.25500000920E-02 0.  1.
       -2   -1    0    0    0  501  0.00000000000E+00  0.00000000000E+00 -0.34644903044E+03  0.34644903045E+03  0.25500000920E-02 0. -1.
    10030    2    1    2    0    0  0.00000000000E+00  0.00000000000E+00  0.90048982917E+03  0.15933878901E+04  0.13145352927E+04 0.  0.
        5    1    3    3  502    0 -0.49712325861E+03 -0.15013982479E+03 -0.38087367956E+02  0.52071704297E+03  0.46999998093E+01 0. -1.
       -5    1    3    3    0  502  0.49712325861E+03  0.15013982479E+03  0.93857719713E+03  0.10726708471E+04  0.46999998093E+01 0.  1.
</event>
<event>
 5   0  0.2334946E-03  0.1343078E+04  0.7818609E-02  0.8996084E-01
        2   -1    0    0  501    0  0.00000000000E+00  0.00000000000E+00  0.93247746308E+03  0.93247746308E+03  0.25500000920E-02 0.  1.
       -2   -1    0    0    0  501  0.00000000000E+00  0.00000000000E+00 -0.48361995949E+03  0.48361995950E+03  0.25500000920E-02 0. -1.
    10030    2    1    2    0    0  0.00000000000E+00  0.00000000000E+00  0.44885750359E+03  0.14160974226E+04  0.13430781257E+04 0.  0.
        1    1    3    3  502    0  0.49712655088E+03 -0.16145833340E+03  0.66896812769E+03  0.84895344802E+03  0.50400001928E-02 0.  1.
       -1    1    3    3    0  502 -0.49712655088E+03  0.16145833340E+03 -0.22011062410E+03  0.56714397456E+03  0.50400001928E-02 0. -1.
</event>
<event>
 5   0  0.1387622E-03  0.1286949E+04  0.7818609E-02  0.9039979E-01
        1   -1    0    0  501    0  0.00000000000E+00  0.00000000000E+00  0.63454470570E+03  0.63454470572E+03  0.50400001928E-02 0.  1.
       -1   -1    0    0    0  501  0.00000000000E+00  0.00000000000E+00 -0.65252969650E+03  0.65252969652E+03  0.50400001928E-02 0. -1.
    10030    2    1    2    0    0  0.00000000000E+00  0.00000000000E+00 -0.17984990804E+02  0.12870744022E+04  0.12869487391E+04 0.  0.
        3    1    3    3  502    0 -0.14429020358E+03 -0.61490456640E+03 -0.13201656078E+03  0.64525628331E+03  0.10100000352E+00 0.  1.
       -3    1    3    3    0  502  0.14429020358E+03  0.61490456640E+03  0.11403156998E+03  0.64181811893E+03  0.10100000352E+00 0. -1.
</event>
<event>
 5   0  0.1310461E-03  0.1371094E+04  0.7818609E-02  0.8975012E-01
        1   -1    0    0  501    0  0.00000000000E+00  0.00000000000E+00  0.88784454204E+03  0.88784454205E+03  0.50400001928E-02 0.  1.
       -1   -1    0    0    0  501  0.00000000000E+00  0.00000000000E+00 -0.52934317022E+03  0.52934317024E+03  0.50400001928E-02 0. -1.
    10030    2    1    2    0    0  0.00000000000E+00  0.00000000000E+00  0.35850137182E+03  0.14171877123E+04  0.13710936431E+04 0.  0.
        4    1    3    3  502    0 -0.40192949498E+03  0.53963024021E+03  0.31490584131E+03  0.74291010013E+03  0.12699999809E+01 0.  1.
       -4    1    3    3    0  502  0.40192949498E+03 -0.53963024021E+03  0.43595530508E+02  0.67427761216E+03  0.12699999809E+01 0. -1.
</event>
<event>
 5   0  0.1387622E-03  0.1323872E+04  0.7818609E-02  0.9010846E-01
        1   -1    0    0  501    0  0.00000000000E+00  0.00000000000E+00  0.86067864767E+03  0.86067864769E+03  0.50400001928E-02 0. -1.
       -1   -1    0    0    0  501  0.00000000000E+00  0.00000000000E+00 -0.50908543741E+03  0.50908543743E+03  0.50400001928E-02 0.  1.
    10030    2    1    2    0    0  0.00000000000E+00  0.00000000000E+00  0.35159321027E+03  0.13697640851E+04  0.13238715434E+04 0.  0.
        3    1    3    3  502    0 -0.27486493907E+02  0.51546165769E+03  0.60453119675E+03  0.79493031515E+03  0.10100000352E+00 0. -1.
       -3    1    3    3    0  502  0.27486493907E+02 -0.51546165769E+03 -0.25293798649E+03  0.57483376997E+03  0.10100000352E+00 0.  1.
</event>
<event>
 5   0  0.2401211E-03  0.1324708E+04  0.7818609E-02  0.9010197E-01
        2   -1    0    0  501    0  0.00000000000E+00  0.00000000000E+00  0.25280317613E+04  0.25280317613E+04  0.25500000920E-02 0.  1.
       -2   -1    0    0    0  501  0.00000000000E+00  0.00000000000E+00 -0.17353938163E+03  0.17353938165E+03  0.25500000920E-02 0. -1.
    10030    2    1    2    0    0  0.00000000000E+00  0.00000000000E+00  0.23544923797E+04  0.27015711429E+04  0.13247083734E+04 0.  0.
        4    1    3    3  502    0  0.33740512516E+02  0.40352470371E+03  0.22461970563E+04  0.22824051870E+04  0.12699999809E+01 0.  1.
       -4    1    3    3    0  502 -0.33740512516E+02 -0.40352470371E+03  0.10829532332E+03  0.41916595597E+03  0.12699999809E+01 0. -1.
</event>
<event>
 5   0  0.2312105E-03  0.1325458E+04  0.7818609E-02  0.9009617E-01
       -2   -1    0    0    0  501  0.00000000000E+00  0.00000000000E+00  0.51769193929E+03  0.51769193930E+03  0.25500000920E-02 0.  1.
        2   -1    0    0  501    0  0.00000000000E+00  0.00000000000E+00 -0.84839964556E+03  0.84839964556E+03  0.25500000920E-02 0. -1.
    10030    2    1    2    0    0  0.00000000000E+00  0.00000000000E+00 -0.33070770626E+03  0.13660915849E+04  0.13254578949E+04 0.  0.
        5    1    3    3  502    0 -0.42617198368E+03 -0.21209089683E+03 -0.64055512416E+03  0.79808399638E+03  0.46999998093E+01 0. -1.
       -5    1    3    3    0  502  0.42617198368E+03  0.21209089683E+03  0.30984741789E+03  0.56800758848E+03  0.46999998093E+01 0.  1.
</event>
<event>
 5   0  0.2361043E-03  0.1292847E+04  0.7818609E-02  0.9035257E-01
       -2   -1    0    0    0  501  0.00000000000E+00  0.00000000000E+00  0.23189482269E+03  0.23189482271E+03  0.25500000920E-02 0. -1.
        2   -1    0    0  501    0  0.00000000000E+00  0.00000000000E+00 -0.18019521248E+04  0.18019521248E+04  0.25500000920E-02 0.  1.
    10030    2    1    2    0    0  0.00000000000E+00  0.00000000000E+00 -0.15700573021E+04  0.20338469475E+04  0.12928470420E+04 0.  0.
        2    1    3    3  502    0 -0.50783569564E+03  0.23602495170E+03 -0.12929855364E+04  0.14090480719E+04  0.25500000920E-02 0.  1.
       -2    1    3    3    0  502  0.50783569564E+03 -0.23602495170E+03 -0.27707176569E+03  0.62479887559E+03  0.25500000920E-02 0. -1.
</event>
<event>
 5   0  0.2478236E-03  0.1298526E+04  0.7818609E-02  0.9030735E-01
       -2   -1    0    0    0  501  0.00000000000E+00  0.00000000000E+00  0.25147024154E+03  0.25147024156E+03  0.25500000920E-02 0. -1.
        2   -1    0    0  501    0  0.00000000000E+00  0.00000000000E+00 -0.16763123833E+04  0.16763123834E+04  0.25500000920E-02 0.  1.
    10030    2    1    2    0    0  0.00000000000E+00  0.00000000000E+00 -0.14248421418E+04  0.19277826249E+04  0.12985263647E+04 0.  0.
        3    1    3    3  502    0 -0.12396013034E+03  0.44206956633E+02  0.23146032199E+03  0.26625975998E+03  0.10100000352E+00 0. -1.
       -3    1    3    3    0  502  0.12396013034E+03 -0.44206956633E+02 -0.16563024638E+04  0.16615228649E+04  0.10100000352E+00 0.  1.
</event>
<event>
 5   0  0.2361043E-03  0.1024638E+04  0.7818609E-02  0.9281928E-01
       -2   -1    0    0    0  501  0.00000000000E+00  0.00000000000E+00  0.86302605675E+03  0.86302605676E+03  0.25500000920E-02 0. -1.
        2   -1    0    0  501    0  0.00000000000E+00  0.00000000000E+00 -0.30412821011E+03  0.30412821012E+03  0.25500000920E-02 0.  1.
    10030    2    1    2    0    0  0.00000000000E+00  0.00000000000E+00  0.55889784664E+03  0.11671542669E+04  0.10246376334E+04 0.  0.
        2    1    3    3  502    0  0.22069768671E+03  0.34333633209E+03  0.63216833727E+03  0.75247864588E+03  0.25500000920E-02 0. -1.
       -2    1    3    3    0  502 -0.22069768671E+03 -0.34333633209E+03 -0.73270490629E+02  0.41467562100E+03  0.25500000920E-02 0.  1.
</event>
<event>
 5   0  0.2478236E-03  0.1264197E+04  0.7818609E-02  0.9058449E-01
        2   -1    0    0  501    0  0.00000000000E+00  0.00000000000E+00  0.21698419110E+04  0.21698419110E+04  0.25500000920E-02 0.  1.
       -2   -1    0    0    0  501  0.00000000000E+00  0.00000000000E+00 -0.18413729719E+03  0.18413729721E+03  0.25500000920E-02 0. -1.
    10030    2    1    2    0    0  0.00000000000E+00  0.00000000000E+00  0.19857046138E+04  0.23539792082E+04  0.12641974923E+04 0.  0.
        3    1    3    3  502    0  0.35272063433E+03 -0.43200183561E+03  0.15468236011E+04  0.16442933725E+04  0.10100000352E+00 0.  1.
       -3    1    3    3    0  502 -0.35272063433E+03  0.43200183561E+03  0.43888101274E+03  0.70968583570E+03  0.10100000352E+00 0. -1.
</event>
<event>
 5   0  0.2478236E-03  0.1259193E+04  0.7818609E-02  0.9062566E-01
       -2   -1    0    0    0  501  0.00000000000E+00  0.00000000000E+00  0.22002958620E+03  0.22002958621E+03  0.25500000920E-02 0. -1.
        2   -1    0    0  501    0  0.00000000000E+00  0.00000000000E+00 -0.18015392192E+04  0.18015392192E+04  0.25500000920E-02 0.  1.
    10030    2    1    2    0    0  0.00000000000E+00  0.00000000000E+00 -0.15815096330E+04  0.20215688054E+04  0.12591932797E+04 0.  0.
        3    1    3    3  502    0  0.19885027946E+03  0.53721801894E+03 -0.37134477854E+03  0.68267238721E+03  0.10100000352E+00 0. -1.
       -3    1    3    3    0  502 -0.19885027946E+03 -0.53721801894E+03 -0.12101648545E+04  0.13388964182E+04  0.10100000352E+00 0.  1.
</event>
<event>
 5   0  0.2401211E-03  0.1302825E+04  0.7818609E-02  0.9027328E-01
        2   -1    0    0  501    0  0.00000000000E+00  0.00000000000E+00  0.14317544317E+04  0.14317544317E+04  0.25500000920E-02 0. -1.
       -2   -1    0    0    0  501  0.00000000000E+00  0.00000000000E+00 -0.29637627032E+03  0.29637627033E+03  0.25500000920E-02 0.  1.
    10030    2    1    2    0    0  0.00000000000E+00  0.00000000000E+00  0.11353781614E+04  0.17281307021E+04  0.13028246827E+04 0.  0.
        4    1    3    3  502    0 -0.34037397571E+03 -0.13602506259E+03  0.12819781517E+04  0.13333517373E+04  0.12699999809E+01 0. -1.
       -4    1    3    3    0  502  0.34037397571E+03  0.13602506259E+03 -0.14659999027E+03  0.39477896479E+03  0.12699999809E+01 0.  1.
</event>
<event>
 5   0  0.1387622E-03  0.1227224E+04  0.7818609E-02  0.9089356E-01
       -1   -1    0    0    0  501  0.00000000000E+00  0.00000000000E+00  0.12395390464E+04  0.12395390464E+04  0.50400001928E-02 0. -1.
        1   -1    0    0  501    0  0.00000000000E+00  0.00000000000E+00 -0.30375757997E+03  0.30375758001E+03  0.50400001928E-02 0.  1.
    10030    2    1    2    0    0  0.00000000000E+00  0.00000000000E+00  0.93578146643E+03  0.15432966264E+04  0.12272235021E+04 0.  0.
        3    1    3    3  502    0  0.28462388854E+03  0.51597365936E+03  0.68307462842E+03  0.90212556403E+03  0.10100000352E+00 0.  1.
       -3    1    3    3    0  502 -0.28462388854E+03 -0.51597365936E+03  0.25270683801E+03  0.64117106240E+03  0.10100000352E+00 0. -1.
</event>
<event>
 5   0  0.1346593E-03  0.1298014E+04  0.7818609E-02  0.9031142E-01
        1   -1    0    0  501    0  0.00000000000E+00  0.00000000000E+00  0.65440659808E+03  0.65440659810E+03  0.50400001928E-02 0.  1.
       -1   -1    0    0    0  501  0.00000000000E+00  0.00000000000E+00 -0.64365167910E+03  0.64365167912E+03  0.50400001928E-02 0. -1.
    10030    2    1    2    0    0  0.00000000000E+00  0.00000000000E+00  0.10754918977E+02  0.12980582772E+04  0.12980137221E+04 0.  0.
        2    1    3    3  502    0  0.61765549179E+03  0.15761200285E+03 -0.11656956415E+03  0.64801875997E+03  0.25500000920E-02 0. -1.
       -2    1    3    3    0  502 -0.61765549179E+03 -0.15761200285E+03  0.12732448312E+03  0.65003951725E+03  0.25500000920E-02 0.  1.
</event>
<event>
 5   0  0.1346593E-03  0.1087926E+04  0.7818609E-02  0.9217040E-01
        1   -1    0    0  501    0  0.00000000000E+00  0.00000000000E+00  0.77475031226E+03  0.77475031228E+03  0.50400001928E-02 0.  1.
       -1   -1    0    0    0  501  0.00000000000E+00  0.00000000000E+00 -0.38192406476E+03  0.38192406479E+03  0.50400001928E-02 0. -1.
    10030    2    1    2    0    0  0.00000000000E+00  0.00000000000E+00  0.39282624750E+03  0.11566743771E+04  0.10879260792E+04 0.  0.
        2    1    3    3  502    0 -0.29843541212E+03  0.30340856427E+03  0.55660674261E+03  0.70066505408E+03  0.25500000920E-02 0.  1.
       -2    1    3    3    0  502  0.29843541212E+03 -0.30340856427E+03 -0.16378049511E+03  0.45600932300E+03  0.25500000920E-02 0. -1.
</event>
<event>
 5   0  0.1387622E-03  0.1347017E+04  0.7818609E-02  0.8993089E-01
       -1   -1    0    0    0  501  0.00000000000E+00  0.00000000000E+00  0.40806581562E+03  0.40806581565E+03  0.50400001928E-02 0.  1.
        1   -1    0    0  501    0  0.00000000000E+00  0.00000000000E+00 -0.11116191883E+04  0.11116191883E+04  0.50400001928E-02 0. -1.
    10030    2    1    2    0    0  0.00000000000E+00  0.00000000000E+00 -0.70355337266E+03  0.15196850039E+04  0.13470171354E+04 0.  0.
        3    1    3    3  502    0  0.19282698924E+03  0.63807799001E+03 -0.24304857896E+03  0.70950573715E+03  0.10100000352E+00 0.  1.
       -3    1    3    3    0  502 -0.19282698924E+03 -0.63807799001E+03 -0.46050479371E+03  0.81017926679E+03  0.10100000352E+00 0. -1.
</event>
<event>
 5   0  0.2334946E-03  0.1306741E+04  0.7818609E-02  0.9024236E-01
        2   -1    0    0  501    0  0.00000000000E+00  0.00000000000E+00  0.73725685285E+03  0.73725685286E+03  0.25500000920E-02 0.  1.
       -2   -1    0    0    0  501  0.00000000000E+00  0.00000000000E+00 -0.57902903099E+03  0.57902903099E+03  0.25500000920E-02 0. -1.
    10030    2    1    2    0    0  0.00000000000E+00  0.00000000000E+00  0.15822782187E+03  0.13162858839E+04  0.13067411696E+04 0.  0.
        1    1    3    3  502    0  0.61181738951E+03 -0.22673539387E+03  0.44752224169E+02  0.65401239938E+03  0.50400001928E-02 0. -1.
       -1    1    3    3    0  502 -0.61181738951E+03  0.22673539387E+03  0.11347559770E+03  0.66227348448E+03  0.50400001928E-02 0.  1.
</event>
<event>
 5   0  0.1387622E-03  0.1329611E+04  0.7818609E-02  0.9006408E-01
       -1   -1    0    0    0  501  0.00000000000E+00  0.00000000000E+00  0.10296796116E+04  0.10296796116E+04  0.50400001928E-02 0.  1.
        1   -1    0    0  501    0  0.00000000000E+00  0.00000000000E+00 -0.42922693251E+03  0.42922693254E+03  0.50400001928E-02 0. -1.
    10030    2    1    2    0    0  0.00000000000E+00  0.00000000000E+00  0.60045267909E+03  0.14589065441E+04  0.13296108020E+04 0.  0.
        3    1    3    3  502    0  0.64362904478E+03  0.16514504007E+03  0.32311062192E+03  0.73887192107E+03  0.10100000352E+00 0.  1.
       -3    1    3    3    0  502 -0.64362904478E+03 -0.16514504007E+03  0.27734205717E+03  0.72003462307E+03  0.10100000352E+00 0. -1.
</event>
<event>
 5   0  0.2478236E-03  0.1270550E+04  0.7818609E-02  0.9053251E-01
       -2   -1    0    0    0  501  0.00000000000E+00  0.00000000000E+00  0.30535409914E+03  0.30535409916E+03  0.25500000920E-02 0.  1.
        2   -1    0    0  501    0  0.00000000000E+00  0.00000000000E+00 -0.13216597532E+04  0.13216597532E+04  0.25500000920E-02 0. -1.
    10030    2    1    2    0    0  0.00000000000E+00  0.00000000000E+00 -0.10163056540E+04  0.16270138523E+04  0.12705498389E+04 0.  0.
        3    1    3    3  502    0  0.53943387539E+02  0.49837795899E+03 -0.10078723350E+04  0.11256540911E+04  0.10100000352E+00 0. -1.
       -3    1    3    3    0  502 -0.53943387539E+02 -0.49837795899E+03 -0.84333190363E+01  0.50135976119E+03  0.10100000352E+00 0.  1.
</event>
<event>
 5   0  0.1324721E-03  0.1292139E+04  0.7818609E-02  0.9035823E-01
        1   -1    0    0  501    0  0.00000000000E+00  0.00000000000E+00  0.38103757121E+03  0.38103757124E+03  0.50400001928E-02 0. -1.
       -1   -1    0    0    0  501  0.00000000000E+00  0.00000000000E+00 -0.10954446942E+04  0.10954446942E+04  0.50400001928E-02 0.  1.
    10030    2    1    2    0    0  0.00000000000E+00  0.00000000000E+00 -0.71440712297E+03  0.14764822654E+04  0.12921386701E+04 0.  0.
        1    1    3    3  502    0  0.42792635383E+03  0.19131948220E+02  0.19544809950E+03  0.47083644227E+03  0.50400001928E-02 0. -1.
       -1    1    3    3    0  502 -0.42792635383E+03 -0.19131948220E+02 -0.90985522247E+03  0.10056458232E+04  0.50400001928E-02 0.  1.
</event>
<event>
 5   0  0.2401211E-03  0.1316473E+04  0.7818609E-02  0.9016603E-01
        2   -1    0    0  501    0  0.00000000000E+00  0.00000000000E+00  0.13194247461E+04  0.13194247461E+04  0.25500000920E-02 0.  1.
       -2   -1    0    0    0  501  0.00000000000E+00  0.00000000000E+00 -0.32838215092E+03  0.32838215093E+03  0.25500000920E-02 0. -1.
    10030    2    1    2    0    0  0.00000000000E+00  0.00000000000E+00  0.99104259520E+03  0.16478068971E+04  0.13164733740E+04 0.  0.
        4    1    3    3  502    0  0.47912601175E+03 -0.40384946182E+03  0.24325894808E+03  0.67218498322E+03  0.12699999809E+01 0. -1.
       -4    1    3    3    0  502 -0.47912601175E+03  0.40384946182E+03  0.74778364712E+03  0.97562191383E+03  0.12699999809E+01 0.  1.
</event>
<event>
 5   0  0.2401211E-03  0.1249375E+04  0.7818609E-02  0.9070704E-01
       -2   -1    0    0    0  501  0.00000000000E+00  0.00000000000E+00  0.71278813701E+03  0.71278813701E+03  0.25500000920E-02 0. -1.
        2   -1    0    0  501    0  0.00000000000E+00  0.00000000000E+00 -0.54747582760E+03  0.54747582761E+03  0.25500000920E-02 0.  1.
    10030    2    1    2    0    0  0.00000000000E+00  0.00000000000E+00  0.16531230941E+03  0.12602639646E+04  0.12493746839E+04 0.  0.
        4    1    3    3  502    0  0.25922044340E+03 -0.40292765561E+03  0.48700743364E+03  0.68317185777E+03  0.12699999809E+01 0. -1.
       -4    1    3    3    0  502 -0.25922044340E+03  0.40292765561E+03 -0.32169512423E+03  0.57709210685E+03  0.12699999809E+01 0.  1.
</event>
<event>
 5   0  0.1332630E-03  0.1328997E+04  0.7818609E-02  0.9006881E-01
       -1   -1    0    0    0  501  0.00000000000E+00  0.00000000000E+00  0.27534593112E+03  0.27534593117E+03  0.50400001928E-02 0.  1.
        1   -1    0    0  501    0  0.00000000000E+00  0.00000000000E+00 -0.16036482797E+04  0.16036482797E+04  0.50400001928E-02 0. -1.
    10030    2    1    2    0    0  0.00000000000E+00  0.00000000000E+00 -0.13283023486E+04  0.18789942109E+04  0.13289966573E+04 0.  0.
        5    1    3    3  502    0 -0.11135846157E+03 -0.11770516686E+03 -0.15752645885E+04  0.15835832239E+04  0.46999998093E+01 0. -1.
       -5    1    3    3    0  502  0.11135846157E+03  0.11770516686E+03  0.24696223993E+03  0.29541098696E+03  0.46999998093E+01 0.  1.
</event>
<event>
 5   0  0.1387622E-03  0.1290236E+04  0.7818609E-02  0.9037344E-01
       -1   -1    0    0    0  501  0.00000000000E+00  0.00000000000E+00  0.57434622121E+03  0.57434622123E+03  0.50400001928E-02 0.  1.
        1   -1    0    0  501    0  0.00000000000E+00  0.00000000000E+00 -0.72461036544E+03  0.72461036546E+03  0.50400001928E-02 0. -1.
    10030    2    1    2    0    0  0.00000000000E+00  0.00000000000E+00 -0.15026414423E+03  0.12989565867E+04  0.12902359866E+04 0.  0.
        3    1    3    3  502    0 -0.33520032432E+03  0.61533452138E+02  0.47632153111E+03  0.58568578125E+03  0.10100000352E+00 0.  1.
       -3    1    3    3    0  502  0.33520032432E+03 -0.61533452138E+02 -0.62658567534E+03  0.71327080544E+03  0.10100000352E+00 0. -1.
</event>
<event>
 5   0  0.1346593E-03  0.1342935E+04  0.7818609E-02  0.8996194E-01
       -1   -1    0    0    0  501  0.00000000000E+00  0.00000000000E+00  0.29233915531E+03  0.29233915536E+03  0.50400001928E-02 0.  1.
        1   -1    0    0  501    0  0.00000000000E+00  0.00000000000E+00 -0.15422784078E+04  0.15422784078E+04  0.50400001928E-02 0. -1.
    10030    2    1    2    0    0  0.00000000000E+00  0.00000000000E+00 -0.12499392525E+04  0.18346175631E+04  0.13429346478E+04 0.  0.
        2    1    3    3  502    0 -0.12824277034E+03  0.11602715471E+03  0.26139213188E+03  0.31342360375E+03  0.25500000920E-02 0.  1.
       -2    1    3    3    0  502  0.12824277034E+03 -0.11602715471E+03 -0.15113313843E+04  0.15211939594E+04  0.25500000920E-02 0. -1.
</event>
<event>
 5   0  0.2401211E-03  0.1291316E+04  0.7818609E-02  0.9036480E-01
        2   -1    0    0  501    0  0.00000000000E+00  0.00000000000E+00  0.15969913108E+04  0.15969913108E+04  0.25500000920E-02 0.  1.
       -2   -1    0    0    0  501  0.00000000000E+00  0.00000000000E+00 -0.26103742939E+03  0.26103742941E+03  0.25500000920E-02 0. -1.
    10030    2    1    2    0    0  0.00000000000E+00  0.00000000000E+00  0.13359538814E+04  0.18580287403E+04  0.12913163928E+04 0.  0.
        4    1    3    3  502    0  0.32764361082E+03 -0.55616431026E+03  0.64743502373E+03  0.91424438668E+03  0.12699999809E+01 0.  1.
       -4    1    3    3    0  502 -0.32764361082E+03  0.55616431026E+03  0.68851885772E+03  0.94378435358E+03  0.12699999809E+01 0. -1.
</event>
<event>
 5   0  0.1387622E-03  0.1275285E+04  0.7818609E-02  0.9049397E-01
       -1   -1    0    0    0  501  0.00000000000E+00  0.00000000000E+00  0.53217882480E+03  0.53217882483E+03  0.50400001928E-02 0. -1.
        1   -1    0    0  501    0  0.00000000000E+00  0.00000000000E+00 -0.76400602416E+03  0.76400602417E+03  0.50400001928E-02 0.  1.
    10030    2    1    2    0    0  0.00000000000E+00  0.00000000000E+00 -0.23182719935E+03  0.12961848490E+04  0.12752847966E+04 0.  0.
        3    1    3    3  502    0  0.14791678558E+03 -0.25011918466E+03 -0.69279699898E+03  0.75127004065E+03  0.10100000352E+00 0.  1.
       -3    1    3    3    0  502 -0.14791678558E+03  0.25011918466E+03  0.46096979963E+03  0.54491480835E+03  0.10100000352E+00 0. -1.
</event>
<event>
 5   0  0.2361043E-03  0.1301861E+04  0.7818609E-02  0.9028091E-01
        2   -1    0    0  501    0  0.00000000000E+00  0.00000000000E+00  0.75448038447E+03  0.75448038448E+03  0.25500000920E-02 0. -1.
       -2   -1    0    0    0  501  0.00000000000E+00  0.00000000000E+00 -0.56159249375E+03  0.56159249375E+03  0.25500000920E-02 0.  1.
    10030    2    1    2    0    0  0.00000000000E+00  0.00000000000E+00  0.19288789073E+03  0.13160728782E+04  0.13018610073E+04 0.  0.
        2    1    3    3  502    0  0.23226724302E+03 -0.89478738137E+02  0.70447140546E+03  0.74715090703E+03  0.25500000920E-02 0. -1.
       -2    1    3    3    0  502 -0.23226724302E+03  0.89478738137E+02 -0.51158351474E+03  0.56892197120E+03  0.25500000920E-02 0.  1.
</event>
<event>
 5   0  0.2401211E-03  0.1280861E+04  0.7818609E-02  0.9044882E-01
       -2   -1    0    0    0  501  0.00000000000E+00  0.00000000000E+00  0.77982223656E+03  0.77982223656E+03  0.25500000920E-02 0. -1.
        2   -1    0    0  501    0  0.00000000000E+00  0.00000000000E+00 -0.52595488820E+03  0.52595488821E+03  0.25500000920E-02 0.  1.
    10030    2    1    2    0    0  0.00000000000E+00  0.00000000000E+00  0.25386734836E+03  0.13057771248E+04  0.12808611435E+04 0.  0.
        4    1    3    3  502    0 -0.60814903127E+02 -0.50422998995E+03 -0.27078788945E+03  0.57556409650E+03  0.12699999809E+01 0.  1.
       -4    1    3    3    0  502  0.60814903127E+02  0.50422998995E+03  0.52465523780E+03  0.73021302828E+03  0.12699999809E+01 0. -1.
</event>
<event>
 5   0  0.1332630E-03  0.1297168E+04  0.7818609E-02  0.9031814E-01
       -1   -1    0    0    0  501  0.00000000000E+00  0.00000000000E+00  0.71662903474E+03  0.71662903476E+03  0.50400001928E-02 0.  1.
        1   -1    0    0  501    0  0.00000000000E+00  0.00000000000E+00 -0.58699960927E+03  0.58699960929E+03  0.50400001928E-02 0. -1.
    10030    2    1    2    0    0  0.00000000000E+00  0.00000000000E+00  0.12962942547E+03  0.13036286441E+04  0.12971676274E+04 0.  0.
        5    1    3    3  502    0  0.51779023481E+03  0.24225939082E+03  0.37267782485E+03  0.68242742533E+03  0.46999998093E+01 0.  1.
       -5    1    3    3    0  502 -0.51779023481E+03 -0.24225939082E+03 -0.24304839939E+03  0.62120121873E+03  0.46999998093E+01 0. -1.
</event>
<event>
 5   0  0.9131250E-04  0.1282988E+04  0.7818609E-02  0.9043166E-01
       -4   -1    0    0    0  501  0.00000000000E+00  0.00000000000E+00  0.66448183625E+03  0.66448304990E+03  0.12699999809E+01 0. -1.
        4   -1    0    0  501    0  0.00000000000E+00  0.00000000000E+00 -0.61929889016E+03  0.61930019236E+03  0.12699999809E+01 0.  1.
    10030    2    1    2    0    0  0.00000000000E+00  0.00000000000E+00  0.45182946089E+02  0.12837832423E+04  0.12829878856E+04 0.  0.
        1    1    3    3  502    0  0.42103924300E+03 -0.40111292288E+03  0.29358930951E+03  0.65142943112E+03  0.50400001928E-02 0. -1.
       -1    1    3    3    0  502 -0.42103924300E+03  0.40111292288E+03 -0.24840636342E+03  0.63235381114E+03  0.50400001928E-02 0.  1.
</event>
<event>
 5   0  0.2361043E-03  0.1305164E+04  0.7818609E-02  0.9025480E-01
       -2   -1    0    0    0  501  0.00000000000E+00  0.00000000000E+00  0.31371766733E+03  0.31371766734E+03  0.25500000920E-02 0.  1.
        2   -1    0    0  501    0  0.00000000000E+00  0.00000000000E+00 -0.13574729220E+04  0.13574729220E+04  0.25500000920E-02 0. -1.
    10030    2    1    2    0    0  0.00000000000E+00  0.00000000000E+00 -0.10437552547E+04  0.16711905894E+04  0.13051639569E+04 0.  0.
        2    1    3    3  502    0 -0.81456197167E+02  0.61072193405E+03 -0.79723833447E+03  0.10075739947E+04  0.25500000920E-02 0. -1.
       -2    1    3    3    0  502  0.81456197167E+02 -0.61072193405E+03 -0.24651692022E+03  0.66361659469E+03  0.25500000920E-02 0.  1.
</event>
<event>
 5   0  0.2478236E-03  0.1301461E+04  0.7818609E-02  0.9028408E-01
       -2   -1    0    0    0  501  0.00000000000E+00  0.00000000000E+00  0.24811642195E+03  0.24811642196E+03  0.25500000920E-02 0. -1.
        2   -1    0    0  501    0  0.00000000000E+00  0.00000000000E+00 -0.17066579593E+04  0.17066579593E+04  0.25500000920E-02 0.  1.
    10030    2    1    2    0    0  0.00000000000E+00  0.00000000000E+00 -0.14585415373E+04  0.19547743812E+04  0.13014605124E+04 0.  0.
        3    1    3    3  502    0 -0.24917898159E+03 -0.10741416909E+03 -0.16176310487E+04  0.16402311387E+04  0.10100000352E+00 0.  1.
       -3    1    3    3    0  502  0.24917898159E+03  0.10741416909E+03  0.15908951136E+03  0.31454324251E+03  0.10100000352E+00 0. -1.
</event>
<event>
 5   0  0.2312105E-03  0.1301084E+04  0.7818609E-02  0.9028706E-01
        2   -1    0    0  501    0  0.00000000000E+00  0.00000000000E+00  0.20317687931E+04  0.20317687931E+04  0.25500000920E-02 0. -1.
       -2   -1    0    0    0  501  0.00000000000E+00  0.00000000000E+00 -0.20829370717E+03  0.20829370719E+03  0.25500000920E-02 0.  1.
    10030    2    1    2    0    0  0.00000000000E+00  0.00000000000E+00  0.18234750859E+04  0.22400625002E+04  0.13010836315E+04 0.  0.
        5    1    3    3  502    0 -0.15616602085E+02  0.34800931416E+03  0.18576149054E+04  0.18900025364E+04  0.46999998093E+01 0. -1.
       -5    1    3    3    0  502  0.15616602085E+02 -0.34800931416E+03 -0.34139819486E+02  0.35005996383E+03  0.46999998093E+01 0.  1.
</event>
<event>
 5   0  0.1346593E-03  0.1267389E+04  0.7818609E-02  0.9055834E-01
       -1   -1    0    0    0  501  0.00000000000E+00  0.00000000000E+00  0.48050951778E+03  0.48050951780E+03  0.50400001928E-02 0. -1.
        1   -1    0    0  501    0  0.00000000000E+00  0.00000000000E+00 -0.83571382291E+03  0.83571382293E+03  0.50400001928E-02 0.  1.
    10030    2    1    2    0    0  0.00000000000E+00  0.00000000000E+00 -0.35520430514E+03  0.13162233407E+04  0.12673885688E+04 0.  0.
        2    1    3    3  502    0 -0.38931014572E+03  0.10555619932E+03 -0.68517116817E+03  0.79508743574E+03  0.25500000920E-02 0.  1.
       -2    1    3    3    0  502  0.38931014572E+03 -0.10555619932E+03  0.32996686303E+03  0.52113590500E+03  0.25500000920E-02 0. -1.
</event>
<event>
 5   0  0.2361043E-03  0.1167911E+04  0.7818609E-02  0.9141417E-01
       -2   -1    0    0    0  501  0.00000000000E+00  0.00000000000E+00  0.68206446169E+03  0.68206446169E+03  0.25500000920E-02 0. -1.
        2   -1    0    0  501    0  0.00000000000E+00  0.00000000000E+00 -0.49995887243E+03  0.49995887243E+03  0.25500000920E-02 0.  1.
    10030    2    1    2    0    0  0.00000000000E+00  0.00000000000E+00  0.18210558926E+03  0.11820233341E+04  0.11679112624E+04 0.  0.
        2    1    3    3  502    0 -0.30153395380E+03  0.42310912592E+03 -0.17873927285E+03  0.54944679943E+03  0.25500000920E-02 0.  1.
       -2    1    3    3    0  502  0.30153395380E+03 -0.42310912592E+03  0.36084486212E+03  0.63257653470E+03  0.25500000920E-02 0. -1.
</event>
<event>
 5   0  0.1346593E-03  0.1310304E+04  0.7818609E-02  0.9021434E-01
        1   -1    0    0  501    0  0.00000000000E+00  0.00000000000E+00  0.14772948389E+04  0.14772948389E+04  0.50400001928E-02 0.  1.
       -1   -1    0    0    0  501  0.00000000000E+00  0.00000000000E+00 -0.29054732025E+03  0.29054732029E+03  0.50400001928E-02 0. -1.
    10030    2    1    2    0    0  0.00000000000E+00  0.00000000000E+00  0.11867475186E+04  0.17678421592E+04  0.13103038681E+04 0.  0.
        2    1    3    3  502    0  0.17564912768E+03 -0.36728409826E+03  0.12859063360E+04  0.13488162698E+04  0.25500000920E-02 0.  1.
       -2    1    3    3    0  502 -0.17564912768E+03  0.36728409826E+03 -0.99158817328E+02  0.41902588935E+03  0.25500000920E-02 0. -1.
</event>
<event>
 5   0  0.2312105E-03  0.1266432E+04  0.7818609E-02  0.9056616E-01
       -2   -1    0    0    0  501  0.00000000000E+00  0.00000000000E+00  0.21967375421E+03  0.21967375423E+03  0.25500000920E-02 0. -1.
        2   -1    0    0  501    0  0.00000000000E+00  0.00000000000E+00 -0.18252649789E+04  0.18252649789E+04  0.25500000920E-02 0.  1.
    10030    2    1    2    0    0  0.00000000000E+00  0.00000000000E+00 -0.16055912247E+04  0.20449387331E+04  0.12664324859E+04 0.  0.
        5    1    3    3  502    0  0.52862125923E+03  0.14141295024E+03 -0.28835295243E+03  0.61855280565E+03  0.46999998093E+01 0. -1.
       -5    1    3    3    0  502 -0.52862125923E+03 -0.14141295024E+03 -0.13172382722E+04  0.14263859274E+04  0.46999998093E+01 0.  1.
</event>
<event>
 5   0  0.1310461E-03  0.1322993E+04  0.7818609E-02  0.9011528E-01
       -1   -1    0    0    0  501  0.00000000000E+00  0.00000000000E+00  0.32783991434E+03  0.32783991438E+03  0.50400001928E-02 0. -1.
        1   -1    0    0  501    0  0.00000000000E+00  0.00000000000E+00 -0.13347297775E+04  0.13347297775E+04  0.50400001928E-02 0.  1.
    10030    2    1    2    0    0  0.00000000000E+00  0.00000000000E+00 -0.10068898631E+04  0.16625696919E+04  0.13229931156E+04 0.  0.
        4    1    3    3  502    0  0.51236038058E+03 -0.32418969732E+02  0.20772902493E+02  0.51380665193E+03  0.12699999809E+01 0. -1.
       -4    1    3    3    0  502 -0.51236038058E+03  0.32418969732E+02 -0.10276627656E+04  0.11487630400E+04  0.12699999809E+01 0.  1.
</event>
<event>
 5   0  0.1346593E-03  0.1318273E+04  0.7818609E-02  0.9015199E-01
       -1   -1    0    0    0  501  0.00000000000E+00  0.00000000000E+00  0.27990572409E+03  0.27990572413E+03  0.50400001928E-02 0. -1.
        1   -1    0    0  501    0  0.00000000000E+00  0.00000000000E+00 -0.15521688965E+04  0.15521688965E+04  0.50400001928E-02 0.  1.
    10030    2    1    2    0    0  0.00000000000E+00  0.00000000000E+00 -0.12722631724E+04  0.18320746206E+04  0.13182730505E+04 0.  0.
        2    1    3    3  502    0  0.36702602810E+03 -0.36615232972E+03 -0.12018232863E+04  0.13088754124E+04  0.25500000920E-02 0.  1.
       -2    1    3    3    0  502 -0.36702602810E+03  0.36615232972E+03 -0.70439886110E+02  0.52319920816E+03  0.25500000920E-02 0. -1.
</event>
<event>
 5   0  0.1324721E-03  0.1325940E+04  0.7818609E-02  0.9009243E-01
       -1   -1    0    0    0  501  0.00000000000E+00  0.00000000000E+00  0.42383591406E+03  0.42383591409E+03  0.50400001928E-02 0. -1.
        1   -1    0    0  501    0  0.00000000000E+00  0.00000000000E+00 -0.10370275329E+04  0.10370275329E+04  0.50400001928E-02 0.  1.
    10030    2    1    2    0    0  0.00000000000E+00  0.00000000000E+00 -0.61319161881E+03  0.14608634470E+04  0.13259404396E+04 0.  0.
        1    1    3    3  502    0 -0.19398711162E+03 -0.43633866727E+03  0.20010087362E+03  0.51774780702E+03  0.50400001928E-02 0. -1.
       -1    1    3    3    0  502  0.19398711162E+03  0.43633866727E+03 -0.81329249243E+03  0.94311563994E+03  0.50400001928E-02 0.  1.
</event>
<event>
 5   0  0.2312105E-03  0.1321398E+04  0.7818609E-02  0.9012767E-01
        2   -1    0    0  501    0  0.00000000000E+00  0.00000000000E+00  0.15487641742E+04  0.15487641742E+04  0.25500000920E-02 0.  1.
       -2   -1    0    0    0  501  0.00000000000E+00  0.00000000000E+00 -0.28185242824E+03  0.28185242826E+03  0.25500000920E-02 0. -1.
    10030    2    1    2    0    0  0.00000000000E+00  0.00000000000E+00  0.12669117460E+04  0.18306166025E+04  0.13213976590E+04 0.  0.
        5    1    3    3  502    0  0.11625599771E+03  0.53227573858E+03  0.11511964685E+04  0.12736201623E+04  0.46999998093E+01 0.  1.
       -5    1    3    3    0  502 -0.11625599771E+03 -0.53227573858E+03  0.11571527750E+03  0.55699644014E+03  0.46999998093E+01 0. -1.
</event>
<event>
 5   0  0.1332630E-03  0.1297270E+04  0.7818609E-02  0.9031733E-01
       -1   -1    0    0    0  501  0.00000000000E+00  0.00000000000E+00  0.39277637138E+03  0.39277637142E+03  0.50400001928E-02 0.  1.
        1   -1    0    0  501    0  0.00000000000E+00  0.00000000000E+00 -0.10711627291E+04  0.10711627291E+04  0.50400001928E-02 0. -1.
    10030    2    1    2    0    0  0.00000000000E+00  0.00000000000E+00 -0.67838635771E+03  0.14639391005E+04  0.12972700720E+04 0.  0.
        5    1    3    3  502    0 -0.26437673297E+03 -0.24679671681E+03  0.26840708012E+03  0.45040884430E+03  0.46999998093E+01 0.  1.
       -5    1    3    3    0  502  0.26437673297E+03  0.24679671681E+03 -0.94679343783E+03  0.10135302562E+04  0.46999998093E+01 0. -1.
</event>
<event>
 5   0  0.1387622E-03  0.1304726E+04  0.7818609E-02  0.9025825E-01
        1   -1    0    0  501    0  0.00000000000E+00  0.00000000000E+00  0.44674042349E+03  0.44674042352E+03  0.50400001928E-02 0.  1.
       -1   -1    0    0    0  501  0.00000000000E+00  0.00000000000E+00 -0.95262876124E+03  0.95262876125E+03  0.50400001928E-02 0. -1.
    10030    2    1    2    0    0  0.00000000000E+00  0.00000000000E+00 -0.50588833774E+03  0.13993691848E+04  0.13047264483E+04 0.  0.
        3    1    3    3  502    0  0.13397000900E+03 -0.41849236431E+02  0.43035490722E+03  0.45266397942E+03  0.10100000352E+00 0.  1.
       -3    1    3    3    0  502 -0.13397000900E+03  0.41849236431E+02 -0.93624324496E+03  0.94670520535E+03  0.10100000352E+00 0. -1.
</event>
<event>
 5   0  0.2334946E-03  0.1275079E+04  0.7818609E-02  0.9049564E-01
       -2   -1    0    0    0  501  0.00000000000E+00  0.00000000000E+00  0.56138541134E+03  0.56138541134E+03  0.25500000920E-02 0. -1.
        2   -1    0    0  501    0  0.00000000000E+00  0.00000000000E+00 -0.72402443034E+03  0.72402443035E+03  0.25500000920E-02 0.  1.
    10030    2    1    2    0    0  0.00000000000E+00  0.00000000000E+00 -0.16263901901E+03  0.12854098417E+04  0.12750792174E+04 0.  0.
        1    1    3    3  502    0  0.16556314475E+03 -0.37980647588E+03  0.40716038344E+03  0.58089903760E+03  0.50400001928E-02 0.  1.
       -1    1    3    3    0  502 -0.16556314475E+03  0.37980647588E+03 -0.56979940245E+03  0.70451080409E+03  0.50400001928E-02 0. -1.
</event>
<event>
 5   0  0.1324721E-03  0.1292055E+04  0.7818609E-02  0.9035890E-01
        1   -1    0    0  501    0  0.00000000000E+00  0.00000000000E+00  0.91941397887E+03  0.91941397889E+03  0.50400001928E-02 0. -1.
       -1   -1    0    0    0  501  0.00000000000E+00  0.00000000000E+00 -0.45393194010E+03  0.45393194013E+03  0.50400001928E-02 0.  1.
    10030    2    1    2    0    0  0.00000000000E+00  0.00000000000E+00  0.46548203877E+03  0.13733459190E+04  0.12920547530E+04 0.  0.
        1    1    3    3  502    0 -0.27632761515E+03  0.26617994296E+03  0.78519436483E+03  0.87392156600E+03  0.50400001928E-02 0. -1.
       -1    1    3    3    0  502  0.27632761515E+03 -0.26617994296E+03 -0.31971232605E+03  0.49942435302E+03  0.50400001928E-02 0.  1.
</event>
<event>
 5   0  0.2478236E-03  0.1168586E+04  0.7818609E-02  0.9140807E-01
       -2   -1    0    0    0  501  0.00000000000E+00  0.00000000000E+00  0.44412398185E+03  0.44412398186E+03  0.25500000920E-02 0.  1.
        2   -1    0    0  501    0  0.00000000000E+00  0.00000000000E+00 -0.76870008008E+03  0.76870008008E+03  0.25500000920E-02 0. -1.
    10030    2    1    2    0    0  0.00000000000E+00  0.00000000000E+00 -0.32457609823E+03  0.12128240619E+04  0.11685857100E+04 0.  0.
        3    1    3    3  502    0  0.26249100547E+03  0.47001044236E+03  0.73437399129E+02  0.54332716265E+03  0.10100000352E+00 0.  1.
       -3    1    3    3    0  502 -0.26249100547E+03 -0.47001044236E+03 -0.39801349736E+03  0.66949689929E+03  0.10100000352E+00 0. -1.
</event>
<event>
 5   0  0.1324721E-03  0.1303540E+04  0.7818609E-02  0.9026763E-01
       -1   -1    0    0    0  501  0.00000000000E+00  0.00000000000E+00  0.69981579021E+03  0.69981579023E+03  0.50400001928E-02 0.  1.
        1   -1    0    0  501    0  0.00000000000E+00  0.00000000000E+00 -0.60702286498E+03  0.60702286500E+03  0.50400001928E-02 0. -1.
    10030    2    1    2    0    0  0.00000000000E+00  0.00000000000E+00  0.92792925230E+02  0.13068386552E+04  0.13035400814E+04 0.  0.
        1    1    3    3  502    0 -0.45617632499E+03 -0.46544727992E+03  0.54551914297E+02  0.65399841074E+03  0.50400001928E-02 0. -1.
       -1    1    3    3    0  502  0.45617632499E+03  0.46544727992E+03  0.38241010934E+02  0.65284024448E+03  0.50400001928E-02 0.  1.
</event>
<event>
 5   0  0.1310461E-03  0.1331477E+04  0.7818609E-02  0.9004969E-01
        1   -1    0    0  501    0  0.00000000000E+00  0.00000000000E+00  0.24230300645E+04  0.24230300645E+04  0.50400001928E-02 0. -1.
       -1   -1    0    0    0  501  0.00000000000E+00  0.00000000000E+00 -0.18291467419E+03  0.18291467426E+03  0.50400001928E-02 0.  1.
    10030    2    1    2    0    0  0.00000000000E+00  0.00000000000E+00  0.22401153904E+04  0.26059447388E+04  0.13314770068E+04 0.  0.
        4    1    3    3  502    0 -0.17188043695E+03 -0.42053165527E+03  0.20724972073E+04  0.21217059280E+04  0.12699999809E+01 0. -1.
       -4    1    3    3    0  502  0.17188043695E+03  0.42053165527E+03  0.16761818302E+03  0.48423881078E+03  0.12699999809E+01 0.  1.
</event>
<event>
 5   0  0.2334946E-03  0.1280630E+04  0.7818609E-02  0.9045068E-01
        2   -1    0    0  501    0  0.00000000000E+00  0.00000000000E+00  0.60618503702E+03  0.60618503702E+03  0.25500000920E-02 0. -1.
       -2   -1    0    0    0  501  0.00000000000E+00  0.00000000000E+00 -0.67636682588E+03  0.67636682588E+03  0.25500000920E-02 0.  1.
    10030    2    1    2    0    0  0.00000000000E+00  0.00000000000E+00 -0.70181788857E+02  0.12825518629E+04  0.12806302345E+04 0.  0.
        1    1    3    3  502    0  0.33189744066E+03 -0.48523202930E+03  0.21905635014E+03  0.62736888506E+03  0.50400001928E-02 0. -1.
       -1    1    3    3    0  502 -0.33189744066E+03  0.48523202930E+03 -0.28923813900E+03  0.65518297784E+03  0.50400001928E-02 0.  1.
</event>
<event>
 5   0  0.1324721E-03  0.1266257E+04  0.7818609E-02  0.9056760E-01
        1   -1    0    0  501    0  0.00000000000E+00  0.00000000000E+00  0.74019510093E+03  0.74019510095E+03  0.50400001928E-02 0. -1.
       -1   -1    0    0    0  501  0.00000000000E+00  0.00000000000E+00 -0.54154871877E+03  0.54154871879E+03  0.50400001928E-02 0.  1.
    10030    2    1    2    0    0  0.00000000000E+00  0.00000000000E+00  0.19864638216E+03  0.12817438197E+04  0.12662570175E+04 0.  0.
        1    1    3    3  502    0 -0.61279631360E+03 -0.12070997897E+03 -0.56831488357E+01  0.62459788599E+03  0.50400001928E-02 0.  1.
       -1    1    3    3    0  502  0.61279631360E+03  0.12070997897E+03  0.20432953100E+03  0.65714593375E+03  0.50400001928E-02 0. -1.
</event>
<event>
 5   0  0.1324721E-03  0.1414066E+04  0.7818609E-02  0.8943699E-01
       -1   -1    0    0    0  501  0.00000000000E+00  0.00000000000E+00  0.33263131995E+03  0.33263131999E+03  0.50400001928E-02 0. -1.
        1   -1    0    0  501    0  0.00000000000E+00  0.00000000000E+00 -0.15028524331E+04  0.15028524331E+04  0.50400001928E-02 0.  1.
    10030    2    1    2    0    0  0.00000000000E+00  0.00000000000E+00 -0.11702211131E+04  0.18354837531E+04  0.14140661774E+04 0.  0.
        1    1    3    3  502    0  0.29848409007E+03 -0.43233709685E+03  0.29069767867E+02  0.52616838442E+03  0.50400001928E-02 0. -1.
       -1    1    3    3    0  502 -0.29848409007E+03  0.43233709685E+03 -0.11992908810E+04  0.13093153686E+04  0.50400001928E-02 0.  1.
</event>
<event>
 5   0  0.2478236E-03  0.1282205E+04  0.7818609E-02  0.9043797E-01
       -2   -1    0    0    0  501  0.00000000000E+00  0.00000000000E+00  0.31048029760E+03  0.31048029761E+03  0.25500000920E-02 0.  1.
        2   -1    0    0  501    0  0.00000000000E+00  0.00000000000E+00 -0.13237947317E+04  0.13237947317E+04  0.25500000920E-02 0. -1.
    10030    2    1    2    0    0  0.00000000000E+00  0.00000000000E+00 -0.10133144341E+04  0.16342750293E+04  0.12822046362E+04 0.  0.
        3    1    3    3  502    0 -0.24641568884E+03  0.10568897995E+03  0.23558448159E+03  0.35691863268E+03  0.10100000352E+00 0.  1.
       -3    1    3    3    0  502  0.24641568884E+03 -0.10568897995E+03 -0.12488989157E+04  0.12773563966E+04  0.10100000352E+00 0. -1.
</event>
<event>
 5   0  0.2312105E-03  0.1303212E+04  0.7818609E-02  0.9027022E-01
        2   -1    0    0  501    0  0.00000000000E+00  0.00000000000E+00  0.13465835372E+04  0.13465835372E+04  0.25500000920E-02 0.  1.
       -2   -1    0    0    0  501  0.00000000000E+00  0.00000000000E+00 -0.31530936085E+03  0.31530936086E+03  0.25500000920E-02 0. -1.
    10030    2    1    2    0    0  0.00000000000E+00  0.00000000000E+00  0.10312741764E+04  0.16618928981E+04  0.13032120234E+04 0.  0.
        5    1    3    3  502    0  0.36915239041E+03  0.43782675128E+03  0.91199018500E+03  0.10769001528E+04  0.46999998093E+01 0. -1.
       -5    1    3    3    0  502 -0.36915239041E+03 -0.43782675128E+03  0.11928399136E+03  0.58499274532E+03  0.46999998093E+01 0.  1.
</event>
<event>
 5   0  0.2361043E-03  0.1301780E+04  0.7818609E-02  0.9028155E-01
        2   -1    0    0  501    0  0.00000000000E+00  0.00000000000E+00  0.15329881237E+04  0.15329881237E+04  0.25500000920E-02 0. -1.
       -2   -1    0    0    0  501  0.00000000000E+00  0.00000000000E+00 -0.27636075920E+03  0.27636075922E+03  0.25500000920E-02 0.  1.
    10030    2    1    2    0    0  0.00000000000E+00  0.00000000000E+00  0.12566273645E+04  0.18093488829E+04  0.13017799533E+04 0.  0.
        2    1    3    3  502    0  0.23948941676E+03  0.40153700118E+03 -0.11004022998E+01  0.46753433558E+03  0.25500000920E-02 0.  1.
       -2    1    3    3    0  502 -0.23948941676E+03 -0.40153700118E+03  0.12577277668E+04  0.13418145473E+04  0.25500000920E-02 0. -1.
</event>
<event>
 5   0  0.2361043E-03  0.1297772E+04  0.7818609E-02  0.9031333E-01
        2   -1    0    0  501    0  0.00000000000E+00  0.00000000000E+00  0.10585414200E+04  0.10585414200E+04  0.25500000920E-02 0. -1.
       -2   -1    0    0    0  501  0.00000000000E+00  0.00000000000E+00 -0.39776746142E+03  0.39776746143E+03  0.25500000920E-02 0.  1.
    10030    2    1    2    0    0  0.00000000000E+00  0.00000000000E+00  0.66077395860E+03  0.14563088815E+04  0.12977724507E+04 0.  0.
        2    1    3    3  502    0  0.16861840580E+02  0.49399839072E+03  0.80214114119E+03  0.94220440568E+03  0.25500000920E-02 0. -1.
       -2    1    3    3    0  502 -0.16861840580E+02 -0.49399839072E+03 -0.14136718258E+03  0.51410447578E+03  0.25500000920E-02 0.  1.
</event>
<event>
 5   0  0.2478236E-03  0.1301014E+04  0.7818609E-02  0.9028761E-01
        2   -1    0    0  501    0  0.00000000000E+00  0.00000000000E+00  0.21687771998E+04  0.21687771998E+04  0.25500000920E-02 0. -1.
       -2   -1    0    0    0  501  0.00000000000E+00  0.00000000000E+00 -0.19511430257E+03  0.19511430258E+03  0.25500000920E-02 0.  1.
    10030    2    1    2    0    0  0.00000000000E+00  0.00000000000E+00  0.19736628972E+04  0.23638915024E+04  0.13010141441E+04 0.  0.
        3    1    3    3  502    0 -0.44108536900E+03 -0.46766402192E+03  0.80610550125E+03  0.10310538441E+04  0.10100000352E+00 0. -1.
       -3    1    3    3    0  502  0.44108536900E+03  0.46766402192E+03  0.11675573960E+04  0.13328376582E+04  0.10100000352E+00 0.  1.
</event>
<event>
 5   0  0.1346593E-03  0.1319490E+04  0.7818609E-02  0.9014251E-01
       -1   -1    0    0    0  501  0.00000000000E+00  0.00000000000E+00  0.55776547476E+03  0.55776547478E+03  0.50400001928E-02 0. -1.
        1   -1    0    0  501    0  0.00000000000E+00  0.00000000000E+00 -0.78036975378E+03  0.78036975380E+03  0.50400001928E-02 0.  1.
    10030    2    1    2    0    0  0.00000000000E+00  0.00000000000E+00 -0.22260427902E+03  0.13381352286E+04  0.13194897593E+04 0.  0.
        2    1    3    3  502    0  0.54716298952E+03  0.18897820521E+03  0.20965577628E+03  0.61567494969E+03  0.25500000920E-02 0. -1.
       -2    1    3    3    0  502 -0.54716298952E+03 -0.18897820521E+03 -0.43226005530E+03  0.72246027888E+03  0.25500000920E-02 0.  1.
</event>
<event>
 5   0  0.2334946E-03  0.1308241E+04  0.7818609E-02  0.9023056E-01
       -2   -1    0    0    0  501  0.00000000000E+00  0.00000000000E+00  0.53938111749E+03  0.53938111750E+03  0.25500000920E-02 0.  1.
        2   -1    0    0  501    0  0.00000000000E+00  0.00000000000E+00 -0.79326746858E+03  0.79326746858E+03  0.25500000920E-02 0. -1.
    10030    2    1    2    0    0  0.00000000000E+00  0.00000000000E+00 -0.25388635108E+03  0.13326485861E+04  0.13082407939E+04 0.  0.
        1    1    3    3  502    0 -0.56892660700E+02  0.13348134207E+03  0.52278067552E+03  0.54254371091E+03  0.50400001928E-02 0.  1.
       -1    1    3    3    0  502  0.56892660700E+02 -0.13348134207E+03 -0.77666702661E+03  0.79010487517E+03  0.50400001928E-02 0. -1.
</event>
<event>
 5   0  0.1324721E-03  0.1308753E+04  0.7818609E-02  0.9022653E-01
       -1   -1    0    0    0  501  0.00000000000E+00  0.00000000000E+00  0.12088428890E+04  0.12088428890E+04  0.50400001928E-02 0.  1.
        1   -1    0    0  501    0  0.00000000000E+00  0.00000000000E+00 -0.35423015445E+03  0.35423015448E+03  0.50400001928E-02 0. -1.
    10030    2    1    2    0    0  0.00000000000E+00  0.00000000000E+00  0.85461273459E+03  0.15630730435E+04  0.13087529993E+04 0.  0.
        1    1    3    3  502    0  0.42308257723E+03 -0.18945520009E+03 -0.12430571563E+03  0.47994171621E+03  0.50400001928E-02 0. -1.
       -1    1    3    3    0  502 -0.42308257723E+03  0.18945520009E+03  0.97891845023E+03  0.10831313273E+04  0.50400001928E-02 0.  1.
</event>
<event>
 5   0  0.1387622E-03  0.1288776E+04  0.7818609E-02  0.9038514E-01
        1   -1    0    0  501    0  0.00000000000E+00  0.00000000000E+00  0.12510252564E+04  0.12510252564E+04  0.50400001928E-02 0. -1.
       -1   -1    0    0    0  501  0.00000000000E+00  0.00000000000E+00 -0.33191626039E+03  0.33191626042E+03  0.50400001928E-02 0.  1.
    10030    2    1    2    0    0  0.00000000000E+00  0.00000000000E+00  0.91910899603E+03  0.15829415169E+04  0.12887755814E+04 0.  0.
        3    1    3    3  502    0 -0.41810086354E+03  0.17458152895E+03  0.10223414679E+04  0.11182437702E+04  0.10100000352E+00 0. -1.
       -3    1    3    3    0  502  0.41810086354E+03 -0.17458152895E+03 -0.10323247185E+03  0.46469774670E+03  0.10100000352E+00 0.  1.
</event>
<event>
 5   0  0.1310461E-03  0.1296083E+04  0.7818609E-02  0.9032677E-01
        1   -1    0    0  501    0  0.00000000000E+00  0.00000000000E+00  0.97930797361E+03  0.97930797362E+03  0.50400001928E-02 0. -1.
       -1   -1    0    0    0  501  0.00000000000E+00  0.00000000000E+00 -0.42883142662E+03  0.42883142665E+03  0.50400001928E-02 0.  1.
    10030    2    1    2    0    0  0.00000000000E+00  0.00000000000E+00  0.55047654699E+03  0.14081394003E+04  0.12960833854E+04 0.  0.
        4    1    3    3  502    0 -0.40338400205E+03  0.21593858160E+03 -0.22335962840E+03  0.50915543858E+03  0.12699999809E+01 0.  1.
       -4    1    3    3    0  502  0.40338400205E+03 -0.21593858160E+03  0.77383617539E+03  0.89898396169E+03  0.12699999809E+01 0. -1.
</event>
<event>
 5   0  0.2401211E-03  0.1350357E+04  0.7818609E-02  0.8990558E-01
        2   -1    0    0  501    0  0.00000000000E+00  0.00000000000E+00  0.89330826946E+03  0.89330826946E+03  0.25500000920E-02 0. -1.
       -2   -1    0    0    0  501  0.00000000000E+00  0.00000000000E+00 -0.51031229904E+03  0.51031229905E+03  0.25500000920E-02 0.  1.
    10030    2    1    2    0    0  0.00000000000E+00  0.00000000000E+00  0.38299597041E+03  0.14036205685E+04  0.13503572812E+04 0.  0.
        4    1    3    3  502    0  0.13695600008E+03 -0.60671656520E+03  0.46454278513E+03  0.77631407855E+03  0.12699999809E+01 0. -1.
       -4    1    3    3    0  502 -0.13695600008E+03  0.60671656520E+03 -0.81546814713E+02  0.62730648996E+03  0.12699999809E+01 0.  1.
</event>
<event>
 5   0  0.1387622E-03  0.1287761E+04  0.7818609E-02  0.9039327E-01
        1   -1    0    0  501    0  0.00000000000E+00  0.00000000000E+00  0.66007611799E+03  0.66007611801E+03  0.50400001928E-02 0. -1.
       -1   -1    0    0    0  501  0.00000000000E+00  0.00000000000E+00 -0.62808263879E+03  0.62808263881E+03  0.50400001928E-02 0.  1.
    10030    2    1    2    0    0  0.00000000000E+00  0.00000000000E+00  0.31993479205E+02  0.12881587568E+04  0.12877613910E+04 0.  0.
        3    1    3    3  502    0  0.16171646842E+03  0.53385256416E+03  0.33770375727E+03  0.65206948578E+03  0.10100000352E+00 0. -1.
       -3    1    3    3    0  502 -0.16171646842E+03 -0.53385256416E+03 -0.30571027806E+03  0.63608927104E+03  0.10100000352E+00 0.  1.
</event>
<event>
 5   0  0.2312105E-03  0.1296803E+04  0.7818609E-02  0.9032104E-01
        2   -1    0    0  501    0  0.00000000000E+00  0.00000000000E+00  0.16939096509E+04  0.16939096509E+04  0.25500000920E-02 0.  1.
       -2   -1    0    0    0  501  0.00000000000E+00  0.00000000000E+00 -0.24819790411E+03  0.24819790413E+03  0.25500000920E-02 0. -1.
    10030    2    1    2    0    0  0.00000000000E+00  0.00000000000E+00  0.14457117468E+04  0.19421075551E+04  0.12968034934E+04 0.  0.
        5    1    3    3  502    0 -0.56990086261E+03  0.30892475758E+03  0.70269443823E+03  0.95604553373E+03  0.46999998093E+01 0. -1.
       -5    1    3    3    0  502  0.56990086261E+03 -0.30892475758E+03  0.74301730859E+03  0.98606202133E+03  0.46999998093E+01 0.  1.
</event>
<event>
 5   0  0.1387622E-03  0.1289932E+04  0.7818609E-02  0.9037588E-01
       -1   -1    0    0    0  501  0.00000000000E+00  0.00000000000E+00  0.16405384195E+04  0.16405384195E+04  0.50400001928E-02 0. -1.
        1   -1    0    0  501    0  0.00000000000E+00  0.00000000000E+00 -0.25356367078E+03  0.25356367083E+03  0.50400001928E-02 0.  1.
    10030    2    1    2    0    0  0.00000000000E+00  0.00000000000E+00  0.13869747487E+04  0.18941020903E+04  0.12899316939E+04 0.  0.
        3    1    3    3  502    0  0.71393201468E+02 -0.57184619858E+03  0.11187480134E+04  0.12584523001E+04  0.10100000352E+00 0. -1.
       -3    1    3    3    0  502 -0.71393201468E+02  0.57184619858E+03  0.26822673535E+03  0.63564979022E+03  0.10100000352E+00 0.  1.
</event>
<event>
 5   0  0.2334946E-03  0.1304322E+04  0.7818609E-02  0.9026145E-01
        2   -1    0    0  501    0  0.00000000000E+00  0.00000000000E+00  0.25489170461E+04  0.25489170461E+04  0.25500000920E-02 0. -1.
       -2   -1    0    0    0  501  0.00000000000E+00  0.00000000000E+00 -0.16686074612E+03  0.16686074614E+03  0.25500000920E-02 0.  1.
    10030    2    1    2    0    0  0.00000000000E+00  0.00000000000E+00  0.23820563000E+04  0.27157777922E+04  0.13043223530E+04 0.  0.
        1    1    3    3  502    0  0.64385650137E+02  0.24734821997E+03  0.24402887232E+04  0.24536372402E+04  0.50400001928E-02 0. -1.
       -1    1    3    3    0  502 -0.64385650137E+02 -0.24734821997E+03 -0.58232423251E+02  0.26214055201E+03  0.50400001928E-02 0.  1.
</event>
<event>
 5   0  0.1387622E-03  0.1264621E+04  0.7818609E-02  0.9058101E-01
        1   -1    0    0  501    0  0.00000000000E+00  0.00000000000E+00  0.33608966098E+03  0.33608966102E+03  0.50400001928E-02 0. -1.
       -1   -1    0    0    0  501  0.00000000000E+00  0.00000000000E+00 -0.11896124214E+04  0.11896124214E+04  0.50400001928E-02 0.  1.
    10030    2    1    2    0    0  0.00000000000E+00  0.00000000000E+00 -0.85352276040E+03  0.15257020824E+04  0.12646207897E+04 0.  0.
        3    1    3    3  502    0 -0.20345483202E+02  0.26483453360E+03 -0.11190422161E+04  0.11501333664E+04  0.10100000352E+00 0.  1.
       -3    1    3    3    0  502  0.20345483202E+02 -0.26483453360E+03  0.26551945572E+03  0.37556871601E+03  0.10100000352E+00 0. -1.
</event>
<event>
 5   0  0.2312105E-03  0.1295266E+04  0.7818609E-02  0.9033328E-01
       -2   -1    0    0    0  501  0.00000000000E+00  0.00000000000E+00  0.25209072258E+03  0.25209072259E+03  0.25500000920E-02 0. -1.
        2   -1    0    0  501    0  0.00000000000E+00  0.00000000000E+00 -0.16637989856E+04  0.16637989856E+04  0.25500000920E-02 0.  1.
    10030    2    1    2    0    0  0.00000000000E+00  0.00000000000E+00 -0.14117082630E+04  0.19158897082E+04  0.12952656693E+04 0.  0.
        5    1    3    3  502    0  0.52748115406E+03 -0.33732681833E+03 -0.46109893197E+03  0.77759891031E+03  0.46999998093E+01 0. -1.
       -5    1    3    3    0  502 -0.52748115406E+03  0.33732681833E+03 -0.95060933104E+03  0.11382907979E+04  0.46999998093E+01 0.  1.
</event>
<event>
 5   0  0.2478236E-03  0.1278694E+04  0.7818609E-02  0.9046634E-01
        2   -1    0    0  501    0  0.00000000000E+00  0.00000000000E+00  0.90635940735E+03  0.90635940736E+03  0.25500000920E-02 0. -1.
       -2   -1    0    0    0  501  0.00000000000E+00  0.00000000000E+00 -0.45099629293E+03  0.45099629293E+03  0.25500000920E-02 0.  1.
    10030    2    1    2    0    0  0.00000000000E+00  0.00000000000E+00  0.45536311443E+03  0.13573557003E+04  0.12786942289E+04 0.  0.
        3    1    3    3  502    0 -0.23662633584E+03  0.37082925556E+03  0.72018240521E+03  0.84390109999E+03  0.10100000352E+00 0. -1.
       -3    1    3    3    0  502  0.23662633584E+03 -0.37082925556E+03 -0.26481929078E+03  0.51345460030E+03  0.10100000352E+00 0.  1.
</event>
<event>
 5   0  0.2478236E-03  0.1311944E+04  0.7818609E-02  0.9020147E-01
        2   -1    0    0  501    0  0.00000000000E+00  0.00000000000E+00  0.28812759294E+03  0.28812759295E+03  0.25500000920E-02 0. -1.
       -2   -1    0    0    0  501  0.00000000000E+00  0.00000000000E+00 -0.14934322239E+04  0.14934322239E+04  0.25500000920E-02 0.  1.
    10030    2    1    2    0    0  0.00000000000E+00  0.00000000000E+00 -0.12053046310E+04  0.17815598168E+04  0.13119436450E+04 0.  0.
        3    1    3    3  502    0 -0.41642823302E+03  0.16090503761E+02 -0.12905707490E+04  0.13561873934E+04  0.10100000352E+00 0.  1.
       -3    1    3    3    0  502  0.41642823302E+03 -0.16090503761E+02  0.85266118042E+02  0.42537242348E+03  0.10100000352E+00 0. -1.
</event>
<event>
 5   0  0.1310461E-03  0.1313720E+04  0.7818609E-02  0.9018755E-01
        1   -1    0    0  501    0  0.00000000000E+00  0.00000000000E+00  0.96672374882E+03  0.96672374884E+03  0.50400001928E-02 0.  1.
       -1   -1    0    0    0  501  0.00000000000E+00  0.00000000000E+00 -0.44631673822E+03  0.44631673824E+03  0.50400001928E-02 0. -1.
    10030    2    1    2    0    0  0.00000000000E+00  0.00000000000E+00  0.52040701061E+03  0.14130404871E+04  0.13137198946E+04 0.  0.
        4    1    3    3  502    0 -0.48086313951E+03 -0.29827674882E+03 -0.98578881143E+02  0.57438470256E+03  0.12699999809E+01 0. -1.
       -4    1    3    3    0  502  0.48086313951E+03  0.29827674882E+03  0.61898589175E+03  0.83865578452E+03  0.12699999809E+01 0.  1.
</event>
<event>
 5   0  0.1310461E-03  0.1298414E+04  0.7818609E-02  0.9030824E-01
       -1   -1    0    0    0  501  0.00000000000E+00  0.00000000000E+00  0.79190982240E+03  0.79190982241E+03  0.50400001928E-02 0.  1.
        1   -1    0    0  501    0  0.00000000000E+00  0.00000000000E+00 -0.53221922972E+03  0.53221922974E+03  0.50400001928E-02 0. -1.
    10030    2    1    2    0    0  0.00000000000E+00  0.00000000000E+00  0.25969059268E+03  0.13241290522E+04  0.12984138565E+04 0.  0.
        4    1    3    3  502    0  0.64117774342E+02 -0.34880365897E+03  0.68439139131E+03  0.77082311259E+03  0.12699999809E+01 0.  1.
       -4    1    3    3    0  502 -0.64117774342E+02  0.34880365897E+03 -0.42470079863E+03  0.55330593956E+03  0.12699999809E+01 0. -1.
</event>
<event>
 5   0  0.1324721E-03  0.1321703E+04  0.7818609E-02  0.9012529E-01
       -1   -1    0    0    0  501  0.00000000000E+00  0.00000000000E+00  0.46436256814E+03  0.46436256816E+03  0.50400001928E-02 0. -1.
        1   -1    0    0  501    0  0.00000000000E+00  0.00000000000E+00 -0.94048247421E+03  0.94048247422E+03  0.50400001928E-02 0.  1.
    10030    2    1    2    0    0  0.00000000000E+00  0.00000000000E+00 -0.47611990607E+03  0.14048450424E+04  0.13217032300E+04 0.  0.
        1    1    3    3  502    0 -0.47757936903E+03 -0.30709851213E+03 -0.59746225530E+03  0.82422854622E+03  0.50400001928E-02 0.  1.
       -1    1    3    3    0  502  0.47757936903E+03  0.30709851213E+03  0.12134234923E+03  0.58061649616E+03  0.50400001928E-02 0. -1.
</event>
<event>
 5   0  0.1332630E-03  0.1293147E+04  0.7818609E-02  0.9035018E-01
       -1   -1    0    0    0  501  0.00000000000E+00  0.00000000000E+00  0.80364891006E+03  0.80364891007E+03  0.50400001928E-02 0.  1.
        1   -1    0    0  501    0  0.00000000000E+00  0.00000000000E+00 -0.52019860312E+03  0.52019860314E+03  0.50400001928E-02 0. -1.
    10030    2    1    2    0    0  0.00000000000E+00  0.00000000000E+00  0.28345030694E+03  0.13238475132E+04  0.12931466126E+04 0.  0.
        5    1    3    3  502    0  0.50166633992E+03 -0.26717192871E+03 -0.17378816616E+03  0.59436888613E+03  0.46999998093E+01 0. -1.
       -5    1    3    3    0  502 -0.50166633992E+03  0.26717192871E+03  0.45723847310E+03  0.72947862709E+03  0.46999998093E+01 0.  1.
</event>
<event>
 5   0  0.1387622E-03  0.1299220E+04  0.7818609E-02  0.9030184E-01
       -1   -1    0    0    0  501  0.00000000000E+00  0.00000000000E+00  0.41308439413E+03  0.41308439417E+03  0.50400001928E-02 0. -1.
        1   -1    0    0  501    0  0.00000000000E+00  0.00000000000E+00 -0.10215659747E+04  0.10215659747E+04  0.50400001928E-02 0.  1.
    10030    2    1    2    0    0  0.00000000000E+00  0.00000000000E+00 -0.60848158055E+03  0.14346503689E+04  0.12992197070E+04 0.  0.
        3    1    3    3  502    0  0.38930379624E+03 -0.48080452078E+03 -0.52304342755E+03  0.81012645326E+03  0.10100000352E+00 0.  1.
       -3    1    3    3    0  502 -0.38930379624E+03  0.48080452078E+03 -0.85438153006E+02  0.62452391560E+03  0.10100000352E+00 0. -1.
</event>
<event>
 5   0  0.1310461E-03  0.1353286E+04  0.7818609E-02  0.8988344E-01
       -1   -1    0    0    0  501  0.00000000000E+00  0.00000000000E+00  0.84601617562E+03  0.84601617563E+03  0.50400001928E-02 0.  1.
        1   -1    0    0  501    0  0.00000000000E+00  0.00000000000E+00 -0.54117878838E+03  0.54117878840E+03  0.50400001928E-02 0. -1.
    10030    2    1    2    0    0  0.00000000000E+00  0.00000000000E+00  0.30483738724E+03  0.13871949640E+04  0.13532863834E+04 0.  0.
        4    1    3    3  502    0 -0.42984601921E+03  0.23482822965E+03 -0.32611088821E+03  0.58844016007E+03  0.12699999809E+01 0. -1.
       -4    1    3    3    0  502  0.42984601921E+03 -0.23482822965E+03  0.63094827545E+03  0.79875480397E+03  0.12699999809E+01 0.  1.
</event>
<event>
 5   0  0.1346593E-03  0.1226653E+04  0.7818609E-02  0.9089842E-01
       -1   -1    0    0    0  501  0.00000000000E+00  0.00000000000E+00  0.17175115747E+04  0.17175115747E+04  0.50400001928E-02 0. -1.
        1   -1    0    0  501    0  0.00000000000E+00  0.00000000000E+00 -0.21902003229E+03  0.21902003235E+03  0.50400001928E-02 0.  1.
    10030    2    1    2    0    0  0.00000000000E+00  0.00000000000E+00  0.14984915424E+04  0.19365316070E+04  0.12266530734E+04 0.  0.
        2    1    3    3  502    0 -0.14949200307E+03 -0.45934706144E+03  0.15262251383E+03  0.50659768413E+03  0.25500000920E-02 0.  1.
       -2    1    3    3    0  502  0.14949200307E+03  0.45934706144E+03  0.13458690286E+04  0.14299339229E+04  0.25500000920E-02 0. -1.
</event>
<event>
 5   0  0.2361043E-03  0.1312679E+04  0.7818609E-02  0.9019571E-01
        2   -1    0    0  501    0  0.00000000000E+00  0.00000000000E+00  0.17280693957E+04  0.17280693957E+04  0.25500000920E-02 0. -1.
       -2   -1    0    0    0  501  0.00000000000E+00  0.00000000000E+00 -0.24928486210E+03  0.24928486211E+03  0.25500000920E-02 0.  1.
    10030    2    1    2    0    0  0.00000000000E+00  0.00000000000E+00  0.14787845336E+04  0.19773542578E+04  0.13126790027E+04 0.  0.
        2    1    3    3  502    0  0.29326101305E+03 -0.58666435853E+03  0.70235780703E+03  0.96098053073E+03  0.25500000920E-02 0.  1.
       -2    1    3    3    0  502 -0.29326101305E+03  0.58666435853E+03  0.77642672653E+03  0.10163737270E+04  0.25500000920E-02 0. -1.
</event>
<event>
 5   0  0.1332630E-03  0.1305291E+04  0.7818609E-02  0.9025380E-01
        1   -1    0    0  501    0  0.00000000000E+00  0.00000000000E+00  0.12958365847E+04  0.12958365847E+04  0.50400001928E-02 0.  1.
       -1   -1    0    0    0  501  0.00000000000E+00  0.00000000000E+00 -0.32870346171E+03  0.32870346175E+03  0.50400001928E-02 0. -1.
    10030    2    1    2    0    0  0.00000000000E+00  0.00000000000E+00  0.96713312299E+03  0.16245400465E+04  0.13052907281E+04 0.  0.
        5    1    3    3  502    0 -0.61325052066E+03  0.15028049194E+03  0.27806571959E+03  0.68992975132E+03  0.46999998093E+01 0. -1.
       -5    1    3    3    0  502  0.61325052066E+03 -0.15028049194E+03  0.68906740341E+03  0.93461029514E+03  0.46999998093E+01 0.  1.
</event>
<event>
 5   0  0.1324721E-03  0.1304275E+04  0.7818609E-02  0.9026182E-01
       -1   -1    0    0    0  501  0.00000000000E+00  0.00000000000E+00  0.34248903185E+03  0.34248903189E+03  0.50400001928E-02 0.  1.
        1   -1    0    0  501    0  0.00000000000E+00  0.00000000000E+00 -0.12417429379E+04  0.12417429379E+04  0.50400001928E-02 0. -1.
    10030    2    1    2    0    0  0.00000000000E+00  0.00000000000E+00 -0.89925390603E+03  0.15842319698E+04  0.13042750272E+04 0.  0.
        1    1    3    3  502    0 -0.27338939547E+03  0.14554353471E+03 -0.11467093792E+04  0.11877992601E+04  0.50400001928E-02 0. -1.
       -1    1    3    3    0  502  0.27338939547E+03 -0.14554353471E+03  0.24745547316E+03  0.39643270964E+03  0.50400001928E-02 0.  1.
</event>
<event>
 5   0  0.2361043E-03  0.1282036E+04  0.7818609E-02  0.9043934E-01
       -2   -1    0    0    0  501  0.00000000000E+00  0.00000000000E+00  0.29730982643E+03  0.29730982644E+03  0.25500000920E-02 0.  1.
        2   -1    0    0  501    0  0.00000000000E+00  0.00000000000E+00 -0.13820730913E+04  0.13820730913E+04  0.25500000920E-02 0. -1.
    10030    2    1    2    0    0  0.00000000000E+00  0.00000000000E+00 -0.10847632648E+04  0.16793829177E+04  0.12820357419E+04 0.  0.
        2    1    3    3  502    0 -0.23117949272E+03 -0.52923184398E+03 -0.90675449430E+03  0.10750507037E+04  0.25500000920E-02 0. -1.
       -2    1    3    3    0  502  0.23117949272E+03  0.52923184398E+03 -0.17800877054E+03  0.60433221404E+03  0.25500000920E-02 0.  1.
</event>
<event>
 5   0  0.1346593E-03  0.1300282E+04  0.7818609E-02  0.9029341E-01
        1   -1    0    0  501    0  0.00000000000E+00  0.00000000000E+00  0.47619313411E+03  0.47619313414E+03  0.50400001928E-02 0.  1.
       -1   -1    0    0    0  501  0.00000000000E+00  0.00000000000E+00 -0.88763063109E+03  0.88763063110E+03  0.50400001928E-02 0. -1.
    10030    2    1    2    0    0  0.00000000000E+00  0.00000000000E+00 -0.41143749697E+03  0.13638237652E+04  0.13002824496E+04 0.  0.
        2    1    3    3  502    0  0.86378081792E+02 -0.30841134826E+03  0.38770742916E+03  0.50288744604E+03  0.25500000920E-02 0.  1.
       -2    1    3    3    0  502 -0.86378081792E+02  0.30841134826E+03 -0.79914492614E+03  0.86093631921E+03  0.25500000920E-02 0. -1.
</event>
<event>
 5   0  0.1332630E-03  0.1271861E+04  0.7818609E-02  0.9052182E-01
        1   -1    0    0  501    0  0.00000000000E+00  0.00000000000E+00  0.63720958673E+03  0.63720958675E+03  0.50400001928E-02 0. -1.
       -1   -1    0    0    0  501  0.00000000000E+00  0.00000000000E+00 -0.63465402495E+03  0.63465402497E+03  0.50400001928E-02 0.  1.
    10030    2    1    2    0    0  0.00000000000E+00  0.00000000000E+00  0.25555617802E+01  0.12718636117E+04  0.12718610443E+04 0.  0.
        5    1    3    3  502    0  0.34999453846E+03 -0.82024817960E+02 -0.52328146475E+03  0.63487780640E+03  0.46999998093E+01 0.  1.
       -5    1    3    3    0  502 -0.34999453846E+03  0.82024817960E+02  0.52583702653E+03  0.63698580532E+03  0.46999998093E+01 0. -1.
</event>
<event>
 5   0  0.2334946E-03  0.1304295E+04  0.7818609E-02  0.9026166E-01
        2   -1    0    0  501    0  0.00000000000E+00  0.00000000000E+00  0.20874899004E+04  0.20874899004E+04  0.25500000920E-02 0. -1.
       -2   -1    0    0    0  501  0.00000000000E+00  0.00000000000E+00 -0.20373582861E+03  0.20373582863E+03  0.25500000920E-02 0.  1.
    10030    2    1    2    0    0  0.00000000000E+00  0.00000000000E+00  0.18837540718E+04  0.22912257290E+04  0.13042951884E+04 0.  0.
        1    1    3    3  502    0 -0.26151211101E+03  0.59550681615E+03  0.85800544908E+03  0.10766570034E+04  0.50400001928E-02 0.  1.
       -1    1    3    3    0  502  0.26151211101E+03 -0.59550681615E+03  0.10257486227E+04  0.12145687256E+04  0.50400001928E-02 0. -1.
</event>
<event>
 5   0  0.2361043E-03  0.1295971E+04  0.7818609E-02  0.9032766E-01
       -2   -1    0    0    0  501  0.00000000000E+00  0.00000000000E+00  0.25070806851E+03  0.25070806852E+03  0.25500000920E-02 0.  1.
        2   -1    0    0  501    0  0.00000000000E+00  0.00000000000E+00 -0.16747984743E+04  0.16747984743E+04  0.25500000920E-02 0. -1.
    10030    2    1    2    0    0  0.00000000000E+00  0.00000000000E+00 -0.14240904057E+04  0.19255065428E+04  0.12959714359E+04 0.  0.
        2    1    3    3  502    0  0.56964670835E+03 -0.13965948015E+03 -0.11213273591E+04  0.12654553288E+04  0.25500000920E-02 0. -1.
       -2    1    3    3    0  502 -0.56964670835E+03  0.13965948015E+03 -0.30276304661E+03  0.66005121402E+03  0.25500000920E-02 0.  1.
</event>
<event>
 5   0  0.2401211E-03  0.1303439E+04  0.7818609E-02  0.9026842E-01
       -2   -1    0    0    0  501  0.00000000000E+00  0.00000000000E+00  0.15727006144E+03  0.15727006146E+03  0.25500000920E-02 0. -1.
        2   -1    0    0  501    0  0.00000000000E+00  0.00000000000E+00 -0.27006937707E+04  0.27006937707E+04  0.25500000920E-02 0.  1.
    10030    2    1    2    0    0  0.00000000000E+00  0.00000000000E+00 -0.25434237093E+04  0.28579638322E+04  0.13034389518E+04 0.  0.
        4    1    3    3  502    0  0.44307276018E+03 -0.19989759616E+03 -0.22235879046E+04  0.22760969448E+04  0.12699999809E+01 0.  1.
       -4    1    3    3    0  502 -0.44307276018E+03  0.19989759616E+03 -0.31983580467E+03  0.58186688737E+03  0.12699999809E+01 0. -1.
</event>
<event>
 5   0  0.2312105E-03  0.1316450E+04  0.7818609E-02  0.9016621E-01
        2   -1    0    0  501    0  0.00000000000E+00  0.00000000000E+00  0.81354077072E+03  0.81354077072E+03  0.25500000920E-02 0. -1.
       -2   -1    0    0    0  501  0.00000000000E+00  0.00000000000E+00 -0.53256077026E+03  0.53256077026E+03  0.25500000920E-02 0.  1.
    10030    2    1    2    0    0  0.00000000000E+00  0.00000000000E+00  0.28098000046E+03  0.13461015410E+04  0.13164496185E+04 0.  0.
        5    1    3    3  502    0 -0.51581586099E+03 -0.35671739249E+03 -0.63821762161E+02  0.63040352781E+03  0.46999998093E+01 0.  1.
       -5    1    3    3    0  502  0.51581586099E+03  0.35671739249E+03  0.34480176262E+03  0.71569801317E+03  0.46999998093E+01 0. -1.
</event>
<event>
 5   0  0.2401211E-03  0.1296845E+04  0.7818609E-02  0.9032070E-01
        2   -1    0    0  501    0  0.00000000000E+00  0.00000000000E+00  0.12137130917E+04  0.12137130917E+04  0.25500000920E-02 0.  1.
       -2   -1    0    0    0  501  0.00000000000E+00  0.00000000000E+00 -0.34641797952E+03  0.34641797953E+03  0.25500000920E-02 0. -1.
    10030    2    1    2    0    0  0.00000000000E+00  0.00000000000E+00  0.86729511223E+03  0.15601310713E+04  0.12968454603E+04 0.  0.
        4    1    3    3  502    0  0.28934631364E+02 -0.12895366541E+03  0.11973371095E+04  0.12046094917E+04  0.12699999809E+01 0.  1.
       -4    1    3    3    0  502 -0.28934631364E+02  0.12895366541E+03 -0.33004199727E+03  0.35552157962E+03  0.12699999809E+01 0. -1.
</event>
<event>
 5   0  0.2334946E-03  0.1290131E+04  0.7818609E-02  0.9037428E-01
        2   -1    0    0  501    0  0.00000000000E+00  0.00000000000E+00  0.69451792456E+03  0.69451792457E+03  0.25500000920E-02 0. -1.
       -2   -1    0    0    0  501  0.00000000000E+00  0.00000000000E+00 -0.59913446114E+03  0.59913446115E+03  0.25500000920E-02 0.  1.
    10030    2    1    2    0    0  0.00000000000E+00  0.00000000000E+00  0.95383463419E+02  0.12936523857E+04  0.12901311910E+04 0.  0.
        1    1    3    3  502    0 -0.17962762406E+03 -0.12591953286E+03  0.65596738674E+03  0.69167551972E+03  0.50400001928E-02 0. -1.
       -1    1    3    3    0  502  0.17962762406E+03  0.12591953286E+03 -0.56058392333E+03  0.60197686600E+03  0.50400001928E-02 0.  1.
</event>
<event>
 5   0  0.1346593E-03  0.1310403E+04  0.7818609E-02  0.9021356E-01
       -1   -1    0    0    0  501  0.00000000000E+00  0.00000000000E+00  0.46097002650E+03  0.46097002652E+03  0.50400001928E-02 0. -1.
        1   -1    0    0  501    0  0.00000000000E+00  0.00000000000E+00 -0.93127295366E+03  0.93127295367E+03  0.50400001928E-02 0.  1.
    10030    2    1    2    0    0  0.00000000000E+00  0.00000000000E+00 -0.47030292716E+03  0.13922429802E+04  0.13104028665E+04 0.  0.
        2    1    3    3  502    0 -0.10077537970E+02 -0.35931760069E+03  0.34685451003E+03  0.49951851425E+03  0.25500000920E-02 0. -1.
       -2    1    3    3    0  502  0.10077537970E+02  0.35931760069E+03 -0.81715743719E+03  0.89272446595E+03  0.25500000920E-02 0.  1.
</event>
<event>
 5   0  0.2361043E-03  0.1290842E+04  0.7818609E-02  0.9036859E-01
        2   -1    0    0  501    0  0.00000000000E+00  0.00000000000E+00  0.52309928038E+03  0.52309928039E+03  0.25500000920E-02 0. -1.
       -2   -1    0    0    0  501  0.00000000000E+00  0.00000000000E+00 -0.79634698902E+03  0.79634698902E+03  0.25500000920E-02 0.  1.
    10030    2    1    2    0    0  0.00000000000E+00  0.00000000000E+00 -0.27324770864E+03  0.13194462694E+04  0.12908424178E+04 0.  0.
        2    1    3    3  502    0  0.40541661671E+03 -0.38045923503E+03  0.19844586283E+03  0.59033263767E+03  0.25500000920E-02 0. -1.
       -2    1    3    3    0  502 -0.40541661671E+03  0.38045923503E+03 -0.47169357147E+03  0.72911363174E+03  0.25500000920E-02 0.  1.
</event>
<event>
 5   0  0.2478236E-03  0.1290924E+04  0.7818609E-02  0.9036793E-01
       -2   -1    0    0    0  501  0.00000000000E+00  0.00000000000E+00  0.69394847252E+03  0.69394847252E+03  0.25500000920E-02 0. -1.
        2   -1    0    0  501    0  0.00000000000E+00  0.00000000000E+00 -0.60036352714E+03  0.60036352714E+03  0.25500000920E-02 0.  1.
    10030    2    1    2    0    0  0.00000000000E+00  0.00000000000E+00  0.93584945383E+02  0.12943119997E+04  0.12909242466E+04 0.  0.
        3    1    3    3  502    0  0.40706343970E+03 -0.27937018068E+02 -0.45466023955E+03  0.61089857141E+03  0.10100000352E+00 0.  1.
       -3    1    3    3    0  502 -0.40706343970E+03  0.27937018068E+02  0.54824518493E+03  0.68341342826E+03  0.10100000352E+00 0. -1.
</event>
<event>
 5   0  0.2312105E-03  0.1345656E+04  0.7818609E-02  0.8994123E-01
       -2   -1    0    0    0  501  0.00000000000E+00  0.00000000000E+00  0.58151810392E+03  0.58151810393E+03  0.25500000920E-02 0. -1.
        2   -1    0    0  501    0  0.00000000000E+00  0.00000000000E+00 -0.77847543331E+03  0.77847543332E+03  0.25500000920E-02 0.  1.
    10030    2    1    2    0    0  0.00000000000E+00  0.00000000000E+00 -0.19695732939E+03  0.13599935372E+04  0.13456560600E+04 0.  0.
        5    1    3    3  502    0  0.64423415766E+03 -0.18997711560E+03 -0.13822340317E+03  0.68575269123E+03  0.46999998093E+01 0.  1.
       -5    1    3    3    0  502 -0.64423415766E+03  0.18997711560E+03 -0.58733926222E+02  0.67424084602E+03  0.46999998093E+01 0. -1.
</event>
<event>
 5   0  0.2334946E-03  0.1366520E+04  0.7818609E-02  0.8978416E-01
        2   -1    0    0  501    0  0.00000000000E+00  0.00000000000E+00  0.57444956246E+03  0.57444956246E+03  0.25500000920E-02 0. -1.
       -2   -1    0    0    0  501  0.00000000000E+00  0.00000000000E+00 -0.81268083518E+03  0.81268083519E+03  0.25500000920E-02 0.  1.
    10030    2    1    2    0    0  0.00000000000E+00  0.00000000000E+00 -0.23823127272E+03  0.13871303976E+04  0.13665198867E+04 0.  0.
        1    1    3    3  502    0  0.38654309007E+03 -0.35835132878E+03  0.32219772094E+03  0.61777229359E+03  0.50400001928E-02 0. -1.
       -1    1    3    3    0  502 -0.38654309007E+03  0.35835132878E+03 -0.56042899367E+03  0.76935810406E+03  0.50400001928E-02 0.  1.
</event>
<event>
 5   0  0.1324721E-03  0.1311581E+04  0.7818609E-02  0.9020431E-01
       -1   -1    0    0    0  501  0.00000000000E+00  0.00000000000E+00  0.37143397449E+03  0.37143397453E+03  0.50400001928E-02 0.  1.
        1   -1    0    0  501    0  0.00000000000E+00  0.00000000000E+00 -0.11578409474E+04  0.11578409474E+04  0.50400001928E-02 0. -1.
    10030    2    1    2    0    0  0.00000000000E+00  0.00000000000E+00 -0.78640697287E+03  0.15292749219E+04  0.13115814347E+04 0.  0.
        1    1    3    3  502    0 -0.23849970799E+03  0.10707045445E+03  0.30804789345E+03  0.40402932766E+03  0.50400001928E-02 0.  1.
       -1    1    3    3    0  502  0.23849970799E+03 -0.10707045445E+03 -0.10944548663E+04  0.11252455942E+04  0.50400001928E-02 0. -1.
</event>
<event>
 5   0  0.2361043E-03  0.1261308E+04  0.7818609E-02  0.9060824E-01
        2   -1    0    0  501    0  0.00000000000E+00  0.00000000000E+00  0.84560960766E+03  0.84560960767E+03  0.25500000920E-02 0. -1.
       -2   -1    0    0    0  501  0.00000000000E+00  0.00000000000E+00 -0.47034066233E+03  0.47034066234E+03  0.25500000920E-02 0.  1.
    10030    2    1    2    0    0  0.00000000000E+00  0.00000000000E+00  0.37526894534E+03  0.13159502700E+04  0.12613081827E+04 0.  0.
        2    1    3    3  502    0 -0.48061733527E+03 -0.37180416780E+03  0.11522437445E+02  0.60775334530E+03  0.25500000920E-02 0.  1.
       -2    1    3    3    0  502  0.48061733527E+03  0.37180416780E+03  0.36374650789E+03  0.70819692470E+03  0.25500000920E-02 0. -1.
</event>
<event>
 5   0  0.1387622E-03  0.1307798E+04  0.7818609E-02  0.9023404E-01
       -1   -1    0    0    0  501  0.00000000000E+00  0.00000000000E+00  0.11876950992E+04  0.11876950992E+04  0.50400001928E-02 0.  1.
        1   -1    0    0  501    0  0.00000000000E+00  0.00000000000E+00 -0.36001124213E+03  0.36001124216E+03  0.50400001928E-02 0. -1.
    10030    2    1    2    0    0  0.00000000000E+00  0.00000000000E+00  0.82768385703E+03  0.15477063413E+04  0.13077975194E+04 0.  0.
        3    1    3    3  502    0  0.10427433436E+03 -0.43214279897E+03 -0.15367271941E+03  0.47035715196E+03  0.10100000352E+00 0. -1.
       -3    1    3    3    0  502 -0.10427433436E+03  0.43214279897E+03  0.98135657645E+03  0.10773491894E+04  0.10100000352E+00 0.  1.
</event>
<event>
 5   0  0.2312105E-03  0.1290072E+04  0.7818609E-02  0.9037475E-01
        2   -1    0    0  501    0  0.00000000000E+00  0.00000000000E+00  0.66671776539E+03  0.66671776540E+03  0.25500000920E-02 0.  1.
       -2   -1    0    0    0  501  0.00000000000E+00  0.00000000000E+00 -0.62405978008E+03  0.62405978009E+03  0.25500000920E-02 0. -1.
    10030    2    1    2    0    0  0.00000000000E+00  0.00000000000E+00  0.42657985312E+02  0.12907775455E+04  0.12900724663E+04 0.  0.
        5    1    3    3  502    0 -0.45592917353E+03 -0.25140529553E+03 -0.35963311820E+03  0.63279862800E+03  0.46999998093E+01 0. -1.
       -5    1    3    3    0  502  0.45592917353E+03  0.25140529553E+03  0.40229110351E+03  0.65797891749E+03  0.46999998093E+01 0.  1.
</event>
<event>
 5   0  0.1346593E-03  0.1298665E+04  0.7818609E-02  0.9030625E-01
       -1   -1    0    0    0  501  0.00000000000E+00  0.00000000000E+00  0.98881587205E+03  0.98881587207E+03  0.50400001928E-02 0.  1.
        1   -1    0    0  501    0  0.00000000000E+00  0.00000000000E+00 -0.42640152853E+03  0.42640152856E+03  0.50400001928E-02 0. -1.
    10030    2    1    2    0    0  0.00000000000E+00  0.00000000000E+00  0.56241434353E+03  0.14152174006E+04  0.12986648518E+04 0.  0.
        2    1    3    3  502    0  0.11531980087E+03 -0.63018749806E+03  0.39652321008E+03  0.75343586012E+03  0.25500000920E-02 0. -1.
       -2    1    3    3    0  502 -0.11531980087E+03  0.63018749806E+03  0.16589113345E+03  0.66178154050E+03  0.25500000920E-02 0.  1.
</event>
<event>
 5   0  0.2401211E-03  0.1311610E+04  0.7818609E-02  0.9020408E-01
        2   -1    0    0  501    0  0.00000000000E+00  0.00000000000E+00  0.35574952463E+03  0.35574952464E+03  0.25500000920E-02 0.  1.
       -2   -1    0    0    0  501  0.00000000000E+00  0.00000000000E+00 -0.12089414681E+04  0.12089414681E+04  0.25500000920E-02 0. -1.
    10030    2    1    2    0    0  0.00000000000E+00  0.00000000000E+00 -0.85319194350E+03  0.15646909928E+04  0.13116102357E+04 0.  0.
        4    1    3    3  502    0 -0.43184309076E+02 -0.55659425138E+03 -0.16079817013E+02  0.55849997192E+03  0.12699999809E+01 0.  1.
       -4    1    3    3    0  502  0.43184309076E+02  0.55659425138E+03 -0.83711212649E+03  0.10061910208E+04  0.12699999809E+01 0. -1.
</event>
<event>
 5   0  0.1324721E-03  0.1282134E+04  0.7818609E-02  0.9043855E-01
        1   -1    0    0  501    0  0.00000000000E+00  0.00000000000E+00  0.60713234766E+03  0.60713234768E+03  0.50400001928E-02 0.  1.
       -1   -1    0    0    0  501  0.00000000000E+00  0.00000000000E+00 -0.67689804947E+03  0.67689804949E+03  0.50400001928E-02 0. -1.
    10030    2    1    2    0    0  0.00000000000E+00  0.00000000000E+00 -0.69765701810E+02  0.12840303972E+04  0.12821336934E+04 0.  0.
        1    1    3    3  502    0  0.22918351098E+03 -0.46389131123E+03  0.34415620217E+03  0.62142072854E+03  0.50400001928E-02 0.  1.
       -1    1    3    3    0  502 -0.22918351098E+03  0.46389131123E+03 -0.41392190398E+03  0.66260966863E+03  0.50400001928E-02 0. -1.
</event>
<event>
 5   0  0.2334946E-03  0.1286803E+04  0.7818609E-02  0.9040096E-01
        2   -1    0    0  501    0  0.00000000000E+00  0.00000000000E+00  0.15485939318E+04  0.15485939318E+04  0.25500000920E-02 0. -1.
       -2   -1    0    0    0  501  0.00000000000E+00  0.00000000000E+00 -0.26731713799E+03  0.26731713800E+03  0.25500000920E-02 0.  1.
    10030    2    1    2    0    0  0.00000000000E+00  0.00000000000E+00  0.12812767938E+04  0.18159110698E+04  0.12868033226E+04 0.  0.
        1    1    3    3  502    0 -0.20749332163E+03  0.27528774726E+03 -0.12599591696E+03  0.36703105240E+03  0.50400001928E-02 0.  1.
       -1    1    3    3    0  502  0.20749332163E+03 -0.27528774726E+03  0.14072727108E+04  0.14488800174E+04  0.50400001928E-02 0. -1.
</event>
<event>
 5   0  0.1310461E-03  0.1301393E+04  0.7818609E-02  0.9028461E-01
        1   -1    0    0  501    0  0.00000000000E+00  0.00000000000E+00  0.12667981917E+04  0.12667981917E+04  0.50400001928E-02 0. -1.
       -1   -1    0    0    0  501  0.00000000000E+00  0.00000000000E+00 -0.33423297753E+03  0.33423297757E+03  0.50400001928E-02 0.  1.
    10030    2    1    2    0    0  0.00000000000E+00  0.00000000000E+00  0.93256521418E+03  0.16010311693E+04  0.13013926872E+04 0.  0.
        4    1    3    3  502    0 -0.44920913452E+03  0.45785887137E+03  0.60093974176E+03  0.87895038469E+03  0.12699999809E+01 0. -1.
       -4    1    3    3    0  502  0.44920913452E+03 -0.45785887137E+03  0.33162547242E+03  0.72208078460E+03  0.12699999809E+01 0.  1.
</event>
<event>
 5   0  0.9131250E-04  0.1310094E+04  0.7818609E-02  0.9021598E-01
        3   -1    0    0  501    0  0.00000000000E+00  0.00000000000E+00  0.42600289128E+03  0.42600290325E+03  0.10100000352E+00 0. -1.
       -3   -1    0    0    0  501  0.00000000000E+00  0.00000000000E+00 -0.10072391921E+04  0.10072391972E+04  0.10100000352E+00 0.  1.
    10030    2    1    2    0    0  0.00000000000E+00  0.00000000000E+00 -0.58123630087E+03  0.14332421005E+04  0.13100943787E+04 0.  0.
        1    1    3    3  502    0  0.30645276594E+03 -0.55350899301E+03 -0.10495609749E+03  0.64132775203E+03  0.50400001928E-02 0.  1.
       -1    1    3    3    0  502 -0.30645276594E+03  0.55350899301E+03 -0.47628020338E+03  0.79191434843E+03  0.50400001928E-02 0. -1.
</event>
<event>
 5   0  0.2478236E-03  0.1303813E+04  0.7818609E-02  0.9026546E-01
       -2   -1    0    0    0  501  0.00000000000E+00  0.00000000000E+00  0.64664099626E+03  0.64664099626E+03  0.25500000920E-02 0. -1.
        2   -1    0    0  501    0  0.00000000000E+00  0.00000000000E+00 -0.65721537776E+03  0.65721537777E+03  0.25500000920E-02 0.  1.
    10030    2    1    2    0    0  0.00000000000E+00  0.00000000000E+00 -0.10574381506E+02  0.13038563740E+04  0.13038134938E+04 0.  0.
        3    1    3    3  502    0 -0.25866941122E+03 -0.34279018776E+03  0.48520566679E+03  0.64795024995E+03  0.10100000352E+00 0. -1.
       -3    1    3    3    0  502  0.25866941122E+03  0.34279018776E+03 -0.49578004829E+03  0.65590612408E+03  0.10100000352E+00 0.  1.
</event>
<event>
 5   0  0.1387622E-03  0.1322030E+04  0.7818609E-02  0.9012275E-01
        1   -1    0    0  501    0  0.00000000000E+00  0.00000000000E+00  0.94573039242E+03  0.94573039244E+03  0.50400001928E-02 0. -1.
       -1   -1    0    0    0  501  0.00000000000E+00  0.00000000000E+00 -0.46201425513E+03  0.46201425516E+03  0.50400001928E-02 0.  1.
    10030    2    1    2    0    0  0.00000000000E+00  0.00000000000E+00  0.48371613729E+03  0.14077446476E+04  0.13220301401E+04 0.  0.
        3    1    3    3  502    0 -0.51011621866E+01  0.62055886799E+03 -0.54485989758E+00  0.62058008151E+03  0.10100000352E+00 0.  1.
       -3    1    3    3    0  502  0.51011621866E+01 -0.62055886799E+03  0.48426099719E+03  0.78716456608E+03  0.10100000352E+00 0. -1.
</event>
<event>
 5   0  0.2334946E-03  0.1298082E+04  0.7818609E-02  0.9031088E-01
       -2   -1    0    0    0  501  0.00000000000E+00  0.00000000000E+00  0.26380846490E+03  0.26380846491E+03  0.25500000920E-02 0.  1.
        2   -1    0    0  501    0  0.00000000000E+00  0.00000000000E+00 -0.15968180657E+04  0.15968180657E+04  0.25500000920E-02 0. -1.
    10030    2    1    2    0    0  0.00000000000E+00  0.00000000000E+00 -0.13330096008E+04  0.18606265307E+04  0.12980818505E+04 0.  0.
        1    1    3    3  502    0  0.79269908922E+02  0.32760051462E+03 -0.14615364103E+04  0.14998981613E+04  0.50400001928E-02 0. -1.
       -1    1    3    3    0  502 -0.79269908922E+02 -0.32760051462E+03  0.12852680950E+03  0.36072836931E+03  0.50400001928E-02 0.  1.
</event>
<event>
 5   0  0.1310461E-03  0.1285616E+04  0.7818609E-02  0.9041050E-01
       -1   -1    0    0    0  501  0.00000000000E+00  0.00000000000E+00  0.41600878516E+03  0.41600878519E+03  0.50400001928E-02 0.  1.
        1   -1    0    0  501    0  0.00000000000E+00  0.00000000000E+00 -0.99325403648E+03  0.99325403649E+03  0.50400001928E-02 0. -1.
    10030    2    1    2    0    0  0.00000000000E+00  0.00000000000E+00 -0.57724525131E+03  0.14092628217E+04  0.12856164360E+04 0.  0.
        4    1    3    3  502    0 -0.10352647418E+03  0.45245094921E+03 -0.77610857536E+03  0.90430952994E+03  0.12699999809E+01 0. -1.
       -4    1    3    3    0  502  0.10352647418E+03 -0.45245094921E+03  0.19886332404E+03  0.50495329174E+03  0.12699999809E+01 0.  1.
</event>
<event>
 5   0  0.2478236E-03  0.1337550E+04  0.7818609E-02  0.9000307E-01
       -2   -1    0    0    0  501  0.00000000000E+00  0.00000000000E+00  0.45584152621E+03  0.45584152621E+03  0.25500000920E-02 0.  1.
        2   -1    0    0  501    0  0.00000000000E+00  0.00000000000E+00 -0.98117366862E+03  0.98117366862E+03  0.25500000920E-02 0. -1.
    10030    2    1    2    0    0  0.00000000000E+00  0.00000000000E+00 -0.52533214241E+03  0.14370151948E+04  0.13375495544E+04 0.  0.
        3    1    3    3  502    0 -0.49795130395E+03 -0.20522094163E+03  0.16328718451E+03  0.56279112539E+03  0.10100000352E+00 0.  1.
       -3    1    3    3    0  502  0.49795130395E+03  0.20522094163E+03 -0.68861932692E+03  0.87422406945E+03  0.10100000352E+00 0. -1.
</event>
<event>
 5   0  0.1310461E-03  0.1311275E+04  0.7818609E-02  0.9020671E-01
       -1   -1    0    0    0  501  0.00000000000E+00  0.00000000000E+00  0.43663944912E+03  0.43663944915E+03  0.50400001928E-02 0. -1.
        1   -1    0    0  501    0  0.00000000000E+00  0.00000000000E+00 -0.98447479959E+03  0.98447479960E+03  0.50400001928E-02 0.  1.
    10030    2    1    2    0    0  0.00000000000E+00  0.00000000000E+00 -0.54783535047E+03  0.14211142488E+04  0.13112750043E+04 0.  0.
        4    1    3    3  502    0 -0.51957845121E+03  0.27211755812E+03 -0.59146123523E+03  0.83296922997E+03  0.12699999809E+01 0.  1.
       -4    1    3    3    0  502  0.51957845121E+03 -0.27211755812E+03  0.43625884761E+02  0.58814501879E+03  0.12699999809E+01 0. -1.
</event>
<event>
 5   0  0.1332630E-03  0.1351179E+04  0.7818609E-02  0.8989936E-01
        1   -1    0    0  501    0  0.00000000000E+00  0.00000000000E+00  0.86589520055E+03  0.86589520056E+03  0.50400001928E-02 0.  1.
       -1   -1    0    0    0  501  0.00000000000E+00  0.00000000000E+00 -0.52710886198E+03  0.52710886200E+03  0.50400001928E-02 0. -1.
    10030    2    1    2    0    0  0.00000000000E+00  0.00000000000E+00  0.33878633857E+03  0.13930040626E+04  0.13511787947E+04 0.  0.
        5    1    3    3  502    0  0.14495103562E+03  0.34516487097E+01 -0.51086210542E+03  0.53106016360E+03  0.46999998093E+01 0. -1.
       -5    1    3    3    0  502 -0.14495103562E+03 -0.34516487097E+01  0.84964844399E+03  0.86194389897E+03  0.46999998093E+01 0.  1.
</event>
<event>
 5   0  0.1310461E-03  0.1294259E+04  0.7818609E-02  0.9034130E-01
        1   -1    0    0  501    0  0.00000000000E+00  0.00000000000E+00  0.21156818434E+04  0.21156818434E+04  0.50400001928E-02 0.  1.
       -1   -1    0    0    0  501  0.00000000000E+00  0.00000000000E+00 -0.19793929001E+03  0.19793929007E+03  0.50400001928E-02 0. -1.
    10030    2    1    2    0    0  0.00000000000E+00  0.00000000000E+00  0.19177425534E+04  0.23136211335E+04  0.12942589572E+04 0.  0.
        4    1    3    3  502    0  0.59762704141E+03 -0.24813710140E+03  0.97084253690E+03  0.11667334512E+04  0.12699999809E+01 0.  1.
       -4    1    3    3    0  502 -0.59762704141E+03  0.24813710140E+03  0.94690001650E+03  0.11468876823E+04  0.12699999809E+01 0. -1.
</event>
<event>
 5   0  0.1387622E-03  0.1291562E+04  0.7818609E-02  0.9036283E-01
       -1   -1    0    0    0  501  0.00000000000E+00  0.00000000000E+00  0.43203493042E+03  0.43203493045E+03  0.50400001928E-02 0. -1.
        1   -1    0    0  501    0  0.00000000000E+00  0.00000000000E+00 -0.96527678357E+03  0.96527678359E+03  0.50400001928E-02 0.  1.
    10030    2    1    2    0    0  0.00000000000E+00  0.00000000000E+00 -0.53324185315E+03  0.13973117140E+04  0.12915622913E+04 0.  0.
        3    1    3    3  502    0  0.30769716433E+03  0.53591669526E+03 -0.46945205510E+03  0.77606023699E+03  0.10100000352E+00 0.  1.
       -3    1    3    3    0  502 -0.30769716433E+03 -0.53591669526E+03 -0.63789798049E+02  0.62125147705E+03  0.10100000352E+00 0. -1.
</event>
<event>
 5   0  0.2361043E-03  0.1296572E+04  0.7818609E-02  0.9032288E-01
       -2   -1    0    0    0  501  0.00000000000E+00  0.00000000000E+00  0.15134969902E+04  0.15134969902E+04  0.25500000920E-02 0.  1.
        2   -1    0    0  501    0  0.00000000000E+00  0.00000000000E+00 -0.27768450013E+03  0.27768450014E+03  0.25500000920E-02 0. -1.
    10030    2    1    2    0    0  0.00000000000E+00  0.00000000000E+00  0.12358124901E+04  0.17911814903E+04  0.12965718726E+04 0.  0.
        2    1    3    3  502    0 -0.26371655943E+03  0.43378066833E+03  0.60908719238E+02  0.51129440053E+03  0.25500000920E-02 0. -1.
       -2    1    3    3    0  502  0.26371655943E+03 -0.43378066833E+03  0.11749037708E+04  0.12798870898E+04  0.25500000920E-02 0.  1.
</event>
<event>
 5   0  0.2401211E-03  0.1331534E+04  0.7818609E-02  0.9004925E-01
       -2   -1    0    0    0  501  0.00000000000E+00  0.00000000000E+00  0.47588777590E+03  0.47588777591E+03  0.25500000920E-02 0.  1.
        2   -1    0    0  501    0  0.00000000000E+00  0.00000000000E+00 -0.93140823684E+03  0.93140823684E+03  0.25500000920E-02 0. -1.
    10030    2    1    2    0    0  0.00000000000E+00  0.00000000000E+00 -0.45552046094E+03  0.14072960127E+04  0.13315341442E+04 0.  0.
        4    1    3    3  502    0  0.35266848032E+03  0.41978305040E+03 -0.62694231292E+03  0.83285721648E+03  0.12699999809E+01 0. -1.
       -4    1    3    3    0  502 -0.35266848032E+03 -0.41978305040E+03  0.17142185199E+03  0.57443879626E+03  0.12699999809E+01 0.  1.
</event>
<event>
 5   0  0.2312105E-03  0.1301373E+04  0.7818609E-02  0.9028477E-01
        2   -1    0    0  501    0  0.00000000000E+00  0.00000000000E+00  0.13484888922E+04  0.13484888922E+04  0.25500000920E-02 0. -1.
       -2   -1    0    0    0  501  0.00000000000E+00  0.00000000000E+00 -0.31397601381E+03  0.31397601382E+03  0.25500000920E-02 0.  1.
    10030    2    1    2    0    0  0.00000000000E+00  0.00000000000E+00  0.10345128784E+04  0.16624649061E+04  0.13013733777E+04 0.  0.
        5    1    3    3  502    0  0.63150251668E+03  0.11314614143E+03  0.37864304716E+03  0.74497659363E+03  0.46999998093E+01 0.  1.
       -5    1    3    3    0  502 -0.63150251668E+03 -0.11314614143E+03  0.65586983126E+03  0.91748831243E+03  0.46999998093E+01 0. -1.
</event>
<event>
 5   0  0.2312105E-03  0.1312406E+04  0.7818609E-02  0.9019784E-01
       -2   -1    0    0    0  501  0.00000000000E+00  0.00000000000E+00  0.65874565666E+03  0.65874565667E+03  0.25500000920E-02 0. -1.
        2   -1    0    0  501    0  0.00000000000E+00  0.00000000000E+00 -0.65367060953E+03  0.65367060953E+03  0.25500000920E-02 0.  1.
    10030    2    1    2    0    0  0.00000000000E+00  0.00000000000E+00  0.50750471330E+01  0.13124162662E+04  0.13124064537E+04 0.  0.
        5    1    3    3  502    0 -0.46689536244E+03 -0.18743320429E+03 -0.41872338491E+03  0.65457913853E+03  0.46999998093E+01 0.  1.
       -5    1    3    3    0  502  0.46689536244E+03  0.18743320429E+03  0.42379843204E+03  0.65783712766E+03  0.46999998093E+01 0. -1.
</event>
<event>
 5   0  0.1346593E-03  0.1260048E+04  0.7818609E-02  0.9061862E-01
       -1   -1    0    0    0  501  0.00000000000E+00  0.00000000000E+00  0.82459604348E+03  0.82459604349E+03  0.50400001928E-02 0. -1.
        1   -1    0    0  501    0  0.00000000000E+00  0.00000000000E+00 -0.48136296629E+03  0.48136296632E+03  0.50400001928E-02 0.  1.
    10030    2    1    2    0    0  0.00000000000E+00  0.00000000000E+00  0.34323307719E+03  0.13059590098E+04  0.12600476142E+04 0.  0.
        2    1    3    3  502    0 -0.30179525728E+03 -0.36633220748E+03  0.60101938198E+03  0.76583546607E+03  0.25500000920E-02 0.  1.
       -2    1    3    3    0  502  0.30179525728E+03  0.36633220748E+03 -0.25778630480E+03  0.54012354374E+03  0.25500000920E-02 0. -1.
</event>
<event>
 5   0  0.1324721E-03  0.1313536E+04  0.7818609E-02  0.9018900E-01
        1   -1    0    0  501    0  0.00000000000E+00  0.00000000000E+00  0.95461906348E+03  0.95461906349E+03  0.50400001928E-02 0. -1.
       -1   -1    0    0    0  501  0.00000000000E+00  0.00000000000E+00 -0.45184922154E+03  0.45184922157E+03  0.50400001928E-02 0.  1.
    10030    2    1    2    0    0  0.00000000000E+00  0.00000000000E+00  0.50276984193E+03  0.14064682851E+04  0.13135355050E+04 0.  0.
        1    1    3    3  502    0  0.20417376998E+03 -0.80423020114E+02 -0.41143369131E+03  0.46629655036E+03  0.50400001928E-02 0.  1.
       -1    1    3    3    0  502 -0.20417376998E+03  0.80423020114E+02  0.91420353324E+03  0.94017173470E+03  0.50400001928E-02 0. -1.
</event>
<event>
 5   0  0.2478236E-03  0.1272589E+04  0.7818609E-02  0.9051589E-01
        2   -1    0    0  501    0  0.00000000000E+00  0.00000000000E+00  0.53195169323E+03  0.53195169324E+03  0.25500000920E-02 0.  1.
       -2   -1    0    0    0  501  0.00000000000E+00  0.00000000000E+00 -0.76110391093E+03  0.76110391093E+03  0.25500000920E-02 0. -1.
    10030    2    1    2    0    0  0.00000000000E+00  0.00000000000E+00 -0.22915221770E+03  0.12930556042E+04  0.12725887225E+04 0.  0.
        3    1    3    3  502    0 -0.46315363549E+03 -0.13995898407E+03  0.30531415604E+03  0.57211585485E+03  0.10100000352E+00 0.  1.
       -3    1    3    3    0  502  0.46315363549E+03  0.13995898407E+03 -0.53446637374E+03  0.72093974932E+03  0.10100000352E+00 0. -1.
</event>
<event>
 5   0  0.2334946E-03  0.1281496E+04  0.7818609E-02  0.9044369E-01
        2   -1    0    0  501    0  0.00000000000E+00  0.00000000000E+00  0.16154312597E+04  0.16154312597E+04  0.25500000920E-02 0. -1.
       -2   -1    0    0    0  501  0.00000000000E+00  0.00000000000E+00 -0.25414748163E+03  0.25414748165E+03  0.25500000920E-02 0.  1.
    10030    2    1    2    0    0  0.00000000000E+00  0.00000000000E+00  0.13612837781E+04  0.18695787414E+04  0.12814956675E+04 0.  0.
        1    1    3    3  502    0  0.57278404736E+03  0.25454906001E+03  0.87463218281E+03  0.10760382168E+04  0.50400001928E-02 0. -1.
       -1    1    3    3    0  502 -0.57278404736E+03 -0.25454906001E+03  0.48665159528E+03  0.79354052454E+03  0.50400001928E-02 0.  1.
</event>
<event>
 5   0  0.9131250E-04  0.1335213E+04  0.7818609E-02  0.9002098E-01
        3   -1    0    0  501    0  0.00000000000E+00  0.00000000000E+00  0.65842370044E+03  0.65842370818E+03  0.10100000352E+00 0.  1.
       -3   -1    0    0    0  501  0.00000000000E+00  0.00000000000E+00 -0.67691754321E+03  0.67691755075E+03  0.10100000352E+00 0. -1.
    10030    2    1    2    0    0  0.00000000000E+00  0.00000000000E+00 -0.18493842775E+02  0.13353412589E+04  0.13352131873E+04 0.  0.
        4    1    3    3  502    0  0.48334366230E+03  0.15414443228E+03 -0.44324171015E+03  0.67368125135E+03  0.12699999809E+01 0. -1.
       -4    1    3    3    0  502 -0.48334366230E+03 -0.15414443228E+03  0.42474786738E+03  0.66166000758E+03  0.12699999809E+01 0.  1.
</event>
<event>
 5   0  0.2312105E-03  0.1310050E+04  0.7818609E-02  0.9021633E-01
       -2   -1    0    0    0  501  0.00000000000E+00  0.00000000000E+00  0.80109950366E+03  0.80109950366E+03  0.25500000920E-02 0. -1.
        2   -1    0    0  501    0  0.00000000000E+00  0.00000000000E+00 -0.53558591909E+03  0.53558591910E+03  0.25500000920E-02 0.  1.
    10030    2    1    2    0    0  0.00000000000E+00  0.00000000000E+00  0.26551358457E+03  0.13366854228E+04  0.13100497914E+04 0.  0.
        5    1    3    3  502    0 -0.36681489421E+03 -0.35039406352E+03 -0.29004283656E+03  0.58435956688E+03  0.46999998093E+01 0.  1.
       -5    1    3    3    0  502  0.36681489421E+03  0.35039406352E+03  0.55555642113E+03  0.75232585588E+03  0.46999998093E+01 0. -1.
</event>
<event>
 5   0  0.1387622E-03  0.1297897E+04  0.7818609E-02  0.9031234E-01
       -1   -1    0    0    0  501  0.00000000000E+00  0.00000000000E+00  0.53638281808E+03  0.53638281810E+03  0.50400001928E-02 0.  1.
        1   -1    0    0  501    0  0.00000000000E+00  0.00000000000E+00 -0.78513763716E+03  0.78513763718E+03  0.50400001928E-02 0. -1.
    10030    2    1    2    0    0  0.00000000000E+00  0.00000000000E+00 -0.24875481908E+03  0.13215204553E+04  0.12978972816E+04 0.  0.
        3    1    3    3  502    0  0.16239530925E+03  0.44725371740E+03 -0.57368707989E+03  0.74533549495E+03  0.10100000352E+00 0. -1.
       -3    1    3    3    0  502 -0.16239530925E+03 -0.44725371740E+03  0.32493226081E+03  0.57618496033E+03  0.10100000352E+00 0.  1.
</event>
<event>
 5   0  0.9131250E-04  0.1289736E+04  0.7818609E-02  0.9037744E-01
        3   -1    0    0  501    0  0.00000000000E+00  0.00000000000E+00  0.35514189973E+03  0.35514191409E+03  0.10100000352E+00 0. -1.
       -3   -1    0    0    0  501  0.00000000000E+00  0.00000000000E+00 -0.11709536946E+04  0.11709536990E+04  0.10100000352E+00 0.  1.
    10030    2    1    2    0    0  0.00000000000E+00  0.00000000000E+00 -0.81581179492E+03  0.15260956131E+04  0.12897359945E+04 0.  0.
        3    1    3    3  502    0 -0.57674703824E+03  0.27611775194E+03 -0.50673884201E+03  0.81588137818E+03  0.10100000352E+00 0.  1.
       -3    1    3    3    0  502  0.57674703824E+03 -0.27611775194E+03 -0.30907295291E+03  0.71021423491E+03  0.10100000352E+00 0. -1.
</event>
<event>
 5   0  0.2361043E-03  0.1262885E+04  0.7818609E-02  0.9059527E-01
        2   -1    0    0  501    0  0.00000000000E+00  0.00000000000E+00  0.19857340573E+04  0.19857340573E+04  0.25500000920E-02 0.  1.
       -2   -1    0    0    0  501  0.00000000000E+00  0.00000000000E+00 -0.20079207977E+03  0.20079207979E+03  0.25500000920E-02 0. -1.
    10030    2    1    2    0    0  0.00000000000E+00  0.00000000000E+00  0.17849419776E+04  0.21865261371E+04  0.12628850641E+04 0.  0.
        2    1    3    3  502    0 -0.46313730915E+03  0.39472640752E+00  0.16355982303E+04  0.16999052602E+04  0.25500000920E-02 0.  1.
       -2    1    3    3    0  502  0.46313730915E+03 -0.39472640752E+00  0.14934374728E+03  0.48662087686E+03  0.25500000920E-02 0. -1.
</event>
<event>
 5   0  0.1324721E-03  0.1312574E+04  0.7818609E-02  0.9019653E-01
       -1   -1    0    0    0  501  0.00000000000E+00  0.00000000000E+00  0.26669799624E+03  0.26669799629E+03  0.50400001928E-02 0. -1.
        1   -1    0    0  501    0  0.00000000000E+00  0.00000000000E+00 -0.16149836810E+04  0.16149836810E+04  0.50400001928E-02 0.  1.
    10030    2    1    2    0    0  0.00000000000E+00  0.00000000000E+00 -0.13482856847E+04  0.18816816773E+04  0.13125744348E+04 0.  0.
        1    1    3    3  502    0 -0.11625741109E+03  0.17883662060E+03 -0.15639042775E+04  0.15783836389E+04  0.50400001928E-02 0.  1.
       -1    1    3    3    0  502  0.11625741109E+03 -0.17883662060E+03  0.21561859274E+03  0.30329803834E+03  0.50400001928E-02 0. -1.
</event>
<event>
 5   0  0.2478236E-03  0.1301967E+04  0.7818609E-02  0.9028007E-01
       -2   -1    0    0    0  501  0.00000000000E+00  0.00000000000E+00  0.63350546051E+03  0.63350546051E+03  0.25500000920E-02 0. -1.
        2   -1    0    0  501    0  0.00000000000E+00  0.00000000000E+00 -0.66894361143E+03  0.66894361143E+03  0.25500000920E-02 0.  1.
    10030    2    1    2    0    0  0.00000000000E+00  0.00000000000E+00 -0.35438150920E+02  0.13024490719E+04  0.13019668669E+04 0.  0.
        3    1    3    3  502    0  0.40863922515E+03  0.20642647084E+02 -0.52423385327E+03  0.66500622428E+03  0.10100000352E+00 0.  1.
       -3    1    3    3    0  502 -0.40863922515E+03 -0.20642647084E+02  0.48879570235E+03  0.63744284767E+03  0.10100000352E+00 0. -1.
</event>
<event>
 5   0  0.2361043E-03  0.9900694E+03  0.7818609E-02  0.9319504E-01
        2   -1    0    0  501    0  0.00000000000E+00  0.00000000000E+00  0.48662638669E+03  0.48662638669E+03  0.25500000920E-02 0.  1.
       -2   -1    0    0    0  501  0.00000000000E+00  0.00000000000E+00 -0.50358826990E+03  0.50358826990E+03  0.25500000920E-02 0. -1.
    10030    2    1    2    0    0  0.00000000000E+00  0.00000000000E+00 -0.16961883209E+02  0.99021465660E+03  0.99006937164E+03 0.  0.
        2    1    3    3  502    0  0.21508731773E+03 -0.44163414723E+03  0.52814803248E+02  0.49405736276E+03  0.25500000920E-02 0.  1.
       -2    1    3    3    0  502 -0.21508731773E+03  0.44163414723E+03 -0.69776686457E+02  0.49615729384E+03  0.25500000920E-02 0. -1.
</event>
<event>
 5   0  0.1324721E-03  0.1309753E+04  0.7818609E-02  0.9021867E-01
       -1   -1    0    0    0  501  0.00000000000E+00  0.00000000000E+00  0.42547503429E+03  0.42547503432E+03  0.50400001928E-02 0. -1.
        1   -1    0    0  501    0  0.00000000000E+00  0.00000000000E+00 -0.10079631028E+04  0.10079631028E+04  0.50400001928E-02 0.  1.
    10030    2    1    2    0    0  0.00000000000E+00  0.00000000000E+00 -0.58248806849E+03  0.14334381371E+04  0.13097528557E+04 0.  0.
        1    1    3    3  502    0 -0.21029814832E+03  0.47466892379E+03  0.14560825275E+03  0.53920094742E+03  0.50400001928E-02 0. -1.
       -1    1    3    3    0  502  0.21029814832E+03 -0.47466892379E+03 -0.72809632124E+03  0.89423718969E+03  0.50400001928E-02 0.  1.
</event>
<event>
 5   0  0.2312105E-03  0.1307506E+04  0.7818609E-02  0.9023634E-01
        2   -1    0    0  501    0  0.00000000000E+00  0.00000000000E+00  0.23310124732E+04  0.23310124732E+04  0.25500000920E-02 0.  1.
       -2   -1    0    0    0  501  0.00000000000E+00  0.00000000000E+00 -0.18335068574E+03  0.18335068576E+03  0.25500000920E-02 0. -1.
    10030    2    1    2    0    0  0.00000000000E+00  0.00000000000E+00  0.21476617875E+04  0.25143631590E+04  0.13075056183E+04 0.  0.
        5    1    3    3  502    0 -0.67105242743E+02  0.22870281281E+03 -0.96787131785E+02  0.25728958212E+03  0.46999998093E+01 0. -1.
       -5    1    3    3    0  502  0.67105242743E+02 -0.22870281281E+03  0.22444489192E+04  0.22570735768E+04  0.46999998093E+01 0.  1.
</event>
<event>
 5   0  0.2361043E-03  0.1241474E+04  0.7818609E-02  0.9077310E-01
       -2   -1    0    0    0  501  0.00000000000E+00  0.00000000000E+00  0.54307595497E+03  0.54307595498E+03  0.25500000920E-02 0.  1.
        2   -1    0    0  501    0  0.00000000000E+00  0.00000000000E+00 -0.70950332754E+03  0.70950332755E+03  0.25500000920E-02 0. -1.
    10030    2    1    2    0    0  0.00000000000E+00  0.00000000000E+00 -0.16642737257E+03  0.12525792825E+04  0.12414736359E+04 0.  0.
        2    1    3    3  502    0  0.17337713808E+03  0.28448122022E+03  0.44523207329E+03  0.55607624995E+03  0.25500000920E-02 0.  1.
       -2    1    3    3    0  502 -0.17337713808E+03 -0.28448122022E+03 -0.61165944586E+03  0.69650303257E+03  0.25500000920E-02 0. -1.
</event>
<event>
 5   0  0.2312105E-03  0.1261674E+04  0.7818609E-02  0.9060523E-01
       -2   -1    0    0    0  501  0.00000000000E+00  0.00000000000E+00  0.49754557583E+03  0.49754557584E+03  0.25500000920E-02 0. -1.
        2   -1    0    0  501    0  0.00000000000E+00  0.00000000000E+00 -0.79983640556E+03  0.79983640556E+03  0.25500000920E-02 0.  1.
    10030    2    1    2    0    0  0.00000000000E+00  0.00000000000E+00 -0.30229082973E+03  0.12973819814E+04  0.12616735948E+04 0.  0.
        5    1    3    3  502    0  0.47023251949E+03 -0.10208318086E+03 -0.57060378569E+03  0.74642505882E+03  0.46999998093E+01 0.  1.
       -5    1    3    3    0  502 -0.47023251949E+03  0.10208318086E+03  0.26831295596E+03  0.55095692258E+03  0.46999998093E+01 0. -1.
</event>
<event>
 5   0  0.1324721E-03  0.1300924E+04  0.7818609E-02  0.9028833E-01
        1   -1    0    0  501    0  0.00000000000E+00  0.00000000000E+00  0.75207948492E+03  0.75207948493E+03  0.50400001928E-02 0. -1.
       -1   -1    0    0    0  501  0.00000000000E+00  0.00000000000E+00 -0.56257461497E+03  0.56257461500E+03  0.50400001928E-02 0.  1.
    10030    2    1    2    0    0  0.00000000000E+00  0.00000000000E+00  0.18950486994E+03  0.13146540999E+04  0.13009240204E+04 0.  0.
        1    1    3    3  502    0 -0.18828122839E+03 -0.57822518863E+03  0.32807149043E+03  0.69095954483E+03  0.50400001928E-02 0. -1.
       -1    1    3    3    0  502  0.18828122839E+03  0.57822518863E+03 -0.13856662049E+03  0.62369455510E+03  0.50400001928E-02 0.  1.
</event>
<event>
 5   0  0.2401211E-03  0.1299452E+04  0.7818609E-02  0.9030000E-01
       -2   -1    0    0    0  501  0.00000000000E+00  0.00000000000E+00  0.27065994510E+03  0.27065994511E+03  0.25500000920E-02 0.  1.
        2   -1    0    0  501    0  0.00000000000E+00  0.00000000000E+00 -0.15596825698E+04  0.15596825698E+04  0.25500000920E-02 0. -1.
    10030    2    1    2    0    0  0.00000000000E+00  0.00000000000E+00 -0.12890226247E+04  0.18303425149E+04  0.12994515747E+04 0.  0.
        4    1    3    3  502    0 -0.39251097070E+03 -0.37248094545E+03 -0.13795186736E+03  0.55842568660E+03  0.12699999809E+01 0.  1.
       -4    1    3    3    0  502  0.39251097070E+03  0.37248094545E+03 -0.11510707573E+04  0.12719168283E+04  0.12699999809E+01 0. -1.
</event>
<event>
 5   0  0.2478236E-03  0.1309884E+04  0.7818609E-02  0.9021764E-01
       -2   -1    0    0    0  501  0.00000000000E+00  0.00000000000E+00  0.76451496441E+03  0.76451496441E+03  0.25500000920E-02 0. -1.
        2   -1    0    0  501    0  0.00000000000E+00  0.00000000000E+00 -0.56107307203E+03  0.56107307203E+03  0.25500000920E-02 0.  1.
    10030    2    1    2    0    0  0.00000000000E+00  0.00000000000E+00  0.20344189238E+03  0.13255880364E+04  0.13098835974E+04 0.  0.
        3    1    3    3  502    0 -0.54239083591E+02  0.61146818587E+03 -0.12929986989E+03  0.62733857452E+03  0.10100000352E+00 0.  1.
       -3    1    3    3    0  502  0.54239083591E+02 -0.61146818587E+03  0.33274176227E+03  0.69824946193E+03  0.10100000352E+00 0. -1.
</event>
<event>
 5   0  0.2312105E-03  0.1293371E+04  0.7818609E-02  0.9034838E-01
        2   -1    0    0  501    0  0.00000000000E+00  0.00000000000E+00  0.11979521902E+04  0.11979521902E+04  0.25500000920E-02 0.  1.
       -2   -1    0    0    0  501  0.00000000000E+00  0.00000000000E+00 -0.34909763405E+03  0.34909763406E+03  0.25500000920E-02 0. -1.
    10030    2    1    2    0    0  0.00000000000E+00  0.00000000000E+00  0.84885455619E+03  0.15470498243E+04  0.12933712156E+04 0.  0.
        5    1    3    3  502    0 -0.36118028779E+03  0.46734331359E+03  0.73935284435E+03  0.94632219222E+03  0.46999998093E+01 0. -1.
       -5    1    3    3    0  502  0.36118028779E+03 -0.46734331359E+03  0.10950171184E+03  0.60072763208E+03  0.46999998093E+01 0.  1.
</event>
<event>
 5   0  0.2478236E-03  0.1303036E+04  0.7818609E-02  0.9027161E-01
       -2   -1    0    0    0  501  0.00000000000E+00  0.00000000000E+00  0.47811812574E+03  0.47811812575E+03  0.25500000920E-02 0.  1.
        2   -1    0    0  501    0  0.00000000000E+00  0.00000000000E+00 -0.88780485954E+03  0.88780485955E+03  0.25500000920E-02 0. -1.
    10030    2    1    2    0    0  0.00000000000E+00  0.00000000000E+00 -0.40968673380E+03  0.13659229853E+04  0.13030358329E+04 0.  0.
        3    1    3    3  502    0  0.63361991824E+03  0.72613258573E+02 -0.65268156962E+02  0.64109814274E+03  0.10100000352E+00 0.  1.
       -3    1    3    3    0  502 -0.63361991824E+03 -0.72613258573E+02 -0.34441857684E+03  0.72482484255E+03  0.10100000352E+00 0. -1.
</event>
<event>
 5   0  0.1387622E-03  0.1298516E+04  0.7818609E-02  0.9030743E-01
       -1   -1    0    0    0  501  0.00000000000E+00  0.00000000000E+00  0.39496264627E+03  0.39496264630E+03  0.50400001928E-02 0. -1.
        1   -1    0    0  501    0  0.00000000000E+00  0.00000000000E+00 -0.10672810140E+04  0.10672810140E+04  0.50400001928E-02 0.  1.
    10030    2    1    2    0    0  0.00000000000E+00  0.00000000000E+00 -0.67231836771E+03  0.14622436603E+04  0.12985162820E+04 0.  0.
        3    1    3    3  502    0 -0.24325687789E+03 -0.44033739865E+03 -0.79835651750E+03  0.94363344183E+03  0.10100000352E+00 0.  1.
       -3    1    3    3    0  502  0.24325687789E+03  0.44033739865E+03  0.12603814980E+03  0.51861021846E+03  0.10100000352E+00 0. -1.
</event>
<event>
 5   0  0.1387622E-03  0.1302651E+04  0.7818609E-02  0.9027466E-01
        1   -1    0    0  501    0  0.00000000000E+00  0.00000000000E+00  0.64493439870E+03  0.64493439872E+03  0.50400001928E-02 0. -1.
       -1   -1    0    0    0  501  0.00000000000E+00  0.00000000000E+00 -0.65777968338E+03  0.65777968340E+03  0.50400001928E-02 0.  1.
    10030    2    1    2    0    0  0.00000000000E+00  0.00000000000E+00 -0.12845284676E+02  0.13027140821E+04  0.13026507507E+04 0.  0.
        3    1    3    3  502    0  0.51285751535E+02 -0.64052095298E+03  0.10001286080E+03  0.65030754420E+03  0.10100000352E+00 0.  1.
       -3    1    3    3    0  502 -0.51285751535E+02  0.64052095298E+03 -0.11285814548E+03  0.65240653792E+03  0.10100000352E+00 0. -1.
</event>
<event>
 5   0  0.2401211E-03  0.1286157E+04  0.7818609E-02  0.9040615E-01
        2   -1    0    0  501    0  0.00000000000E+00  0.00000000000E+00  0.19348896939E+04  0.19348896939E+04  0.25500000920E-02 0. -1.
       -2   -1    0    0    0  501  0.00000000000E+00  0.00000000000E+00 -0.21373314629E+03  0.21373314630E+03  0.25500000920E-02 0.  1.
    10030    2    1    2    0    0  0.00000000000E+00  0.00000000000E+00  0.17211565477E+04  0.21486228402E+04  0.12861571631E+04 0.  0.
        4    1    3    3  502    0 -0.34915292548E+03 -0.39433476302E+03  0.24418163483E+03  0.58054625516E+03  0.12699999809E+01 0.  1.
       -4    1    3    3    0  502  0.34915292548E+03  0.39433476302E+03  0.14769749128E+04  0.15680765851E+04  0.12699999809E+01 0. -1.
</event>
<event>
 5   0  0.1332630E-03  0.1287633E+04  0.7818609E-02  0.9039431E-01
        1   -1    0    0  501    0  0.00000000000E+00  0.00000000000E+00  0.17195097118E+04  0.17195097118E+04  0.50400001928E-02 0.  1.
       -1   -1    0    0    0  501  0.00000000000E+00  0.00000000000E+00 -0.24105674340E+03  0.24105674345E+03  0.50400001928E-02 0. -1.
    10030    2    1    2    0    0  0.00000000000E+00  0.00000000000E+00  0.14784529684E+04  0.19605664552E+04  0.12876325740E+04 0.  0.
        5    1    3    3  502    0  0.66024805540E+01  0.59289192742E+03  0.35731788742E+03  0.69228794083E+03  0.46999998093E+01 0. -1.
       -5    1    3    3    0  502 -0.66024805540E+01 -0.59289192742E+03  0.11211350810E+04  0.12682785144E+04  0.46999998093E+01 0.  1.
</event>
<event>
 5   0  0.9131250E-04  0.1313726E+04  0.7818609E-02  0.9018750E-01
        3   -1    0    0  501    0  0.00000000000E+00  0.00000000000E+00  0.74341254350E+03  0.74341255036E+03  0.10100000352E+00 0.  1.
       -3   -1    0    0    0  501  0.00000000000E+00  0.00000000000E+00 -0.58039012020E+03  0.58039012899E+03  0.10100000352E+00 0. -1.
    10030    2    1    2    0    0  0.00000000000E+00  0.00000000000E+00  0.16302242330E+03  0.13238026794E+04  0.13137264644E+04 0.  0.
        4    1    3    3  502    0 -0.43686204216E+03  0.44319829131E+03 -0.13032613870E+03  0.63581419033E+03  0.12699999809E+01 0. -1.
       -4    1    3    3    0  502  0.43686204216E+03 -0.44319829131E+03  0.29334856200E+03  0.68798848902E+03  0.12699999809E+01 0.  1.
</event>
<event>
 5   0  0.1387622E-03  0.1298601E+04  0.7818609E-02  0.9030675E-01
       -1   -1    0    0    0  501  0.00000000000E+00  0.00000000000E+00  0.33385692609E+03  0.33385692613E+03  0.50400001928E-02 0.  1.
        1   -1    0    0  501    0  0.00000000000E+00  0.00000000000E+00 -0.12627899213E+04  0.12627899213E+04  0.50400001928E-02 0. -1.
    10030    2    1    2    0    0  0.00000000000E+00  0.00000000000E+00 -0.92893299524E+03  0.15966468475E+04  0.12986010341E+04 0.  0.
        3    1    3    3  502    0  0.13247011844E+03  0.37123746751E+03  0.16992594319E+03  0.42923236822E+03  0.10100000352E+00 0.  1.
       -3    1    3    3    0  502 -0.13247011844E+03 -0.37123746751E+03 -0.10988589384E+04  0.11674144792E+04  0.10100000352E+00 0. -1.
</event>
<event>
 5   0  0.1332630E-03  0.1300186E+04  0.7818609E-02  0.9029417E-01
       -1   -1    0    0    0  501  0.00000000000E+00  0.00000000000E+00  0.24889242732E+03  0.24889242737E+03  0.50400001928E-02 0. -1.
        1   -1    0    0  501    0  0.00000000000E+00  0.00000000000E+00 -0.16980074645E+04  0.16980074645E+04  0.50400001928E-02 0.  1.
    10030    2    1    2    0    0  0.00000000000E+00  0.00000000000E+00 -0.14491150372E+04  0.19468998919E+04  0.13001864474E+04 0.  0.
        5    1    3    3  502    0 -0.43045633313E+03  0.25337013619E+03 -0.10154166143E+03  0.50972726006E+03  0.46999998093E+01 0. -1.
       -5    1    3    3    0  502  0.43045633313E+03 -0.25337013619E+03 -0.13475733757E+04  0.14371726318E+04  0.46999998093E+01 0.  1.
</event>
<event>
 5   0  0.1387622E-03  0.1304586E+04  0.7818609E-02  0.9025936E-01
        1   -1    0    0  501    0  0.00000000000E+00  0.00000000000E+00  0.15641051312E+04  0.15641051312E+04  0.50400001928E-02 0. -1.
       -1   -1    0    0    0  501  0.00000000000E+00  0.00000000000E+00 -0.27203173015E+03  0.27203173019E+03  0.50400001928E-02 0.  1.
    10030    2    1    2    0    0  0.00000000000E+00  0.00000000000E+00  0.12920734011E+04  0.18361368614E+04  0.13045861030E+04 0.  0.
        3    1    3    3  502    0  0.11622882028E+03 -0.18208973923E+03  0.15122981392E+04  0.15276490055E+04  0.10100000352E+00 0. -1.
       -3    1    3    3    0  502 -0.11622882028E+03  0.18208973923E+03 -0.22022473814E+03  0.30848785597E+03  0.10100000352E+00 0.  1.
</event>
<event>
 5   0  0.2334946E-03  0.1288021E+04  0.7818609E-02  0.9039119E-01
        2   -1    0    0  501    0  0.00000000000E+00  0.00000000000E+00  0.55334149816E+03  0.55334149817E+03  0.25500000920E-02 0.  1.
       -2   -1    0    0    0  501  0.00000000000E+00  0.00000000000E+00 -0.74953662208E+03  0.74953662209E+03  0.25500000920E-02 0. -1.
    10030    2    1    2    0    0  0.00000000000E+00  0.00000000000E+00 -0.19619512392E+03  0.13028781203E+04  0.12880213001E+04 0.  0.
        1    1    3    3  502    0  0.21190946145E+03 -0.74340721463E+02 -0.70864694248E+03  0.74337921133E+03  0.50400001928E-02 0. -1.
       -1    1    3    3    0  502 -0.21190946145E+03  0.74340721463E+02  0.51245181856E+03  0.55949890893E+03  0.50400001928E-02 0.  1.
</event>
<event>
 5   0  0.1346593E-03  0.1337700E+04  0.7818609E-02  0.9000192E-01
        1   -1    0    0  501    0  0.00000000000E+00  0.00000000000E+00  0.99165900196E+03  0.99165900197E+03  0.50400001928E-02 0. -1.
       -1   -1    0    0    0  501  0.00000000000E+00  0.00000000000E+00 -0.45112312949E+03  0.45112312952E+03  0.50400001928E-02 0.  1.
    10030    2    1    2    0    0  0.00000000000E+00  0.00000000000E+00  0.54053587246E+03  0.14427821315E+04  0.13376999849E+04 0.  0.
        2    1    3    3  502    0 -0.51901057655E+02  0.63845973622E+03  0.47783223216E+03  0.79915467630E+03  0.25500000920E-02 0. -1.
       -2    1    3    3    0  502  0.51901057655E+02 -0.63845973622E+03  0.62703640308E+02  0.64362745519E+03  0.25500000920E-02 0.  1.
</event>
<event>
 5   0  0.1387622E-03  0.1301683E+04  0.7818609E-02  0.9028232E-01
        1   -1    0    0  501    0  0.00000000000E+00  0.00000000000E+00  0.13883499804E+04  0.13883499804E+04  0.50400001928E-02 0. -1.
       -1   -1    0    0    0  501  0.00000000000E+00  0.00000000000E+00 -0.30510630622E+03  0.30510630626E+03  0.50400001928E-02 0.  1.
    10030    2    1    2    0    0  0.00000000000E+00  0.00000000000E+00  0.10832436742E+04  0.16934562867E+04  0.13016825025E+04 0.  0.
        3    1    3    3  502    0  0.18912069209E+03 -0.59900753373E+03  0.32000633513E+03  0.70496859956E+03  0.10100000352E+00 0. -1.
       -3    1    3    3    0  502 -0.18912069209E+03  0.59900753373E+03  0.76323733907E+03  0.98848768712E+03  0.10100000352E+00 0.  1.
</event>
<event>
 5   0  0.1346593E-03  0.1289842E+04  0.7818609E-02  0.9037659E-01
        1   -1    0    0  501    0  0.00000000000E+00  0.00000000000E+00  0.64687675449E+03  0.64687675451E+03  0.50400001928E-02 0.  1.
       -1   -1    0    0    0  501  0.00000000000E+00  0.00000000000E+00 -0.64297164620E+03  0.64297164622E+03  0.50400001928E-02 0. -1.
    10030    2    1    2    0    0  0.00000000000E+00  0.00000000000E+00  0.39051082919E+01  0.12898484007E+04  0.12898424892E+04 0.  0.
        2    1    3    3  502    0 -0.51215867812E+03  0.38855653343E+03 -0.49435622464E+02  0.64476861898E+03  0.25500000920E-02 0. -1.
       -2    1    3    3    0  502  0.51215867812E+03 -0.38855653343E+03  0.53340730756E+02  0.64507978174E+03  0.25500000920E-02 0.  1.
</event>
<event>
 5   0  0.1387622E-03  0.1318715E+04  0.7818609E-02  0.9014854E-01
       -1   -1    0    0    0  501  0.00000000000E+00  0.00000000000E+00  0.75566606874E+03  0.75566606876E+03  0.50400001928E-02 0.  1.
        1   -1    0    0  501    0  0.00000000000E+00  0.00000000000E+00 -0.57532360993E+03  0.57532360996E+03  0.50400001928E-02 0. -1.
    10030    2    1    2    0    0  0.00000000000E+00  0.00000000000E+00  0.18034245881E+03  0.13309896787E+04  0.13187153303E+04 0.  0.
        3    1    3    3  502    0  0.53541624287E+03  0.36908045468E+03  0.20009585622E+03  0.68038907768E+03  0.10100000352E+00 0.  1.
       -3    1    3    3    0  502 -0.53541624287E+03 -0.36908045468E+03 -0.19753397411E+02  0.65060060103E+03  0.10100000352E+00 0. -1.
</event>
<event>
 5   0  0.2312105E-03  0.1240130E+04  0.7818609E-02  0.9078438E-01
       -2   -1    0    0    0  501  0.00000000000E+00  0.00000000000E+00  0.26708277556E+03  0.26708277557E+03  0.25500000920E-02 0. -1.
        2   -1    0    0  501    0  0.00000000000E+00  0.00000000000E+00 -0.14395560712E+04  0.14395560712E+04  0.25500000920E-02 0.  1.
    10030    2    1    2    0    0  0.00000000000E+00  0.00000000000E+00 -0.11724732956E+04  0.17066388468E+04  0.12401300433E+04 0.  0.
        5    1    3    3  502    0 -0.20534372354E+03  0.14826835293E+03  0.19262256848E+03  0.31823747919E+03  0.46999998093E+01 0. -1.
       -5    1    3    3    0  502  0.20534372354E+03 -0.14826835293E+03 -0.13650958641E+04  0.13884013676E+04  0.46999998093E+01 0.  1.
</event>
<event>
 5   0  0.2334946E-03  0.1251528E+04  0.7818609E-02  0.9068912E-01
        2   -1    0    0  501    0  0.00000000000E+00  0.00000000000E+00  0.46856787412E+03  0.46856787412E+03  0.25500000920E-02 0.  1.
       -2   -1    0    0    0  501  0.00000000000E+00  0.00000000000E+00 -0.83569693924E+03  0.83569693924E+03  0.25500000920E-02 0. -1.
    10030    2    1    2    0    0  0.00000000000E+00  0.00000000000E+00 -0.36712906512E+03  0.13042648134E+04  0.12515282470E+04 0.  0.
        1    1    3    3  502    0  0.42048134457E+03  0.73644204783E+02  0.29326639202E+03  0.51791235431E+03  0.50400001928E-02 0.  1.
       -1    1    3    3    0  502 -0.42048134457E+03 -0.73644204783E+02 -0.66039545715E+03  0.78635245906E+03  0.50400001928E-02 0. -1.
</event>
<event>
 5   0  0.1324721E-03  0.1322677E+04  0.7818609E-02  0.9011773E-01
       -1   -1    0    0    0  501  0.00000000000E+00  0.00000000000E+00  0.32153105757E+03  0.32153105761E+03  0.50400001928E-02 0. -1.
        1   -1    0    0  501    0  0.00000000000E+00  0.00000000000E+00 -0.13602687271E+04  0.13602687271E+04  0.50400001928E-02 0.  1.
    10030    2    1    2    0    0  0.00000000000E+00  0.00000000000E+00 -0.10387376695E+04  0.16817997847E+04  0.13226770467E+04 0.  0.
        1    1    3    3  502    0  0.31442857521E+03  0.32801559990E+03  0.91630842403E+02  0.46352537578E+03  0.50400001928E-02 0. -1.
       -1    1    3    3    0  502 -0.31442857521E+03 -0.32801559990E+03 -0.11303685119E+04  0.12182744089E+04  0.50400001928E-02 0.  1.
</event>
<event>
 5   0  0.2361043E-03  0.1315248E+04  0.7818609E-02  0.9017560E-01
        2   -1    0    0  501    0  0.00000000000E+00  0.00000000000E+00  0.10329637144E+04  0.10329637144E+04  0.25500000920E-02 0.  1.
       -2   -1    0    0    0  501  0.00000000000E+00  0.00000000000E+00 -0.41866870749E+03  0.41866870750E+03  0.25500000920E-02 0. -1.
    10030    2    1    2    0    0  0.00000000000E+00  0.00000000000E+00  0.61429500687E+03  0.14516324219E+04  0.13152483920E+04 0.  0.
        2    1    3    3  502    0  0.16889355960E+02  0.65236622695E+03  0.21746501526E+03  0.68786479578E+03  0.25500000920E-02 0. -1.
       -2    1    3    3    0  502 -0.16889355960E+02 -0.65236622695E+03  0.39682999161E+03  0.76376762608E+03  0.25500000920E-02 0.  1.
</event>
<event>
 5   0  0.2312105E-03  0.1341229E+04  0.7818609E-02  0.8997494E-01
        2   -1    0    0  501    0  0.00000000000E+00  0.00000000000E+00  0.12108105715E+04  0.12108105715E+04  0.25500000920E-02 0. -1.
       -2   -1    0    0    0  501  0.00000000000E+00  0.00000000000E+00 -0.37142385842E+03  0.37142385843E+03  0.25500000920E-02 0.  1.
    10030    2    1    2    0    0  0.00000000000E+00  0.00000000000E+00  0.83938671304E+03  0.15822344299E+04  0.13412291889E+04 0.  0.
        5    1    3    3  502    0 -0.59776191464E+02  0.14211297071E+03 -0.35021361458E+03  0.38267604491E+03  0.46999998093E+01 0.  1.
       -5    1    3    3    0  502  0.59776191464E+02 -0.14211297071E+03  0.11896003276E+04  0.11995583850E+04  0.46999998093E+01 0. -1.
</event>
<event>
 5   0  0.1346593E-03  0.1437790E+04  0.7818609E-02  0.8926910E-01
       -1   -1    0    0    0  501  0.00000000000E+00  0.00000000000E+00  0.97545955188E+03  0.97545955189E+03  0.50400001928E-02 0. -1.
        1   -1    0    0  501    0  0.00000000000E+00  0.00000000000E+00 -0.52981154565E+03  0.52981154568E+03  0.50400001928E-02 0.  1.
    10030    2    1    2    0    0  0.00000000000E+00  0.00000000000E+00  0.44564800622E+03  0.15052710976E+04  0.14377895993E+04 0.  0.
        2    1    3    3  502    0 -0.18695208240E+03 -0.12863492225E+03 -0.49132917894E+03  0.54120456985E+03  0.25500000920E-02 0.  1.
       -2    1    3    3    0  502  0.18695208240E+03  0.12863492225E+03  0.93697718517E+03  0.96406652772E+03  0.25500000920E-02 0. -1.
</event>
<event>
 5   0  0.2361043E-03  0.1288998E+04  0.7818609E-02  0.9038336E-01
        2   -1    0    0  501    0  0.00000000000E+00  0.00000000000E+00  0.11326244836E+04  0.11326244836E+04  0.25500000920E-02 0. -1.
       -2   -1    0    0    0  501  0.00000000000E+00  0.00000000000E+00 -0.36674015788E+03  0.36674015789E+03  0.25500000920E-02 0.  1.
    10030    2    1    2    0    0  0.00000000000E+00  0.00000000000E+00  0.76588432576E+03  0.14993646415E+04  0.12889978774E+04 0.  0.
        2    1    3    3  502    0 -0.23802001708E+03  0.23396602227E+03  0.10242718165E+04  0.10772773005E+04  0.25500000920E-02 0. -1.
       -2    1    3    3    0  502  0.23802001708E+03 -0.23396602227E+03 -0.25838749072E+03  0.42208734105E+03  0.25500000920E-02 0.  1.
</event>
<event>
 5   0  0.2478236E-03  0.1307391E+04  0.7818609E-02  0.9023725E-01
       -2   -1    0    0    0  501  0.00000000000E+00  0.00000000000E+00  0.37819300552E+03  0.37819300553E+03  0.25500000920E-02 0. -1.
        2   -1    0    0  501    0  0.00000000000E+00  0.00000000000E+00 -0.11298927804E+04  0.11298927804E+04  0.25500000920E-02 0.  1.
    10030    2    1    2    0    0  0.00000000000E+00  0.00000000000E+00 -0.75169977484E+03  0.15080857859E+04  0.13073906020E+04 0.  0.
        3    1    3    3  502    0 -0.23210185354E+03  0.67400739547E+02 -0.10764609984E+04  0.11032599065E+04  0.10100000352E+00 0.  1.
       -3    1    3    3    0  502  0.23210185354E+03 -0.67400739547E+02  0.32476122352E+03  0.40482587938E+03  0.10100000352E+00 0. -1.
</event>
<event>
 5   0  0.1332630E-03  0.1272335E+04  0.7818609E-02  0.9051796E-01
       -1   -1    0    0    0  501  0.00000000000E+00  0.00000000000E+00  0.12624042437E+04  0.12624042437E+04  0.50400001928E-02 0.  1.
        1   -1    0    0  501    0  0.00000000000E+00  0.00000000000E+00 -0.32058583652E+03  0.32058583656E+03  0.50400001928E-02 0. -1.
    10030    2    1    2    0    0  0.00000000000E+00  0.00000000000E+00  0.94181840718E+03  0.15829900803E+04  0.12723347367E+04 0.  0.
        5    1    3    3  502    0  0.17588154424E+03 -0.49051186864E+03  0.92490141796E+03  0.10616030020E+04  0.46999998093E+01 0. -1.
       -5    1    3    3    0  502 -0.17588154424E+03  0.49051186864E+03  0.16916989216E+02  0.52138707828E+03  0.46999998093E+01 0.  1.
</event>
<event>
 5   0  0.1332630E-03  0.1297531E+04  0.7818609E-02  0.9031525E-01
       -1   -1    0    0    0  501  0.00000000000E+00  0.00000000000E+00  0.52171109257E+03  0.52171109260E+03  0.50400001928E-02 0.  1.
        1   -1    0    0  501    0  0.00000000000E+00  0.00000000000E+00 -0.80676213377E+03  0.80676213378E+03  0.50400001928E-02 0. -1.
    10030    2    1    2    0    0  0.00000000000E+00  0.00000000000E+00 -0.28505104119E+03  0.13284732264E+04  0.12975311238E+04 0.  0.
        5    1    3    3  502    0  0.56934930476E+03  0.30787413405E+03 -0.97551350532E+02  0.65458648720E+03  0.46999998093E+01 0.  1.
       -5    1    3    3    0  502 -0.56934930476E+03 -0.30787413405E+03 -0.18749969066E+03  0.67388673918E+03  0.46999998093E+01 0. -1.
</event>
<event>
 5   0  0.2334946E-03  0.1293085E+04  0.7818609E-02  0.9035067E-01
        2   -1    0    0  501    0  0.00000000000E+00  0.00000000000E+00  0.14395830405E+04  0.14395830405E+04  0.25500000920E-02 0.  1.
       -2   -1    0    0    0  501  0.00000000000E+00  0.00000000000E+00 -0.29037367671E+03  0.29037367672E+03  0.25500000920E-02 0. -1.
    10030    2    1    2    0    0  0.00000000000E+00  0.00000000000E+00  0.11492093638E+04  0.17299567172E+04  0.12930847156E+04 0.  0.
        1    1    3    3  502    0  0.14517482435E+03 -0.51588307016E+03  0.10584672282E+04  0.11864080010E+04  0.50400001928E-02 0.  1.
       -1    1    3    3    0  502 -0.14517482435E+03  0.51588307016E+03  0.90742135612E+02  0.54354871622E+03  0.50400001928E-02 0. -1.
</event>
<event>
 5   0  0.1310461E-03  0.1001946E+04  0.7818609E-02  0.9306413E-01
       -1   -1    0    0    0  501  0.00000000000E+00  0.00000000000E+00  0.27761584390E+03  0.27761584395E+03  0.50400001928E-02 0.  1.
        1   -1    0    0  501    0  0.00000000000E+00  0.00000000000E+00 -0.90403324501E+03  0.90403324502E+03  0.50400001928E-02 0. -1.
    10030    2    1    2    0    0  0.00000000000E+00  0.00000000000E+00 -0.62641740111E+03  0.11816490890E+04  0.10019460111E+04 0.  0.
        4    1    3    3  502    0 -0.58659532166E+02  0.84578146983E+02 -0.89142656384E+03  0.89735017428E+03  0.12699999809E+01 0. -1.
       -4    1    3    3    0  502  0.58659532166E+02 -0.84578146983E+02  0.26500916274E+03  0.28429891469E+03  0.12699999809E+01 0.  1.
</event>
<event>
 5   0  0.1346593E-03  0.1310712E+04  0.7818609E-02  0.9021114E-01
        1   -1    0    0  501    0  0.00000000000E+00  0.00000000000E+00  0.10135741149E+04  0.10135741150E+04  0.50400001928E-02 0.  1.
       -1   -1    0    0    0  501  0.00000000000E+00  0.00000000000E+00 -0.42373944803E+03  0.42373944806E+03  0.50400001928E-02 0. -1.
    10030    2    1    2    0    0  0.00000000000E+00  0.00000000000E+00  0.58983466691E+03  0.14373135630E+04  0.13107117700E+04 0.  0.
        2    1    3    3  502    0 -0.14847102461E+03  0.46616922195E+03 -0.18324367279E+03  0.52243241885E+03  0.25500000920E-02 0. -1.
       -2    1    3    3    0  502  0.14847102461E+03 -0.46616922195E+03  0.77307833970E+03  0.91488114417E+03  0.25500000920E-02 0.  1.
</event>
<event>
 5   0  0.2401211E-03  0.1336368E+04  0.7818609E-02  0.9001212E-01
        2   -1    0    0  501    0  0.00000000000E+00  0.00000000000E+00  0.66358586105E+03  0.66358586106E+03  0.25500000920E-02 0. -1.
       -2   -1    0    0    0  501  0.00000000000E+00  0.00000000000E+00 -0.67281375829E+03  0.67281375830E+03  0.25500000920E-02 0.  1.
    10030    2    1    2    0    0  0.00000000000E+00  0.00000000000E+00 -0.92278972375E+01  0.13363996194E+04  0.13363677595E+04 0.  0.
        4    1    3    3  502    0  0.25366807635E+03 -0.61540629960E+03 -0.62887781502E+02  0.66860219302E+03  0.12699999809E+01 0. -1.
       -4    1    3    3    0  502 -0.25366807635E+03  0.61540629960E+03  0.53659884264E+02  0.66779742634E+03  0.12699999809E+01 0.  1.
</event>
<event>
 5   0  0.2361043E-03  0.1310877E+04  0.7818609E-02  0.9020984E-01
       -2   -1    0    0    0  501  0.00000000000E+00  0.00000000000E+00  0.28179416902E+03  0.28179416903E+03  0.25500000920E-02 0.  1.
        2   -1    0    0  501    0  0.00000000000E+00  0.00000000000E+00 -0.15245156191E+04  0.15245156191E+04  0.25500000920E-02 0. -1.
    10030    2    1    2    0    0  0.00000000000E+00  0.00000000000E+00 -0.12427214501E+04  0.18063097881E+04  0.13108769768E+04 0.  0.
        2    1    3    3  502    0  0.46437208337E+03 -0.45203374406E+03 -0.75653708922E+03  0.99615475954E+03  0.25500000920E-02 0. -1.
       -2    1    3    3    0  502 -0.46437208337E+03  0.45203374406E+03 -0.48618436084E+03  0.81015502857E+03  0.25500000920E-02 0.  1.
</event>
<event>
 5   0  0.2478236E-03  0.1306144E+04  0.7818609E-02  0.9024707E-01
       -2   -1    0    0    0  501  0.00000000000E+00  0.00000000000E+00  0.39966113803E+03  0.39966113804E+03  0.25500000920E-02 0. -1.
        2   -1    0    0  501    0  0.00000000000E+00  0.00000000000E+00 -0.10671608887E+04  0.10671608887E+04  0.25500000920E-02 0.  1.
    10030    2    1    2    0    0  0.00000000000E+00  0.00000000000E+00 -0.66749975068E+03  0.14668220267E+04  0.13061435377E+04 0.  0.
        3    1    3    3  502    0  0.18524553103E+03  0.20887005575E+03  0.32926819328E+03  0.43169452192E+03  0.10100000352E+00 0. -1.
       -3    1    3    3    0  502 -0.18524553103E+03 -0.20887005575E+03 -0.99676794395E+03  0.10351275048E+04  0.10100000352E+00 0.  1.
</event>
<event>
 5   0  0.9131250E-04  0.1228826E+04  0.7818609E-02  0.9087993E-01
       -4   -1    0    0    0  501  0.00000000000E+00  0.00000000000E+00  0.21094890670E+03  0.21095272963E+03  0.12699999809E+01 0.  1.
        4   -1    0    0  501    0  0.00000000000E+00  0.00000000000E+00 -0.17895286151E+04  0.17895290658E+04  0.12699999809E+01 0. -1.
    10030    2    1    2    0    0  0.00000000000E+00  0.00000000000E+00 -0.15785797084E+04  0.20004817954E+04  0.12288260731E+04 0.  0.
        4    1    3    3  502    0  0.48062472283E+03  0.14650329133E+03 -0.13649497020E+04  0.14544939465E+04  0.12699999809E+01 0. -1.
       -4    1    3    3    0  502 -0.48062472283E+03 -0.14650329133E+03 -0.21363000640E+03  0.54598784886E+03  0.12699999809E+01 0.  1.
</event>
<event>
 5   0  0.2401211E-03  0.1336327E+04  0.7818609E-02  0.9001243E-01
        2   -1    0    0  501    0  0.00000000000E+00  0.00000000000E+00  0.14612143677E+04  0.14612143677E+04  0.25500000920E-02 0.  1.
       -2   -1    0    0    0  501  0.00000000000E+00  0.00000000000E+00 -0.30552851752E+03  0.30552851753E+03  0.25500000920E-02 0. -1.
    10030    2    1    2    0    0  0.00000000000E+00  0.00000000000E+00  0.11556858502E+04  0.17667428852E+04  0.13363272946E+04 0.  0.
        4    1    3    3  502    0  0.86566005452E+02 -0.44893814419E+03 -0.66330229467E+02  0.46199615026E+03  0.12699999809E+01 0. -1.
       -4    1    3    3    0  502 -0.86566005452E+02  0.44893814419E+03  0.12220160797E+04  0.13047467350E+04  0.12699999809E+01 0.  1.
</event>
<event>
 5   0  0.2478236E-03  0.1141679E+04  0.7818609E-02  0.9165495E-01
       -2   -1    0    0    0  501  0.00000000000E+00  0.00000000000E+00  0.34811089846E+03  0.34811089847E+03  0.25500000920E-02 0.  1.
        2   -1    0    0  501    0  0.00000000000E+00  0.00000000000E+00 -0.93607429096E+03  0.93607429096E+03  0.25500000920E-02 0. -1.
    10030    2    1    2    0    0  0.00000000000E+00  0.00000000000E+00 -0.58796339250E+03  0.12841851894E+04  0.11416788733E+04 0.  0.
        3    1    3    3  502    0 -0.15168355258E+03 -0.34253309697E+02  0.32382755325E+03  0.35922901301E+03  0.10100000352E+00 0.  1.
       -3    1    3    3    0  502  0.15168355258E+03  0.34253309697E+02 -0.91179094575E+03  0.92495617642E+03  0.10100000352E+00 0. -1.
</event>
<event>
 5   0  0.1387622E-03  0.1286229E+04  0.7818609E-02  0.9040557E-01
        1   -1    0    0  501    0  0.00000000000E+00  0.00000000000E+00  0.94907500769E+03  0.94907500771E+03  0.50400001928E-02 0. -1.
       -1   -1    0    0    0  501  0.00000000000E+00  0.00000000000E+00 -0.43578910963E+03  0.43578910966E+03  0.50400001928E-02 0.  1.
    10030    2    1    2    0    0  0.00000000000E+00  0.00000000000E+00  0.51328589807E+03  0.13848641174E+04  0.12862294548E+04 0.  0.
        3    1    3    3  502    0 -0.45425079503E+03 -0.45039116742E+03  0.32806665571E+03  0.71890453419E+03  0.10100000352E+00 0. -1.
       -3    1    3    3    0  502  0.45425079503E+03  0.45039116742E+03  0.18521924235E+03  0.66595958317E+03  0.10100000352E+00 0.  1.
</event>
<event>
 5   0  0.2478236E-03  0.1312641E+04  0.7818609E-02  0.9019600E-01
        2   -1    0    0  501    0  0.00000000000E+00  0.00000000000E+00  0.85601504367E+03  0.85601504368E+03  0.25500000920E-02 0.  1.
       -2   -1    0    0    0  501  0.00000000000E+00  0.00000000000E+00 -0.50321177733E+03  0.50321177733E+03  0.25500000920E-02 0. -1.
    10030    2    1    2    0    0  0.00000000000E+00  0.00000000000E+00  0.35280326635E+03  0.13592268210E+04  0.13126413852E+04 0.  0.
        3    1    3    3  502    0 -0.36957914699E+03  0.20823940821E+03 -0.34217561290E+03  0.54501060291E+03  0.10100000352E+00 0. -1.
       -3    1    3    3    0  502  0.36957914699E+03 -0.20823940821E+03  0.69497887925E+03  0.81421621810E+03  0.10100000352E+00 0.  1.
</event>
<event>
 5   0  0.1346593E-03  0.1278014E+04  0.7818609E-02  0.9047184E-01
        1   -1    0    0  501    0  0.00000000000E+00  0.00000000000E+00  0.60551167398E+03  0.60551167401E+03  0.50400001928E-02 0.  1.
       -1   -1    0    0    0  501  0.00000000000E+00  0.00000000000E+00 -0.67435569436E+03  0.67435569438E+03  0.50400001928E-02 0. -1.
    10030    2    1    2    0    0  0.00000000000E+00  0.00000000000E+00 -0.68844020372E+02  0.12798673684E+04  0.12780144684E+04 0.  0.
        2    1    3    3  502    0  0.52931964824E+02 -0.37789379986E+02  0.60218855843E+03  0.60569042427E+03  0.25500000920E-02 0.  1.
       -2    1    3    3    0  502 -0.52931964824E+02  0.37789379986E+02 -0.67103257881E+03  0.67417694411E+03  0.25500000920E-02 0. -1.
</event>
<event>
 5   0  0.1324721E-03  0.1309739E+04  0.7818609E-02  0.9021877E-01
       -1   -1    0    0    0  501  0.00000000000E+00  0.00000000000E+00  0.45507426254E+03  0.45507426257E+03  0.50400001928E-02 0. -1.
        1   -1    0    0  501    0  0.00000000000E+00  0.00000000000E+00 -0.94238317608E+03  0.94238317609E+03  0.50400001928E-02 0.  1.
    10030    2    1    2    0    0  0.00000000000E+00  0.00000000000E+00 -0.48730891354E+03  0.13974574387E+04  0.13097394075E+04 0.  0.
        1    1    3    3  502    0 -0.30311637229E+03 -0.44778283733E+03  0.15049855630E+03  0.56128319058E+03  0.50400001928E-02 0. -1.
       -1    1    3    3    0  502  0.30311637229E+03  0.44778283733E+03 -0.63780746983E+03  0.83617424808E+03  0.50400001928E-02 0.  1.
</event>
<event>
 5   0  0.2401211E-03  0.1321495E+04  0.7818609E-02  0.9012691E-01
       -2   -1    0    0    0  501  0.00000000000E+00  0.00000000000E+00  0.37760362591E+03  0.37760362591E+03  0.25500000920E-02 0. -1.
        2   -1    0    0  501    0  0.00000000000E+00  0.00000000000E+00 -0.11562057897E+04  0.11562057897E+04  0.25500000920E-02 0.  1.
    10030    2    1    2    0    0  0.00000000000E+00  0.00000000000E+00 -0.77860216377E+03  0.15338094156E+04  0.13214953628E+04 0.  0.
        4    1    3    3  502    0  0.71955933022E+02 -0.37921199525E+03 -0.10117519806E+04  0.10828772215E+04  0.12699999809E+01 0.  1.
       -4    1    3    3    0  502 -0.71955933022E+02  0.37921199525E+03  0.23314981688E+03  0.45093219407E+03  0.12699999809E+01 0. -1.
</event>
<event>
 5   0  0.2401211E-03  0.1239396E+04  0.7818609E-02  0.9079056E-01
        2   -1    0    0  501    0  0.00000000000E+00  0.00000000000E+00  0.14890237858E+04  0.14890237858E+04  0.25500000920E-02 0. -1.
       -2   -1    0    0    0  501  0.00000000000E+00  0.00000000000E+00 -0.25790413279E+03  0.25790413280E+03  0.25500000920E-02 0.  1.
    10030    2    1    2    0    0  0.00000000000E+00  0.00000000000E+00  0.12311196530E+04  0.17469279186E+04  0.12393956401E+04 0.  0.
        4    1    3    3  502    0  0.93441179592E+02  0.40844186991E+03 -0.27993399400E+02  0.41993006376E+03  0.12699999809E+01 0.  1.
       -4    1    3    3    0  502 -0.93441179592E+02 -0.40844186991E+03  0.12591130524E+04  0.13269978549E+04  0.12699999809E+01 0. -1.
</event>
<event>
 5   0  0.2401211E-03  0.1291828E+04  0.7818609E-02  0.9036071E-01
       -2   -1    0    0    0  501  0.00000000000E+00  0.00000000000E+00  0.48491942009E+03  0.48491942009E+03  0.25500000920E-02 0. -1.
        2   -1    0    0  501    0  0.00000000000E+00  0.00000000000E+00 -0.86035960031E+03  0.86035960031E+03  0.25500000920E-02 0.  1.
    10030    2    1    2    0    0  0.00000000000E+00  0.00000000000E+00 -0.37544018022E+03  0.13452790204E+04  0.12918282834E+04 0.  0.
        4    1    3    3  502    0  0.14238154924E+02  0.49138490992E+03  0.24859237462E+03  0.55087352121E+03  0.12699999809E+01 0. -1.
       -4    1    3    3    0  502 -0.14238154924E+02 -0.49138490992E+03 -0.62403255484E+03  0.79440549919E+03  0.12699999809E+01 0.  1.
</event>
<event>
 5   0  0.9131250E-04  0.1088196E+04  0.7818609E-02  0.9216774E-01
       -3   -1    0    0    0  501  0.00000000000E+00  0.00000000000E+00  0.52680332221E+03  0.52680333189E+03  0.10100000352E+00 0.  1.
        3   -1    0    0  501    0  0.00000000000E+00  0.00000000000E+00 -0.56196066734E+03  0.56196067642E+03  0.10100000352E+00 0. -1.
    10030    2    1    2    0    0  0.00000000000E+00  0.00000000000E+00 -0.35157345132E+02  0.10887640083E+04  0.10881962263E+04 0.  0.
        4    1    3    3  502    0 -0.31534719223E+03 -0.44313841015E+03 -0.32607882374E+02  0.54486731329E+03  0.12699999809E+01 0.  1.
       -4    1    3    3    0  502  0.31534719223E+03  0.44313841015E+03 -0.25494627586E+01  0.54389669502E+03  0.12699999809E+01 0. -1.
</event>
<event>
 5   0  0.1324721E-03  0.1291844E+04  0.7818609E-02  0.9036058E-01
       -1   -1    0    0    0  501  0.00000000000E+00  0.00000000000E+00  0.21958210609E+03  0.21958210615E+03  0.50400001928E-02 0. -1.
        1   -1    0    0  501    0  0.00000000000E+00  0.00000000000E+00 -0.19000422137E+04  0.19000422137E+04  0.50400001928E-02 0.  1.
    10030    2    1    2    0    0  0.00000000000E+00  0.00000000000E+00 -0.16804601076E+04  0.21196243198E+04  0.12918440633E+04 0.  0.
        1    1    3    3  502    0  0.20920708584E+03 -0.17095462457E+03  0.12241952918E+03  0.29661360316E+03  0.50400001928E-02 0. -1.
       -1    1    3    3    0  502 -0.20920708584E+03  0.17095462457E+03 -0.18028796367E+04  0.18230107166E+04  0.50400001928E-02 0.  1.
</event>
<event>
 5   0  0.9131250E-04  0.1305259E+04  0.7818609E-02  0.9025405E-01
       -3   -1    0    0    0  501  0.00000000000E+00  0.00000000000E+00  0.17179318230E+04  0.17179318260E+04  0.10100000352E+00 0. -1.
        3   -1    0    0  501    0  0.00000000000E+00  0.00000000000E+00 -0.24792912036E+03  0.24792914093E+03  0.10100000352E+00 0.  1.
    10030    2    1    2    0    0  0.00000000000E+00  0.00000000000E+00  0.14700027026E+04  0.19658609669E+04  0.13052591296E+04 0.  0.
        1    1    3    3  502    0 -0.58351192421E+03  0.23980662322E+03  0.98671503013E+03  0.11711532491E+04  0.50400001928E-02 0. -1.
       -1    1    3    3    0  502  0.58351192421E+03 -0.23980662322E+03  0.48328767250E+03  0.79470771775E+03  0.50400001928E-02 0.  1.
</event>
<event>
 5   0  0.2478236E-03  0.1258465E+04  0.7818609E-02  0.9063167E-01
        2   -1    0    0  501    0  0.00000000000E+00  0.00000000000E+00  0.40782997660E+03  0.40782997661E+03  0.25500000920E-02 0. -1.
       -2   -1    0    0    0  501  0.00000000000E+00  0.00000000000E+00 -0.97082966079E+03  0.97082966079E+03  0.25500000920E-02 0.  1.
    10030    2    1    2    0    0  0.00000000000E+00  0.00000000000E+00 -0.56299968419E+03  0.13786596374E+04  0.12584648392E+04 0.  0.
        3    1    3    3  502    0  0.61079833863E+03  0.14896375274E+03 -0.25317256303E+03  0.67776188073E+03  0.10100000352E+00 0.  1.
       -3    1    3    3    0  502 -0.61079833863E+03 -0.14896375274E+03 -0.30982712116E+03  0.70089775667E+03  0.10100000352E+00 0. -1.
</event>
<event>
 5   0  0.9131250E-04  0.1298296E+04  0.7818609E-02  0.9030917E-01
       -3   -1    0    0    0  501  0.00000000000E+00  0.00000000000E+00  0.29221955875E+03  0.29221957620E+03  0.10100000352E+00 0. -1.
        3   -1    0    0  501    0  0.00000000000E+00  0.00000000000E+00 -0.14420431625E+04  0.14420431660E+04  0.10100000352E+00 0.  1.
    10030    2    1    2    0    0  0.00000000000E+00  0.00000000000E+00 -0.11498236037E+04  0.17342627422E+04  0.12982961678E+04 0.  0.
        5    1    3    3  502    0 -0.30734146076E+03 -0.17460326296E+03  0.15236430237E+03  0.38494420839E+03  0.46999998093E+01 0. -1.
       -5    1    3    3    0  502  0.30734146076E+03  0.17460326296E+03 -0.13021879061E+04  0.13493185338E+04  0.46999998093E+01 0.  1.
</event>
<event>
 5   0  0.2334946E-03  0.1304741E+04  0.7818609E-02  0.9025814E-01
       -2   -1    0    0    0  501  0.00000000000E+00  0.00000000000E+00  0.51945195749E+03  0.51945195750E+03  0.25500000920E-02 0. -1.
        2   -1    0    0  501    0  0.00000000000E+00  0.00000000000E+00 -0.81930016023E+03  0.81930016023E+03  0.25500000920E-02 0.  1.
    10030    2    1    2    0    0  0.00000000000E+00  0.00000000000E+00 -0.29984820274E+03  0.13387521177E+04  0.13047406976E+04 0.  0.
        1    1    3    3  502    0 -0.60359655375E+02 -0.11080348082E+03 -0.80666054964E+03  0.81646919215E+03  0.50400001928E-02 0.  1.
       -1    1    3    3    0  502  0.60359655375E+02  0.11080348082E+03  0.50681234690E+03  0.52228292558E+03  0.50400001928E-02 0. -1.
</event>
<event>
 5   0  0.9131250E-04  0.1290375E+04  0.7818609E-02  0.9037233E-01
       -4   -1    0    0    0  501  0.00000000000E+00  0.00000000000E+00  0.38870434122E+03  0.38870641592E+03  0.12699999809E+01 0.  1.
        4   -1    0    0  501    0  0.00000000000E+00  0.00000000000E+00 -0.10709035820E+04  0.10709043350E+04  0.12699999809E+01 0. -1.
    10030    2    1    2    0    0  0.00000000000E+00  0.00000000000E+00 -0.68219924074E+03  0.14596107509E+04  0.12903750386E+04 0.  0.
        4    1    3    3  502    0  0.17744389537E+03  0.29103606339E+03  0.27853753563E+03  0.44019665815E+03  0.12699999809E+01 0.  1.
       -4    1    3    3    0  502 -0.17744389537E+03 -0.29103606339E+03 -0.96073677637E+03  0.10194140928E+04  0.12699999809E+01 0. -1.
</event>
<event>
 5   0  0.1324721E-03  0.1299769E+04  0.7818609E-02  0.9029749E-01
        1   -1    0    0  501    0  0.00000000000E+00  0.00000000000E+00  0.59570499583E+03  0.59570499586E+03  0.50400001928E-02 0. -1.
       -1   -1    0    0    0  501  0.00000000000E+00  0.00000000000E+00 -0.70899120197E+03  0.70899120199E+03  0.50400001928E-02 0.  1.
    10030    2    1    2    0    0  0.00000000000E+00  0.00000000000E+00 -0.11328620613E+03  0.13046961978E+04  0.12997685964E+04 0.  0.
        1    1    3    3  502    0 -0.29813116251E+03 -0.48956510087E+03 -0.36406128495E+03  0.67904108659E+03  0.50400001928E-02 0.  1.
       -1    1    3    3    0  502  0.29813116251E+03  0.48956510087E+03  0.25077507882E+03  0.62565511125E+03  0.50400001928E-02 0. -1.
</event>
<event>
 5   0  0.1346593E-03  0.1244699E+04  0.7818609E-02  0.9074607E-01
        1   -1    0    0  501    0  0.00000000000E+00  0.00000000000E+00  0.46624342077E+03  0.46624342079E+03  0.50400001928E-02 0. -1.
       -1   -1    0    0    0  501  0.00000000000E+00  0.00000000000E+00 -0.83072301020E+03  0.83072301022E+03  0.50400001928E-02 0.  1.
    10030    2    1    2    0    0  0.00000000000E+00  0.00000000000E+00 -0.36447958944E+03  0.12969664310E+04  0.12446993822E+04 0.  0.
        2    1    3    3  502    0  0.41648042182E+03  0.16564446481E+03  0.26766069164E+03  0.52205007072E+03  0.25500000920E-02 0. -1.
       -2    1    3    3    0  502 -0.41648042182E+03 -0.16564446481E+03 -0.63214028108E+03  0.77491636029E+03  0.25500000920E-02 0.  1.
</event>
<event>
 5   0  0.2478236E-03  0.1306924E+04  0.7818609E-02  0.9024092E-01
        2   -1    0    0  501    0  0.00000000000E+00  0.00000000000E+00  0.16774019766E+04  0.16774019766E+04  0.25500000920E-02 0. -1.
       -2   -1    0    0    0  501  0.00000000000E+00  0.00000000000E+00 -0.25456797796E+03  0.25456797797E+03  0.25500000920E-02 0.  1.
    10030    2    1    2    0    0  0.00000000000E+00  0.00000000000E+00  0.14228339986E+04  0.19319699545E+04  0.13069243734E+04 0.  0.
        3    1    3    3  502    0  0.19362531439E+03 -0.57482339421E+03  0.10707888868E+04  0.12306508632E+04  0.10100000352E+00 0.  1.
       -3    1    3    3    0  502 -0.19362531439E+03  0.57482339421E+03  0.35204511185E+03  0.70131909134E+03  0.10100000352E+00 0. -1.
</event>
<event>
 5   0  0.1346593E-03  0.1325177E+04  0.7818609E-02  0.9009834E-01
       -1   -1    0    0    0  501  0.00000000000E+00  0.00000000000E+00  0.27912268202E+03  0.27912268207E+03  0.50400001928E-02 0.  1.
        1   -1    0    0  501    0  0.00000000000E+00  0.00000000000E+00 -0.15728700384E+04  0.15728700384E+04  0.50400001928E-02 0. -1.
    10030    2    1    2    0    0  0.00000000000E+00  0.00000000000E+00 -0.12937473564E+04  0.18519927205E+04  0.13251772766E+04 0.  0.
        2    1    3    3  502    0  0.22497846854E+03 -0.86489628443E+02  0.21568114326E+03  0.32344106526E+03  0.25500000920E-02 0.  1.
       -2    1    3    3    0  502 -0.22497846854E+03  0.86489628443E+02 -0.15094284996E+04  0.15285516552E+04  0.25500000920E-02 0. -1.
</event>
<event>
 5   0  0.2361043E-03  0.1300221E+04  0.7818609E-02  0.9029390E-01
        2   -1    0    0  501    0  0.00000000000E+00  0.00000000000E+00  0.19165998410E+04  0.19165998410E+04  0.25500000920E-02 0.  1.
       -2   -1    0    0    0  501  0.00000000000E+00  0.00000000000E+00 -0.22051739465E+03  0.22051739466E+03  0.25500000920E-02 0. -1.
    10030    2    1    2    0    0  0.00000000000E+00  0.00000000000E+00  0.16960824464E+04  0.21371172357E+04  0.13002209098E+04 0.  0.
        2    1    3    3  502    0  0.15599901760E+03 -0.53406149773E+03  0.29530737886E+03  0.62989191523E+03  0.25500000920E-02 0. -1.
       -2    1    3    3    0  502 -0.15599901760E+03  0.53406149773E+03  0.14007750675E+04  0.15072253205E+04  0.25500000920E-02 0.  1.
</event>
<event>
 5   0  0.1387622E-03  0.1260957E+04  0.7818609E-02  0.9061112E-01
       -1   -1    0    0    0  501  0.00000000000E+00  0.00000000000E+00  0.44444298461E+03  0.44444298464E+03  0.50400001928E-02 0. -1.
        1   -1    0    0  501    0  0.00000000000E+00  0.00000000000E+00 -0.89438567558E+03  0.89438567560E+03  0.50400001928E-02 0.  1.
    10030    2    1    2    0    0  0.00000000000E+00  0.00000000000E+00 -0.44994269097E+03  0.13388286602E+04  0.12609574760E+04 0.  0.
        3    1    3    3  502    0 -0.57656013028E+03  0.10637763667E+03  0.21222381960E+02  0.58667553649E+03  0.10100000352E+00 0. -1.
       -3    1    3    3    0  502  0.57656013028E+03 -0.10637763667E+03 -0.47116507293E+03  0.75215312375E+03  0.10100000352E+00 0.  1.
</event>
<event>
 5   0  0.1324721E-03  0.1298663E+04  0.7818609E-02  0.9030626E-01
       -1   -1    0    0    0  501  0.00000000000E+00  0.00000000000E+00  0.55728712415E+03  0.55728712418E+03  0.50400001928E-02 0. -1.
        1   -1    0    0  501    0  0.00000000000E+00  0.00000000000E+00 -0.75657895414E+03  0.75657895416E+03  0.50400001928E-02 0.  1.
    10030    2    1    2    0    0  0.00000000000E+00  0.00000000000E+00 -0.19929182999E+03  0.13138660783E+04  0.12986634815E+04 0.  0.
        1    1    3    3  502    0 -0.47257964084E+03 -0.26087958831E+03 -0.46476123421E+03  0.71231501555E+03  0.50400001928E-02 0.  1.
       -1    1    3    3    0  502  0.47257964084E+03  0.26087958831E+03  0.26546940422E+03  0.60155106278E+03  0.50400001928E-02 0. -1.
</event>
<event>
 5   0  0.2401211E-03  0.1322306E+04  0.7818609E-02  0.9012061E-01
        2   -1    0    0  501    0  0.00000000000E+00  0.00000000000E+00  0.66371552261E+03  0.66371552262E+03  0.25500000920E-02 0. -1.
       -2   -1    0    0    0  501  0.00000000000E+00  0.00000000000E+00 -0.65860028937E+03  0.65860028938E+03  0.25500000920E-02 0.  1.
    10030    2    1    2    0    0  0.00000000000E+00  0.00000000000E+00  0.51152332421E+01  0.13223158120E+04  0.13223059181E+04 0.  0.
        4    1    3    3  502    0 -0.33009518220E+03 -0.21122160403E+02  0.57502381781E+03  0.66337242852E+03  0.12699999809E+01 0. -1.
       -4    1    3    3    0  502  0.33009518220E+03  0.21122160403E+02 -0.56990858456E+03  0.65894338348E+03  0.12699999809E+01 0.  1.
</event>
<event>
 5   0  0.2312105E-03  0.1393637E+04  0.7818609E-02  0.8958437E-01
        2   -1    0    0  501    0  0.00000000000E+00  0.00000000000E+00  0.29352987834E+04  0.29352987834E+04  0.25500000920E-02 0.  1.
       -2   -1    0    0    0  501  0.00000000000E+00  0.00000000000E+00 -0.16541965171E+03  0.16541965173E+03  0.25500000920E-02 0. -1.
    10030    2    1    2    0    0  0.00000000000E+00  0.00000000000E+00  0.27698791317E+04  0.31007184351E+04  0.13936371156E+04 0.  0.
        5    1    3    3  502    0  0.37651971752E+03 -0.54606506764E+03  0.90993355542E+03  0.11260352219E+04  0.46999998093E+01 0.  1.
       -5    1    3    3    0  502 -0.37651971752E+03  0.54606506764E+03  0.18599455763E+04  0.19746832132E+04  0.46999998093E+01 0. -1.
</event>
<event>
 5   0  0.1346593E-03  0.1296047E+04  0.7818609E-02  0.9032706E-01
        1   -1    0    0  501    0  0.00000000000E+00  0.00000000000E+00  0.72497912378E+03  0.72497912380E+03  0.50400001928E-02 0. -1.
       -1   -1    0    0    0  501  0.00000000000E+00  0.00000000000E+00 -0.57923693274E+03  0.57923693277E+03  0.50400001928E-02 0.  1.
    10030    2    1    2    0    0  0.00000000000E+00  0.00000000000E+00  0.14574219104E+03  0.13042160566E+04  0.12960473510E+04 0.  0.
        2    1    3    3  502    0  0.48234432877E+03  0.39886197126E+03  0.24182139240E+03  0.67098771184E+03  0.25500000920E-02 0. -1.
       -2    1    3    3    0  502 -0.48234432877E+03 -0.39886197126E+03 -0.96079201365E+02  0.63322834472E+03  0.25500000920E-02 0.  1.
</event>
<event>
 5   0  0.1346593E-03  0.1273975E+04  0.7818609E-02  0.9050462E-01
       -1   -1    0    0    0  501  0.00000000000E+00  0.00000000000E+00  0.94189182138E+03  0.94189182139E+03  0.50400001928E-02 0. -1.
        1   -1    0    0  501    0  0.00000000000E+00  0.00000000000E+00 -0.43078518365E+03  0.43078518368E+03  0.50400001928E-02 0.  1.
    10030    2    1    2    0    0  0.00000000000E+00  0.00000000000E+00  0.51110663773E+03  0.13726770051E+04  0.12739749468E+04 0.  0.
        2    1    3    3  502    0  0.54712158347E+03  0.24157810871E+03  0.19364774957E+02  0.59839535779E+03  0.25500000920E-02 0. -1.
       -2    1    3    3    0  502 -0.54712158347E+03 -0.24157810871E+03  0.49174186277E+03  0.77428164728E+03  0.25500000920E-02 0.  1.
</event>
<event>
 5   0  0.1324721E-03  0.1248210E+04  0.7818609E-02  0.9071675E-01
        1   -1    0    0  501    0  0.00000000000E+00  0.00000000000E+00  0.37962746630E+03  0.37962746634E+03  0.50400001928E-02 0. -1.
       -1   -1    0    0    0  501  0.00000000000E+00  0.00000000000E+00 -0.10260237032E+04  0.10260237032E+04  0.50400001928E-02 0.  1.
    10030    2    1    2    0    0  0.00000000000E+00  0.00000000000E+00 -0.64639623689E+03  0.14056511695E+04  0.12482095639E+04 0.  0.
        1    1    3    3  502    0  0.19203162679E+03 -0.13201044754E+03  0.32879733546E+03  0.40300197490E+03  0.50400001928E-02 0. -1.
       -1    1    3    3    0  502 -0.19203162679E+03  0.13201044754E+03 -0.97519357235E+03  0.10026491946E+04  0.50400001928E-02 0.  1.
</event>
<event>
 5   0  0.1332630E-03  0.1545087E+04  0.7818609E-02  0.8855012E-01
       -1   -1    0    0    0  501  0.00000000000E+00  0.00000000000E+00  0.32958072434E+03  0.32958072438E+03  0.50400001928E-02 0. -1.
        1   -1    0    0  501    0  0.00000000000E+00  0.00000000000E+00 -0.18108569706E+04  0.18108569706E+04  0.50400001928E-02 0.  1.
    10030    2    1    2    0    0  0.00000000000E+00  0.00000000000E+00 -0.14812762462E+04  0.21404376949E+04  0.15450871200E+04 0.  0.
        5    1    3    3  502    0 -0.30927665737E+02  0.28483505955E+02 -0.18092509304E+04  0.18097455207E+04  0.46999998093E+01 0.  1.
       -5    1    3    3    0  502  0.30927665737E+02 -0.28483505955E+02  0.32797468419E+03  0.33069217421E+03  0.46999998093E+01 0. -1.
</event>
<event>
 5   0  0.1387622E-03  0.1303948E+04  0.7818609E-02  0.9026440E-01
       -1   -1    0    0    0  501  0.00000000000E+00  0.00000000000E+00  0.50813535044E+03  0.50813535047E+03  0.50400001928E-02 0.  1.
        1   -1    0    0  501    0  0.00000000000E+00  0.00000000000E+00 -0.83652894277E+03  0.83652894279E+03  0.50400001928E-02 0. -1.
    10030    2    1    2    0    0  0.00000000000E+00  0.00000000000E+00 -0.32839359233E+03  0.13446642933E+04  0.13039477405E+04 0.  0.
        3    1    3    3  502    0  0.11889247065E+03  0.63734080258E+03 -0.93265270857E+02  0.65500926647E+03  0.10100000352E+00 0. -1.
       -3    1    3    3    0  502 -0.11889247065E+03 -0.63734080258E+03 -0.23512832147E+03  0.68965502678E+03  0.10100000352E+00 0.  1.
</event>
<event>
 5   0  0.2334946E-03  0.1289256E+04  0.7818609E-02  0.9038129E-01
        2   -1    0    0  501    0  0.00000000000E+00  0.00000000000E+00  0.11375812817E+04  0.11375812817E+04  0.25500000920E-02 0.  1.
       -2   -1    0    0    0  501  0.00000000000E+00  0.00000000000E+00 -0.36528844559E+03  0.36528844560E+03  0.25500000920E-02 0. -1.
    10030    2    1    2    0    0  0.00000000000E+00  0.00000000000E+00  0.77229283610E+03  0.15028697273E+04  0.12892560617E+04 0.  0.
        1    1    3    3  502    0  0.18871468088E+03 -0.15713055456E+03 -0.30862883646E+03  0.39440461544E+03  0.50400001928E-02 0. -1.
       -1    1    3    3    0  502 -0.18871468088E+03  0.15713055456E+03  0.10809216726E+04  0.11084651119E+04  0.50400001928E-02 0.  1.
</event>
<event>
 5   0  0.1387622E-03  0.1357670E+04  0.7818609E-02  0.8985042E-01
        1   -1    0    0  501    0  0.00000000000E+00  0.00000000000E+00  0.78567337509E+03  0.78567337510E+03  0.50400001928E-02 0.  1.
       -1   -1    0    0    0  501  0.00000000000E+00  0.00000000000E+00 -0.58652466297E+03  0.58652466299E+03  0.50400001928E-02 0. -1.
    10030    2    1    2    0    0  0.00000000000E+00  0.00000000000E+00  0.19914871212E+03  0.13721980381E+04  0.13576697854E+04 0.  0.
        3    1    3    3  502    0 -0.41822384255E+03 -0.51677879405E+03  0.23832152581E+03  0.70623555867E+03  0.10100000352E+00 0.  1.
       -3    1    3    3    0  502  0.41822384255E+03  0.51677879405E+03 -0.39172813693E+02  0.66596247942E+03  0.10100000352E+00 0. -1.
</event>
<event>
 5   0  0.1324721E-03  0.1299760E+04  0.7818609E-02  0.9029756E-01
       -1   -1    0    0    0  501  0.00000000000E+00  0.00000000000E+00  0.26058812872E+03  0.26058812877E+03  0.50400001928E-02 0.  1.
        1   -1    0    0  501    0  0.00000000000E+00  0.00000000000E+00 -0.16207331149E+04  0.16207331149E+04  0.50400001928E-02 0. -1.
    10030    2    1    2    0    0  0.00000000000E+00  0.00000000000E+00 -0.13601449861E+04  0.18813212436E+04  0.12997596849E+04 0.  0.
        1    1    3    3  502    0  0.28048469513E+03  0.35111086106E+03 -0.55741219327E+00  0.44938937648E+03  0.50400001928E-02 0.  1.
       -1    1    3    3    0  502 -0.28048469513E+03 -0.35111086106E+03 -0.13595875739E+04  0.14319318672E+04  0.50400001928E-02 0. -1.
</event>
<event>
 5   0  0.1324721E-03  0.1317263E+04  0.7818609E-02  0.9015986E-01
        1   -1    0    0  501    0  0.00000000000E+00  0.00000000000E+00  0.59465301764E+03  0.59465301766E+03  0.50400001928E-02 0. -1.
       -1   -1    0    0    0  501  0.00000000000E+00  0.00000000000E+00 -0.72949352049E+03  0.72949352051E+03  0.50400001928E-02 0.  1.
    10030    2    1    2    0    0  0.00000000000E+00  0.00000000000E+00 -0.13484050285E+03  0.13241465382E+04  0.13172631071E+04 0.  0.
        1    1    3    3  502    0 -0.37559776620E+03 -0.53162202242E+03 -0.16844350236E+03  0.67236066973E+03  0.50400001928E-02 0.  1.
       -1    1    3    3    0  502  0.37559776620E+03  0.53162202242E+03  0.33602999511E+02  0.65178586844E+03  0.50400001928E-02 0. -1.
</event>
<event>
 5   0  0.1346593E-03  0.1286459E+04  0.7818609E-02  0.9040373E-01
        1   -1    0    0  501    0  0.00000000000E+00  0.00000000000E+00  0.11162060860E+04  0.11162060860E+04  0.50400001928E-02 0. -1.
       -1   -1    0    0    0  501  0.00000000000E+00  0.00000000000E+00 -0.37067014093E+03  0.37067014096E+03  0.50400001928E-02 0.  1.
    10030    2    1    2    0    0  0.00000000000E+00  0.00000000000E+00  0.74553594506E+03  0.14868762270E+04  0.12864591206E+04 0.  0.
        2    1    3    3  502    0  0.59600342950E+03 -0.22654750510E+03  0.47084275548E+03  0.79261387853E+03  0.25500000920E-02 0. -1.
       -2    1    3    3    0  502 -0.59600342950E+03  0.22654750510E+03  0.27469318958E+03  0.69426234843E+03  0.25500000920E-02 0.  1.
</event>
<event>
 5   0  0.1387622E-03  0.1292999E+04  0.7818609E-02  0.9035135E-01
        1   -1    0    0  501    0  0.00000000000E+00  0.00000000000E+00  0.58747498145E+03  0.58747498148E+03  0.50400001928E-02 0.  1.
       -1   -1    0    0    0  501  0.00000000000E+00  0.00000000000E+00 -0.71145479938E+03  0.71145479940E+03  0.50400001928E-02 0. -1.
    10030    2    1    2    0    0  0.00000000000E+00  0.00000000000E+00 -0.12397981793E+03  0.12989297809E+04  0.12929994510E+04 0.  0.
        3    1    3    3  502    0 -0.54104370390E+02 -0.62868250071E+03  0.79342648171E+02  0.63597502751E+03  0.10100000352E+00 0.  1.
       -3    1    3    3    0  502  0.54104370390E+02  0.62868250071E+03 -0.20332246610E+03  0.66295475337E+03  0.10100000352E+00 0. -1.
</event>
<event>
 5   0  0.2334946E-03  0.1287419E+04  0.7818609E-02  0.9039602E-01
        2   -1    0    0  501    0  0.00000000000E+00  0.00000000000E+00  0.15043802498E+04  0.15043802498E+04  0.25500000920E-02 0.  1.
       -2   -1    0    0    0  501  0.00000000000E+00  0.00000000000E+00 -0.27543716341E+03  0.27543716342E+03  0.25500000920E-02 0. -1.
    10030    2    1    2    0    0  0.00000000000E+00  0.00000000000E+00  0.12289430864E+04  0.17798174132E+04  0.12874194790E+04 0.  0.
        1    1    3    3  502    0 -0.23110758733E+02  0.42256496615E+03  0.12850287834E+04  0.13529206304E+04  0.50400001928E-02 0.  1.
       -1    1    3    3    0  502  0.23110758733E+02 -0.42256496615E+03 -0.56085697026E+02  0.42689678287E+03  0.50400001928E-02 0. -1.
</event>
<event>
 5   0  0.2478236E-03  0.1275208E+04  0.7818609E-02  0.9049460E-01
       -2   -1    0    0    0  501  0.00000000000E+00  0.00000000000E+00  0.30459043197E+03  0.30459043198E+03  0.25500000920E-02 0. -1.
        2   -1    0    0  501    0  0.00000000000E+00  0.00000000000E+00 -0.13347059597E+04  0.13347059598E+04  0.25500000920E-02 0.  1.
    10030    2    1    2    0    0  0.00000000000E+00  0.00000000000E+00 -0.10301155278E+04  0.16392963917E+04  0.12752076926E+04 0.  0.
        3    1    3    3  502    0  0.94268769911E+02  0.56410402573E+03 -0.15273749651E+03  0.59197019002E+03  0.10100000352E+00 0. -1.
       -3    1    3    3    0  502 -0.94268769911E+02 -0.56410402573E+03 -0.87737803128E+03  0.10473262017E+04  0.10100000352E+00 0.  1.
</event>
<event>
 5   0  0.1387622E-03  0.1301315E+04  0.7818609E-02  0.9028523E-01
       -1   -1    0    0    0  501  0.00000000000E+00  0.00000000000E+00  0.40440825941E+03  0.40440825944E+03  0.50400001928E-02 0. -1.
        1   -1    0    0  501    0  0.00000000000E+00  0.00000000000E+00 -0.10468503869E+04  0.10468503869E+04  0.50400001928E-02 0.  1.
    10030    2    1    2    0    0  0.00000000000E+00  0.00000000000E+00 -0.64244212748E+03  0.14512586463E+04  0.13013146320E+04 0.  0.
        3    1    3    3  502    0 -0.35577486997E+02 -0.58112522227E+03  0.27372204522E+01  0.58221970433E+03  0.10100000352E+00 0. -1.
       -3    1    3    3    0  502  0.35577486997E+02  0.58112522227E+03 -0.64517934793E+03  0.86903894201E+03  0.10100000352E+00 0.  1.
</event>
<event>
 5   0  0.2312105E-03  0.1306238E+04  0.7818609E-02  0.9024633E-01
       -2   -1    0    0    0  501  0.00000000000E+00  0.00000000000E+00  0.30495816629E+03  0.30495816630E+03  0.25500000920E-02 0. -1.
        2   -1    0    0  501    0  0.00000000000E+00  0.00000000000E+00 -0.13987633021E+04  0.13987633021E+04  0.25500000920E-02 0.  1.
    10030    2    1    2    0    0  0.00000000000E+00  0.00000000000E+00 -0.10938051358E+04  0.17037214684E+04  0.13062377910E+04 0.  0.
        5    1    3    3  502    0  0.40558143492E+03 -0.31960898142E+02  0.11946968730E+03  0.42404350666E+03  0.46999998093E+01 0. -1.
       -5    1    3    3    0  502 -0.40558143492E+03  0.31960898142E+02 -0.12132748231E+04  0.12796779617E+04  0.46999998093E+01 0.  1.
</event>
<event>
 5   0  0.1310461E-03  0.1189086E+04  0.7818609E-02  0.9122463E-01
        1   -1    0    0  501    0  0.00000000000E+00  0.00000000000E+00  0.99717576304E+03  0.99717576305E+03  0.50400001928E-02 0. -1.
       -1   -1    0    0    0  501  0.00000000000E+00  0.00000000000E+00 -0.35448278626E+03  0.35448278629E+03  0.50400001928E-02 0.  1.
    10030    2    1    2    0    0  0.00000000000E+00  0.00000000000E+00  0.64269297678E+03  0.13516585493E+04  0.11890864441E+04 0.  0.
        4    1    3    3  502    0 -0.27688163987E+03 -0.16125948518E+03 -0.24793582833E+03  0.40514423596E+03  0.12699999809E+01 0.  1.
       -4    1    3    3    0  502  0.27688163987E+03  0.16125948518E+03  0.89062880511E+03  0.94651431339E+03  0.12699999809E+01 0. -1.
</event>
<event>
 5   0  0.1346593E-03  0.1294580E+04  0.7818609E-02  0.9033875E-01
       -1   -1    0    0    0  501  0.00000000000E+00  0.00000000000E+00  0.77111014207E+03  0.77111014208E+03  0.50400001928E-02 0.  1.
        1   -1    0    0  501    0  0.00000000000E+00  0.00000000000E+00 -0.54335185722E+03  0.54335185725E+03  0.50400001928E-02 0. -1.
    10030    2    1    2    0    0  0.00000000000E+00  0.00000000000E+00  0.22775828484E+03  0.13144619993E+04  0.12945796659E+04 0.  0.
        2    1    3    3  502    0  0.33729673848E+03 -0.43657341360E+03 -0.22987423925E+03  0.59766847092E+03  0.25500000920E-02 0. -1.
       -2    1    3    3    0  502 -0.33729673848E+03  0.43657341360E+03  0.45763252409E+03  0.71679352841E+03  0.25500000920E-02 0.  1.
</event>
<event>
 5   0  0.1324721E-03  0.1230275E+04  0.7818609E-02  0.9086762E-01
        1   -1    0    0  501    0  0.00000000000E+00  0.00000000000E+00  0.62455067793E+03  0.62455067795E+03  0.50400001928E-02 0.  1.
       -1   -1    0    0    0  501  0.00000000000E+00  0.00000000000E+00 -0.60586626061E+03  0.60586626063E+03  0.50400001928E-02 0. -1.
    10030    2    1    2    0    0  0.00000000000E+00  0.00000000000E+00  0.18684417322E+02  0.12304169386E+04  0.12302750649E+04 0.  0.
        1    1    3    3  502    0  0.18390199083E+03  0.52040977952E+03  0.28093917652E+03  0.61933278759E+03  0.50400001928E-02 0.  1.
       -1    1    3    3    0  502 -0.18390199083E+03 -0.52040977952E+03 -0.26225475920E+03  0.61108415100E+03  0.50400001928E-02 0. -1.
</event>
<event>
 5   0  0.1332630E-03  0.1381188E+04  0.7818609E-02  0.8967550E-01
       -1   -1    0    0    0  501  0.00000000000E+00  0.00000000000E+00  0.32842112390E+03  0.32842112394E+03  0.50400001928E-02 0. -1.
        1   -1    0    0  501    0  0.00000000000E+00  0.00000000000E+00 -0.14521593673E+04  0.14521593674E+04  0.50400001928E-02 0.  1.
    10030    2    1    2    0    0  0.00000000000E+00  0.00000000000E+00 -0.11237382434E+04  0.17805804913E+04  0.13811876216E+04 0.  0.
        5    1    3    3  502    0  0.29809850550E+03 -0.60789008493E+03 -0.38650152995E+03  0.77961438994E+03  0.46999998093E+01 0. -1.
       -5    1    3    3    0  502 -0.29809850550E+03  0.60789008493E+03 -0.73723671349E+03  0.10009661014E+04  0.46999998093E+01 0.  1.
</event>
<event>
 5   0  0.2312105E-03  0.1304644E+04  0.7818609E-02  0.9025890E-01
        2   -1    0    0  501    0  0.00000000000E+00  0.00000000000E+00  0.15665196167E+04  0.15665196167E+04  0.25500000920E-02 0.  1.
       -2   -1    0    0    0  501  0.00000000000E+00  0.00000000000E+00 -0.27163666419E+03  0.27163666420E+03  0.25500000920E-02 0. -1.
    10030    2    1    2    0    0  0.00000000000E+00  0.00000000000E+00  0.12948829525E+04  0.18381562809E+04  0.13046442628E+04 0.  0.
        5    1    3    3  502    0  0.79922272138E+02  0.63341428761E+03  0.45893465300E+03  0.78628514869E+03  0.46999998093E+01 0. -1.
       -5    1    3    3    0  502 -0.79922272138E+02 -0.63341428761E+03  0.83594829952E+03  0.10518711322E+04  0.46999998093E+01 0.  1.
</event>
<event>
 5   0  0.2401211E-03  0.1305919E+04  0.7818609E-02  0.9024884E-01
        2   -1    0    0  501    0  0.00000000000E+00  0.00000000000E+00  0.19689509312E+04  0.19689509312E+04  0.25500000920E-02 0. -1.
       -2   -1    0    0    0  501  0.00000000000E+00  0.00000000000E+00 -0.21653988321E+03  0.21653988323E+03  0.25500000920E-02 0.  1.
    10030    2    1    2    0    0  0.00000000000E+00  0.00000000000E+00  0.17524110480E+04  0.21854908144E+04  0.13059194534E+04 0.  0.
        4    1    3    3  502    0  0.26355991704E+03 -0.56652626644E+03  0.55894554237E+03  0.83835408549E+03  0.12699999809E+01 0.  1.
       -4    1    3    3    0  502 -0.26355991704E+03  0.56652626644E+03  0.11934655056E+04  0.13471367289E+04  0.12699999809E+01 0. -1.
</event>
<event>
 5   0  0.1332630E-03  0.1301745E+04  0.7818609E-02  0.9028183E-01
       -1   -1    0    0    0  501  0.00000000000E+00  0.00000000000E+00  0.16749804387E+03  0.16749804394E+03  0.50400001928E-02 0.  1.
        1   -1    0    0  501    0  0.00000000000E+00  0.00000000000E+00 -0.25291918469E+04  0.25291918469E+04  0.50400001928E-02 0. -1.
    10030    2    1    2    0    0  0.00000000000E+00  0.00000000000E+00 -0.23616938030E+04  0.26966898909E+04  0.13017445019E+04 0.  0.
        5    1    3    3  502    0  0.38512335796E+03 -0.50621777629E+03 -0.89502538532E+03  0.10980295844E+04  0.46999998093E+01 0.  1.
       -5    1    3    3    0  502 -0.38512335796E+03  0.50621777629E+03 -0.14666684177E+04  0.15986603064E+04  0.46999998093E+01 0. -1.
</event>
<event>
 5   0  0.1332630E-03  0.1303406E+04  0.7818609E-02  0.9026868E-01
       -1   -1    0    0    0  501  0.00000000000E+00  0.00000000000E+00  0.74961015224E+03  0.74961015225E+03  0.50400001928E-02 0. -1.
        1   -1    0    0  501    0  0.00000000000E+00  0.00000000000E+00 -0.56658367137E+03  0.56658367140E+03  0.50400001928E-02 0.  1.
    10030    2    1    2    0    0  0.00000000000E+00  0.00000000000E+00  0.18302648086E+03  0.13161938236E+04  0.13034061104E+04 0.  0.
        5    1    3    3  502    0 -0.26937215421E+03 -0.48159362485E+03  0.44161488083E+03  0.70678113297E+03  0.46999998093E+01 0. -1.
       -5    1    3    3    0  502  0.26937215421E+03  0.48159362485E+03 -0.25858839997E+03  0.60941269067E+03  0.46999998093E+01 0.  1.
</event>
<event>
 5   0  0.2334946E-03  0.1301240E+04  0.7818609E-02  0.9028583E-01
       -2   -1    0    0    0  501  0.00000000000E+00  0.00000000000E+00  0.30877071512E+03  0.30877071513E+03  0.25500000920E-02 0.  1.
        2   -1    0    0  501    0  0.00000000000E+00  0.00000000000E+00 -0.13709405822E+04  0.13709405822E+04  0.25500000920E-02 0. -1.
    10030    2    1    2    0    0  0.00000000000E+00  0.00000000000E+00 -0.10621698671E+04  0.16797112974E+04  0.13012398764E+04 0.  0.
        1    1    3    3  502    0  0.58820147613E+03 -0.25648752761E+03 -0.66975103839E+03  0.92754152565E+03  0.50400001928E-02 0. -1.
       -1    1    3    3    0  502 -0.58820147613E+03  0.25648752761E+03 -0.39241882873E+03  0.75216977174E+03  0.50400001928E-02 0.  1.
</event>
<event>
 5   0  0.2401211E-03  0.1310126E+04  0.7818609E-02  0.9021573E-01
       -2   -1    0    0    0  501  0.00000000000E+00  0.00000000000E+00  0.49767312537E+03  0.49767312538E+03  0.25500000920E-02 0. -1.
        2   -1    0    0  501    0  0.00000000000E+00  0.00000000000E+00 -0.86222763982E+03  0.86222763982E+03  0.25500000920E-02 0.  1.
    10030    2    1    2    0    0  0.00000000000E+00  0.00000000000E+00 -0.36455451445E+03  0.13599007652E+04  0.13101259852E+04 0.  0.
        4    1    3    3  502    0  0.27487647404E+03 -0.75973885780E+02  0.42985386926E+03  0.51585372842E+03  0.12699999809E+01 0. -1.
       -4    1    3    3    0  502 -0.27487647404E+03  0.75973885780E+02 -0.79440838371E+03  0.84404703678E+03  0.12699999809E+01 0.  1.
</event>
<event>
 5   0  0.2401211E-03  0.1308852E+04  0.7818609E-02  0.9022575E-01
        2   -1    0    0  501    0  0.00000000000E+00  0.00000000000E+00  0.25000712789E+04  0.25000712789E+04  0.25500000920E-02 0.  1.
       -2   -1    0    0    0  501  0.00000000000E+00  0.00000000000E+00 -0.17130445100E+03  0.17130445102E+03  0.25500000920E-02 0. -1.
    10030    2    1    2    0    0  0.00000000000E+00  0.00000000000E+00  0.23287668279E+04  0.26713757299E+04  0.13088519212E+04 0.  0.
        4    1    3    3  502    0  0.56518968573E+02 -0.28632669359E+03  0.23598880041E+04  0.23778667696E+04  0.12699999809E+01 0.  1.
       -4    1    3    3    0  502 -0.56518968573E+02  0.28632669359E+03 -0.31121176194E+02  0.29350896030E+03  0.12699999809E+01 0. -1.
</event>
<event>
 5   0  0.1310461E-03  0.1303163E+04  0.7818609E-02  0.9027061E-01
       -1   -1    0    0    0  501  0.00000000000E+00  0.00000000000E+00  0.25197414112E+03  0.25197414117E+03  0.50400001928E-02 0.  1.
        1   -1    0    0  501    0  0.00000000000E+00  0.00000000000E+00 -0.16849285362E+04  0.16849285362E+04  0.50400001928E-02 0. -1.
    10030    2    1    2    0    0  0.00000000000E+00  0.00000000000E+00 -0.14329543951E+04  0.19369026774E+04  0.13031629535E+04 0.  0.
        4    1    3    3  502    0  0.33697545770E+03  0.13649813073E+03 -0.15201465664E+04  0.15630199599E+04  0.12699999809E+01 0. -1.
       -4    1    3    3    0  502 -0.33697545770E+03 -0.13649813073E+03  0.87192171336E+02  0.37388271748E+03  0.12699999809E+01 0.  1.
</event>
<event>
 5   0  0.1387622E-03  0.1292110E+04  0.7818609E-02  0.9035846E-01
        1   -1    0    0  501    0  0.00000000000E+00  0.00000000000E+00  0.96231925941E+03  0.96231925942E+03  0.50400001928E-02 0.  1.
       -1   -1    0    0    0  501  0.00000000000E+00  0.00000000000E+00 -0.43373006752E+03  0.43373006755E+03  0.50400001928E-02 0. -1.
    10030    2    1    2    0    0  0.00000000000E+00  0.00000000000E+00  0.52858919189E+03  0.13960493270E+04  0.12921095888E+04 0.  0.
        3    1    3    3  502    0  0.70831341492E+02  0.63522234209E+03  0.36600707856E+03  0.73653628192E+03  0.10100000352E+00 0. -1.
       -3    1    3    3    0  502 -0.70831341492E+02 -0.63522234209E+03  0.16258211333E+03  0.65951304506E+03  0.10100000352E+00 0.  1.
</event>
<event>
 5   0  0.1387622E-03  0.1290594E+04  0.7818609E-02  0.9037058E-01
        1   -1    0    0  501    0  0.00000000000E+00  0.00000000000E+00  0.12554099060E+04  0.12554099060E+04  0.50400001928E-02 0. -1.
       -1   -1    0    0    0  501  0.00000000000E+00  0.00000000000E+00 -0.33169099411E+03  0.33169099415E+03  0.50400001928E-02 0.  1.
    10030    2    1    2    0    0  0.00000000000E+00  0.00000000000E+00  0.92371891185E+03  0.15871009001E+04  0.12905939094E+04 0.  0.
        3    1    3    3  502    0 -0.39382529184E+03 -0.51111841731E+03  0.47198172199E+03  0.79944177593E+03  0.10100000352E+00 0. -1.
       -3    1    3    3    0  502  0.39382529184E+03  0.51111841731E+03  0.45173718986E+03  0.78765912419E+03  0.10100000352E+00 0.  1.
</event>
<event>
 5   0  0.2401211E-03  0.1299006E+04  0.7818609E-02  0.9030354E-01
        2   -1    0    0  501    0  0.00000000000E+00  0.00000000000E+00  0.55878079743E+03  0.55878079743E+03  0.25500000920E-02 0. -1.
       -2   -1    0    0    0  501  0.00000000000E+00  0.00000000000E+00 -0.75495466024E+03  0.75495466024E+03  0.25500000920E-02 0.  1.
    10030    2    1    2    0    0  0.00000000000E+00  0.00000000000E+00 -0.19617386281E+03  0.13137354577E+04  0.12990060309E+04 0.  0.
        4    1    3    3  502    0 -0.15244724002E+03 -0.57366372106E+03 -0.36474756608E+03  0.69668689217E+03  0.12699999809E+01 0.  1.
       -4    1    3    3    0  502  0.15244724002E+03  0.57366372106E+03  0.16857370327E+03  0.61704856551E+03  0.12699999809E+01 0. -1.
</event>
<event>
 5   0  0.1310461E-03  0.1294958E+04  0.7818609E-02  0.9033573E-01
        1   -1    0    0  501    0  0.00000000000E+00  0.00000000000E+00  0.71958186112E+03  0.71958186114E+03  0.50400001928E-02 0.  1.
       -1   -1    0    0    0  501  0.00000000000E+00  0.00000000000E+00 -0.58260069865E+03  0.58260069868E+03  0.50400001928E-02 0. -1.
    10030    2    1    2    0    0  0.00000000000E+00  0.00000000000E+00  0.13698116247E+03  0.13021825598E+04  0.12949577523E+04 0.  0.
        4    1    3    3  502    0  0.58492013434E+03  0.14904391771E+03 -0.16708472927E+03  0.62631028462E+03  0.12699999809E+01 0. -1.
       -4    1    3    3    0  502 -0.58492013434E+03 -0.14904391771E+03  0.30406589174E+03  0.67587227520E+03  0.12699999809E+01 0.  1.
</event>
<event>
 5   0  0.2334946E-03  0.1300792E+04  0.7818609E-02  0.9028937E-01
       -2   -1    0    0    0  501  0.00000000000E+00  0.00000000000E+00  0.10047931258E+04  0.10047931258E+04  0.25500000920E-02 0. -1.
        2   -1    0    0  501    0  0.00000000000E+00  0.00000000000E+00 -0.42099696260E+03  0.42099696261E+03  0.25500000920E-02 0.  1.
    10030    2    1    2    0    0  0.00000000000E+00  0.00000000000E+00  0.58379616316E+03  0.14257900884E+04  0.13007918419E+04 0.  0.
        1    1    3    3  502    0  0.16877197846E+03 -0.62184532344E+03  0.38894584124E+03  0.75263168578E+03  0.50400001928E-02 0. -1.
       -1    1    3    3    0  502 -0.16877197846E+03  0.62184532344E+03  0.19485032192E+03  0.67315840259E+03  0.50400001928E-02 0.  1.
</event>
<event>
 5   0  0.1332630E-03  0.1338481E+04  0.7818609E-02  0.8999594E-01
       -1   -1    0    0    0  501  0.00000000000E+00  0.00000000000E+00  0.32621272385E+03  0.32621272389E+03  0.50400001928E-02 0. -1.
        1   -1    0    0  501    0  0.00000000000E+00  0.00000000000E+00 -0.13729778834E+04  0.13729778835E+04  0.50400001928E-02 0.  1.
    10030    2    1    2    0    0  0.00000000000E+00  0.00000000000E+00 -0.10467651596E+04  0.16991906073E+04  0.13384810125E+04 0.  0.
        5    1    3    3  502    0 -0.45498558159E+03  0.17426828078E+02 -0.11460099727E+04  0.12331571357E+04  0.46999998093E+01 0.  1.
       -5    1    3    3    0  502  0.45498558159E+03 -0.17426828078E+02  0.99244813085E+02  0.46603347167E+03  0.46999998093E+01 0. -1.
</event>
<event>
 5   0  0.2478236E-03  0.1306410E+04  0.7818609E-02  0.9024497E-01
       -2   -1    0    0    0  501  0.00000000000E+00  0.00000000000E+00  0.26411770553E+03  0.26411770554E+03  0.25500000920E-02 0. -1.
        2   -1    0    0  501    0  0.00000000000E+00  0.00000000000E+00 -0.16154797743E+04  0.16154797743E+04  0.25500000920E-02 0.  1.
    10030    2    1    2    0    0  0.00000000000E+00  0.00000000000E+00 -0.13513620687E+04  0.18795974798E+04  0.13064100602E+04 0.  0.
        3    1    3    3  502    0  0.11730613874E+03 -0.18084211258E+03 -0.15628337019E+04  0.15776291674E+04  0.10100000352E+00 0.  1.
       -3    1    3    3    0  502 -0.11730613874E+03  0.18084211258E+03  0.21147163316E+03  0.30196831241E+03  0.10100000352E+00 0. -1.
</event>
<event>
 5   0  0.2334946E-03  0.1300307E+04  0.7818609E-02  0.9029321E-01
       -2   -1    0    0    0  501  0.00000000000E+00  0.00000000000E+00  0.76607071977E+03  0.76607071977E+03  0.25500000920E-02 0. -1.
        2   -1    0    0  501    0  0.00000000000E+00  0.00000000000E+00 -0.55177649008E+03  0.55177649009E+03  0.25500000920E-02 0.  1.
    10030    2    1    2    0    0  0.00000000000E+00  0.00000000000E+00  0.21429422969E+03  0.13178472099E+04  0.13003073681E+04 0.  0.
        1    1    3    3  502    0  0.57189557750E+02 -0.26269528699E+03 -0.49280100920E+03  0.56136645253E+03  0.50400001928E-02 0.  1.
       -1    1    3    3    0  502 -0.57189557750E+02  0.26269528699E+03  0.70709523889E+03  0.75648075733E+03  0.50400001928E-02 0. -1.
</event>
<event>
 5   0  0.1332630E-03  0.1295080E+04  0.7818609E-02  0.9033476E-01
       -1   -1    0    0    0  501  0.00000000000E+00  0.00000000000E+00  0.71917759504E+03  0.71917759506E+03  0.50400001928E-02 0.  1.
        1   -1    0    0  501    0  0.00000000000E+00  0.00000000000E+00 -0.58303797263E+03  0.58303797265E+03  0.50400001928E-02 0. -1.
    10030    2    1    2    0    0  0.00000000000E+00  0.00000000000E+00  0.13613962242E+03  0.13022155677E+04  0.12950796840E+04 0.  0.
        5    1    3    3  502    0 -0.56132392264E+02 -0.57399417801E+03  0.36408210903E+03  0.68205427494E+03  0.46999998093E+01 0.  1.
       -5    1    3    3    0  502  0.56132392264E+02  0.57399417801E+03 -0.22794248661E+03  0.62016129277E+03  0.46999998093E+01 0. -1.
</event>
<event>
 5   0  0.1346593E-03  0.1306438E+04  0.7818609E-02  0.9024475E-01
       -1   -1    0    0    0  501  0.00000000000E+00  0.00000000000E+00  0.40052201247E+03  0.40052201250E+03  0.50400001928E-02 0. -1.
        1   -1    0    0  501    0  0.00000000000E+00  0.00000000000E+00 -0.10653472798E+04  0.10653472798E+04  0.50400001928E-02 0.  1.
    10030    2    1    2    0    0  0.00000000000E+00  0.00000000000E+00 -0.66482526733E+03  0.14658692923E+04  0.13064379610E+04 0.  0.
        2    1    3    3  502    0 -0.13113618727E+03 -0.39172977757E+03  0.23534836231E+03  0.47543429608E+03  0.25500000920E-02 0. -1.
       -2    1    3    3    0  502  0.13113618727E+03  0.39172977757E+03 -0.90017362964E+03  0.99043499623E+03  0.25500000920E-02 0.  1.
</event>
<event>
 5   0  0.2361043E-03  0.1306104E+04  0.7818609E-02  0.9024738E-01
        2   -1    0    0  501    0  0.00000000000E+00  0.00000000000E+00  0.17317188314E+04  0.17317188315E+04  0.25500000920E-02 0. -1.
       -2   -1    0    0    0  501  0.00000000000E+00  0.00000000000E+00 -0.24627387475E+03  0.24627387477E+03  0.25500000920E-02 0.  1.
    10030    2    1    2    0    0  0.00000000000E+00  0.00000000000E+00  0.14854449567E+04  0.19779927062E+04  0.13061042939E+04 0.  0.
        2    1    3    3  502    0  0.12277040496E+03  0.59235303466E+03  0.37015498579E+03  0.70920335837E+03  0.25500000920E-02 0. -1.
       -2    1    3    3    0  502 -0.12277040496E+03 -0.59235303466E+03  0.11152899709E+04  0.12687893479E+04  0.25500000920E-02 0.  1.
</event>
<event>
 5   0  0.2361043E-03  0.1072597E+04  0.7818609E-02  0.9232320E-01
        2   -1    0    0  501    0  0.00000000000E+00  0.00000000000E+00  0.80986664094E+03  0.80986664095E+03  0.25500000920E-02 0.  1.
       -2   -1    0    0    0  501  0.00000000000E+00  0.00000000000E+00 -0.35514036497E+03  0.35514036498E+03  0.25500000920E-02 0. -1.
    10030    2    1    2    0    0  0.00000000000E+00  0.00000000000E+00  0.45472627597E+03  0.11650070059E+04  0.10725974724E+04 0.  0.
        2    1    3    3  502    0  0.41152004312E+03  0.15154620141E+03  0.56266909219E+03  0.71338033640E+03  0.25500000920E-02 0.  1.
       -2    1    3    3    0  502 -0.41152004312E+03 -0.15154620141E+03 -0.10794281621E+03  0.45162666953E+03  0.25500000920E-02 0. -1.
</event>
<event>
 5   0  0.1324721E-03  0.1278623E+04  0.7818609E-02  0.9046691E-01
        1   -1    0    0  501    0  0.00000000000E+00  0.00000000000E+00  0.11162047335E+04  0.11162047335E+04  0.50400001928E-02 0.  1.
       -1   -1    0    0    0  501  0.00000000000E+00  0.00000000000E+00 -0.36616864038E+03  0.36616864042E+03  0.50400001928E-02 0. -1.
    10030    2    1    2    0    0  0.00000000000E+00  0.00000000000E+00  0.75003609313E+03  0.14823733739E+04  0.12786229619E+04 0.  0.
        1    1    3    3  502    0  0.34755862744E+03  0.12613202568E+03 -0.22964000803E+03  0.43524799911E+03  0.50400001928E-02 0. -1.
       -1    1    3    3    0  502 -0.34755862744E+03 -0.12613202568E+03  0.97967610117E+03  0.10471253748E+04  0.50400001928E-02 0.  1.
</event>
<event>
 5   0  0.1346593E-03  0.1316363E+04  0.7818609E-02  0.9016689E-01
        1   -1    0    0  501    0  0.00000000000E+00  0.00000000000E+00  0.12543872531E+04  0.12543872531E+04  0.50400001928E-02 0.  1.
       -1   -1    0    0    0  501  0.00000000000E+00  0.00000000000E+00 -0.34535033511E+03  0.34535033515E+03  0.50400001928E-02 0. -1.
    10030    2    1    2    0    0  0.00000000000E+00  0.00000000000E+00  0.90903691800E+03  0.15997375883E+04  0.13163632603E+04 0.  0.
        2    1    3    3  502    0  0.64096542257E+03 -0.12772823823E+03  0.35997788393E+03  0.74614693774E+03  0.25500000920E-02 0. -1.
       -2    1    3    3    0  502 -0.64096542257E+03  0.12772823823E+03  0.54905903407E+03  0.85359065053E+03  0.25500000920E-02 0.  1.
</event>
<event>
 5   0  0.2334946E-03  0.1329951E+04  0.7818609E-02  0.9006145E-01
        2   -1    0    0  501    0  0.00000000000E+00  0.00000000000E+00  0.12674121384E+04  0.12674121384E+04  0.25500000920E-02 0.  1.
       -2   -1    0    0    0  501  0.00000000000E+00  0.00000000000E+00 -0.34889383765E+03  0.34889383766E+03  0.25500000920E-02 0. -1.
    10030    2    1    2    0    0  0.00000000000E+00  0.00000000000E+00  0.91851830075E+03  0.16163059761E+04  0.13299508034E+04 0.  0.
        1    1    3    3  502    0  0.31432246206E+03  0.18413670592E+03  0.11353568409E+04  0.11923674320E+04  0.50400001928E-02 0.  1.
       -1    1    3    3    0  502 -0.31432246206E+03 -0.18413670592E+03 -0.21683854017E+03  0.42393854407E+03  0.50400001928E-02 0. -1.
</event>
<event>
 5   0  0.1310461E-03  0.1300480E+04  0.7818609E-02  0.9029185E-01
        1   -1    0    0  501    0  0.00000000000E+00  0.00000000000E+00  0.13083433042E+04  0.13083433043E+04  0.50400001928E-02 0. -1.
       -1   -1    0    0    0  501  0.00000000000E+00  0.00000000000E+00 -0.32316586934E+03  0.32316586938E+03  0.50400001928E-02 0.  1.
    10030    2    1    2    0    0  0.00000000000E+00  0.00000000000E+00  0.98517743490E+03  0.16315091736E+04  0.13004797597E+04 0.  0.
        4    1    3    3  502    0  0.11086190337E+03 -0.23645555543E+03 -0.25448010824E+03  0.36464137135E+03  0.12699999809E+01 0.  1.
       -4    1    3    3    0  502 -0.11086190337E+03  0.23645555543E+03  0.12396575431E+04  0.12668678023E+04  0.12699999809E+01 0. -1.
</event>
<event>
 5   0  0.2334946E-03  0.1415289E+04  0.7818609E-02  0.8942825E-01
        2   -1    0    0  501    0  0.00000000000E+00  0.00000000000E+00  0.11624254306E+04  0.11624254306E+04  0.25500000920E-02 0. -1.
       -2   -1    0    0    0  501  0.00000000000E+00  0.00000000000E+00 -0.43078954471E+03  0.43078954471E+03  0.25500000920E-02 0.  1.
    10030    2    1    2    0    0  0.00000000000E+00  0.00000000000E+00  0.73163588592E+03  0.15932149753E+04  0.14152889769E+04 0.  0.
        1    1    3    3  502    0  0.11797668966E+03  0.36737099718E+03  0.10335881279E+04  0.11032607883E+04  0.50400001928E-02 0. -1.
       -1    1    3    3    0  502 -0.11797668966E+03 -0.36737099718E+03 -0.30195224202E+03  0.48995418700E+03  0.50400001928E-02 0.  1.
</event>
<event>
 5   0  0.1324721E-03  0.1301790E+04  0.7818609E-02  0.9028147E-01
        1   -1    0    0  501    0  0.00000000000E+00  0.00000000000E+00  0.42812412224E+03  0.42812412227E+03  0.50400001928E-02 0.  1.
       -1   -1    0    0    0  501  0.00000000000E+00  0.00000000000E+00 -0.98958259818E+03  0.98958259820E+03  0.50400001928E-02 0. -1.
    10030    2    1    2    0    0  0.00000000000E+00  0.00000000000E+00 -0.56145847594E+03  0.14177067205E+04  0.13017898160E+04 0.  0.
        1    1    3    3  502    0  0.14681795199E+03  0.25796567957E+03 -0.91158803044E+03  0.95869418489E+03  0.50400001928E-02 0. -1.
       -1    1    3    3    0  502 -0.14681795199E+03 -0.25796567957E+03  0.35012955450E+03  0.45901253558E+03  0.50400001928E-02 0.  1.
</event>
<event>
 5   0  0.2401211E-03  0.1179516E+04  0.7818609E-02  0.9130977E-01
       -2   -1    0    0    0  501  0.00000000000E+00  0.00000000000E+00  0.51833707148E+03  0.51833707149E+03  0.25500000920E-02 0.  1.
        2   -1    0    0  501    0  0.00000000000E+00  0.00000000000E+00 -0.67102047955E+03  0.67102047955E+03  0.25500000920E-02 0. -1.
    10030    2    1    2    0    0  0.00000000000E+00  0.00000000000E+00 -0.15268340807E+03  0.11893575510E+04  0.11795164946E+04 0.  0.
        4    1    3    3  502    0  0.49982804824E+03 -0.16810003218E+03  0.18992103585E+03  0.56049737857E+03  0.12699999809E+01 0.  1.
       -4    1    3    3    0  502 -0.49982804824E+03  0.16810003218E+03 -0.34260444391E+03  0.62886017247E+03  0.12699999809E+01 0. -1.
</event>
<event>
 5   0  0.1332630E-03  0.1277971E+04  0.7818609E-02  0.9047219E-01
        1   -1    0    0  501    0  0.00000000000E+00  0.00000000000E+00  0.23963372545E+03  0.23963372550E+03  0.50400001928E-02 0.  1.
       -1   -1    0    0    0  501  0.00000000000E+00  0.00000000000E+00 -0.17038606755E+04  0.17038606755E+04  0.50400001928E-02 0. -1.
    10030    2    1    2    0    0  0.00000000000E+00  0.00000000000E+00 -0.14642269501E+04  0.19434944010E+04  0.12779710191E+04 0.  0.
        5    1    3    3  502    0 -0.49420911208E+03  0.10842800450E+03 -0.13255650809E+04  0.14188531116E+04  0.46999998093E+01 0. -1.
       -5    1    3    3    0  502  0.49420911208E+03 -0.10842800450E+03 -0.13866186919E+03  0.52464128945E+03  0.46999998093E+01 0.  1.
</event>
<event>
 5   0  0.2478236E-03  0.1313052E+04  0.7818609E-02  0.9019278E-01
       -2   -1    0    0    0  501  0.00000000000E+00  0.00000000000E+00  0.47974701427E+03  0.47974701427E+03  0.25500000920E-02 0. -1.
        2   -1    0    0  501    0  0.00000000000E+00  0.00000000000E+00 -0.89844567734E+03  0.89844567735E+03  0.25500000920E-02 0.  1.
    10030    2    1    2    0    0  0.00000000000E+00  0.00000000000E+00 -0.41869866308E+03  0.13781926916E+04  0.13130523694E+04 0.  0.
        3    1    3    3  502    0 -0.18563772442E+03 -0.54569396407E+03  0.12054114508E+03  0.58887472777E+03  0.10100000352E+00 0.  1.
       -3    1    3    3    0  502  0.18563772442E+03  0.54569396407E+03 -0.53923980816E+03  0.78931796385E+03  0.10100000352E+00 0. -1.
</event>
<event>
 5   0  0.2361043E-03  0.1302245E+04  0.7818609E-02  0.9027787E-01
       -2   -1    0    0    0  501  0.00000000000E+00  0.00000000000E+00  0.21376178435E+03  0.21376178437E+03  0.25500000920E-02 0.  1.
        2   -1    0    0  501    0  0.00000000000E+00  0.00000000000E+00 -0.19833304642E+04  0.19833304642E+04  0.25500000920E-02 0. -1.
    10030    2    1    2    0    0  0.00000000000E+00  0.00000000000E+00 -0.17695686799E+04  0.21970922486E+04  0.13022446145E+04 0.  0.
        2    1    3    3  502    0  0.64344360275E+03  0.58245595485E+02 -0.74825959503E+03  0.98858719437E+03  0.25500000920E-02 0. -1.
       -2    1    3    3    0  502 -0.64344360275E+03 -0.58245595485E+02 -0.10213090848E+04  0.12085050542E+04  0.25500000920E-02 0.  1.
</event>
<event>
 5   0  0.2334946E-03  0.1306154E+04  0.7818609E-02  0.9024699E-01
        2   -1    0    0  501    0  0.00000000000E+00  0.00000000000E+00  0.18702007503E+04  0.18702007503E+04  0.25500000920E-02 0. -1.
       -2   -1    0    0    0  501  0.00000000000E+00  0.00000000000E+00 -0.22805554898E+03  0.22805554900E+03  0.25500000920E-02 0.  1.
    10030    2    1    2    0    0  0.00000000000E+00  0.00000000000E+00  0.16421452013E+04  0.20982562993E+04  0.13061541392E+04 0.  0.
        1    1    3    3  502    0  0.32897067578E+03 -0.46939157299E+03  0.31828171732E+03  0.65563206596E+03  0.50400001928E-02 0.  1.
       -1    1    3    3    0  502 -0.32897067578E+03  0.46939157299E+03  0.13238634840E+04  0.14426242333E+04  0.50400001928E-02 0. -1.
</event>
<event>
 5   0  0.1346593E-03  0.1296745E+04  0.7818609E-02  0.9032150E-01
        1   -1    0    0  501    0  0.00000000000E+00  0.00000000000E+00  0.47163779094E+03  0.47163779096E+03  0.50400001928E-02 0.  1.
       -1   -1    0    0    0  501  0.00000000000E+00  0.00000000000E+00 -0.89133476151E+03  0.89133476152E+03  0.50400001928E-02 0. -1.
    10030    2    1    2    0    0  0.00000000000E+00  0.00000000000E+00 -0.41969697057E+03  0.13629725525E+04  0.12967453997E+04 0.  0.
        2    1    3    3  502    0 -0.24177097117E+03 -0.60160687055E+03 -0.21170764500E+03  0.68205876297E+03  0.25500000920E-02 0. -1.
       -2    1    3    3    0  502  0.24177097117E+03  0.60160687055E+03 -0.20798932557E+03  0.68091378951E+03  0.25500000920E-02 0.  1.
</event>
<event>
 5   0  0.2361043E-03  0.1311777E+04  0.7818609E-02  0.9020278E-01
       -2   -1    0    0    0  501  0.00000000000E+00  0.00000000000E+00  0.19085343107E+03  0.19085343109E+03  0.25500000920E-02 0.  1.
        2   -1    0    0  501    0  0.00000000000E+00  0.00000000000E+00 -0.22540323898E+04  0.22540323898E+04  0.25500000920E-02 0. -1.
    10030    2    1    2    0    0  0.00000000000E+00  0.00000000000E+00 -0.20631789588E+04  0.24448858209E+04  0.13117771387E+04 0.  0.
        2    1    3    3  502    0 -0.58294952471E+03 -0.18775272733E+03 -0.14691197809E+04  0.15916639613E+04  0.25500000920E-02 0. -1.
       -2    1    3    3    0  502  0.58294952471E+03  0.18775272733E+03 -0.59405917785E+03  0.85322185964E+03  0.25500000920E-02 0.  1.
</event>
<event>
 5   0  0.1387622E-03  0.1273634E+04  0.7818609E-02  0.9050739E-01
       -1   -1    0    0    0  501  0.00000000000E+00  0.00000000000E+00  0.63175004075E+03  0.63175004077E+03  0.50400001928E-02 0. -1.
        1   -1    0    0  501    0  0.00000000000E+00  0.00000000000E+00 -0.64192479135E+03  0.64192479137E+03  0.50400001928E-02 0.  1.
    10030    2    1    2    0    0  0.00000000000E+00  0.00000000000E+00 -0.10174750601E+02  0.12736748321E+04  0.12736341910E+04 0.  0.
        3    1    3    3  502    0  0.55300553633E+03  0.29034234242E+03  0.11910275376E+03  0.63584532330E+03  0.10100000352E+00 0.  1.
       -3    1    3    3    0  502 -0.55300553633E+03 -0.29034234242E+03 -0.12927750436E+03  0.63782950884E+03  0.10100000352E+00 0. -1.
</event>
<event>
 5   0  0.1310461E-03  0.1298683E+04  0.7818609E-02  0.9030610E-01
        1   -1    0    0  501    0  0.00000000000E+00  0.00000000000E+00  0.35421097802E+03  0.35421097805E+03  0.50400001928E-02 0.  1.
       -1   -1    0    0    0  501  0.00000000000E+00  0.00000000000E+00 -0.11903772796E+04  0.11903772796E+04  0.50400001928E-02 0. -1.
    10030    2    1    2    0    0  0.00000000000E+00  0.00000000000E+00 -0.83616630158E+03  0.15445882577E+04  0.12986834879E+04 0.  0.
        4    1    3    3  502    0 -0.10057162325E+03 -0.58702894980E+03 -0.72576725108E+03  0.93885960343E+03  0.12699999809E+01 0. -1.
       -4    1    3    3    0  502  0.10057162325E+03  0.58702894980E+03 -0.11039905050E+03  0.60572865424E+03  0.12699999809E+01 0.  1.
</event>
<event>
 5   0  0.1346593E-03  0.1285812E+04  0.7818609E-02  0.9040893E-01
        1   -1    0    0  501    0  0.00000000000E+00  0.00000000000E+00  0.15047423800E+04  0.15047423800E+04  0.50400001928E-02 0.  1.
       -1   -1    0    0    0  501  0.00000000000E+00  0.00000000000E+00 -0.27468368933E+03  0.27468368937E+03  0.50400001928E-02 0. -1.
    10030    2    1    2    0    0  0.00000000000E+00  0.00000000000E+00  0.12300586907E+04  0.17794260694E+04  0.12858120990E+04 0.  0.
        2    1    3    3  502    0  0.16031852331E+03  0.56790234100E+03  0.96816095651E+03  0.11338212979E+04  0.25500000920E-02 0.  1.
       -2    1    3    3    0  502 -0.16031852331E+03 -0.56790234100E+03  0.26189773420E+03  0.64560477153E+03  0.25500000920E-02 0. -1.
</event>
<event>
 5   0  0.1332630E-03  0.1319995E+04  0.7818609E-02  0.9013857E-01
        1   -1    0    0  501    0  0.00000000000E+00  0.00000000000E+00  0.94770869246E+03  0.94770869247E+03  0.50400001928E-02 0. -1.
       -1   -1    0    0    0  501  0.00000000000E+00  0.00000000000E+00 -0.45963149634E+03  0.45963149637E+03  0.50400001928E-02 0.  1.
    10030    2    1    2    0    0  0.00000000000E+00  0.00000000000E+00  0.48807719611E+03  0.14073401888E+04  0.13199950976E+04 0.  0.
        5    1    3    3  502    0  0.48566240898E+03  0.32424751697E+02 -0.23116190015E+03  0.53886663851E+03  0.46999998093E+01 0.  1.
       -5    1    3    3    0  502 -0.48566240898E+03 -0.32424751697E+02  0.71923909627E+03  0.86847355033E+03  0.46999998093E+01 0. -1.
</event>
<event>
 5   0  0.2334946E-03  0.1237370E+04  0.7818609E-02  0.9080761E-01
        2   -1    0    0  501    0  0.00000000000E+00  0.00000000000E+00  0.44281009676E+03  0.44281009677E+03  0.25500000920E-02 0.  1.
       -2   -1    0    0    0  501  0.00000000000E+00  0.00000000000E+00 -0.86441422859E+03  0.86441422860E+03  0.25500000920E-02 0. -1.
    10030    2    1    2    0    0  0.00000000000E+00  0.00000000000E+00 -0.42160413183E+03  0.13072243254E+04  0.12373703540E+04 0.  0.
        1    1    3    3  502    0 -0.20090248604E+03 -0.23291047215E+02 -0.82850412187E+03  0.85283255201E+03  0.50400001928E-02 0. -1.
       -1    1    3    3    0  502  0.20090248604E+03  0.23291047215E+02  0.40689999004E+03  0.45439177336E+03  0.50400001928E-02 0.  1.
</event>
<event>
 5   0  0.2401211E-03  0.1112624E+04  0.7818609E-02  0.9192975E-01
       -2   -1    0    0    0  501  0.00000000000E+00  0.00000000000E+00  0.15389532676E+03  0.15389532678E+03  0.25500000920E-02 0.  1.
        2   -1    0    0  501    0  0.00000000000E+00  0.00000000000E+00 -0.20109955206E+04  0.20109955206E+04  0.25500000920E-02 0. -1.
    10030    2    1    2    0    0  0.00000000000E+00  0.00000000000E+00 -0.18571001939E+04  0.21648908474E+04  0.11126235891E+04 0.  0.
        4    1    3    3  502    0 -0.38570424847E+03 -0.23197953914E+03 -0.15647218941E+04  0.16281702898E+04  0.12699999809E+01 0. -1.
       -4    1    3    3    0  502  0.38570424847E+03  0.23197953914E+03 -0.29237829978E+03  0.53672055760E+03  0.12699999809E+01 0.  1.
</event>
<event>
 5   0  0.2478236E-03  0.1280480E+04  0.7818609E-02  0.9045190E-01
        2   -1    0    0  501    0  0.00000000000E+00  0.00000000000E+00  0.39607419647E+03  0.39607419648E+03  0.25500000920E-02 0. -1.
       -2   -1    0    0    0  501  0.00000000000E+00  0.00000000000E+00 -0.10349252570E+04  0.10349252570E+04  0.25500000920E-02 0.  1.
    10030    2    1    2    0    0  0.00000000000E+00  0.00000000000E+00 -0.63885106051E+03  0.14309994535E+04  0.12804798937E+04 0.  0.
        3    1    3    3  502    0  0.54215890411E+03  0.21508891366E+03 -0.24367824973E+02  0.58377505872E+03  0.10100000352E+00 0. -1.
       -3    1    3    3    0  502 -0.54215890411E+03 -0.21508891366E+03 -0.61448323554E+03  0.84722439474E+03  0.10100000352E+00 0.  1.
</event>
<event>
 5   0  0.1346593E-03  0.1302690E+04  0.7818609E-02  0.9027435E-01
        1   -1    0    0  501    0  0.00000000000E+00  0.00000000000E+00  0.93544570820E+03  0.93544570822E+03  0.50400001928E-02 0. -1.
       -1   -1    0    0    0  501  0.00000000000E+00  0.00000000000E+00 -0.45352726391E+03  0.45352726393E+03  0.50400001928E-02 0.  1.
    10030    2    1    2    0    0  0.00000000000E+00  0.00000000000E+00  0.48191844430E+03  0.13889729722E+04  0.13026897291E+04 0.  0.
        2    1    3    3  502    0 -0.52864979898E+02 -0.45477292742E+03  0.73493438353E+03  0.86587624388E+03  0.25500000920E-02 0. -1.
       -2    1    3    3    0  502  0.52864979898E+02  0.45477292742E+03 -0.25301593924E+03  0.52309672827E+03  0.25500000920E-02 0.  1.
</event>
<event>
 5   0  0.9131250E-04  0.1316764E+04  0.7818609E-02  0.9016376E-01
        4   -1    0    0  501    0  0.00000000000E+00  0.00000000000E+00  0.12027289622E+04  0.12027296327E+04  0.12699999809E+01 0.  1.
       -4   -1    0    0    0  501  0.00000000000E+00  0.00000000000E+00 -0.36040084496E+03  0.36040308260E+03  0.12699999809E+01 0. -1.
    10030    2    1    2    0    0  0.00000000000E+00  0.00000000000E+00  0.84232811726E+03  0.15631327153E+04  0.13167639229E+04 0.  0.
        4    1    3    3  502    0 -0.36472434783E+02  0.63648942106E+03  0.22604493126E+03  0.67642216513E+03  0.12699999809E+01 0. -1.
       -4    1    3    3    0  502  0.36472434783E+02 -0.63648942106E+03  0.61628318599E+03  0.88671055022E+03  0.12699999809E+01 0.  1.
</event>
<event>
 5   0  0.9131250E-04  0.1269669E+04  0.7818609E-02  0.9053970E-01
       -3   -1    0    0    0  501  0.00000000000E+00  0.00000000000E+00  0.26076569868E+03  0.26076571824E+03  0.10100000352E+00 0.  1.
        3   -1    0    0  501    0  0.00000000000E+00  0.00000000000E+00 -0.15455050047E+04  0.15455050080E+04  0.10100000352E+00 0. -1.
    10030    2    1    2    0    0  0.00000000000E+00  0.00000000000E+00 -0.12847393060E+04  0.18062707262E+04  0.12696687962E+04 0.  0.
        2    1    3    3  502    0 -0.23123461544E+03 -0.43652231606E+03 -0.12096296096E+04  0.13066081938E+04  0.25500000920E-02 0. -1.
       -2    1    3    3    0  502  0.23123461544E+03  0.43652231606E+03 -0.75109696450E+02  0.49966253242E+03  0.25500000920E-02 0.  1.
</event>
<event>
 5   0  0.1332630E-03  0.1284477E+04  0.7818609E-02  0.9041966E-01
        1   -1    0    0  501    0  0.00000000000E+00  0.00000000000E+00  0.86161421889E+03  0.86161421890E+03  0.50400001928E-02 0.  1.
       -1   -1    0    0    0  501  0.00000000000E+00  0.00000000000E+00 -0.47871821592E+03  0.47871821595E+03  0.50400001928E-02 0. -1.
    10030    2    1    2    0    0  0.00000000000E+00  0.00000000000E+00  0.38289600297E+03  0.13403324349E+04  0.12844772037E+04 0.  0.
        5    1    3    3  502    0 -0.14861312401E+03  0.17169584949E+03  0.81830624617E+03  0.84924232577E+03  0.46999998093E+01 0.  1.
       -5    1    3    3    0  502  0.14861312401E+03 -0.17169584949E+03 -0.43541024319E+03  0.49109010908E+03  0.46999998093E+01 0. -1.
</event>
<event>
 5   0  0.1310461E-03  0.1322072E+04  0.7818609E-02  0.9012243E-01
        1   -1    0    0  501    0  0.00000000000E+00  0.00000000000E+00  0.56117155949E+03  0.56117155951E+03  0.50400001928E-02 0. -1.
       -1   -1    0    0    0  501  0.00000000000E+00  0.00000000000E+00 -0.77867210519E+03  0.77867210521E+03  0.50400001928E-02 0.  1.
    10030    2    1    2    0    0  0.00000000000E+00  0.00000000000E+00 -0.21750054570E+03  0.13398436647E+04  0.13220720701E+04 0.  0.
        4    1    3    3  502    0  0.11597173589E+03  0.27578646956E+03  0.48863021513E+03  0.57294739754E+03  0.12699999809E+01 0. -1.
       -4    1    3    3    0  502 -0.11597173589E+03 -0.27578646956E+03 -0.70613076083E+03  0.76689626718E+03  0.12699999809E+01 0.  1.
</event>
<event>
 5   0  0.1324721E-03  0.1374138E+04  0.7818609E-02  0.8972755E-01
       -1   -1    0    0    0  501  0.00000000000E+00  0.00000000000E+00  0.13374926235E+04  0.13374926235E+04  0.50400001928E-02 0.  1.
        1   -1    0    0  501    0  0.00000000000E+00  0.00000000000E+00 -0.35294664982E+03  0.35294664985E+03  0.50400001928E-02 0. -1.
    10030    2    1    2    0    0  0.00000000000E+00  0.00000000000E+00  0.98454597372E+03  0.16904392734E+04  0.13741376069E+04 0.  0.
        1    1    3    3  502    0  0.57633885168E+03  0.51926035316E+02  0.36605963228E+02  0.57982995927E+03  0.50400001928E-02 0. -1.
       -1    1    3    3    0  502 -0.57633885168E+03 -0.51926035316E+02  0.94794001049E+03  0.11106093141E+04  0.50400001928E-02 0.  1.
</event>
<event>
 5   0  0.2401211E-03  0.1289408E+04  0.7818609E-02  0.9038007E-01
        2   -1    0    0  501    0  0.00000000000E+00  0.00000000000E+00  0.48077589361E+03  0.48077589362E+03  0.25500000920E-02 0.  1.
       -2   -1    0    0    0  501  0.00000000000E+00  0.00000000000E+00 -0.86452593366E+03  0.86452593366E+03  0.25500000920E-02 0. -1.
    10030    2    1    2    0    0  0.00000000000E+00  0.00000000000E+00 -0.38375004005E+03  0.13453018273E+04  0.12894079701E+04 0.  0.
        4    1    3    3  502    0 -0.55021448900E+03  0.20620213505E+03  0.84929695200E+02  0.59369181435E+03  0.12699999809E+01 0.  1.
       -4    1    3    3    0  502  0.55021448900E+03 -0.20620213505E+03 -0.46867973525E+03  0.75161001293E+03  0.12699999809E+01 0. -1.
</event>
<event>
 5   0  0.2312105E-03  0.1301278E+04  0.7818609E-02  0.9028552E-01
       -2   -1    0    0    0  501  0.00000000000E+00  0.00000000000E+00  0.49132864868E+03  0.49132864869E+03  0.25500000920E-02 0. -1.
        2   -1    0    0  501    0  0.00000000000E+00  0.00000000000E+00 -0.86160518361E+03  0.86160518361E+03  0.25500000920E-02 0.  1.
    10030    2    1    2    0    0  0.00000000000E+00  0.00000000000E+00 -0.37027653493E+03  0.13529338323E+04  0.13012783108E+04 0.  0.
        5    1    3    3  502    0  0.28520616741E+03  0.58406852869E+03 -0.15517379585E+03  0.66826611545E+03  0.46999998093E+01 0. -1.
       -5    1    3    3    0  502 -0.28520616741E+03 -0.58406852869E+03 -0.21510273908E+03  0.68466771685E+03  0.46999998093E+01 0.  1.
</event>
<event>
 5   0  0.1332630E-03  0.1352629E+04  0.7818609E-02  0.8988841E-01
        1   -1    0    0  501    0  0.00000000000E+00  0.00000000000E+00  0.82767088167E+03  0.82767088168E+03  0.50400001928E-02 0. -1.
       -1   -1    0    0    0  501  0.00000000000E+00  0.00000000000E+00 -0.55263633501E+03  0.55263633504E+03  0.50400001928E-02 0.  1.
    10030    2    1    2    0    0  0.00000000000E+00  0.00000000000E+00  0.27503454665E+03  0.13803072167E+04  0.13526285561E+04 0.  0.
        5    1    3    3  502    0 -0.18525585993E+03  0.54417680686E+03  0.50108111555E+03  0.76259589897E+03  0.46999998093E+01 0. -1.
       -5    1    3    3    0  502  0.18525585993E+03 -0.54417680686E+03 -0.22604656890E+03  0.61771131775E+03  0.46999998093E+01 0.  1.
</event>
<event>
 5   0  0.2334946E-03  0.1296403E+04  0.7818609E-02  0.9032423E-01
        2   -1    0    0  501    0  0.00000000000E+00  0.00000000000E+00  0.10620376977E+04  0.10620376977E+04  0.25500000920E-02 0. -1.
       -2   -1    0    0    0  501  0.00000000000E+00  0.00000000000E+00 -0.39562145134E+03  0.39562145135E+03  0.25500000920E-02 0.  1.
    10030    2    1    2    0    0  0.00000000000E+00  0.00000000000E+00  0.66641624640E+03  0.14576591491E+04  0.12964025538E+04 0.  0.
        1    1    3    3  502    0 -0.10694428721E+03 -0.20092401695E+03  0.10156266006E+04  0.10408193566E+04  0.50400001928E-02 0. -1.
       -1    1    3    3    0  502  0.10694428721E+03  0.20092401695E+03 -0.34921035417E+03  0.41683979254E+03  0.50400001928E-02 0.  1.
</event>
<event>
 5   0  0.2361043E-03  0.9782271E+03  0.7818609E-02  0.9332753E-01
        2   -1    0    0  501    0  0.00000000000E+00  0.00000000000E+00  0.14366771706E+04  0.14366771706E+04  0.25500000920E-02 0.  1.
       -2   -1    0    0    0  501  0.00000000000E+00  0.00000000000E+00 -0.16651762273E+03  0.16651762275E+03  0.25500000920E-02 0. -1.
    10030    2    1    2    0    0  0.00000000000E+00  0.00000000000E+00  0.12701595478E+04  0.16031947933E+04  0.97822710470E+03 0.  0.
        2    1    3    3  502    0 -0.10809481718E+03  0.42221474630E+03  0.27125520602E+03  0.51335092120E+03  0.25500000920E-02 0. -1.
       -2    1    3    3    0  502  0.10809481718E+03 -0.42221474630E+03  0.99890434181E+03  0.10898438721E+04  0.25500000920E-02 0.  1.
</event>
<event>
 5   0  0.2361043E-03  0.1149026E+04  0.7818609E-02  0.9158682E-01
       -2   -1    0    0    0  501  0.00000000000E+00  0.00000000000E+00  0.94215392738E+03  0.94215392739E+03  0.25500000920E-02 0.  1.
        2   -1    0    0  501    0  0.00000000000E+00  0.00000000000E+00 -0.35033067866E+03  0.35033067867E+03  0.25500000920E-02 0. -1.
    10030    2    1    2    0    0  0.00000000000E+00  0.00000000000E+00  0.59182324872E+03  0.12924846061E+04  0.11490264136E+04 0.  0.
        2    1    3    3  502    0  0.22196936672E+03 -0.39484659593E+03 -0.10161046831E+03  0.46421861376E+03  0.25500000920E-02 0. -1.
       -2    1    3    3    0  502 -0.22196936672E+03  0.39484659593E+03  0.69343371703E+03  0.82826599230E+03  0.25500000920E-02 0.  1.
</event>
<event>
 5   0  0.1310461E-03  0.1298858E+04  0.7818609E-02  0.9030471E-01
        1   -1    0    0  501    0  0.00000000000E+00  0.00000000000E+00  0.14825841680E+04  0.14825841681E+04  0.50400001928E-02 0. -1.
       -1   -1    0    0    0  501  0.00000000000E+00  0.00000000000E+00 -0.28447513559E+03  0.28447513564E+03  0.50400001928E-02 0.  1.
    10030    2    1    2    0    0  0.00000000000E+00  0.00000000000E+00  0.11981090325E+04  0.17670593037E+04  0.12988584716E+04 0.  0.
        4    1    3    3  502    0 -0.41883276694E+02  0.59791604539E+03  0.93916931289E+03  0.11141357266E+04  0.12699999809E+01 0. -1.
       -4    1    3    3    0  502  0.41883276694E+02 -0.59791604539E+03  0.25893971956E+03  0.65292357705E+03  0.12699999809E+01 0.  1.
</event>
<event>
 5   0  0.1324721E-03  0.1334093E+04  0.7818609E-02  0.9002958E-01
        1   -1    0    0  501    0  0.00000000000E+00  0.00000000000E+00  0.36772868147E+03  0.36772868151E+03  0.50400001928E-02 0. -1.
       -1   -1    0    0    0  501  0.00000000000E+00  0.00000000000E+00 -0.12099972920E+04  0.12099972920E+04  0.50400001928E-02 0.  1.
    10030    2    1    2    0    0  0.00000000000E+00  0.00000000000E+00 -0.84226861050E+03  0.15777259735E+04  0.13340925137E+04 0.  0.
        1    1    3    3  502    0 -0.17804376743E+03 -0.33126283847E+03 -0.10726673754E+04  0.11366837509E+04  0.50400001928E-02 0.  1.
       -1    1    3    3    0  502  0.17804376743E+03  0.33126283847E+03  0.23039876486E+03  0.44104222264E+03  0.50400001928E-02 0. -1.
</event>
<event>
 5   0  0.2312105E-03  0.1245962E+04  0.7818609E-02  0.9073551E-01
       -2   -1    0    0    0  501  0.00000000000E+00  0.00000000000E+00  0.77952571120E+03  0.77952571121E+03  0.25500000920E-02 0.  1.
        2   -1    0    0  501    0  0.00000000000E+00  0.00000000000E+00 -0.49787382417E+03  0.49787382417E+03  0.25500000920E-02 0. -1.
    10030    2    1    2    0    0  0.00000000000E+00  0.00000000000E+00  0.28165188704E+03  0.12773995354E+04  0.12459621935E+04 0.  0.
        5    1    3    3  502    0 -0.25891003999E+03  0.14812923172E+03  0.70153160926E+03  0.76232890991E+03  0.46999998093E+01 0.  1.
       -5    1    3    3    0  502  0.25891003999E+03 -0.14812923172E+03 -0.41987972222E+03  0.51507062547E+03  0.46999998093E+01 0. -1.
</event>
<event>
 5   0  0.1332630E-03  0.1238498E+04  0.7818609E-02  0.9079811E-01
        1   -1    0    0  501    0  0.00000000000E+00  0.00000000000E+00  0.39024870627E+03  0.39024870631E+03  0.50400001928E-02 0. -1.
       -1   -1    0    0    0  501  0.00000000000E+00  0.00000000000E+00 -0.98262867300E+03  0.98262867302E+03  0.50400001928E-02 0.  1.
    10030    2    1    2    0    0  0.00000000000E+00  0.00000000000E+00 -0.59237996673E+03  0.13728773793E+04  0.12384983947E+04 0.  0.
        5    1    3    3  502    0  0.96018630361E+02 -0.18665293070E+03 -0.94197046794E+03  0.96508514981E+03  0.46999998093E+01 0.  1.
       -5    1    3    3    0  502 -0.96018630361E+02  0.18665293070E+03  0.34959050121E+03  0.40779222951E+03  0.46999998093E+01 0. -1.
</event>
<event>
 5   0  0.2361043E-03  0.1282676E+04  0.7818609E-02  0.9043417E-01
       -2   -1    0    0    0  501  0.00000000000E+00  0.00000000000E+00  0.39855736426E+03  0.39855736427E+03  0.25500000920E-02 0.  1.
        2   -1    0    0  501    0  0.00000000000E+00  0.00000000000E+00 -0.10320080554E+04  0.10320080554E+04  0.25500000920E-02 0. -1.
    10030    2    1    2    0    0  0.00000000000E+00  0.00000000000E+00 -0.63345069110E+03  0.14305654196E+04  0.12826759691E+04 0.  0.
        2    1    3    3  502    0 -0.24497663351E+03  0.38706603298E+02  0.34290756785E+03  0.42319895109E+03  0.25500000920E-02 0.  1.
       -2    1    3    3    0  502  0.24497663351E+03 -0.38706603298E+02 -0.97635825895E+03  0.10073664685E+04  0.25500000920E-02 0. -1.
</event>
<event>
 5   0  0.2401211E-03  0.1307011E+04  0.7818609E-02  0.9024024E-01
       -2   -1    0    0    0  501  0.00000000000E+00  0.00000000000E+00  0.58601378220E+03  0.58601378221E+03  0.25500000920E-02 0. -1.
        2   -1    0    0  501    0  0.00000000000E+00  0.00000000000E+00 -0.72877064960E+03  0.72877064960E+03  0.25500000920E-02 0.  1.
    10030    2    1    2    0    0  0.00000000000E+00  0.00000000000E+00 -0.14275686740E+03  0.13147844318E+04  0.13070113155E+04 0.  0.
        4    1    3    3  502    0  0.49229936170E+03  0.30443963656E+03 -0.37654024942E+03  0.69052612273E+03  0.12699999809E+01 0.  1.
       -4    1    3    3    0  502 -0.49229936170E+03 -0.30443963656E+03  0.23378338202E+03  0.62425830908E+03  0.12699999809E+01 0. -1.
</event>
<event>
 5   0  0.1310461E-03  0.1405522E+04  0.7818609E-02  0.8949831E-01
       -1   -1    0    0    0  501  0.00000000000E+00  0.00000000000E+00  0.26580094117E+03  0.26580094122E+03  0.50400001928E-02 0. -1.
        1   -1    0    0  501    0  0.00000000000E+00  0.00000000000E+00 -0.18580571466E+04  0.18580571466E+04  0.50400001928E-02 0.  1.
    10030    2    1    2    0    0  0.00000000000E+00  0.00000000000E+00 -0.15922562054E+04  0.21238580878E+04  0.14055224486E+04 0.  0.
        4    1    3    3  502    0 -0.65595767489E+03 -0.24971600333E+03 -0.84919204597E+03  0.11017110771E+04  0.12699999809E+01 0.  1.
       -4    1    3    3    0  502  0.65595767489E+03  0.24971600333E+03 -0.74306415947E+03  0.10221470107E+04  0.12699999809E+01 0. -1.
</event>
<event>
 5   0  0.2312105E-03  0.1310964E+04  0.7818609E-02  0.9020916E-01
        2   -1    0    0  501    0  0.00000000000E+00  0.00000000000E+00  0.10871830574E+04  0.10871830574E+04  0.25500000920E-02 0. -1.
       -2   -1    0    0    0  501  0.00000000000E+00  0.00000000000E+00 -0.39520158370E+03  0.39520158371E+03  0.25500000920E-02 0.  1.
    10030    2    1    2    0    0  0.00000000000E+00  0.00000000000E+00  0.69198147372E+03  0.14823846411E+04  0.13109637159E+04 0.  0.
        5    1    3    3  502    0  0.78289552176E+02  0.64419383025E+03  0.24162077277E+03  0.69247211694E+03  0.46999998093E+01 0.  1.
       -5    1    3    3    0  502 -0.78289552176E+02 -0.64419383025E+03  0.45036070095E+03  0.78991252419E+03  0.46999998093E+01 0. -1.
</event>
<event>
 5   0  0.2478236E-03  0.1234193E+04  0.7818609E-02  0.9083443E-01
       -2   -1    0    0    0  501  0.00000000000E+00  0.00000000000E+00  0.70239461784E+03  0.70239461784E+03  0.25500000920E-02 0. -1.
        2   -1    0    0  501    0  0.00000000000E+00  0.00000000000E+00 -0.54215653205E+03  0.54215653205E+03  0.25500000920E-02 0.  1.
    10030    2    1    2    0    0  0.00000000000E+00  0.00000000000E+00  0.16023808579E+03  0.12445511499E+04  0.12341925784E+04 0.  0.
        3    1    3    3  502    0  0.33202092923E+03  0.56311463274E+02 -0.44132734312E+03  0.55513846231E+03  0.10100000352E+00 0.  1.
       -3    1    3    3    0  502 -0.33202092923E+03 -0.56311463274E+02  0.60156542891E+03  0.68941268759E+03  0.10100000352E+00 0. -1.
</event>
<event>
 5   0  0.2401211E-03  0.1310035E+04  0.7818609E-02  0.9021645E-01
        2   -1    0    0  501    0  0.00000000000E+00  0.00000000000E+00  0.25277552464E+04  0.25277552464E+04  0.25500000920E-02 0. -1.
       -2   -1    0    0    0  501  0.00000000000E+00  0.00000000000E+00 -0.16973481174E+03  0.16973481176E+03  0.25500000920E-02 0.  1.
    10030    2    1    2    0    0  0.00000000000E+00  0.00000000000E+00  0.23580204346E+04  0.26974900582E+04  0.13100352070E+04 0.  0.
        4    1    3    3  502    0  0.33745958591E+03 -0.56092992078E+03  0.12261945517E+04  0.13899913811E+04  0.12699999809E+01 0. -1.
       -4    1    3    3    0  502 -0.33745958591E+03  0.56092992078E+03  0.11318258830E+04  0.13074986770E+04  0.12699999809E+01 0.  1.
</event>
<event>
 5   0  0.1346593E-03  0.1293468E+04  0.7818609E-02  0.9034762E-01
        1   -1    0    0  501    0  0.00000000000E+00  0.00000000000E+00  0.15571446250E+04  0.15571446250E+04  0.50400001928E-02 0. -1.
       -1   -1    0    0    0  501  0.00000000000E+00  0.00000000000E+00 -0.26860995421E+03  0.26860995425E+03  0.50400001928E-02 0.  1.
    10030    2    1    2    0    0  0.00000000000E+00  0.00000000000E+00  0.12885346708E+04  0.18257545793E+04  0.12934675048E+04 0.  0.
        2    1    3    3  502    0  0.30861960595E+03  0.32770267201E+03  0.12997193574E+04  0.13754655614E+04  0.25500000920E-02 0.  1.
       -2    1    3    3    0  502 -0.30861960595E+03 -0.32770267201E+03 -0.11184686627E+02  0.45028901790E+03  0.25500000920E-02 0. -1.
</event>
<event>
 5   0  0.2312105E-03  0.1176573E+04  0.7818609E-02  0.9133613E-01
       -2   -1    0    0    0  501  0.00000000000E+00  0.00000000000E+00  0.51381876900E+03  0.51381876901E+03  0.25500000920E-02 0.  1.
        2   -1    0    0  501    0  0.00000000000E+00  0.00000000000E+00 -0.67354696375E+03  0.67354696375E+03  0.25500000920E-02 0. -1.
    10030    2    1    2    0    0  0.00000000000E+00  0.00000000000E+00 -0.15972819474E+03  0.11873657328E+04  0.11765731117E+04 0.  0.
        5    1    3    3  502    0  0.48546715546E+03 -0.16201054071E+03 -0.37258202036E+03  0.63306020743E+03  0.46999998093E+01 0. -1.
       -5    1    3    3    0  502 -0.48546715546E+03  0.16201054071E+03  0.21285382562E+03  0.55430552533E+03  0.46999998093E+01 0.  1.
</event>
<event>
 5   0  0.1387622E-03  0.1259598E+04  0.7818609E-02  0.9062232E-01
        1   -1    0    0  501    0  0.00000000000E+00  0.00000000000E+00  0.72865858452E+03  0.72865858454E+03  0.50400001928E-02 0. -1.
       -1   -1    0    0    0  501  0.00000000000E+00  0.00000000000E+00 -0.54435213530E+03  0.54435213532E+03  0.50400001928E-02 0.  1.
    10030    2    1    2    0    0  0.00000000000E+00  0.00000000000E+00  0.18430644922E+03  0.12730107199E+04  0.12595981207E+04 0.  0.
        3    1    3    3  502    0  0.44005382510E+03  0.43307195343E+03 -0.33460889958E+02  0.61831895264E+03  0.10100000352E+00 0.  1.
       -3    1    3    3    0  502 -0.44005382510E+03 -0.43307195343E+03  0.21776733918E+03  0.65469176721E+03  0.10100000352E+00 0. -1.
</event>
<event>
 5   0  0.2401211E-03  0.1282072E+04  0.7818609E-02  0.9043904E-01
        2   -1    0    0  501    0  0.00000000000E+00  0.00000000000E+00  0.89376246475E+03  0.89376246475E+03  0.25500000920E-02 0.  1.
       -2   -1    0    0    0  501  0.00000000000E+00  0.00000000000E+00 -0.45977210953E+03  0.45977210954E+03  0.25500000920E-02 0. -1.
    10030    2    1    2    0    0  0.00000000000E+00  0.00000000000E+00  0.43399035521E+03  0.13535345743E+04  0.12820718449E+04 0.  0.
        4    1    3    3  502    0  0.28841781506E+03 -0.21575384232E+03  0.77682703657E+03  0.85626889128E+03  0.12699999809E+01 0.  1.
       -4    1    3    3    0  502 -0.28841781506E+03  0.21575384232E+03 -0.34283668136E+03  0.49726568301E+03  0.12699999809E+01 0. -1.
</event>
<event>
 5   0  0.1324721E-03  0.1291961E+04  0.7818609E-02  0.9035964E-01
       -1   -1    0    0    0  501  0.00000000000E+00  0.00000000000E+00  0.29883452439E+03  0.29883452443E+03  0.50400001928E-02 0. -1.
        1   -1    0    0  501    0  0.00000000000E+00  0.00000000000E+00 -0.13963947370E+04  0.13963947370E+04  0.50400001928E-02 0.  1.
    10030    2    1    2    0    0  0.00000000000E+00  0.00000000000E+00 -0.10975602126E+04  0.16952292614E+04  0.12919612334E+04 0.  0.
        1    1    3    3  502    0 -0.30523396518E+03  0.36934901076E+03  0.19701334113E+02  0.47955667844E+03  0.50400001928E-02 0. -1.
       -1    1    3    3    0  502  0.30523396518E+03 -0.36934901076E+03 -0.11172615467E+04  0.12156725830E+04  0.50400001928E-02 0.  1.
</event>
<event>
 5   0  0.2312105E-03  0.1307564E+04  0.7818609E-02  0.9023588E-01
       -2   -1    0    0    0  501  0.00000000000E+00  0.00000000000E+00  0.48133715843E+03  0.48133715843E+03  0.25500000920E-02 0.  1.
        2   -1    0    0  501    0  0.00000000000E+00  0.00000000000E+00 -0.88800769115E+03  0.88800769115E+03  0.25500000920E-02 0. -1.
    10030    2    1    2    0    0  0.00000000000E+00  0.00000000000E+00 -0.40667053272E+03  0.13693448496E+04  0.13075642986E+04 0.  0.
        5    1    3    3  502    0 -0.34672901308E+03 -0.14138267530E+03 -0.76456567541E+03  0.85134765601E+03  0.46999998093E+01 0. -1.
       -5    1    3    3    0  502  0.34672901308E+03  0.14138267530E+03  0.35789514269E+03  0.51799719357E+03  0.46999998093E+01 0.  1.
</event>
<event>
 5   0  0.1332630E-03  0.1296421E+04  0.7818609E-02  0.9032408E-01
       -1   -1    0    0    0  501  0.00000000000E+00  0.00000000000E+00  0.63646635360E+03  0.63646635362E+03  0.50400001928E-02 0.  1.
        1   -1    0    0  501    0  0.00000000000E+00  0.00000000000E+00 -0.66017123781E+03  0.66017123782E+03  0.50400001928E-02 0. -1.
    10030    2    1    2    0    0  0.00000000000E+00  0.00000000000E+00 -0.23704884201E+02  0.12966375914E+04  0.12964208892E+04 0.  0.
        5    1    3    3  502    0 -0.47915349081E+03 -0.72358802541E+02  0.41872018741E+03  0.64044714802E+03  0.46999998093E+01 0.  1.
       -5    1    3    3    0  502  0.47915349081E+03  0.72358802541E+02 -0.44242507161E+03  0.65619044343E+03  0.46999998093E+01 0. -1.
</event>
<event>
 5   0  0.1332630E-03  0.1237898E+04  0.7818609E-02  0.9080316E-01
        1   -1    0    0  501    0  0.00000000000E+00  0.00000000000E+00  0.20467387719E+04  0.20467387719E+04  0.50400001928E-02 0.  1.
       -1   -1    0    0    0  501  0.00000000000E+00  0.00000000000E+00 -0.18717478944E+03  0.18717478951E+03  0.50400001928E-02 0. -1.
    10030    2    1    2    0    0  0.00000000000E+00  0.00000000000E+00  0.18595639825E+04  0.22339135614E+04  0.12378980552E+04 0.  0.
        5    1    3    3  502    0  0.40841713073E+03 -0.43752830564E+03  0.12142014849E+04  0.13537144850E+04  0.46999998093E+01 0. -1.
       -5    1    3    3    0  502 -0.40841713073E+03  0.43752830564E+03  0.64536249756E+03  0.88019907644E+03  0.46999998093E+01 0.  1.
</event>
<event>
 5   0  0.2312105E-03  0.1328299E+04  0.7818609E-02  0.9007420E-01
       -2   -1    0    0    0  501  0.00000000000E+00  0.00000000000E+00  0.29646005399E+03  0.29646005400E+03  0.25500000920E-02 0.  1.
        2   -1    0    0  501    0  0.00000000000E+00  0.00000000000E+00 -0.14878726154E+04  0.14878726154E+04  0.25500000920E-02 0. -1.
    10030    2    1    2    0    0  0.00000000000E+00  0.00000000000E+00 -0.11914125614E+04  0.17843326694E+04  0.13282993577E+04 0.  0.
        5    1    3    3  502    0  0.46967301780E+03 -0.32736622668E+03 -0.14352091187E+03  0.59023870778E+03  0.46999998093E+01 0.  1.
       -5    1    3    3    0  502 -0.46967301780E+03  0.32736622668E+03 -0.10478916496E+04  0.11940939616E+04  0.46999998093E+01 0. -1.
</event>
<event>
 5   0  0.1310461E-03  0.1280478E+04  0.7818609E-02  0.9045191E-01
        1   -1    0    0  501    0  0.00000000000E+00  0.00000000000E+00  0.42223400508E+03  0.42223400511E+03  0.50400001928E-02 0. -1.
       -1   -1    0    0    0  501  0.00000000000E+00  0.00000000000E+00 -0.97080280750E+03  0.97080280751E+03  0.50400001928E-02 0.  1.
    10030    2    1    2    0    0  0.00000000000E+00  0.00000000000E+00 -0.54856880241E+03  0.13930368126E+04  0.12804779695E+04 0.  0.
        4    1    3    3  502    0  0.13278260729E+02 -0.28071251580E+02 -0.96998167032E+03  0.97047944905E+03  0.12699999809E+01 0.  1.
       -4    1    3    3    0  502 -0.13278260729E+02  0.28071251580E+02  0.42141286790E+03  0.42255736357E+03  0.12699999809E+01 0. -1.
</event>
<event>
 5   0  0.1310461E-03  0.1311123E+04  0.7818609E-02  0.9020791E-01
        1   -1    0    0  501    0  0.00000000000E+00  0.00000000000E+00  0.21575060581E+04  0.21575060581E+04  0.50400001928E-02 0. -1.
       -1   -1    0    0    0  501  0.00000000000E+00  0.00000000000E+00 -0.19919328942E+03  0.19919328949E+03  0.50400001928E-02 0.  1.
    10030    2    1    2    0    0  0.00000000000E+00  0.00000000000E+00  0.19583127686E+04  0.23566993475E+04  0.13111227688E+04 0.  0.
        4    1    3    3  502    0  0.49577438522E+03 -0.42059340498E+03  0.11302725802E+04  0.13039205389E+04  0.12699999809E+01 0. -1.
       -4    1    3    3    0  502 -0.49577438522E+03  0.42059340498E+03  0.82804018847E+03  0.10527788087E+04  0.12699999809E+01 0.  1.
</event>
<event>
 5   0  0.1332630E-03  0.1297518E+04  0.7818609E-02  0.9031536E-01
       -1   -1    0    0    0  501  0.00000000000E+00  0.00000000000E+00  0.43515136924E+03  0.43515136927E+03  0.50400001928E-02 0. -1.
        1   -1    0    0  501    0  0.00000000000E+00  0.00000000000E+00 -0.96722295964E+03  0.96722295965E+03  0.50400001928E-02 0.  1.
    10030    2    1    2    0    0  0.00000000000E+00  0.00000000000E+00 -0.53207159040E+03  0.14023743289E+04  0.12975182392E+04 0.  0.
        5    1    3    3  502    0 -0.43792546082E+03 -0.46266300155E+03 -0.13352910154E+03  0.65091310726E+03  0.46999998093E+01 0.  1.
       -5    1    3    3    0  502  0.43792546082E+03  0.46266300155E+03 -0.39854248886E+03  0.75146122167E+03  0.46999998093E+01 0. -1.
</event>
<event>
 5   0  0.1346593E-03  0.1307179E+04  0.7818609E-02  0.9023891E-01
        1   -1    0    0  501    0  0.00000000000E+00  0.00000000000E+00  0.57758494177E+03  0.57758494180E+03  0.50400001928E-02 0.  1.
       -1   -1    0    0    0  501  0.00000000000E+00  0.00000000000E+00 -0.73959572921E+03  0.73959572923E+03  0.50400001928E-02 0. -1.
    10030    2    1    2    0    0  0.00000000000E+00  0.00000000000E+00 -0.16201078743E+03  0.13171806710E+04  0.13071791862E+04 0.  0.
        2    1    3    3  502    0  0.27739405053E+03  0.50873416263E+03 -0.38567860805E+03  0.69606457762E+03  0.25500000920E-02 0. -1.
       -2    1    3    3    0  502 -0.27739405053E+03 -0.50873416263E+03  0.22366782062E+03  0.62111609340E+03  0.25500000920E-02 0.  1.
</event>
<event>
 5   0  0.1310461E-03  0.1150826E+04  0.7818609E-02  0.9157022E-01
        1   -1    0    0  501    0  0.00000000000E+00  0.00000000000E+00  0.16098792860E+04  0.16098792860E+04  0.50400001928E-02 0.  1.
       -1   -1    0    0    0  501  0.00000000000E+00  0.00000000000E+00 -0.20566777546E+03  0.20566777553E+03  0.50400001928E-02 0. -1.
    10030    2    1    2    0    0  0.00000000000E+00  0.00000000000E+00  0.14042115106E+04  0.18155470616E+04  0.11508262972E+04 0.  0.
        4    1    3    3  502    0  0.96213241584E+02  0.34874865480E+03 -0.38007695638E+01  0.36179921342E+03  0.12699999809E+01 0. -1.
       -4    1    3    3    0  502 -0.96213241584E+02 -0.34874865480E+03  0.14080122801E+04  0.14537478481E+04  0.12699999809E+01 0.  1.
</event>
<event>
 5   0  0.1310461E-03  0.1280093E+04  0.7818609E-02  0.9045502E-01
        1   -1    0    0  501    0  0.00000000000E+00  0.00000000000E+00  0.79809665480E+03  0.79809665482E+03  0.50400001928E-02 0. -1.
       -1   -1    0    0    0  501  0.00000000000E+00  0.00000000000E+00 -0.51329598764E+03  0.51329598766E+03  0.50400001928E-02 0.  1.
    10030    2    1    2    0    0  0.00000000000E+00  0.00000000000E+00  0.28480066716E+03  0.13113926425E+04  0.12800934508E+04 0.  0.
        4    1    3    3  502    0 -0.90844208398E+01 -0.46754073723E+03  0.59009974554E+03  0.75292508941E+03  0.12699999809E+01 0. -1.
       -4    1    3    3    0  502  0.90844208398E+01  0.46754073723E+03 -0.30529907838E+03  0.55846755307E+03  0.12699999809E+01 0.  1.
</event>
<event>
 5   0  0.1324721E-03  0.1317690E+04  0.7818609E-02  0.9015653E-01
        1   -1    0    0  501    0  0.00000000000E+00  0.00000000000E+00  0.28248834417E+03  0.28248834421E+03  0.50400001928E-02 0. -1.
       -1   -1    0    0    0  501  0.00000000000E+00  0.00000000000E+00 -0.15366179358E+04  0.15366179358E+04  0.50400001928E-02 0.  1.
    10030    2    1    2    0    0  0.00000000000E+00  0.00000000000E+00 -0.12541295917E+04  0.18191062801E+04  0.13176898821E+04 0.  0.
        1    1    3    3  502    0 -0.38181382492E+02  0.14181985722E+03  0.25960104868E+03  0.29826732033E+03  0.50400001928E-02 0. -1.
       -1    1    3    3    0  502  0.38181382492E+02 -0.14181985722E+03 -0.15137306404E+04  0.15208389597E+04  0.50400001928E-02 0.  1.
</event>
<event>
 5   0  0.2361043E-03  0.1264109E+04  0.7818609E-02  0.9058521E-01
       -2   -1    0    0    0  501  0.00000000000E+00  0.00000000000E+00  0.52412515989E+03  0.52412515990E+03  0.25500000920E-02 0. -1.
        2   -1    0    0  501    0  0.00000000000E+00  0.00000000000E+00 -0.76220950637E+03  0.76220950637E+03  0.25500000920E-02 0.  1.
    10030    2    1    2    0    0  0.00000000000E+00  0.00000000000E+00 -0.23808434648E+03  0.12863346663E+04  0.12641094563E+04 0.  0.
        2    1    3    3  502    0 -0.15662166617E+03  0.17323511467E+03 -0.71669488844E+03  0.75378532381E+03  0.25500000920E-02 0.  1.
       -2    1    3    3    0  502  0.15662166617E+03 -0.17323511467E+03  0.47861054196E+03  0.53254934246E+03  0.25500000920E-02 0. -1.
</event>
<event>
 5   0  0.1324721E-03  0.1325256E+04  0.7818609E-02  0.9009774E-01
       -1   -1    0    0    0  501  0.00000000000E+00  0.00000000000E+00  0.73862317626E+03  0.73862317628E+03  0.50400001928E-02 0. -1.
        1   -1    0    0  501    0  0.00000000000E+00  0.00000000000E+00 -0.59445136069E+03  0.59445136071E+03  0.50400001928E-02 0.  1.
    10030    2    1    2    0    0  0.00000000000E+00  0.00000000000E+00  0.14417181557E+03  0.13330745370E+04  0.13252555258E+04 0.  0.
        1    1    3    3  502    0 -0.10271370135E+02 -0.66246694672E+03  0.61651876716E+02  0.66540882957E+03  0.50400001928E-02 0.  1.
       -1    1    3    3    0  502  0.10271370135E+02  0.66246694672E+03  0.82519938855E+02  0.66766570743E+03  0.50400001928E-02 0. -1.
</event>
<event>
 5   0  0.1310461E-03  0.1303099E+04  0.7818609E-02  0.9027111E-01
       -1   -1    0    0    0  501  0.00000000000E+00  0.00000000000E+00  0.29168556607E+03  0.29168556611E+03  0.50400001928E-02 0. -1.
        1   -1    0    0  501    0  0.00000000000E+00  0.00000000000E+00 -0.14553922876E+04  0.14553922877E+04  0.50400001928E-02 0.  1.
    10030    2    1    2    0    0  0.00000000000E+00  0.00000000000E+00 -0.11637067216E+04  0.17470778538E+04  0.13030992645E+04 0.  0.
        4    1    3    3  502    0  0.11141102976E+03  0.32994090807E+03 -0.13201473902E+04  0.13653073519E+04  0.12699999809E+01 0.  1.
       -4    1    3    3    0  502 -0.11141102976E+03 -0.32994090807E+03  0.15644066865E+03  0.38177050184E+03  0.12699999809E+01 0. -1.
</event>
<event>
 5   0  0.2312105E-03  0.1324705E+04  0.7818609E-02  0.9010200E-01
        2   -1    0    0  501    0  0.00000000000E+00  0.00000000000E+00  0.15166620977E+04  0.15166620977E+04  0.25500000920E-02 0. -1.
       -2   -1    0    0    0  501  0.00000000000E+00  0.00000000000E+00 -0.28926068555E+03  0.28926068556E+03  0.25500000920E-02 0.  1.
    10030    2    1    2    0    0  0.00000000000E+00  0.00000000000E+00  0.12274014122E+04  0.18059227833E+04  0.13247048247E+04 0.  0.
        5    1    3    3  502    0  0.33729335633E+03  0.43843989882E+03  0.11102963196E+04  0.12404742482E+04  0.46999998093E+01 0. -1.
       -5    1    3    3    0  502 -0.33729335633E+03 -0.43843989882E+03  0.11710509252E+03  0.56544853505E+03  0.46999998093E+01 0.  1.
</event>
<event>
 5   0  0.2312105E-03  0.1306747E+04  0.7818609E-02  0.9024232E-01
       -2   -1    0    0    0  501  0.00000000000E+00  0.00000000000E+00  0.52093842375E+03  0.52093842375E+03  0.25500000920E-02 0.  1.
        2   -1    0    0  501    0  0.00000000000E+00  0.00000000000E+00 -0.81947641900E+03  0.81947641900E+03  0.25500000920E-02 0. -1.
    10030    2    1    2    0    0  0.00000000000E+00  0.00000000000E+00 -0.29853799525E+03  0.13404148428E+04  0.13067467299E+04 0.  0.
        5    1    3    3  502    0 -0.54421927684E+03 -0.18515553752E+03 -0.46778090383E+03  0.74114658357E+03  0.46999998093E+01 0. -1.
       -5    1    3    3    0  502  0.54421927684E+03  0.18515553752E+03  0.16924290858E+03  0.59926825918E+03  0.46999998093E+01 0.  1.
</event>
<event>
 5   0  0.1387622E-03  0.1281845E+04  0.7818609E-02  0.9044088E-01
       -1   -1    0    0    0  501  0.00000000000E+00  0.00000000000E+00  0.25704596778E+03  0.25704596783E+03  0.50400001928E-02 0.  1.
        1   -1    0    0  501    0  0.00000000000E+00  0.00000000000E+00 -0.15980860552E+04  0.15980860552E+04  0.50400001928E-02 0. -1.
    10030    2    1    2    0    0  0.00000000000E+00  0.00000000000E+00 -0.13410400874E+04  0.18551320231E+04  0.12818448841E+04 0.  0.
        3    1    3    3  502    0  0.40997680405E+02  0.35187474141E+03  0.10247864638E+03  0.36877978064E+03  0.10100000352E+00 0.  1.
       -3    1    3    3    0  502 -0.40997680405E+02 -0.35187474141E+03 -0.14435187338E+04  0.14863522424E+04  0.10100000352E+00 0. -1.
</event>
<event>
 5   0  0.1310461E-03  0.1468004E+04  0.7818609E-02  0.8906013E-01
        1   -1    0    0  501    0  0.00000000000E+00  0.00000000000E+00  0.78039977234E+03  0.78039977236E+03  0.50400001928E-02 0. -1.
       -1   -1    0    0    0  501  0.00000000000E+00  0.00000000000E+00 -0.69036233498E+03  0.69036233500E+03  0.50400001928E-02 0.  1.
    10030    2    1    2    0    0  0.00000000000E+00  0.00000000000E+00  0.90037437365E+02  0.14707621074E+04  0.14680035546E+04 0.  0.
        4    1    3    3  502    0  0.86228235963E+02  0.72854879372E+03  0.21772906461E+02  0.73395798645E+03  0.12699999809E+01 0.  1.
       -4    1    3    3    0  502 -0.86228235963E+02 -0.72854879372E+03  0.68264530904E+02  0.73680412091E+03  0.12699999809E+01 0. -1.
</event>
<event>
 5   0  0.1310461E-03  0.1331425E+04  0.7818609E-02  0.9005009E-01
       -1   -1    0    0    0  501  0.00000000000E+00  0.00000000000E+00  0.66126088918E+03  0.66126088920E+03  0.50400001928E-02 0.  1.
        1   -1    0    0  501    0  0.00000000000E+00  0.00000000000E+00 -0.67019442688E+03  0.67019442690E+03  0.50400001928E-02 0. -1.
    10030    2    1    2    0    0  0.00000000000E+00  0.00000000000E+00 -0.89335376972E+01  0.13314553161E+04  0.13314253455E+04 0.  0.
        4    1    3    3  502    0 -0.61516480293E+03  0.38776777749E+02  0.24701528547E+03  0.66404031309E+03  0.12699999809E+01 0.  1.
       -4    1    3    3    0  502  0.61516480293E+03 -0.38776777749E+02 -0.25594882317E+03  0.66741500300E+03  0.12699999809E+01 0. -1.
</event>
<event>
 5   0  0.2401211E-03  0.1342907E+04  0.7818609E-02  0.8996215E-01
        2   -1    0    0  501    0  0.00000000000E+00  0.00000000000E+00  0.92063270627E+03  0.92063270627E+03  0.25500000920E-02 0. -1.
       -2   -1    0    0    0  501  0.00000000000E+00  0.00000000000E+00 -0.48971761829E+03  0.48971761830E+03  0.25500000920E-02 0.  1.
    10030    2    1    2    0    0  0.00000000000E+00  0.00000000000E+00  0.43091508797E+03  0.14103503246E+04  0.13429073777E+04 0.  0.
        4    1    3    3  502    0 -0.38675609696E+02  0.66818267734E+03  0.27186285499E+03  0.72240910702E+03  0.12699999809E+01 0.  1.
       -4    1    3    3    0  502  0.38675609696E+02 -0.66818267734E+03  0.15905223299E+03  0.68794121755E+03  0.12699999809E+01 0. -1.
</event>
<event>
 5   0  0.1332630E-03  0.1301560E+04  0.7818609E-02  0.9028329E-01
        1   -1    0    0  501    0  0.00000000000E+00  0.00000000000E+00  0.14315030073E+04  0.14315030073E+04  0.50400001928E-02 0. -1.
       -1   -1    0    0    0  501  0.00000000000E+00  0.00000000000E+00 -0.29585305722E+03  0.29585305727E+03  0.50400001928E-02 0.  1.
    10030    2    1    2    0    0  0.00000000000E+00  0.00000000000E+00  0.11356499500E+04  0.17273560645E+04  0.13015598967E+04 0.  0.
        5    1    3    3  502    0 -0.26027691481E+03  0.40631330354E+03  0.11473138303E+04  0.12446628813E+04  0.46999998093E+01 0. -1.
       -5    1    3    3    0  502  0.26027691481E+03 -0.40631330354E+03 -0.11663880243E+02  0.48269318321E+03  0.46999998093E+01 0.  1.
</event>
<event>
 5   0  0.1387622E-03  0.1302649E+04  0.7818609E-02  0.9027467E-01
        1   -1    0    0  501    0  0.00000000000E+00  0.00000000000E+00  0.98703772710E+03  0.98703772711E+03  0.50400001928E-02 0. -1.
       -1   -1    0    0    0  501  0.00000000000E+00  0.00000000000E+00 -0.42979484350E+03  0.42979484353E+03  0.50400001928E-02 0.  1.
    10030    2    1    2    0    0  0.00000000000E+00  0.00000000000E+00  0.55724288360E+03  0.14168325706E+04  0.13026491860E+04 0.  0.
        3    1    3    3  502    0  0.49894935164E+03 -0.37224858822E+03  0.70244707776E+02  0.62646132851E+03  0.10100000352E+00 0.  1.
       -3    1    3    3    0  502 -0.49894935164E+03  0.37224858822E+03  0.48699817582E+03  0.79037124214E+03  0.10100000352E+00 0. -1.
</event>
<event>
 5   0  0.2361043E-03  0.1317945E+04  0.7818609E-02  0.9015454E-01
        2   -1    0    0  501    0  0.00000000000E+00  0.00000000000E+00  0.14774764257E+04  0.14774764257E+04  0.25500000920E-02 0.  1.
       -2   -1    0    0    0  501  0.00000000000E+00  0.00000000000E+00 -0.29390985519E+03  0.29390985520E+03  0.25500000920E-02 0. -1.
    10030    2    1    2    0    0  0.00000000000E+00  0.00000000000E+00  0.11835665705E+04  0.17713862809E+04  0.13179451921E+04 0.  0.
        2    1    3    3  502    0  0.22510932239E+03 -0.12522104405E+03  0.14070038636E+04  0.14303895934E+04  0.25500000920E-02 0.  1.
       -2    1    3    3    0  502 -0.22510932239E+03  0.12522104405E+03 -0.22343729309E+03  0.34099668744E+03  0.25500000920E-02 0. -1.
</event>
<event>
 5   0  0.2312105E-03  0.1298969E+04  0.7818609E-02  0.9030383E-01
        2   -1    0    0  501    0  0.00000000000E+00  0.00000000000E+00  0.25057992465E+04  0.25057992465E+04  0.25500000920E-02 0.  1.
       -2   -1    0    0    0  501  0.00000000000E+00  0.00000000000E+00 -0.16834147267E+03  0.16834147269E+03  0.25500000920E-02 0. -1.
    10030    2    1    2    0    0  0.00000000000E+00  0.00000000000E+00  0.23374577738E+04  0.26741407192E+04  0.12989687223E+04 0.  0.
        5    1    3    3  502    0  0.32434212772E+03 -0.53324749797E+03  0.79898716246E+03  0.10138803113E+04  0.46999998093E+01 0. -1.
       -5    1    3    3    0  502 -0.32434212772E+03  0.53324749797E+03  0.15384706114E+04  0.16602604079E+04  0.46999998093E+01 0.  1.
</event>
<event>
 5   0  0.2478236E-03  0.1291362E+04  0.7818609E-02  0.9036443E-01
       -2   -1    0    0    0  501  0.00000000000E+00  0.00000000000E+00  0.53066526644E+03  0.53066526645E+03  0.25500000920E-02 0.  1.
        2   -1    0    0  501    0  0.00000000000E+00  0.00000000000E+00 -0.78562497828E+03  0.78562497828E+03  0.25500000920E-02 0. -1.
    10030    2    1    2    0    0  0.00000000000E+00  0.00000000000E+00 -0.25495971184E+03  0.13162902447E+04  0.12913618988E+04 0.  0.
        3    1    3    3  502    0  0.17523758065E+02  0.47817471969E+03 -0.56937571297E+03  0.74373843344E+03  0.10100000352E+00 0. -1.
       -3    1    3    3    0  502 -0.17523758065E+02 -0.47817471969E+03  0.31441600113E+03  0.57255181129E+03  0.10100000352E+00 0.  1.
</event>
<event>
 5   0  0.1346593E-03  0.1313680E+04  0.7818609E-02  0.9018786E-01
       -1   -1    0    0    0  501  0.00000000000E+00  0.00000000000E+00  0.54800568631E+03  0.54800568633E+03  0.50400001928E-02 0. -1.
        1   -1    0    0  501    0  0.00000000000E+00  0.00000000000E+00 -0.78728918252E+03  0.78728918254E+03  0.50400001928E-02 0.  1.
    10030    2    1    2    0    0  0.00000000000E+00  0.00000000000E+00 -0.23928349621E+03  0.13352948689E+04  0.13136802485E+04 0.  0.
        2    1    3    3  502    0 -0.28241991425E+03  0.23376918404E+03  0.43432998026E+03  0.56837625841E+03  0.25500000920E-02 0. -1.
       -2    1    3    3    0  502  0.28241991425E+03 -0.23376918404E+03 -0.67361347648E+03  0.76691861046E+03  0.25500000920E-02 0.  1.
</event>
<event>
 5   0  0.2478236E-03  0.1303744E+04  0.7818609E-02  0.9026601E-01
        2   -1    0    0  501    0  0.00000000000E+00  0.00000000000E+00  0.70251228289E+03  0.70251228289E+03  0.25500000920E-02 0.  1.
       -2   -1    0    0    0  501  0.00000000000E+00  0.00000000000E+00 -0.60488201502E+03  0.60488201502E+03  0.25500000920E-02 0. -1.
    10030    2    1    2    0    0  0.00000000000E+00  0.00000000000E+00  0.97630267872E+02  0.13073942979E+04  0.13037439093E+04 0.  0.
        3    1    3    3  502    0 -0.21292821523E+03  0.28364074366E+03 -0.49965916926E+03  0.61273957921E+03  0.10100000352E+00 0. -1.
       -3    1    3    3    0  502  0.21292821523E+03 -0.28364074366E+03  0.59728943713E+03  0.69465471870E+03  0.10100000352E+00 0.  1.
</event>
<event>
 5   0  0.1332630E-03  0.1243345E+04  0.7818609E-02  0.9075740E-01
        1   -1    0    0  501    0  0.00000000000E+00  0.00000000000E+00  0.15000348047E+04  0.15000348047E+04  0.50400001928E-02 0.  1.
       -1   -1    0    0    0  501  0.00000000000E+00  0.00000000000E+00 -0.25764515209E+03  0.25764515214E+03  0.50400001928E-02 0. -1.
    10030    2    1    2    0    0  0.00000000000E+00  0.00000000000E+00  0.12423896526E+04  0.17576799569E+04  0.12433449971E+04 0.  0.
        5    1    3    3  502    0  0.36592361619E+03 -0.93412428366E+02  0.13192512038E+04  0.13722506343E+04  0.46999998093E+01 0.  1.
       -5    1    3    3    0  502 -0.36592361619E+03  0.93412428366E+02 -0.76861551143E+02  0.38542932258E+03  0.46999998093E+01 0. -1.
</event>
<event>
 5   0  0.1387622E-03  0.1317001E+04  0.7818609E-02  0.9016190E-01
        1   -1    0    0  501    0  0.00000000000E+00  0.00000000000E+00  0.85530883642E+03  0.85530883643E+03  0.50400001928E-02 0.  1.
       -1   -1    0    0    0  501  0.00000000000E+00  0.00000000000E+00 -0.50697852188E+03  0.50697852190E+03  0.50400001928E-02 0. -1.
    10030    2    1    2    0    0  0.00000000000E+00  0.00000000000E+00  0.34833031454E+03  0.13622873583E+04  0.13170014573E+04 0.  0.
        3    1    3    3  502    0 -0.58534424757E+03 -0.27536461923E+03  0.46764967096E+02  0.64856806430E+03  0.10100000352E+00 0.  1.
       -3    1    3    3    0  502  0.58534424757E+03  0.27536461923E+03  0.30156534744E+03  0.71371929403E+03  0.10100000352E+00 0. -1.
</event>
<event>
 5   0  0.9131250E-04  0.1295726E+04  0.7818609E-02  0.9032961E-01
       -3   -1    0    0    0  501  0.00000000000E+00  0.00000000000E+00  0.28935531522E+03  0.28935533285E+03  0.10100000352E+00 0.  1.
        3   -1    0    0  501    0  0.00000000000E+00  0.00000000000E+00 -0.14505574723E+04  0.14505574758E+04  0.10100000352E+00 0. -1.
    10030    2    1    2    0    0  0.00000000000E+00  0.00000000000E+00 -0.11612021571E+04  0.17399128087E+04  0.12957261023E+04 0.  0.
        5    1    3    3  502    0  0.53332550084E+03  0.30164906866E+03 -0.86315374584E+03  0.10585295128E+04  0.46999998093E+01 0. -1.
       -5    1    3    3    0  502 -0.53332550084E+03 -0.30164906866E+03 -0.29804841125E+03  0.68138329590E+03  0.46999998093E+01 0.  1.
</event>
<event>
 5   0  0.1310461E-03  0.1302253E+04  0.7818609E-02  0.9027781E-01
        1   -1    0    0  501    0  0.00000000000E+00  0.00000000000E+00  0.11770617350E+04  0.11770617350E+04  0.50400001928E-02 0. -1.
       -1   -1    0    0    0  501  0.00000000000E+00  0.00000000000E+00 -0.36018977616E+03  0.36018977619E+03  0.50400001928E-02 0.  1.
    10030    2    1    2    0    0  0.00000000000E+00  0.00000000000E+00  0.81687195887E+03  0.15372515112E+04  0.13022528217E+04 0.  0.
        4    1    3    3  502    0  0.29482206591E+03 -0.57434735415E+03  0.30848648195E+03  0.71551412021E+03  0.12699999809E+01 0.  1.
       -4    1    3    3    0  502 -0.29482206591E+03  0.57434735415E+03  0.50838547692E+03  0.82173739102E+03  0.12699999809E+01 0. -1.
</event>
<event>
 5   0  0.2401211E-03  0.1095362E+04  0.7818609E-02  0.9209724E-01
        2   -1    0    0  501    0  0.00000000000E+00  0.00000000000E+00  0.18245987415E+04  0.18245987415E+04  0.25500000920E-02 0. -1.
       -2   -1    0    0    0  501  0.00000000000E+00  0.00000000000E+00 -0.16439484045E+03  0.16439484047E+03  0.25500000920E-02 0.  1.
    10030    2    1    2    0    0  0.00000000000E+00  0.00000000000E+00  0.16602039011E+04  0.19889935820E+04  0.10953622579E+04 0.  0.
        4    1    3    3  502    0 -0.14122749374E+03 -0.28106254409E+03  0.15986080932E+02  0.31495797555E+03  0.12699999809E+01 0.  1.
       -4    1    3    3    0  502  0.14122749374E+03  0.28106254409E+03  0.16442178202E+04  0.16740356065E+04  0.12699999809E+01 0. -1.
</event>
<event>
 5   0  0.1310461E-03  0.1281300E+04  0.7818609E-02  0.9044528E-01
       -1   -1    0    0    0  501  0.00000000000E+00  0.00000000000E+00  0.44320449379E+03  0.44320449382E+03  0.50400001928E-02 0. -1.
        1   -1    0    0  501    0  0.00000000000E+00  0.00000000000E+00 -0.92605609611E+03  0.92605609613E+03  0.50400001928E-02 0.  1.
    10030    2    1    2    0    0  0.00000000000E+00  0.00000000000E+00 -0.48285160232E+03  0.13692605899E+04  0.12812996891E+04 0.  0.
        4    1    3    3  502    0 -0.55605906556E+03 -0.83399084820E+02  0.86692342811E+02  0.56892377955E+03  0.12699999809E+01 0. -1.
       -4    1    3    3    0  502  0.55605906556E+03  0.83399084820E+02 -0.56954394513E+03  0.80033681039E+03  0.12699999809E+01 0.  1.
</event>
<event>
 5   0  0.2312105E-03  0.1305978E+04  0.7818609E-02  0.9024838E-01
        2   -1    0    0  501    0  0.00000000000E+00  0.00000000000E+00  0.58233820782E+03  0.58233820783E+03  0.25500000920E-02 0. -1.
       -2   -1    0    0    0  501  0.00000000000E+00  0.00000000000E+00 -0.73221091583E+03  0.73221091584E+03  0.25500000920E-02 0.  1.
    10030    2    1    2    0    0  0.00000000000E+00  0.00000000000E+00 -0.14987270801E+03  0.13145491237E+04  0.13059776299E+04 0.  0.
        5    1    3    3  502    0 -0.61840863112E+01 -0.29768962477E+03 -0.65988295701E+03  0.72396475230E+03  0.46999998093E+01 0.  1.
       -5    1    3    3    0  502  0.61840863112E+01  0.29768962477E+03  0.51001024900E+03  0.59058437137E+03  0.46999998093E+01 0. -1.
</event>
<event>
 5   0  0.1387622E-03  0.1301913E+04  0.7818609E-02  0.9028049E-01
        1   -1    0    0  501    0  0.00000000000E+00  0.00000000000E+00  0.58175995704E+03  0.58175995707E+03  0.50400001928E-02 0. -1.
       -1   -1    0    0    0  501  0.00000000000E+00  0.00000000000E+00 -0.72838370588E+03  0.72838370589E+03  0.50400001928E-02 0.  1.
    10030    2    1    2    0    0  0.00000000000E+00  0.00000000000E+00 -0.14662374883E+03  0.13101436630E+04  0.13019131668E+04 0.  0.
        3    1    3    3  502    0  0.17833802851E+03 -0.21760927005E+03  0.51741380721E+03  0.58896120833E+03  0.10100000352E+00 0. -1.
       -3    1    3    3    0  502 -0.17833802851E+03  0.21760927005E+03 -0.66403755605E+03  0.72118245463E+03  0.10100000352E+00 0.  1.
</event>
<event>
 5   0  0.2361043E-03  0.1153983E+04  0.7818609E-02  0.9154117E-01
        2   -1    0    0  501    0  0.00000000000E+00  0.00000000000E+00  0.13940095842E+04  0.13940095842E+04  0.25500000920E-02 0. -1.
       -2   -1    0    0    0  501  0.00000000000E+00  0.00000000000E+00 -0.23882134972E+03  0.23882134973E+03  0.25500000920E-02 0.  1.
    10030    2    1    2    0    0  0.00000000000E+00  0.00000000000E+00  0.11551882345E+04  0.16328309339E+04  0.11539831029E+04 0.  0.
        2    1    3    3  502    0 -0.93365049680E+02 -0.52270788866E+03  0.89706852021E+03  0.10424358490E+04  0.25500000920E-02 0. -1.
       -2    1    3    3    0  502  0.93365049680E+02  0.52270788866E+03  0.25811971424E+03  0.59039508489E+03  0.25500000920E-02 0.  1.
</event>
<event>
 5   0  0.2401211E-03  0.1294191E+04  0.7818609E-02  0.9034184E-01
        2   -1    0    0  501    0  0.00000000000E+00  0.00000000000E+00  0.68552119929E+03  0.68552119930E+03  0.25500000920E-02 0. -1.
       -2   -1    0    0    0  501  0.00000000000E+00  0.00000000000E+00 -0.61082398768E+03  0.61082398769E+03  0.25500000920E-02 0.  1.
    10030    2    1    2    0    0  0.00000000000E+00  0.00000000000E+00  0.74697211610E+02  0.12963451870E+04  0.12941913191E+04 0.  0.
        4    1    3    3  502    0  0.35024229819E+03  0.38295470816E+03  0.42452417549E+03  0.67048218800E+03  0.12699999809E+01 0. -1.
       -4    1    3    3    0  502 -0.35024229819E+03 -0.38295470816E+03 -0.34982696388E+03  0.62586299899E+03  0.12699999809E+01 0.  1.
</event>
<event>
 5   0  0.2361043E-03  0.1304480E+04  0.7818609E-02  0.9026020E-01
       -2   -1    0    0    0  501  0.00000000000E+00  0.00000000000E+00  0.24163852764E+03  0.24163852766E+03  0.25500000920E-02 0. -1.
        2   -1    0    0  501    0  0.00000000000E+00  0.00000000000E+00 -0.17605513327E+04  0.17605513327E+04  0.25500000920E-02 0.  1.
    10030    2    1    2    0    0  0.00000000000E+00  0.00000000000E+00 -0.15189128050E+04  0.20021898603E+04  0.13044800219E+04 0.  0.
        2    1    3    3  502    0 -0.11768727485E+02  0.64445247605E+03 -0.60628158996E+03  0.88489257154E+03  0.25500000920E-02 0.  1.
       -2    1    3    3    0  502  0.11768727485E+02 -0.64445247605E+03 -0.91263121509E+03  0.11172972888E+04  0.25500000920E-02 0. -1.
</event>
<event>
 5   0  0.1310461E-03  0.1293720E+04  0.7818609E-02  0.9034560E-01
       -1   -1    0    0    0  501  0.00000000000E+00  0.00000000000E+00  0.59077707655E+03  0.59077707657E+03  0.50400001928E-02 0. -1.
        1   -1    0    0  501    0  0.00000000000E+00  0.00000000000E+00 -0.70826715736E+03  0.70826715738E+03  0.50400001928E-02 0.  1.
    10030    2    1    2    0    0  0.00000000000E+00  0.00000000000E+00 -0.11749008081E+03  0.12990442339E+04  0.12937202181E+04 0.  0.
        4    1    3    3  502    0  0.30374149480E+03  0.20823429940E+03  0.47523848687E+03  0.60122678866E+03  0.12699999809E+01 0. -1.
       -4    1    3    3    0  502 -0.30374149480E+03 -0.20823429940E+03 -0.59272856768E+03  0.69781744529E+03  0.12699999809E+01 0.  1.
</event>
<event>
 5   0  0.2312105E-03  0.1289689E+04  0.7818609E-02  0.9037782E-01
        2   -1    0    0  501    0  0.00000000000E+00  0.00000000000E+00  0.97121758488E+03  0.97121758489E+03  0.25500000920E-02 0. -1.
       -2   -1    0    0    0  501  0.00000000000E+00  0.00000000000E+00 -0.42814776727E+03  0.42814776728E+03  0.25500000920E-02 0.  1.
    10030    2    1    2    0    0  0.00000000000E+00  0.00000000000E+00  0.54306981761E+03  0.13993653522E+04  0.12896893277E+04 0.  0.
        5    1    3    3  502    0  0.27353702461E+03  0.76923049835E+02 -0.35653672071E+03  0.45593879265E+03  0.46999998093E+01 0.  1.
       -5    1    3    3    0  502 -0.27353702461E+03 -0.76923049835E+02  0.89960653832E+03  0.94342655952E+03  0.46999998093E+01 0. -1.
</event>
<event>
 5   0  0.1346593E-03  0.1238711E+04  0.7818609E-02  0.9079631E-01
       -1   -1    0    0    0  501  0.00000000000E+00  0.00000000000E+00  0.93618906389E+03  0.93618906390E+03  0.50400001928E-02 0. -1.
        1   -1    0    0  501    0  0.00000000000E+00  0.00000000000E+00 -0.40974790939E+03  0.40974790942E+03  0.50400001928E-02 0.  1.
    10030    2    1    2    0    0  0.00000000000E+00  0.00000000000E+00  0.52644115450E+03  0.13459369733E+04  0.12387114462E+04 0.  0.
        2    1    3    3  502    0 -0.32326531849E+03 -0.29618480907E+02 -0.30990752650E+03  0.44879883638E+03  0.25500000920E-02 0.  1.
       -2    1    3    3    0  502  0.32326531849E+03  0.29618480907E+02  0.83634868099E+03  0.89713813694E+03  0.25500000920E-02 0. -1.
</event>
<event>
 5   0  0.1324721E-03  0.1299332E+04  0.7818609E-02  0.9030095E-01
        1   -1    0    0  501    0  0.00000000000E+00  0.00000000000E+00  0.45663334948E+03  0.45663334951E+03  0.50400001928E-02 0.  1.
       -1   -1    0    0    0  501  0.00000000000E+00  0.00000000000E+00 -0.92429964352E+03  0.92429964353E+03  0.50400001928E-02 0. -1.
    10030    2    1    2    0    0  0.00000000000E+00  0.00000000000E+00 -0.46766629404E+03  0.13809329930E+04  0.12993322010E+04 0.  0.
        1    1    3    3  502    0  0.62778750704E+03 -0.16021055479E+03 -0.28459756734E+03  0.70765835770E+03  0.50400001928E-02 0.  1.
       -1    1    3    3    0  502 -0.62778750704E+03  0.16021055479E+03 -0.18306872670E+03  0.67327463534E+03  0.50400001928E-02 0. -1.
</event>
<event>
 5   0  0.1332630E-03  0.1302537E+04  0.7818609E-02  0.9027556E-01
       -1   -1    0    0    0  501  0.00000000000E+00  0.00000000000E+00  0.32872955882E+03  0.32872955886E+03  0.50400001928E-02 0. -1.
        1   -1    0    0  501    0  0.00000000000E+00  0.00000000000E+00 -0.12902724543E+04  0.12902724544E+04  0.50400001928E-02 0.  1.
    10030    2    1    2    0    0  0.00000000000E+00  0.00000000000E+00 -0.96154289553E+03  0.16190020132E+04  0.13025370547E+04 0.  0.
        5    1    3    3  502    0  0.52452722585E+03  0.12833708690E+03 -0.93326604181E+03  0.10782424650E+04  0.46999998093E+01 0.  1.
       -5    1    3    3    0  502 -0.52452722585E+03 -0.12833708690E+03 -0.28276853722E+02  0.54075954822E+03  0.46999998093E+01 0. -1.
</event>
<event>
 5   0  0.1310461E-03  0.1301511E+04  0.7818609E-02  0.9028368E-01
        1   -1    0    0  501    0  0.00000000000E+00  0.00000000000E+00  0.10959305767E+04  0.10959305768E+04  0.50400001928E-02 0.  1.
       -1   -1    0    0    0  501  0.00000000000E+00  0.00000000000E+00 -0.38641389522E+03  0.38641389525E+03  0.50400001928E-02 0. -1.
    10030    2    1    2    0    0  0.00000000000E+00  0.00000000000E+00  0.70951668152E+03  0.14823444720E+04  0.13015111265E+04 0.  0.
        4    1    3    3  502    0  0.18201997089E+03  0.36049003847E+03  0.93594965895E+03  0.10193565199E+04  0.12699999809E+01 0.  1.
       -4    1    3    3    0  502 -0.18201997089E+03 -0.36049003847E+03 -0.22643297743E+03  0.46298795212E+03  0.12699999809E+01 0. -1.
</event>
<event>
 5   0  0.2334946E-03  0.1283244E+04  0.7818609E-02  0.9042959E-01
        2   -1    0    0  501    0  0.00000000000E+00  0.00000000000E+00  0.23851852370E+04  0.23851852370E+04  0.25500000920E-02 0. -1.
       -2   -1    0    0    0  501  0.00000000000E+00  0.00000000000E+00 -0.17259835496E+03  0.17259835498E+03  0.25500000920E-02 0.  1.
    10030    2    1    2    0    0  0.00000000000E+00  0.00000000000E+00  0.22125868820E+04  0.25577835920E+04  0.12832444010E+04 0.  0.
        1    1    3    3  502    0  0.27457241407E+03  0.62447738561E+02 -0.42859804406E+02  0.28482748021E+03  0.50400001928E-02 0.  1.
       -1    1    3    3    0  502 -0.27457241407E+03 -0.62447738561E+02  0.22554466864E+04  0.22729561117E+04  0.50400001928E-02 0. -1.
</event>
<event>
 5   0  0.1324721E-03  0.1255742E+04  0.7818609E-02  0.9065418E-01
        1   -1    0    0  501    0  0.00000000000E+00  0.00000000000E+00  0.90556833364E+03  0.90556833366E+03  0.50400001928E-02 0. -1.
       -1   -1    0    0    0  501  0.00000000000E+00  0.00000000000E+00 -0.43533094010E+03  0.43533094012E+03  0.50400001928E-02 0.  1.
    10030    2    1    2    0    0  0.00000000000E+00  0.00000000000E+00  0.47023739355E+03  0.13408992738E+04  0.12557418748E+04 0.  0.
        1    1    3    3  502    0  0.17983651804E+03 -0.20467424112E+03 -0.36891815626E+03  0.45862111186E+03  0.50400001928E-02 0.  1.
       -1    1    3    3    0  502 -0.17983651804E+03  0.20467424112E+03  0.83915554981E+03  0.88227816192E+03  0.50400001928E-02 0. -1.
</event>
<event>
 5   0  0.2478236E-03  0.1302573E+04  0.7818609E-02  0.9027527E-01
        2   -1    0    0  501    0  0.00000000000E+00  0.00000000000E+00  0.13047407077E+04  0.13047407077E+04  0.25500000920E-02 0.  1.
       -2   -1    0    0    0  501  0.00000000000E+00  0.00000000000E+00 -0.32510235841E+03  0.32510235842E+03  0.25500000920E-02 0. -1.
    10030    2    1    2    0    0  0.00000000000E+00  0.00000000000E+00  0.97963834930E+03  0.16298430661E+04  0.13025732704E+04 0.  0.
        3    1    3    3  502    0 -0.62116747518E+03  0.18765600590E+03  0.42003513701E+03  0.77297693063E+03  0.10100000352E+00 0. -1.
       -3    1    3    3    0  502  0.62116747518E+03 -0.18765600590E+03  0.55960321229E+03  0.85686613551E+03  0.10100000352E+00 0.  1.
</event>
<event>
 5   0  0.2334946E-03  0.1308726E+04  0.7818609E-02  0.9022674E-01
        2   -1    0    0  501    0  0.00000000000E+00  0.00000000000E+00  0.70939454458E+03  0.70939454459E+03  0.25500000920E-02 0.  1.
       -2   -1    0    0    0  501  0.00000000000E+00  0.00000000000E+00 -0.60360052664E+03  0.60360052665E+03  0.25500000920E-02 0. -1.
    10030    2    1    2    0    0  0.00000000000E+00  0.00000000000E+00  0.10579401794E+03  0.13129950712E+04  0.13087259770E+04 0.  0.
        1    1    3    3  502    0 -0.46322275470E+03  0.36704453257E+03 -0.22889982978E+03  0.63379187551E+03  0.50400001928E-02 0. -1.
       -1    1    3    3    0  502  0.46322275470E+03 -0.36704453257E+03  0.33469384773E+03  0.67920319573E+03  0.50400001928E-02 0.  1.
</event>
<event>
 5   0  0.2334946E-03  0.1294823E+04  0.7818609E-02  0.9033681E-01
        2   -1    0    0  501    0  0.00000000000E+00  0.00000000000E+00  0.15102178379E+04  0.15102178379E+04  0.25500000920E-02 0.  1.
       -2   -1    0    0    0  501  0.00000000000E+00  0.00000000000E+00 -0.27753722079E+03  0.27753722080E+03  0.25500000920E-02 0. -1.
    10030    2    1    2    0    0  0.00000000000E+00  0.00000000000E+00  0.12326806171E+04  0.17877550587E+04  0.12948230173E+04 0.  0.
        1    1    3    3  502    0 -0.45262615921E+03  0.16102747004E+03  0.17142145309E+02  0.48072251796E+03  0.50400001928E-02 0. -1.
       -1    1    3    3    0  502  0.45262615921E+03 -0.16102747004E+03  0.12155384718E+04  0.13070325407E+04  0.50400001928E-02 0.  1.
</event>
<event>
 5   0  0.2312105E-03  0.1316634E+04  0.7818609E-02  0.9016478E-01
       -2   -1    0    0    0  501  0.00000000000E+00  0.00000000000E+00  0.28385314442E+03  0.28385314443E+03  0.25500000920E-02 0. -1.
        2   -1    0    0  501    0  0.00000000000E+00  0.00000000000E+00 -0.15267790465E+04  0.15267790465E+04  0.25500000920E-02 0.  1.
    10030    2    1    2    0    0  0.00000000000E+00  0.00000000000E+00 -0.12429259021E+04  0.18106321909E+04  0.13166336365E+04 0.  0.
        5    1    3    3  502    0 -0.65610423130E+03 -0.23936637920E+02 -0.68760438315E+03  0.95071951841E+03  0.46999998093E+01 0.  1.
       -5    1    3    3    0  502  0.65610423130E+03  0.23936637920E+02 -0.55532151892E+03  0.85991267250E+03  0.46999998093E+01 0. -1.
</event>
<event>
 5   0  0.1332630E-03  0.1249690E+04  0.7818609E-02  0.9070442E-01
        1   -1    0    0  501    0  0.00000000000E+00  0.00000000000E+00  0.11305888941E+04  0.11305888941E+04  0.50400001928E-02 0. -1.
       -1   -1    0    0    0  501  0.00000000000E+00  0.00000000000E+00 -0.34533415697E+03  0.34533415701E+03  0.50400001928E-02 0.  1.
    10030    2    1    2    0    0  0.00000000000E+00  0.00000000000E+00  0.78525473710E+03  0.14759230511E+04  0.12496895017E+04 0.  0.
        5    1    3    3  502    0 -0.36442240248E+02 -0.51334460780E+03 -0.25861631650E+02  0.51530732308E+03  0.46999998093E+01 0.  1.
       -5    1    3    3    0  502  0.36442240248E+02  0.51334460780E+03  0.81111636875E+03  0.96061572801E+03  0.46999998093E+01 0. -1.
</event>
<event>
 5   0  0.2478236E-03  0.1331948E+04  0.7818609E-02  0.9004607E-01
        2   -1    0    0  501    0  0.00000000000E+00  0.00000000000E+00  0.56646182595E+03  0.56646182596E+03  0.25500000920E-02 0. -1.
       -2   -1    0    0    0  501  0.00000000000E+00  0.00000000000E+00 -0.78296737135E+03  0.78296737136E+03  0.25500000920E-02 0.  1.
    10030    2    1    2    0    0  0.00000000000E+00  0.00000000000E+00 -0.21650554540E+03  0.13494291973E+04  0.13319476369E+04 0.  0.
        3    1    3    3  502    0  0.26564646303E+03  0.60981616505E+03 -0.74999458022E+02  0.66937935984E+03  0.10100000352E+00 0. -1.
       -3    1    3    3    0  502 -0.26564646303E+03 -0.60981616505E+03 -0.14150608738E+03  0.68004983747E+03  0.10100000352E+00 0.  1.
</event>
<event>
 5   0  0.1346593E-03  0.1307010E+04  0.7818609E-02  0.9024025E-01
        1   -1    0    0  501    0  0.00000000000E+00  0.00000000000E+00  0.79495180725E+03  0.79495180727E+03  0.50400001928E-02 0. -1.
       -1   -1    0    0    0  501  0.00000000000E+00  0.00000000000E+00 -0.53722574894E+03  0.53722574896E+03  0.50400001928E-02 0.  1.
    10030    2    1    2    0    0  0.00000000000E+00  0.00000000000E+00  0.25772605831E+03  0.13321775562E+04  0.13070096863E+04 0.  0.
        2    1    3    3  502    0 -0.41795407425E+03 -0.95250908458E+02 -0.37390018813E+03  0.56882307832E+03  0.25500000920E-02 0.  1.
       -2    1    3    3    0  502  0.41795407425E+03  0.95250908458E+02  0.63162624644E+03  0.76335447791E+03  0.25500000920E-02 0. -1.
</event>
<event>
 5   0  0.1324721E-03  0.1297516E+04  0.7818609E-02  0.9031537E-01
        1   -1    0    0  501    0  0.00000000000E+00  0.00000000000E+00  0.15695241239E+04  0.15695241239E+04  0.50400001928E-02 0.  1.
       -1   -1    0    0    0  501  0.00000000000E+00  0.00000000000E+00 -0.26816228478E+03  0.26816228482E+03  0.50400001928E-02 0. -1.
    10030    2    1    2    0    0  0.00000000000E+00  0.00000000000E+00  0.13013618391E+04  0.18376864087E+04  0.12975163585E+04 0.  0.
        1    1    3    3  502    0 -0.49093489457E+03  0.32991715470E+03  0.27322738547E+03  0.65154861973E+03  0.50400001928E-02 0. -1.
       -1    1    3    3    0  502  0.49093489457E+03 -0.32991715470E+03  0.10281344536E+04  0.11861377890E+04  0.50400001928E-02 0.  1.
</event>
<event>
 5   0  0.1387622E-03  0.1306593E+04  0.7818609E-02  0.9024353E-01
        1   -1    0    0  501    0  0.00000000000E+00  0.00000000000E+00  0.18378854817E+04  0.18378854817E+04  0.50400001928E-02 0.  1.
       -1   -1    0    0    0  501  0.00000000000E+00  0.00000000000E+00 -0.23222151979E+03  0.23222151984E+03  0.50400001928E-02 0. -1.
    10030    2    1    2    0    0  0.00000000000E+00  0.00000000000E+00  0.16056639619E+04  0.20701070016E+04  0.13065933718E+04 0.  0.
        3    1    3    3  502    0  0.41928563903E+03  0.35530074395E+03  0.13624422137E+04  0.14691112489E+04  0.10100000352E+00 0.  1.
       -3    1    3    3    0  502 -0.41928563903E+03 -0.35530074395E+03  0.24322174827E+03  0.60099575271E+03  0.10100000352E+00 0. -1.
</event>
<event>
 5   0  0.1387622E-03  0.1224409E+04  0.7818609E-02  0.9091755E-01
       -1   -1    0    0    0  501  0.00000000000E+00  0.00000000000E+00  0.29147741917E+03  0.29147741922E+03  0.50400001928E-02 0. -1.
        1   -1    0    0  501    0  0.00000000000E+00  0.00000000000E+00 -0.12858440469E+04  0.12858440469E+04  0.50400001928E-02 0.  1.
    10030    2    1    2    0    0  0.00000000000E+00  0.00000000000E+00 -0.99436662775E+03  0.15773214661E+04  0.12244092523E+04 0.  0.
        3    1    3    3  502    0 -0.61335455669E+02 -0.49574806938E+03 -0.41240107229E+02  0.50122743646E+03  0.10100000352E+00 0. -1.
       -3    1    3    3    0  502  0.61335455669E+02  0.49574806938E+03 -0.95312652052E+03  0.10760940297E+04  0.10100000352E+00 0.  1.
</event>
<event>
 5   0  0.2361043E-03  0.1263457E+04  0.7818609E-02  0.9059057E-01
        2   -1    0    0  501    0  0.00000000000E+00  0.00000000000E+00  0.59710305066E+03  0.59710305066E+03  0.25500000920E-02 0. -1.
       -2   -1    0    0    0  501  0.00000000000E+00  0.00000000000E+00 -0.66836172574E+03  0.66836172575E+03  0.25500000920E-02 0.  1.
    10030    2    1    2    0    0  0.00000000000E+00  0.00000000000E+00 -0.71258675084E+02  0.12654647764E+04  0.12634568855E+04 0.  0.
        2    1    3    3  502    0 -0.40766845722E+03  0.12028035851E+03  0.43246752096E+03  0.60637372333E+03  0.25500000920E-02 0. -1.
       -2    1    3    3    0  502  0.40766845722E+03 -0.12028035851E+03 -0.50372619604E+03  0.65909105308E+03  0.25500000920E-02 0.  1.
</event>
<event>
 5   0  0.1332630E-03  0.1285758E+04  0.7818609E-02  0.9040936E-01
        1   -1    0    0  501    0  0.00000000000E+00  0.00000000000E+00  0.19154406246E+04  0.19154406246E+04  0.50400001928E-02 0. -1.
       -1   -1    0    0    0  501  0.00000000000E+00  0.00000000000E+00 -0.21576933941E+03  0.21576933947E+03  0.50400001928E-02 0.  1.
    10030    2    1    2    0    0  0.00000000000E+00  0.00000000000E+00  0.16996712852E+04  0.21312099641E+04  0.12857579217E+04 0.  0.
        5    1    3    3  502    0  0.27136409991E+03  0.42339301056E+02 -0.11359992941E+03  0.29725094633E+03  0.46999998093E+01 0.  1.
       -5    1    3    3    0  502 -0.27136409991E+03 -0.42339301056E+02  0.18132712146E+04  0.18339590177E+04  0.46999998093E+01 0. -1.
</event>
<event>
 5   0  0.2312105E-03  0.1295522E+04  0.7818609E-02  0.9033124E-01
       -2   -1    0    0    0  501  0.00000000000E+00  0.00000000000E+00  0.59383137560E+03  0.59383137561E+03  0.25500000920E-02 0. -1.
        2   -1    0    0  501    0  0.00000000000E+00  0.00000000000E+00 -0.70658847723E+03  0.70658847724E+03  0.25500000920E-02 0.  1.
    10030    2    1    2    0    0  0.00000000000E+00  0.00000000000E+00 -0.11275710163E+03  0.13004198528E+04  0.12955221456E+04 0.  0.
        5    1    3    3  502    0  0.63828027578E+01 -0.10625715845E+03  0.58497433906E+03  0.59459935356E+03  0.46999998093E+01 0. -1.
       -5    1    3    3    0  502 -0.63828027578E+01  0.10625715845E+03 -0.69773144069E+03  0.70582049929E+03  0.46999998093E+01 0.  1.
</event>
<event>
 5   0  0.1346593E-03  0.1296195E+04  0.7818609E-02  0.9032588E-01
        1   -1    0    0  501    0  0.00000000000E+00  0.00000000000E+00  0.84737182891E+03  0.84737182892E+03  0.50400001928E-02 0. -1.
       -1   -1    0    0    0  501  0.00000000000E+00  0.00000000000E+00 -0.49568615532E+03  0.49568615534E+03  0.50400001928E-02 0.  1.
    10030    2    1    2    0    0  0.00000000000E+00  0.00000000000E+00  0.35168567359E+03  0.13430579843E+04  0.12961951767E+04 0.  0.
        2    1    3    3  502    0  0.48322686391E+03  0.40192181841E+03  0.33961136104E+03  0.71441250456E+03  0.25500000920E-02 0. -1.
       -2    1    3    3    0  502 -0.48322686391E+03 -0.40192181841E+03  0.12074312545E+02  0.62864547970E+03  0.25500000920E-02 0.  1.
</event>
<event>
 5   0  0.9131250E-04  0.1320164E+04  0.7818609E-02  0.9013726E-01
        4   -1    0    0  501    0  0.00000000000E+00  0.00000000000E+00  0.60196688802E+03  0.60196822771E+03  0.12699999809E+01 0. -1.
       -4   -1    0    0    0  501  0.00000000000E+00  0.00000000000E+00 -0.72380459382E+03  0.72380570800E+03  0.12699999809E+01 0.  1.
    10030    2    1    2    0    0  0.00000000000E+00  0.00000000000E+00 -0.12183770580E+03  0.13257739357E+04  0.13201636649E+04 0.  0.
        2    1    3    3  502    0  0.48784902826E+03  0.38413197802E+03  0.16398369683E+03  0.64221857941E+03  0.25500000920E-02 0. -1.
       -2    1    3    3    0  502 -0.48784902826E+03 -0.38413197802E+03 -0.28582140263E+03  0.68355535630E+03  0.25500000920E-02 0.  1.
</event>
<event>
 5   0  0.1324721E-03  0.1308807E+04  0.7818609E-02  0.9022610E-01
        1   -1    0    0  501    0  0.00000000000E+00  0.00000000000E+00  0.77872890172E+03  0.77872890173E+03  0.50400001928E-02 0. -1.
       -1   -1    0    0    0  501  0.00000000000E+00  0.00000000000E+00 -0.54992667125E+03  0.54992667127E+03  0.50400001928E-02 0.  1.
    10030    2    1    2    0    0  0.00000000000E+00  0.00000000000E+00  0.22880223047E+03  0.13286555730E+04  0.13088067737E+04 0.  0.
        1    1    3    3  502    0 -0.48163878827E+03 -0.23560633834E+03  0.49526753931E+03  0.72991520367E+03  0.50400001928E-02 0. -1.
       -1    1    3    3    0  502  0.48163878827E+03  0.23560633834E+03 -0.26646530884E+03  0.59874036934E+03  0.50400001928E-02 0.  1.
</event>
<event>
 5   0  0.1346593E-03  0.1316739E+04  0.7818609E-02  0.9016395E-01
        1   -1    0    0  501    0  0.00000000000E+00  0.00000000000E+00  0.86363711573E+03  0.86363711574E+03  0.50400001928E-02 0.  1.
       -1   -1    0    0    0  501  0.00000000000E+00  0.00000000000E+00 -0.50188938148E+03  0.50188938151E+03  0.50400001928E-02 0. -1.
    10030    2    1    2    0    0  0.00000000000E+00  0.00000000000E+00  0.36174773425E+03  0.13655264973E+04  0.13167388471E+04 0.  0.
        2    1    3    3  502    0  0.87321897098E+02  0.24369142178E+02  0.85713294841E+03  0.86191406768E+03  0.25500000920E-02 0.  1.
       -2    1    3    3    0  502 -0.87321897098E+02 -0.24369142178E+02 -0.49538521416E+03  0.50361242957E+03  0.25500000920E-02 0. -1.
</event>
<event>
 5   0  0.2334946E-03  0.1318305E+04  0.7818609E-02  0.9015174E-01
        2   -1    0    0  501    0  0.00000000000E+00  0.00000000000E+00  0.39441962903E+03  0.39441962904E+03  0.25500000920E-02 0. -1.
       -2   -1    0    0    0  501  0.00000000000E+00  0.00000000000E+00 -0.11015722746E+04  0.11015722746E+04  0.25500000920E-02 0.  1.
    10030    2    1    2    0    0  0.00000000000E+00  0.00000000000E+00 -0.70715264557E+03  0.14959919036E+04  0.13183045595E+04 0.  0.
        1    1    3    3  502    0  0.51627458793E+03 -0.40962918136E+03 -0.33985473826E+03  0.74150978383E+03  0.50400001928E-02 0.  1.
       -1    1    3    3    0  502 -0.51627458793E+03  0.40962918136E+03 -0.36729790732E+03  0.75448211981E+03  0.50400001928E-02 0. -1.
</event>
<event>
 5   0  0.2334946E-03  0.1301874E+04  0.7818609E-02  0.9028081E-01
       -2   -1    0    0    0  501  0.00000000000E+00  0.00000000000E+00  0.38035777493E+03  0.38035777494E+03  0.25500000920E-02 0.  1.
        2   -1    0    0  501    0  0.00000000000E+00  0.00000000000E+00 -0.11140007942E+04  0.11140007942E+04  0.25500000920E-02 0. -1.
    10030    2    1    2    0    0  0.00000000000E+00  0.00000000000E+00 -0.73364301928E+03  0.14943585692E+04  0.13018738239E+04 0.  0.
        1    1    3    3  502    0 -0.42060825200E+03  0.21664696321E+02  0.20288582071E+03  0.46748616770E+03  0.50400001928E-02 0.  1.
       -1    1    3    3    0  502  0.42060825200E+03 -0.21664696321E+02 -0.93652883999E+03  0.10268724015E+04  0.50400001928E-02 0. -1.
</event>
<event>
 5   0  0.9131250E-04  0.1304678E+04  0.7818609E-02  0.9025863E-01
       -3   -1    0    0    0  501  0.00000000000E+00  0.00000000000E+00  0.11344949799E+04  0.11344949844E+04  0.10100000352E+00 0.  1.
        3   -1    0    0  501    0  0.00000000000E+00  0.00000000000E+00 -0.37509766950E+03  0.37509768310E+03  0.10100000352E+00 0. -1.
    10030    2    1    2    0    0  0.00000000000E+00  0.00000000000E+00  0.75939731037E+03  0.15095926675E+04  0.13046784074E+04 0.  0.
        2    1    3    3  502    0  0.63275321227E+03  0.12941124657E+03  0.27351007849E+03  0.70137840102E+03  0.25500000920E-02 0. -1.
       -2    1    3    3    0  502 -0.63275321227E+03 -0.12941124657E+03  0.48588723188E+03  0.80821426645E+03  0.25500000920E-02 0.  1.
</event>
<event>
 5   0  0.1310461E-03  0.1239939E+04  0.7818609E-02  0.9078599E-01
       -1   -1    0    0    0  501  0.00000000000E+00  0.00000000000E+00  0.18997556786E+03  0.18997556793E+03  0.50400001928E-02 0.  1.
        1   -1    0    0  501    0  0.00000000000E+00  0.00000000000E+00 -0.20232177598E+04  0.20232177598E+04  0.50400001928E-02 0. -1.
    10030    2    1    2    0    0  0.00000000000E+00  0.00000000000E+00 -0.18332421920E+04  0.22131933278E+04  0.12399386161E+04 0.  0.
        4    1    3    3  502    0  0.34968037213E+03 -0.27776901066E+03 -0.16841962475E+04  0.17423979450E+04  0.12699999809E+01 0. -1.
       -4    1    3    3    0  502 -0.34968037213E+03  0.27776901066E+03 -0.14904594449E+03  0.47079538273E+03  0.12699999809E+01 0.  1.
</event>
<event>
 5   0  0.2312105E-03  0.1293632E+04  0.7818609E-02  0.9034630E-01
        2   -1    0    0  501    0  0.00000000000E+00  0.00000000000E+00  0.94132563886E+03  0.94132563886E+03  0.25500000920E-02 0. -1.
       -2   -1    0    0    0  501  0.00000000000E+00  0.00000000000E+00 -0.44444885266E+03  0.44444885266E+03  0.25500000920E-02 0.  1.
    10030    2    1    2    0    0  0.00000000000E+00  0.00000000000E+00  0.49687678620E+03  0.13857744915E+04  0.12936322510E+04 0.  0.
        5    1    3    3  502    0 -0.41128295219E+03  0.13409378327E+03  0.76353534584E+03  0.87757798731E+03  0.46999998093E+01 0. -1.
       -5    1    3    3    0  502  0.41128295219E+03 -0.13409378327E+03 -0.26665855963E+03  0.50819650422E+03  0.46999998093E+01 0.  1.
</event>
<event>
 5   0  0.1332630E-03  0.1329595E+04  0.7818609E-02  0.9006420E-01
        1   -1    0    0  501    0  0.00000000000E+00  0.00000000000E+00  0.34556593426E+03  0.34556593429E+03  0.50400001928E-02 0.  1.
       -1   -1    0    0    0  501  0.00000000000E+00  0.00000000000E+00 -0.12789330266E+04  0.12789330267E+04  0.50400001928E-02 0. -1.
    10030    2    1    2    0    0  0.00000000000E+00  0.00000000000E+00 -0.93336709239E+03  0.16244989610E+04  0.13295949552E+04 0.  0.
        5    1    3    3  502    0  0.37762690804E+03  0.18355203564E+03  0.16303567512E+03  0.45043995474E+03  0.46999998093E+01 0.  1.
       -5    1    3    3    0  502 -0.37762690804E+03 -0.18355203564E+03 -0.10964027675E+04  0.11740590062E+04  0.46999998093E+01 0. -1.
</event>
<event>
 5   0  0.1346593E-03  0.1324872E+04  0.7818609E-02  0.9010070E-01
       -1   -1    0    0    0  501  0.00000000000E+00  0.00000000000E+00  0.42100340555E+03  0.42100340558E+03  0.50400001928E-02 0. -1.
        1   -1    0    0  501    0  0.00000000000E+00  0.00000000000E+00 -0.10423233193E+04  0.10423233193E+04  0.50400001928E-02 0.  1.
    10030    2    1    2    0    0  0.00000000000E+00  0.00000000000E+00 -0.62131991373E+03  0.14633267249E+04  0.13248723216E+04 0.  0.
        2    1    3    3  502    0  0.24729230433E+03  0.58015702386E+03 -0.86780488923E+02  0.63660545818E+03  0.25500000920E-02 0. -1.
       -2    1    3    3    0  502 -0.24729230433E+03 -0.58015702386E+03 -0.53453942480E+03  0.82672126669E+03  0.25500000920E-02 0.  1.
</event>
<event>
 5   0  0.2312105E-03  0.1329725E+04  0.7818609E-02  0.9006319E-01
        2   -1    0    0  501    0  0.00000000000E+00  0.00000000000E+00  0.12634247811E+04  0.12634247811E+04  0.25500000920E-02 0.  1.
       -2   -1    0    0    0  501  0.00000000000E+00  0.00000000000E+00 -0.34987612223E+03  0.34987612224E+03  0.25500000920E-02 0. -1.
    10030    2    1    2    0    0  0.00000000000E+00  0.00000000000E+00  0.91354865889E+03  0.16133009034E+04  0.13297250290E+04 0.  0.
        5    1    3    3  502    0  0.20461227310E+03 -0.61273773207E+03  0.26607114783E+03  0.69866276293E+03  0.46999998093E+01 0.  1.
       -5    1    3    3    0  502 -0.20461227310E+03  0.61273773207E+03  0.64747751106E+03  0.91463814043E+03  0.46999998093E+01 0. -1.
</event>
<event>
 5   0  0.2334946E-03  0.1297120E+04  0.7818609E-02  0.9031852E-01
        2   -1    0    0  501    0  0.00000000000E+00  0.00000000000E+00  0.88512052533E+03  0.88512052533E+03  0.25500000920E-02 0.  1.
       -2   -1    0    0    0  501  0.00000000000E+00  0.00000000000E+00 -0.47522382950E+03  0.47522382950E+03  0.25500000920E-02 0. -1.
    10030    2    1    2    0    0  0.00000000000E+00  0.00000000000E+00  0.40989669583E+03  0.13603443548E+04  0.12971204503E+04 0.  0.
        1    1    3    3  502    0 -0.56239260050E+03  0.17788221227E+02 -0.13330705052E+03  0.57824962400E+03  0.50400001928E-02 0. -1.
       -1    1    3    3    0  502  0.56239260050E+03 -0.17788221227E+02  0.54320374635E+03  0.78209473083E+03  0.50400001928E-02 0.  1.
</event>
<event>
 5   0  0.1346593E-03  0.1285512E+04  0.7818609E-02  0.9041134E-01
        1   -1    0    0  501    0  0.00000000000E+00  0.00000000000E+00  0.13073256149E+04  0.13073256149E+04  0.50400001928E-02 0. -1.
       -1   -1    0    0    0  501  0.00000000000E+00  0.00000000000E+00 -0.31601545925E+03  0.31601545929E+03  0.50400001928E-02 0.  1.
    10030    2    1    2    0    0  0.00000000000E+00  0.00000000000E+00  0.99131015562E+03  0.16233410742E+04  0.12855117341E+04 0.  0.
        2    1    3    3  502    0 -0.53765810938E+03  0.16524374797E+03  0.10285933413E+03  0.57180572002E+03  0.25500000920E-02 0.  1.
       -2    1    3    3    0  502  0.53765810938E+03 -0.16524374797E+03  0.88845082149E+03  0.10515353542E+04  0.25500000920E-02 0. -1.
</event>
<event>
 5   0  0.1332630E-03  0.1299823E+04  0.7818609E-02  0.9029706E-01
        1   -1    0    0  501    0  0.00000000000E+00  0.00000000000E+00  0.11312368532E+04  0.11312368532E+04  0.50400001928E-02 0.  1.
       -1   -1    0    0    0  501  0.00000000000E+00  0.00000000000E+00 -0.37338322745E+03  0.37338322748E+03  0.50400001928E-02 0. -1.
    10030    2    1    2    0    0  0.00000000000E+00  0.00000000000E+00  0.75785362576E+03  0.15046200807E+04  0.12998228607E+04 0.  0.
        5    1    3    3  502    0 -0.62355526597E+03 -0.17035998432E+03  0.45674262542E+03  0.79150464929E+03  0.46999998093E+01 0. -1.
       -5    1    3    3    0  502  0.62355526597E+03  0.17035998432E+03  0.30111100034E+03  0.71311543140E+03  0.46999998093E+01 0.  1.
</event>
<event>
 5   0  0.1387622E-03  0.9485656E+03  0.7818609E-02  0.9366829E-01
       -1   -1    0    0    0  501  0.00000000000E+00  0.00000000000E+00  0.14650622195E+03  0.14650622204E+03  0.50400001928E-02 0. -1.
        1   -1    0    0  501    0  0.00000000000E+00  0.00000000000E+00 -0.15353898773E+04  0.15353898773E+04  0.50400001928E-02 0.  1.
    10030    2    1    2    0    0  0.00000000000E+00  0.00000000000E+00 -0.13888836553E+04  0.16818960993E+04  0.94856559123E+03 0.  0.
        3    1    3    3  502    0  0.12747659984E+03  0.41713686119E+03 -0.36419517412E+03  0.56823549654E+03  0.10100000352E+00 0. -1.
       -3    1    3    3    0  502 -0.12747659984E+03 -0.41713686119E+03 -0.10246884812E+04  0.11136606028E+04  0.10100000352E+00 0.  1.
</event>
<event>
 5   0  0.1387622E-03  0.1331836E+04  0.7818609E-02  0.9004693E-01
       -1   -1    0    0    0  501  0.00000000000E+00  0.00000000000E+00  0.42137119976E+03  0.42137119979E+03  0.50400001928E-02 0. -1.
        1   -1    0    0  501    0  0.00000000000E+00  0.00000000000E+00 -0.10523904894E+04  0.10523904894E+04  0.50400001928E-02 0.  1.
    10030    2    1    2    0    0  0.00000000000E+00  0.00000000000E+00 -0.63101928961E+03  0.14737616892E+04  0.13318363911E+04 0.  0.
        3    1    3    3  502    0 -0.38117606121E+02  0.44346621597E+02  0.41852452019E+03  0.42259006016E+03  0.10100000352E+00 0. -1.
       -3    1    3    3    0  502  0.38117606121E+02 -0.44346621597E+02 -0.10495438098E+04  0.10511716290E+04  0.10100000352E+00 0.  1.
</event>
<event>
 5   0  0.1332630E-03  0.1314021E+04  0.7818609E-02  0.9018520E-01
       -1   -1    0    0    0  501  0.00000000000E+00  0.00000000000E+00  0.71659276136E+03  0.71659276138E+03  0.50400001928E-02 0. -1.
        1   -1    0    0  501    0  0.00000000000E+00  0.00000000000E+00 -0.60238185871E+03  0.60238185873E+03  0.50400001928E-02 0.  1.
    10030    2    1    2    0    0  0.00000000000E+00  0.00000000000E+00  0.11421090265E+03  0.13189746201E+04  0.13140205167E+04 0.  0.
        5    1    3    3  502    0 -0.57194268479E+03 -0.56724302045E+02 -0.26237791417E+03  0.63182302979E+03  0.46999998093E+01 0.  1.
       -5    1    3    3    0  502  0.57194268479E+03  0.56724302045E+02  0.37658881681E+03  0.68715159032E+03  0.46999998093E+01 0. -1.
</event>
<event>
 5   0  0.1310461E-03  0.1271047E+04  0.7818609E-02  0.9052845E-01
        1   -1    0    0  501    0  0.00000000000E+00  0.00000000000E+00  0.71862920803E+03  0.71862920805E+03  0.50400001928E-02 0.  1.
       -1   -1    0    0    0  501  0.00000000000E+00  0.00000000000E+00 -0.56202883367E+03  0.56202883369E+03  0.50400001928E-02 0. -1.
    10030    2    1    2    0    0  0.00000000000E+00  0.00000000000E+00  0.15660037436E+03  0.12806580417E+04  0.12710473408E+04 0.  0.
        4    1    3    3  502    0  0.13569114657E+03 -0.11637265348E+03  0.69277547109E+03  0.71546778263E+03  0.12699999809E+01 0.  1.
       -4    1    3    3    0  502 -0.13569114657E+03  0.11637265348E+03 -0.53617509673E+03  0.56519025911E+03  0.12699999809E+01 0. -1.
</event>
<event>
 5   0  0.1387622E-03  0.1276869E+04  0.7818609E-02  0.9048112E-01
        1   -1    0    0  501    0  0.00000000000E+00  0.00000000000E+00  0.50287038206E+03  0.50287038208E+03  0.50400001928E-02 0. -1.
       -1   -1    0    0    0  501  0.00000000000E+00  0.00000000000E+00 -0.81054416628E+03  0.81054416630E+03  0.50400001928E-02 0.  1.
    10030    2    1    2    0    0  0.00000000000E+00  0.00000000000E+00 -0.30767378422E+03  0.13134145484E+04  0.12768690686E+04 0.  0.
        3    1    3    3  502    0 -0.37750523456E+02 -0.22636657320E+03  0.45897595442E+03  0.51315286652E+03  0.10100000352E+00 0. -1.
       -3    1    3    3    0  502  0.37750523456E+02  0.22636657320E+03 -0.76664973864E+03  0.80026168186E+03  0.10100000352E+00 0.  1.
</event>
<event>
 5   0  0.2401211E-03  0.1396146E+04  0.7818609E-02  0.8956613E-01
       -2   -1    0    0    0  501  0.00000000000E+00  0.00000000000E+00  0.57788259361E+03  0.57788259362E+03  0.25500000920E-02 0.  1.
        2   -1    0    0  501    0  0.00000000000E+00  0.00000000000E+00 -0.84326083695E+03  0.84326083695E+03  0.25500000920E-02 0. -1.
    10030    2    1    2    0    0  0.00000000000E+00  0.00000000000E+00 -0.26537824333E+03  0.14211434306E+04  0.13961457797E+04 0.  0.
        4    1    3    3  502    0  0.49957264035E+03 -0.17223658185E+03  0.33162039096E+03  0.62386854362E+03  0.12699999809E+01 0.  1.
       -4    1    3    3    0  502 -0.49957264035E+03  0.17223658185E+03 -0.59699863430E+03  0.79727488695E+03  0.12699999809E+01 0. -1.
</event>
<event>
 5   0  0.1387622E-03  0.1321915E+04  0.7818609E-02  0.9012365E-01
       -1   -1    0    0    0  501  0.00000000000E+00  0.00000000000E+00  0.73788668501E+03  0.73788668503E+03  0.50400001928E-02 0. -1.
        1   -1    0    0  501    0  0.00000000000E+00  0.00000000000E+00 -0.59204826808E+03  0.59204826811E+03  0.50400001928E-02 0.  1.
    10030    2    1    2    0    0  0.00000000000E+00  0.00000000000E+00  0.14583841692E+03  0.13299349531E+04  0.13219145720E+04 0.  0.
        3    1    3    3  502    0 -0.53042008902E+03 -0.35317885701E+03 -0.10359828697E+03  0.64561086666E+03  0.10100000352E+00 0.  1.
       -3    1    3    3    0  502  0.53042008902E+03  0.35317885701E+03  0.24943670389E+03  0.68432408648E+03  0.10100000352E+00 0. -1.
</event>
<event>
 5   0  0.2478236E-03  0.1321776E+04  0.7818609E-02  0.9012473E-01
        2   -1    0    0  501    0  0.00000000000E+00  0.00000000000E+00  0.72513328365E+03  0.72513328365E+03  0.25500000920E-02 0. -1.
       -2   -1    0    0    0  501  0.00000000000E+00  0.00000000000E+00 -0.60233449732E+03  0.60233449732E+03  0.25500000920E-02 0.  1.
    10030    2    1    2    0    0  0.00000000000E+00  0.00000000000E+00  0.12279878633E+03  0.13274677810E+04  0.13217757630E+04 0.  0.
        3    1    3    3  502    0  0.51823825946E+03  0.33717906825E+03 -0.17308444632E+03  0.64204271929E+03  0.10100000352E+00 0.  1.
       -3    1    3    3    0  502 -0.51823825946E+03 -0.33717906825E+03  0.29588323265E+03  0.68542506169E+03  0.10100000352E+00 0. -1.
</event>
<event>
 5   0  0.2478236E-03  0.1247356E+04  0.7818609E-02  0.9072387E-01
       -2   -1    0    0    0  501  0.00000000000E+00  0.00000000000E+00  0.29316146661E+03  0.29316146662E+03  0.25500000920E-02 0. -1.
        2   -1    0    0  501    0  0.00000000000E+00  0.00000000000E+00 -0.13268252162E+04  0.13268252162E+04  0.25500000920E-02 0.  1.
    10030    2    1    2    0    0  0.00000000000E+00  0.00000000000E+00 -0.10336637496E+04  0.16199866829E+04  0.12473556451E+04 0.  0.
        3    1    3    3  502    0  0.16630579630E+03 -0.51722116883E+03 -0.91459037229E+03  0.10637908228E+04  0.10100000352E+00 0.  1.
       -3    1    3    3    0  502 -0.16630579630E+03  0.51722116883E+03 -0.11907337735E+03  0.55619586008E+03  0.10100000352E+00 0. -1.
</event>
<event>
 5   0  0.9131250E-04  0.1318524E+04  0.7818609E-02  0.9015003E-01
        4   -1    0    0  501    0  0.00000000000E+00  0.00000000000E+00  0.33180551548E+03  0.33180794596E+03  0.12699999809E+01 0.  1.
       -4   -1    0    0    0  501  0.00000000000E+00  0.00000000000E+00 -0.13098759879E+04  0.13098766036E+04  0.12699999809E+01 0. -1.
    10030    2    1    2    0    0  0.00000000000E+00  0.00000000000E+00 -0.97807047246E+03  0.16416845496E+04  0.13185242930E+04 0.  0.
        4    1    3    3  502    0 -0.73735602670E+02 -0.23152949150E+03 -0.12520870514E+04  0.12754475457E+04  0.12699999809E+01 0. -1.
       -4    1    3    3    0  502  0.73735602670E+02  0.23152949150E+03  0.27401657899E+03  0.36623700386E+03  0.12699999809E+01 0.  1.
</event>
<event>
 5   0  0.2312105E-03  0.1262857E+04  0.7818609E-02  0.9059549E-01
       -2   -1    0    0    0  501  0.00000000000E+00  0.00000000000E+00  0.24279744408E+03  0.24279744409E+03  0.25500000920E-02 0.  1.
        2   -1    0    0  501    0  0.00000000000E+00  0.00000000000E+00 -0.16421186666E+04  0.16421186666E+04  0.25500000920E-02 0. -1.
    10030    2    1    2    0    0  0.00000000000E+00  0.00000000000E+00 -0.13993212226E+04  0.18849161107E+04  0.12628574189E+04 0.  0.
        5    1    3    3  502    0  0.55255748638E+03 -0.24251887082E+03 -0.97707563043E+03  0.11484050052E+04  0.46999998093E+01 0. -1.
       -5    1    3    3    0  502 -0.55255748638E+03  0.24251887082E+03 -0.42224559212E+03  0.73651110550E+03  0.46999998093E+01 0.  1.
</event>
<event>
 5   0  0.1332630E-03  0.1317217E+04  0.7818609E-02  0.9016023E-01
       -1   -1    0    0    0  501  0.00000000000E+00  0.00000000000E+00  0.61961571863E+03  0.61961571866E+03  0.50400001928E-02 0. -1.
        1   -1    0    0  501    0  0.00000000000E+00  0.00000000000E+00 -0.70005479358E+03  0.70005479359E+03  0.50400001928E-02 0.  1.
    10030    2    1    2    0    0  0.00000000000E+00  0.00000000000E+00 -0.80439074941E+02  0.13196705122E+04  0.13172166929E+04 0.  0.
        5    1    3    3  502    0 -0.43915906611E+02 -0.63795809490E+03 -0.19806851537E+03  0.66945676819E+03  0.46999998093E+01 0. -1.
       -5    1    3    3    0  502  0.43915906611E+02  0.63795809490E+03  0.11762944043E+03  0.65021374405E+03  0.46999998093E+01 0.  1.
</event>
<event>
 5   0  0.1346593E-03  0.1288766E+04  0.7818609E-02  0.9038522E-01
        1   -1    0    0  501    0  0.00000000000E+00  0.00000000000E+00  0.19033007458E+04  0.19033007458E+04  0.50400001928E-02 0.  1.
       -1   -1    0    0    0  501  0.00000000000E+00  0.00000000000E+00 -0.21816281578E+03  0.21816281584E+03  0.50400001928E-02 0. -1.
    10030    2    1    2    0    0  0.00000000000E+00  0.00000000000E+00  0.16851379301E+04  0.21214635617E+04  0.12887659990E+04 0.  0.
        2    1    3    3  502    0  0.44808701423E+03 -0.17564503305E+03  0.13723715710E+03  0.50046696919E+03  0.25500000920E-02 0. -1.
       -2    1    3    3    0  502 -0.44808701423E+03  0.17564503305E+03  0.15479007730E+04  0.16209965925E+04  0.25500000920E-02 0.  1.
</event>
<event>
 5   0  0.2312105E-03  0.1328369E+04  0.7818609E-02  0.9007366E-01
       -2   -1    0    0    0  501  0.00000000000E+00  0.00000000000E+00  0.11103441755E+04  0.11103441755E+04  0.25500000920E-02 0. -1.
        2   -1    0    0  501    0  0.00000000000E+00  0.00000000000E+00 -0.39730118670E+03  0.39730118671E+03  0.25500000920E-02 0.  1.
    10030    2    1    2    0    0  0.00000000000E+00  0.00000000000E+00  0.71304298881E+03  0.15076453622E+04  0.13283690129E+04 0.  0.
        5    1    3    3  502    0  0.30947177306E+03 -0.26175263475E+02  0.10228318464E+04  0.10689550967E+04  0.46999998093E+01 0. -1.
       -5    1    3    3    0  502 -0.30947177306E+03  0.26175263475E+02 -0.30978885762E+03  0.43869026550E+03  0.46999998093E+01 0.  1.
</event>
<event>
 5   0  0.2334946E-03  0.1301826E+04  0.7818609E-02  0.9028118E-01
       -2   -1    0    0    0  501  0.00000000000E+00  0.00000000000E+00  0.17139230330E+03  0.17139230332E+03  0.25500000920E-02 0.  1.
        2   -1    0    0  501    0  0.00000000000E+00  0.00000000000E+00 -0.24720366672E+04  0.24720366672E+04  0.25500000920E-02 0. -1.
    10030    2    1    2    0    0  0.00000000000E+00  0.00000000000E+00 -0.23006443638E+04  0.26434289705E+04  0.13018264988E+04 0.  0.
        1    1    3    3  502    0 -0.37300211928E+03  0.13850156479E+03 -0.21963527420E+04  0.22321018417E+04  0.50400001928E-02 0. -1.
       -1    1    3    3    0  502  0.37300211928E+03 -0.13850156479E+03 -0.10429162182E+03  0.41132712874E+03  0.50400001928E-02 0.  1.
</event>
<event>
 5   0  0.1346593E-03  0.1267622E+04  0.7818609E-02  0.9055643E-01
       -1   -1    0    0    0  501  0.00000000000E+00  0.00000000000E+00  0.47711551969E+03  0.47711551972E+03  0.50400001928E-02 0. -1.
        1   -1    0    0  501    0  0.00000000000E+00  0.00000000000E+00 -0.84196911984E+03  0.84196911985E+03  0.50400001928E-02 0.  1.
    10030    2    1    2    0    0  0.00000000000E+00  0.00000000000E+00 -0.36485360015E+03  0.13190846396E+04  0.12676222374E+04 0.  0.
        2    1    3    3  502    0 -0.20815749806E+03  0.51527346765E+03  0.13470842798E+03  0.57182396857E+03  0.25500000920E-02 0. -1.
       -2    1    3    3    0  502  0.20815749806E+03 -0.51527346765E+03 -0.49956202813E+03  0.74726067100E+03  0.25500000920E-02 0.  1.
</event>
<event>
 5   0  0.2334946E-03  0.1295641E+04  0.7818609E-02  0.9033029E-01
       -2   -1    0    0    0  501  0.00000000000E+00  0.00000000000E+00  0.28977386527E+03  0.28977386528E+03  0.25500000920E-02 0. -1.
        2   -1    0    0  501    0  0.00000000000E+00  0.00000000000E+00 -0.14482729329E+04  0.14482729329E+04  0.25500000920E-02 0.  1.
    10030    2    1    2    0    0  0.00000000000E+00  0.00000000000E+00 -0.11584990676E+04  0.17380467982E+04  0.12956413790E+04 0.  0.
        1    1    3    3  502    0 -0.24897041130E+03  0.99841802181E+02  0.21177438338E+03  0.34176459829E+03  0.50400001928E-02 0. -1.
       -1    1    3    3    0  502  0.24897041130E+03 -0.99841802181E+02 -0.13702734510E+04  0.13962821999E+04  0.50400001928E-02 0.  1.
</event>
<event>
 5   0  0.1310461E-03  0.1290017E+04  0.7818609E-02  0.9037520E-01
       -1   -1    0    0    0  501  0.00000000000E+00  0.00000000000E+00  0.43834719268E+03  0.43834719271E+03  0.50400001928E-02 0.  1.
        1   -1    0    0  501    0  0.00000000000E+00  0.00000000000E+00 -0.94910108252E+03  0.94910108254E+03  0.50400001928E-02 0. -1.
    10030    2    1    2    0    0  0.00000000000E+00  0.00000000000E+00 -0.51075388984E+03  0.13874482753E+04  0.12900167365E+04 0.  0.
        4    1    3    3  502    0  0.25184602674E+03 -0.51741184246E+03 -0.56874646197E+03  0.80908317670E+03  0.12699999809E+01 0. -1.
       -4    1    3    3    0  502 -0.25184602674E+03  0.51741184246E+03  0.57992572132E+02  0.57836509856E+03  0.12699999809E+01 0.  1.
</event>
<event>
 5   0  0.9131250E-04  0.1259649E+04  0.7818609E-02  0.9062190E-01
       -3   -1    0    0    0  501  0.00000000000E+00  0.00000000000E+00  0.17691701457E+04  0.17691701486E+04  0.10100000352E+00 0. -1.
        3   -1    0    0  501    0  0.00000000000E+00  0.00000000000E+00 -0.22421763394E+03  0.22421765669E+03  0.10100000352E+00 0.  1.
    10030    2    1    2    0    0  0.00000000000E+00  0.00000000000E+00  0.15449525117E+04  0.19933878053E+04  0.12596494269E+04 0.  0.
        5    1    3    3  502    0 -0.40434210513E+03  0.47118939589E+03  0.60541182769E+03  0.86721252060E+03  0.46999998093E+01 0.  1.
       -5    1    3    3    0  502  0.40434210513E+03 -0.47118939589E+03  0.93954068405E+03  0.11261752847E+04  0.46999998093E+01 0. -1.
</event>
<event>
 5   0  0.2478236E-03  0.1276282E+04  0.7818609E-02  0.9048588E-01
        2   -1    0    0  501    0  0.00000000000E+00  0.00000000000E+00  0.60252732094E+03  0.60252732095E+03  0.25500000920E-02 0.  1.
       -2   -1    0    0    0  501  0.00000000000E+00  0.00000000000E+00 -0.67585929773E+03  0.67585929774E+03  0.25500000920E-02 0. -1.
    10030    2    1    2    0    0  0.00000000000E+00  0.00000000000E+00 -0.73331976791E+02  0.12783866187E+04  0.12762816178E+04 0.  0.
        3    1    3    3  502    0 -0.30803178293E+03 -0.10748539211E+03  0.51267907723E+03  0.60768127768E+03  0.10100000352E+00 0.  1.
       -3    1    3    3    0  502  0.30803178293E+03  0.10748539211E+03 -0.58601105402E+03  0.67070534100E+03  0.10100000352E+00 0. -1.
</event>
<event>
 5   0  0.1310461E-03  0.1278066E+04  0.7818609E-02  0.9047142E-01
       -1   -1    0    0    0  501  0.00000000000E+00  0.00000000000E+00  0.58224389809E+03  0.58224389811E+03  0.50400001928E-02 0. -1.
        1   -1    0    0  501    0  0.00000000000E+00  0.00000000000E+00 -0.70136146718E+03  0.70136146720E+03  0.50400001928E-02 0.  1.
    10030    2    1    2    0    0  0.00000000000E+00  0.00000000000E+00 -0.11911756909E+03  0.12836053653E+04  0.12780664062E+04 0.  0.
        4    1    3    3  502    0 -0.37814074480E+03  0.30387985024E+03 -0.47732839440E+03  0.68057137411E+03  0.12699999809E+01 0.  1.
       -4    1    3    3    0  502  0.37814074480E+03 -0.30387985024E+03  0.35821082531E+03  0.60303399119E+03  0.12699999809E+01 0. -1.
</event>
<event>
 5   0  0.2478236E-03  0.1267164E+04  0.7818609E-02  0.9056017E-01
       -2   -1    0    0    0  501  0.00000000000E+00  0.00000000000E+00  0.71956976323E+03  0.71956976323E+03  0.25500000920E-02 0.  1.
        2   -1    0    0  501    0  0.00000000000E+00  0.00000000000E+00 -0.55786993721E+03  0.55786993721E+03  0.25500000920E-02 0. -1.
    10030    2    1    2    0    0  0.00000000000E+00  0.00000000000E+00  0.16169982602E+03  0.12774397004E+04  0.12671642966E+04 0.  0.
        3    1    3    3  502    0 -0.34548390136E+03  0.46932067950E+03 -0.16977275455E+03  0.60699573696E+03  0.10100000352E+00 0. -1.
       -3    1    3    3    0  502  0.34548390136E+03 -0.46932067950E+03  0.33147258057E+03  0.67044396348E+03  0.10100000352E+00 0.  1.
</event>
<event>
 5   0  0.2401211E-03  0.1321057E+04  0.7818609E-02  0.9013031E-01
        2   -1    0    0  501    0  0.00000000000E+00  0.00000000000E+00  0.72145684682E+03  0.72145684682E+03  0.25500000920E-02 0.  1.
       -2   -1    0    0    0  501  0.00000000000E+00  0.00000000000E+00 -0.60474575700E+03  0.60474575700E+03  0.25500000920E-02 0. -1.
    10030    2    1    2    0    0  0.00000000000E+00  0.00000000000E+00  0.11671108982E+03  0.13262026038E+04  0.13210571024E+04 0.  0.
        4    1    3    3  502    0 -0.29780909055E+03  0.47244864331E+03  0.41243085709E+03  0.69426133391E+03  0.12699999809E+01 0.  1.
       -4    1    3    3    0  502  0.29780909055E+03 -0.47244864331E+03 -0.29571976727E+03  0.63194126992E+03  0.12699999809E+01 0. -1.
</event>
<event>
 5   0  0.2361043E-03  0.1284364E+04  0.7818609E-02  0.9042057E-01
       -2   -1    0    0    0  501  0.00000000000E+00  0.00000000000E+00  0.66539218160E+03  0.66539218160E+03  0.25500000920E-02 0. -1.
        2   -1    0    0  501    0  0.00000000000E+00  0.00000000000E+00 -0.61978164971E+03  0.61978164972E+03  0.25500000920E-02 0.  1.
    10030    2    1    2    0    0  0.00000000000E+00  0.00000000000E+00  0.45610531886E+02  0.12851738313E+04  0.12843642225E+04 0.  0.
        2    1    3    3  502    0 -0.10967717483E+03  0.63165228677E+03 -0.14422620725E+02  0.64126570629E+03  0.25500000920E-02 0. -1.
       -2    1    3    3    0  502  0.10967717483E+03 -0.63165228677E+03  0.60033152611E+02  0.64390812503E+03  0.25500000920E-02 0.  1.
</event>
<event>
 5   0  0.2361043E-03  0.1231106E+04  0.7818609E-02  0.9086057E-01
        2   -1    0    0  501    0  0.00000000000E+00  0.00000000000E+00  0.15839730351E+04  0.15839730351E+04  0.25500000920E-02 0. -1.
       -2   -1    0    0    0  501  0.00000000000E+00  0.00000000000E+00 -0.23921218979E+03  0.23921218981E+03  0.25500000920E-02 0.  1.
    10030    2    1    2    0    0  0.00000000000E+00  0.00000000000E+00  0.13447608453E+04  0.18231852249E+04  0.12311062640E+04 0.  0.
        2    1    3    3  502    0  0.29962497364E+03  0.38806192854E+03  0.12116615547E+03  0.50502319001E+03  0.25500000920E-02 0. -1.
       -2    1    3    3    0  502 -0.29962497364E+03 -0.38806192854E+03  0.12235946898E+04  0.13181620349E+04  0.25500000920E-02 0.  1.
</event>
<event>
 5   0  0.1346593E-03  0.1379041E+04  0.7818609E-02  0.8969131E-01
       -1   -1    0    0    0  501  0.00000000000E+00  0.00000000000E+00  0.12288486796E+04  0.12288486797E+04  0.50400001928E-02 0.  1.
        1   -1    0    0  501    0  0.00000000000E+00  0.00000000000E+00 -0.38689774933E+03  0.38689774936E+03  0.50400001928E-02 0. -1.
    10030    2    1    2    0    0  0.00000000000E+00  0.00000000000E+00  0.84195093032E+03  0.16157464290E+04  0.13790413895E+04 0.  0.
        2    1    3    3  502    0 -0.11171084686E+03 -0.22902376002E+02 -0.37577299298E+03  0.39269475982E+03  0.25500000920E-02 0. -1.
       -2    1    3    3    0  502  0.11171084686E+03  0.22902376002E+02  0.12177239233E+04  0.12230516692E+04  0.25500000920E-02 0.  1.
</event>
<event>
 5   0  0.2361043E-03  0.1274294E+04  0.7818609E-02  0.9050202E-01
       -2   -1    0    0    0  501  0.00000000000E+00  0.00000000000E+00  0.65290986990E+03  0.65290986990E+03  0.25500000920E-02 0. -1.
        2   -1    0    0  501    0  0.00000000000E+00  0.00000000000E+00 -0.62176497848E+03  0.62176497848E+03  0.25500000920E-02 0.  1.
    10030    2    1    2    0    0  0.00000000000E+00  0.00000000000E+00  0.31144891422E+02  0.12746748484E+04  0.12742943007E+04 0.  0.
        2    1    3    3  502    0  0.36824262318E+03 -0.31656844444E+03 -0.39702895395E+03  0.62725608791E+03  0.25500000920E-02 0.  1.
       -2    1    3    3    0  502 -0.36824262318E+03  0.31656844444E+03  0.42817384537E+03  0.64741876047E+03  0.25500000920E-02 0. -1.
</event>
<event>
 5   0  0.2312105E-03  0.1315879E+04  0.7818609E-02  0.9017067E-01
       -2   -1    0    0    0  501  0.00000000000E+00  0.00000000000E+00  0.42832011587E+03  0.42832011587E+03  0.25500000920E-02 0.  1.
        2   -1    0    0  501    0  0.00000000000E+00  0.00000000000E+00 -0.10106564720E+04  0.10106564720E+04  0.25500000920E-02 0. -1.
    10030    2    1    2    0    0  0.00000000000E+00  0.00000000000E+00 -0.58233635610E+03  0.14389765878E+04  0.13158791695E+04 0.  0.
        5    1    3    3  502    0 -0.13334627315E+03 -0.61968518610E+03 -0.48392886600E+03  0.79749620424E+03  0.46999998093E+01 0.  1.
       -5    1    3    3    0  502  0.13334627315E+03  0.61968518610E+03 -0.98407490093E+02  0.64148038359E+03  0.46999998093E+01 0. -1.
</event>
<event>
 5   0  0.2312105E-03  0.1103473E+04  0.7818609E-02  0.9201814E-01
        2   -1    0    0  501    0  0.00000000000E+00  0.00000000000E+00  0.55445509219E+03  0.55445509220E+03  0.25500000920E-02 0.  1.
       -2   -1    0    0    0  501  0.00000000000E+00  0.00000000000E+00 -0.54903085572E+03  0.54903085573E+03  0.25500000920E-02 0. -1.
    10030    2    1    2    0    0  0.00000000000E+00  0.00000000000E+00  0.54242364677E+01  0.11034859479E+04  0.11034726163E+04 0.  0.
        5    1    3    3  502    0  0.38719327466E+03 -0.18888284081E+03 -0.34195928284E+03  0.55004872567E+03  0.46999998093E+01 0. -1.
       -5    1    3    3    0  502 -0.38719327466E+03  0.18888284081E+03  0.34738351931E+03  0.55343722226E+03  0.46999998093E+01 0.  1.
</event>
<event>
 5   0  0.2478236E-03  0.1523902E+04  0.7818609E-02  0.8868712E-01
       -2   -1    0    0    0  501  0.00000000000E+00  0.00000000000E+00  0.74816828459E+03  0.74816828459E+03  0.25500000920E-02 0.  1.
        2   -1    0    0  501    0  0.00000000000E+00  0.00000000000E+00 -0.77598782438E+03  0.77598782439E+03  0.25500000920E-02 0. -1.
    10030    2    1    2    0    0  0.00000000000E+00  0.00000000000E+00 -0.27819539795E+02  0.15241561090E+04  0.15239022008E+04 0.  0.
        3    1    3    3  502    0  0.16186066303E+03 -0.47226646444E+03  0.56180318192E+03  0.75156989901E+03  0.10100000352E+00 0.  1.
       -3    1    3    3    0  502 -0.16186066303E+03  0.47226646444E+03 -0.58962272172E+03  0.77258620997E+03  0.10100000352E+00 0. -1.
</event>
<event>
 5   0  0.1332630E-03  0.1305545E+04  0.7818609E-02  0.9025179E-01
       -1   -1    0    0    0  501  0.00000000000E+00  0.00000000000E+00  0.48670122004E+03  0.48670122007E+03  0.50400001928E-02 0. -1.
        1   -1    0    0  501    0  0.00000000000E+00  0.00000000000E+00 -0.87551039990E+03  0.87551039992E+03  0.50400001928E-02 0.  1.
    10030    2    1    2    0    0  0.00000000000E+00  0.00000000000E+00 -0.38880917986E+03  0.13622116200E+04  0.13055450660E+04 0.  0.
        5    1    3    3  502    0 -0.23002329937E+03 -0.36637037407E+03 -0.70444898047E+03  0.82668520329E+03  0.46999998093E+01 0.  1.
       -5    1    3    3    0  502  0.23002329937E+03  0.36637037407E+03  0.31563980061E+03  0.53552641670E+03  0.46999998093E+01 0. -1.
</event>
<event>
 5   0  0.1324721E-03  0.1321909E+04  0.7818609E-02  0.9012369E-01
       -1   -1    0    0    0  501  0.00000000000E+00  0.00000000000E+00  0.45540327693E+03  0.45540327696E+03  0.50400001928E-02 0.  1.
        1   -1    0    0  501    0  0.00000000000E+00  0.00000000000E+00 -0.95928405341E+03  0.95928405343E+03  0.50400001928E-02 0. -1.
    10030    2    1    2    0    0  0.00000000000E+00  0.00000000000E+00 -0.50388077648E+03  0.14146873304E+04  0.13219093788E+04 0.  0.
        1    1    3    3  502    0  0.53414716918E+03 -0.38381370577E+03 -0.32158419983E+03  0.73214927213E+03  0.50400001928E-02 0. -1.
       -1    1    3    3    0  502 -0.53414716918E+03  0.38381370577E+03 -0.18229657665E+03  0.68253805826E+03  0.50400001928E-02 0.  1.
</event>
<event>
 5   0  0.2478236E-03  0.1314964E+04  0.7818609E-02  0.9017782E-01
       -2   -1    0    0    0  501  0.00000000000E+00  0.00000000000E+00  0.30426946441E+03  0.30426946442E+03  0.25500000920E-02 0. -1.
        2   -1    0    0  501    0  0.00000000000E+00  0.00000000000E+00 -0.14207228237E+04  0.14207228237E+04  0.25500000920E-02 0.  1.
    10030    2    1    2    0    0  0.00000000000E+00  0.00000000000E+00 -0.11164533592E+04  0.17249922881E+04  0.13149639883E+04 0.  0.
        3    1    3    3  502    0 -0.61338294284E+03 -0.15174327684E+03 -0.31985862035E+03  0.70821903663E+03  0.10100000352E+00 0. -1.
       -3    1    3    3    0  502  0.61338294284E+03  0.15174327684E+03 -0.79659473890E+03  0.10167732515E+04  0.10100000352E+00 0.  1.
</event>
<event>
 5   0  0.9131250E-04  0.1183524E+04  0.7818609E-02  0.9127401E-01
       -4   -1    0    0    0  501  0.00000000000E+00  0.00000000000E+00  0.74810317378E+03  0.74810425177E+03  0.12699999809E+01 0. -1.
        4   -1    0    0  501    0  0.00000000000E+00  0.00000000000E+00 -0.46809157972E+03  0.46809330257E+03  0.12699999809E+01 0.  1.
    10030    2    1    2    0    0  0.00000000000E+00  0.00000000000E+00  0.28001159406E+03  0.12161975543E+04  0.11835243970E+04 0.  0.
        3    1    3    3  502    0 -0.45827829538E+02  0.99127093833E+02 -0.45764808053E+03  0.47049776461E+03  0.10100000352E+00 0.  1.
       -3    1    3    3    0  502  0.45827829538E+02 -0.99127093833E+02  0.73765967459E+03  0.74569978973E+03  0.10100000352E+00 0. -1.
</event>
<event>
 5   0  0.2401211E-03  0.1300794E+04  0.7818609E-02  0.9028935E-01
       -2   -1    0    0    0  501  0.00000000000E+00  0.00000000000E+00  0.42976248559E+03  0.42976248559E+03  0.25500000920E-02 0.  1.
        2   -1    0    0  501    0  0.00000000000E+00  0.00000000000E+00 -0.98430298088E+03  0.98430298089E+03  0.25500000920E-02 0. -1.
    10030    2    1    2    0    0  0.00000000000E+00  0.00000000000E+00 -0.55454049530E+03  0.14140654665E+04  0.13007943660E+04 0.  0.
        4    1    3    3  502    0  0.67566281577E+02  0.42055391165E+03 -0.81158237534E+03  0.91656879714E+03  0.12699999809E+01 0. -1.
       -4    1    3    3    0  502 -0.67566281577E+02 -0.42055391165E+03  0.25704188004E+03  0.49749666935E+03  0.12699999809E+01 0.  1.
</event>
<event>
 5   0  0.9131250E-04  0.1291613E+04  0.7818609E-02  0.9036243E-01
        3   -1    0    0  501    0  0.00000000000E+00  0.00000000000E+00  0.37108247086E+03  0.37108248460E+03  0.10100000352E+00 0. -1.
       -3   -1    0    0    0  501  0.00000000000E+00  0.00000000000E+00 -0.11239170560E+04  0.11239170605E+04  0.10100000352E+00 0.  1.
    10030    2    1    2    0    0  0.00000000000E+00  0.00000000000E+00 -0.75283458510E+03  0.14949995451E+04  0.12916128396E+04 0.  0.
        1    1    3    3  502    0  0.29676435543E+03 -0.37775243323E+03 -0.87600883103E+03  0.99907830301E+03  0.50400001928E-02 0.  1.
       -1    1    3    3    0  502 -0.29676435543E+03  0.37775243323E+03  0.12317424594E+03  0.49592124209E+03  0.50400001928E-02 0. -1.
</event>
<event>
 5   0  0.1310461E-03  0.1297586E+04  0.7818609E-02  0.9031482E-01
        1   -1    0    0  501    0  0.00000000000E+00  0.00000000000E+00  0.41948957626E+03  0.41948957629E+03  0.50400001928E-02 0.  1.
       -1   -1    0    0    0  501  0.00000000000E+00  0.00000000000E+00 -0.10034394581E+04  0.10034394581E+04  0.50400001928E-02 0. -1.
    10030    2    1    2    0    0  0.00000000000E+00  0.00000000000E+00 -0.58394988187E+03  0.14229290344E+04  0.12975860559E+04 0.  0.
        4    1    3    3  502    0 -0.35638413638E+03 -0.37384313194E+02  0.30112445533E+03  0.46806494211E+03  0.12699999809E+01 0.  1.
       -4    1    3    3    0  502  0.35638413638E+03  0.37384313194E+02 -0.88507433719E+03  0.95486409232E+03  0.12699999809E+01 0. -1.
</event>
<event>
 5   0  0.2401211E-03  0.1315166E+04  0.7818609E-02  0.9017624E-01
        2   -1    0    0  501    0  0.00000000000E+00  0.00000000000E+00  0.11934611459E+04  0.11934611459E+04  0.25500000920E-02 0.  1.
       -2   -1    0    0    0  501  0.00000000000E+00  0.00000000000E+00 -0.36232046685E+03  0.36232046686E+03  0.25500000920E-02 0. -1.
    10030    2    1    2    0    0  0.00000000000E+00  0.00000000000E+00  0.83114067907E+03  0.15557816128E+04  0.13151659965E+04 0.  0.
        4    1    3    3  502    0 -0.12796628009E+03 -0.41980419597E+03  0.99485928009E+03  0.10873626497E+04  0.12699999809E+01 0.  1.
       -4    1    3    3    0  502  0.12796628009E+03  0.41980419597E+03 -0.16371860102E+03  0.46841896312E+03  0.12699999809E+01 0. -1.
</event>
<event>
 5   0  0.2334946E-03  0.1335658E+04  0.7818609E-02  0.9001757E-01
       -2   -1    0    0    0  501  0.00000000000E+00  0.00000000000E+00  0.48115378189E+03  0.48115378190E+03  0.25500000920E-02 0.  1.
        2   -1    0    0  501    0  0.00000000000E+00  0.00000000000E+00 -0.92692872902E+03  0.92692872902E+03  0.25500000920E-02 0. -1.
    10030    2    1    2    0    0  0.00000000000E+00  0.00000000000E+00 -0.44577494713E+03  0.14080825109E+04  0.13356575362E+04 0.  0.
        1    1    3    3  502    0  0.38782355250E+03 -0.47263585021E+03  0.60390062761E+02  0.61436041091E+03  0.50400001928E-02 0.  1.
       -1    1    3    3    0  502 -0.38782355250E+03  0.47263585021E+03 -0.50616500989E+03  0.79372210001E+03  0.50400001928E-02 0. -1.
</event>
<event>
 5   0  0.2361043E-03  0.1293982E+04  0.7818609E-02  0.9034351E-01
       -2   -1    0    0    0  501  0.00000000000E+00  0.00000000000E+00  0.32722586503E+03  0.32722586504E+03  0.25500000920E-02 0.  1.
        2   -1    0    0  501    0  0.00000000000E+00  0.00000000000E+00 -0.12792306950E+04  0.12792306950E+04  0.25500000920E-02 0. -1.
    10030    2    1    2    0    0  0.00000000000E+00  0.00000000000E+00 -0.95200483002E+03  0.16064565601E+04  0.12939820258E+04 0.  0.
        2    1    3    3  502    0  0.29977888520E+03 -0.94689357514E+02  0.22602725918E+03  0.38719733514E+03  0.25500000920E-02 0.  1.
       -2    1    3    3    0  502 -0.29977888520E+03  0.94689357514E+02 -0.11780320892E+04  0.12192592249E+04  0.25500000920E-02 0. -1.
</event>
<event>
 5   0  0.1387622E-03  0.1322133E+04  0.7818609E-02  0.9012195E-01
       -1   -1    0    0    0  501  0.00000000000E+00  0.00000000000E+00  0.10123855176E+04  0.10123855177E+04  0.50400001928E-02 0.  1.
        1   -1    0    0  501    0  0.00000000000E+00  0.00000000000E+00 -0.43166275035E+03  0.43166275038E+03  0.50400001928E-02 0. -1.
    10030    2    1    2    0    0  0.00000000000E+00  0.00000000000E+00  0.58072276729E+03  0.14440482680E+04  0.13221333019E+04 0.  0.
        3    1    3    3  502    0 -0.61488615820E+03  0.23448818773E+03  0.35891367965E+03  0.74959238081E+03  0.10100000352E+00 0. -1.
       -3    1    3    3    0  502  0.61488615820E+03 -0.23448818773E+03  0.22180908764E+03  0.69445588722E+03  0.10100000352E+00 0.  1.
</event>
<event>
 5   0  0.9131250E-04  0.1269461E+04  0.7818609E-02  0.9054140E-01
        3   -1    0    0  501    0  0.00000000000E+00  0.00000000000E+00  0.93088184329E+03  0.93088184877E+03  0.10100000352E+00 0.  1.
       -3   -1    0    0    0  501  0.00000000000E+00  0.00000000000E+00 -0.43279677927E+03  0.43279679105E+03  0.10100000352E+00 0. -1.
    10030    2    1    2    0    0  0.00000000000E+00  0.00000000000E+00  0.49808506402E+03  0.13636786398E+04  0.12694607917E+04 0.  0.
        4    1    3    3  502    0 -0.11529365685E+03 -0.42737276844E+03 -0.23962779356E+03  0.50335196718E+03  0.12699999809E+01 0. -1.
       -4    1    3    3    0  502  0.11529365685E+03  0.42737276844E+03  0.73771285758E+03  0.86032667264E+03  0.12699999809E+01 0.  1.
</event>
<event>
 5   0  0.1324721E-03  0.1314138E+04  0.7818609E-02  0.9018428E-01
        1   -1    0    0  501    0  0.00000000000E+00  0.00000000000E+00  0.10276727099E+04  0.10276727099E+04  0.50400001928E-02 0. -1.
       -1   -1    0    0    0  501  0.00000000000E+00  0.00000000000E+00 -0.42011416103E+03  0.42011416106E+03  0.50400001928E-02 0.  1.
    10030    2    1    2    0    0  0.00000000000E+00  0.00000000000E+00  0.60755854890E+03  0.14477868710E+04  0.13141382855E+04 0.  0.
        1    1    3    3  502    0  0.19759615376E+03 -0.34537890208E+03 -0.27228374294E+03  0.48215066388E+03  0.50400001928E-02 0.  1.
       -1    1    3    3    0  502 -0.19759615376E+03  0.34537890208E+03  0.87984229185E+03  0.96563620713E+03  0.50400001928E-02 0. -1.
</event>
<event>
 5   0  0.1346593E-03  0.1298134E+04  0.7818609E-02  0.9031047E-01
        1   -1    0    0  501    0  0.00000000000E+00  0.00000000000E+00  0.70581339884E+03  0.70581339886E+03  0.50400001928E-02 0. -1.
       -1   -1    0    0    0  501  0.00000000000E+00  0.00000000000E+00 -0.59688258505E+03  0.59688258507E+03  0.50400001928E-02 0.  1.
    10030    2    1    2    0    0  0.00000000000E+00  0.00000000000E+00  0.10893081379E+03  0.13026959839E+04  0.12981336235E+04 0.  0.
        2    1    3    3  502    0  0.12271846679E+03  0.52619574098E+03 -0.30644556611E+03  0.62116878939E+03  0.25500000920E-02 0.  1.
       -2    1    3    3    0  502 -0.12271846679E+03 -0.52619574098E+03  0.41537637990E+03  0.68152719454E+03  0.25500000920E-02 0. -1.
</event>
<event>
 5   0  0.2361043E-03  0.1291313E+04  0.7818609E-02  0.9036483E-01
        2   -1    0    0  501    0  0.00000000000E+00  0.00000000000E+00  0.11634160089E+04  0.11634160089E+04  0.25500000920E-02 0. -1.
       -2   -1    0    0    0  501  0.00000000000E+00  0.00000000000E+00 -0.35831731886E+03  0.35831731887E+03  0.25500000920E-02 0.  1.
    10030    2    1    2    0    0  0.00000000000E+00  0.00000000000E+00  0.80509869007E+03  0.15217333278E+04  0.12913126733E+04 0.  0.
        2    1    3    3  502    0  0.21030476566E+03 -0.60427970794E+03  0.50453741120E+03  0.81482517094E+03  0.25500000920E-02 0.  1.
       -2    1    3    3    0  502 -0.21030476566E+03  0.60427970794E+03  0.30056127887E+03  0.70690815687E+03  0.25500000920E-02 0. -1.
</event>
<event>
 5   0  0.2312105E-03  0.1358485E+04  0.7818609E-02  0.8984430E-01
       -2   -1    0    0    0  501  0.00000000000E+00  0.00000000000E+00  0.32203654240E+03  0.32203654241E+03  0.25500000920E-02 0.  1.
        2   -1    0    0  501    0  0.00000000000E+00  0.00000000000E+00 -0.14326645818E+04  0.14326645818E+04  0.25500000920E-02 0. -1.
    10030    2    1    2    0    0  0.00000000000E+00  0.00000000000E+00 -0.11106280394E+04  0.17547011242E+04  0.13584849625E+04 0.  0.
        5    1    3    3  502    0  0.19870293020E+02 -0.29055133962E+02  0.32083663770E+03  0.32279601522E+03  0.46999998093E+01 0.  1.
       -5    1    3    3    0  502 -0.19870293020E+02  0.29055133962E+02 -0.14314646771E+04  0.14319051090E+04  0.46999998093E+01 0. -1.
</event>
<event>
 5   0  0.1324721E-03  0.1300962E+04  0.7818609E-02  0.9028803E-01
        1   -1    0    0  501    0  0.00000000000E+00  0.00000000000E+00  0.49999992606E+03  0.49999992608E+03  0.50400001928E-02 0.  1.
       -1   -1    0    0    0  501  0.00000000000E+00  0.00000000000E+00 -0.84625077032E+03  0.84625077033E+03  0.50400001928E-02 0. -1.
    10030    2    1    2    0    0  0.00000000000E+00  0.00000000000E+00 -0.34625084426E+03  0.13462506964E+04  0.13009616791E+04 0.  0.
        1    1    3    3  502    0  0.32397188374E+03 -0.56260620552E+03 -0.21505508612E+03  0.68390950720E+03  0.50400001928E-02 0. -1.
       -1    1    3    3    0  502 -0.32397188374E+03  0.56260620552E+03 -0.13119575814E+03  0.66234118921E+03  0.50400001928E-02 0.  1.
</event>
<event>
 5   0  0.2334946E-03  0.1369652E+04  0.7818609E-02  0.8976084E-01
       -2   -1    0    0    0  501  0.00000000000E+00  0.00000000000E+00  0.50416845275E+03  0.50416845276E+03  0.25500000920E-02 0.  1.
        2   -1    0    0  501    0  0.00000000000E+00  0.00000000000E+00 -0.93021755786E+03  0.93021755786E+03  0.25500000920E-02 0. -1.
    10030    2    1    2    0    0  0.00000000000E+00  0.00000000000E+00 -0.42604910511E+03  0.14343860106E+04  0.13696515570E+04 0.  0.
        1    1    3    3  502    0 -0.43337431074E+03  0.34725364217E+03  0.20664980882E+03  0.59253905249E+03  0.50400001928E-02 0.  1.
       -1    1    3    3    0  502  0.43337431074E+03 -0.34725364217E+03 -0.63269891392E+03  0.84184695813E+03  0.50400001928E-02 0. -1.
</event>
<event>
 5   0  0.1310461E-03  0.1298689E+04  0.7818609E-02  0.9030606E-01
       -1   -1    0    0    0  501  0.00000000000E+00  0.00000000000E+00  0.41562220383E+03  0.41562220387E+03  0.50400001928E-02 0.  1.
        1   -1    0    0  501    0  0.00000000000E+00  0.00000000000E+00 -0.10144984105E+04  0.10144984105E+04  0.50400001928E-02 0. -1.
    10030    2    1    2    0    0  0.00000000000E+00  0.00000000000E+00 -0.59887620662E+03  0.14301206143E+04  0.12986886697E+04 0.  0.
        4    1    3    3  502    0  0.13993818743E+03 -0.42191566969E+03  0.22180579545E+03  0.49678461371E+03  0.12699999809E+01 0.  1.
       -4    1    3    3    0  502 -0.13993818743E+03  0.42191566969E+03 -0.82068200207E+03  0.93333600062E+03  0.12699999809E+01 0. -1.
</event>
<event>
 5   0  0.2312105E-03  0.1295164E+04  0.7818609E-02  0.9033409E-01
       -2   -1    0    0    0  501  0.00000000000E+00  0.00000000000E+00  0.37677846759E+03  0.37677846760E+03  0.25500000920E-02 0. -1.
        2   -1    0    0  501    0  0.00000000000E+00  0.00000000000E+00 -0.11130216170E+04  0.11130216170E+04  0.25500000920E-02 0.  1.
    10030    2    1    2    0    0  0.00000000000E+00  0.00000000000E+00 -0.73624314939E+03  0.14898000846E+04  0.12951642046E+04 0.  0.
        5    1    3    3  502    0 -0.10798704197E+03  0.63615071773E+02  0.36267445199E+03  0.38374852014E+03  0.46999998093E+01 0. -1.
       -5    1    3    3    0  502  0.10798704197E+03 -0.63615071773E+02 -0.10989176014E+04  0.11060515644E+04  0.46999998093E+01 0.  1.
</event>
<event>
 5   0  0.2334946E-03  0.1308118E+04  0.7818609E-02  0.9023152E-01
       -2   -1    0    0    0  501  0.00000000000E+00  0.00000000000E+00  0.52106816099E+03  0.52106816100E+03  0.25500000920E-02 0.  1.
        2   -1    0    0  501    0  0.00000000000E+00  0.00000000000E+00 -0.82099302080E+03  0.82099302081E+03  0.25500000920E-02 0. -1.
    10030    2    1    2    0    0  0.00000000000E+00  0.00000000000E+00 -0.29992485981E+03  0.13420611818E+04  0.13081182264E+04 0.  0.
        1    1    3    3  502    0 -0.10370735808E+03 -0.47211916953E+03 -0.60201049753E+03  0.77205463895E+03  0.50400001928E-02 0. -1.
       -1    1    3    3    0  502  0.10370735808E+03  0.47211916953E+03  0.30208563772E+03  0.57000654286E+03  0.50400001928E-02 0.  1.
</event>
<event>
 5   0  0.2312105E-03  0.1321692E+04  0.7818609E-02  0.9012538E-01
        2   -1    0    0  501    0  0.00000000000E+00  0.00000000000E+00  0.63127806997E+03  0.63127806998E+03  0.25500000920E-02 0. -1.
       -2   -1    0    0    0  501  0.00000000000E+00  0.00000000000E+00 -0.69179896540E+03  0.69179896540E+03  0.25500000920E-02 0.  1.
    10030    2    1    2    0    0  0.00000000000E+00  0.00000000000E+00 -0.60520895426E+02  0.13230770354E+04  0.13216921210E+04 0.  0.
        5    1    3    3  502    0  0.28664634127E+03  0.24632912520E+03 -0.57290895302E+03  0.68636063504E+03  0.46999998093E+01 0.  1.
       -5    1    3    3    0  502 -0.28664634127E+03 -0.24632912520E+03  0.51238805760E+03  0.63671640033E+03  0.46999998093E+01 0. -1.
</event>
<event>
 5   0  0.2312105E-03  0.1181840E+04  0.7818609E-02  0.9128902E-01
        2   -1    0    0  501    0  0.00000000000E+00  0.00000000000E+00  0.90269090366E+03  0.90269090366E+03  0.25500000920E-02 0. -1.
       -2   -1    0    0    0  501  0.00000000000E+00  0.00000000000E+00 -0.38682856086E+03  0.38682856087E+03  0.25500000920E-02 0.  1.
    10030    2    1    2    0    0  0.00000000000E+00  0.00000000000E+00  0.51586234280E+03  0.12895194645E+04  0.11818402992E+04 0.  0.
        5    1    3    3  502    0 -0.22549180182E+03  0.40501980371E+03  0.65775605875E+03  0.80470660300E+03  0.46999998093E+01 0. -1.
       -5    1    3    3    0  502  0.22549180182E+03 -0.40501980371E+03 -0.14189371595E+03  0.48481286154E+03  0.46999998093E+01 0.  1.
</event>
<event>
 5   0  0.9131250E-04  0.1316398E+04  0.7818609E-02  0.9016661E-01
        4   -1    0    0  501    0  0.00000000000E+00  0.00000000000E+00  0.55535799967E+03  0.55535945179E+03  0.12699999809E+01 0.  1.
       -4   -1    0    0    0  501  0.00000000000E+00  0.00000000000E+00 -0.78008156752E+03  0.78008260132E+03  0.12699999809E+01 0. -1.
    10030    2    1    2    0    0  0.00000000000E+00  0.00000000000E+00 -0.22472356785E+03  0.13354420531E+04  0.13163984181E+04 0.  0.
        4    1    3    3  502    0  0.12129909023E+03 -0.45610672768E+03  0.35305368395E+03  0.58940252204E+03  0.12699999809E+01 0.  1.
       -4    1    3    3    0  502 -0.12129909023E+03  0.45610672768E+03 -0.57777725180E+03  0.74603953108E+03  0.12699999809E+01 0. -1.
</event>
<event>
 5   0  0.2334946E-03  0.1284182E+04  0.7818609E-02  0.9042204E-01
       -2   -1    0    0    0  501  0.00000000000E+00  0.00000000000E+00  0.15734979681E+03  0.15734979683E+03  0.25500000920E-02 0.  1.
        2   -1    0    0  501    0  0.00000000000E+00  0.00000000000E+00 -0.26201540324E+04  0.26201540324E+04  0.25500000920E-02 0. -1.
    10030    2    1    2    0    0  0.00000000000E+00  0.00000000000E+00 -0.24628042356E+04  0.27775038292E+04  0.12841817701E+04 0.  0.
        1    1    3    3  502    0  0.27755295558E+03 -0.60597368643E+02 -0.24768276320E+04  0.24930669471E+04  0.50400001928E-02 0. -1.
       -1    1    3    3    0  502 -0.27755295558E+03  0.60597368643E+02  0.14023396393E+02  0.28443688212E+03  0.50400001928E-02 0.  1.
</event>
<event>
 5   0  0.1346593E-03  0.1344518E+04  0.7818609E-02  0.8994988E-01
       -1   -1    0    0    0  501  0.00000000000E+00  0.00000000000E+00  0.13019804941E+04  0.13019804941E+04  0.50400001928E-02 0. -1.
        1   -1    0    0  501    0  0.00000000000E+00  0.00000000000E+00 -0.34711125045E+03  0.34711125048E+03  0.50400001928E-02 0.  1.
    10030    2    1    2    0    0  0.00000000000E+00  0.00000000000E+00  0.95486924366E+03  0.16490917446E+04  0.13445178726E+04 0.  0.
        2    1    3    3  502    0  0.24713956608E+03  0.19572908900E+03 -0.25082301446E+03  0.40286477382E+03  0.25500000920E-02 0.  1.
       -2    1    3    3    0  502 -0.24713956608E+03 -0.19572908900E+03  0.12056922581E+04  0.12462269708E+04  0.25500000920E-02 0. -1.
</event>
<event>
 5   0  0.2401211E-03  0.1294801E+04  0.7818609E-02  0.9033698E-01
       -2   -1    0    0    0  501  0.00000000000E+00  0.00000000000E+00  0.10753176167E+04  0.10753176167E+04  0.25500000920E-02 0. -1.
        2   -1    0    0  501    0  0.00000000000E+00  0.00000000000E+00 -0.38977059200E+03  0.38977059201E+03  0.25500000920E-02 0.  1.
    10030    2    1    2    0    0  0.00000000000E+00  0.00000000000E+00  0.68554702468E+03  0.14650882087E+04  0.12948006550E+04 0.  0.
        4    1    3    3  502    0 -0.17287286349E+03  0.38008988364E+03 -0.21703813502E+03  0.47059591109E+03  0.12699999809E+01 0.  1.
       -4    1    3    3    0  502  0.17287286349E+03 -0.38008988364E+03  0.90258515970E+03  0.99449229760E+03  0.12699999809E+01 0. -1.
</event>
<event>
 5   0  0.1387622E-03  0.1139769E+04  0.7818609E-02  0.9167274E-01
        1   -1    0    0  501    0  0.00000000000E+00  0.00000000000E+00  0.24126664765E+04  0.24126664765E+04  0.50400001928E-02 0.  1.
       -1   -1    0    0    0  501  0.00000000000E+00  0.00000000000E+00 -0.13460966839E+03  0.13460966848E+03  0.50400001928E-02 0. -1.
    10030    2    1    2    0    0  0.00000000000E+00  0.00000000000E+00  0.22780568081E+04  0.25472761450E+04  0.11397688089E+04 0.  0.
        3    1    3    3  502    0 -0.35994117223E+03 -0.44182083363E+03  0.11439895727E+04  0.12780748997E+04  0.10100000352E+00 0.  1.
       -3    1    3    3    0  502  0.35994117223E+03  0.44182083363E+03  0.11340672354E+04  0.12692012453E+04  0.10100000352E+00 0. -1.
</event>
<event>
 5   0  0.2478236E-03  0.1313922E+04  0.7818609E-02  0.9018597E-01
        2   -1    0    0  501    0  0.00000000000E+00  0.00000000000E+00  0.70637924628E+03  0.70637924629E+03  0.25500000920E-02 0. -1.
       -2   -1    0    0    0  501  0.00000000000E+00  0.00000000000E+00 -0.61100027868E+03  0.61100027868E+03  0.25500000920E-02 0.  1.
    10030    2    1    2    0    0  0.00000000000E+00  0.00000000000E+00  0.95378967602E+02  0.13173795250E+04  0.13139222448E+04 0.  0.
        3    1    3    3  502    0 -0.22813597426E+02 -0.74133656303E+02 -0.60639325661E+03  0.61133382950E+03  0.10100000352E+00 0.  1.
       -3    1    3    3    0  502  0.22813597426E+02  0.74133656303E+02  0.70177222421E+03  0.70604569547E+03  0.10100000352E+00 0. -1.
</event>
<event>
 5   0  0.1310461E-03  0.1357473E+04  0.7818609E-02  0.8985190E-01
        1   -1    0    0  501    0  0.00000000000E+00  0.00000000000E+00  0.11261071405E+04  0.11261071405E+04  0.50400001928E-02 0. -1.
       -1   -1    0    0    0  501  0.00000000000E+00  0.00000000000E+00 -0.40909350645E+03  0.40909350648E+03  0.50400001928E-02 0.  1.
    10030    2    1    2    0    0  0.00000000000E+00  0.00000000000E+00  0.71701363406E+03  0.15352006470E+04  0.13574728267E+04 0.  0.
        4    1    3    3  502    0  0.46236247062E+03 -0.83715294255E+02 -0.19540913828E+03  0.50889453618E+03  0.12699999809E+01 0.  1.
       -4    1    3    3    0  502 -0.46236247062E+03  0.83715294255E+02  0.91242277233E+03  0.10263061108E+04  0.12699999809E+01 0. -1.
</event>
<event>
 5   0  0.2334946E-03  0.1308084E+04  0.7818609E-02  0.9023179E-01
       -2   -1    0    0    0  501  0.00000000000E+00  0.00000000000E+00  0.60691941388E+03  0.60691941389E+03  0.25500000920E-02 0. -1.
        2   -1    0    0  501    0  0.00000000000E+00  0.00000000000E+00 -0.70482296855E+03  0.70482296855E+03  0.25500000920E-02 0.  1.
    10030    2    1    2    0    0  0.00000000000E+00  0.00000000000E+00 -0.97903554664E+02  0.13117423824E+04  0.13080837022E+04 0.  0.
        1    1    3    3  502    0  0.19144302129E+03 -0.75363621349E+02  0.57362335050E+03  0.60940450776E+03  0.50400001928E-02 0. -1.
       -1    1    3    3    0  502 -0.19144302129E+03  0.75363621349E+02 -0.67152690516E+03  0.70233787467E+03  0.50400001928E-02 0.  1.
</event>
<event>
 5   0  0.1332630E-03  0.1289306E+04  0.7818609E-02  0.9038089E-01
       -1   -1    0    0    0  501  0.00000000000E+00  0.00000000000E+00  0.59201821568E+03  0.59201821570E+03  0.50400001928E-02 0.  1.
        1   -1    0    0  501    0  0.00000000000E+00  0.00000000000E+00 -0.70196746615E+03  0.70196746617E+03  0.50400001928E-02 0. -1.
    10030    2    1    2    0    0  0.00000000000E+00  0.00000000000E+00 -0.10994925047E+03  0.12939856819E+04  0.12893060564E+04 0.  0.
        5    1    3    3  502    0 -0.90754266780E+02  0.56420686702E+02 -0.69299876869E+03  0.70120540088E+03  0.46999998093E+01 0. -1.
       -5    1    3    3    0  502  0.90754266780E+02 -0.56420686702E+02  0.58304951822E+03  0.59278028098E+03  0.46999998093E+01 0.  1.
</event>
<event>
 5   0  0.1310461E-03  0.1287021E+04  0.7818609E-02  0.9039921E-01
        1   -1    0    0  501    0  0.00000000000E+00  0.00000000000E+00  0.10956429145E+04  0.10956429145E+04  0.50400001928E-02 0.  1.
       -1   -1    0    0    0  501  0.00000000000E+00  0.00000000000E+00 -0.37795710502E+03  0.37795710505E+03  0.50400001928E-02 0. -1.
    10030    2    1    2    0    0  0.00000000000E+00  0.00000000000E+00  0.71768580951E+03  0.14736000196E+04  0.12870214049E+04 0.  0.
        4    1    3    3  502    0  0.42993020980E+03 -0.15341633909E+03  0.87816929871E+03  0.98972697674E+03  0.12699999809E+01 0.  1.
       -4    1    3    3    0  502 -0.42993020980E+03  0.15341633909E+03 -0.16048348920E+03  0.48387304286E+03  0.12699999809E+01 0. -1.
</event>
<event>
 5   0  0.2478236E-03  0.1322268E+04  0.7818609E-02  0.9012090E-01
        2   -1    0    0  501    0  0.00000000000E+00  0.00000000000E+00  0.65851327337E+03  0.65851327338E+03  0.25500000920E-02 0.  1.
       -2   -1    0    0    0  501  0.00000000000E+00  0.00000000000E+00 -0.66376535714E+03  0.66376535715E+03  0.25500000920E-02 0. -1.
    10030    2    1    2    0    0  0.00000000000E+00  0.00000000000E+00 -0.52520837722E+01  0.13222786305E+04  0.13222681999E+04 0.  0.
        3    1    3    3  502    0 -0.58358512006E+03 -0.11899170352E+03 -0.28962598882E+03  0.66227927754E+03  0.10100000352E+00 0. -1.
       -3    1    3    3    0  502  0.58358512006E+03  0.11899170352E+03  0.28437390505E+03  0.65999935298E+03  0.10100000352E+00 0.  1.
</event>
<event>
 5   0  0.1332630E-03  0.1299302E+04  0.7818609E-02  0.9030119E-01
        1   -1    0    0  501    0  0.00000000000E+00  0.00000000000E+00  0.59799425793E+03  0.59799425795E+03  0.50400001928E-02 0.  1.
       -1   -1    0    0    0  501  0.00000000000E+00  0.00000000000E+00 -0.70577000356E+03  0.70577000357E+03  0.50400001928E-02 0. -1.
    10030    2    1    2    0    0  0.00000000000E+00  0.00000000000E+00 -0.10777574562E+03  0.13037642615E+04  0.12993019812E+04 0.  0.
        5    1    3    3  502    0 -0.28258452461E+03  0.33155356693E+03 -0.53745843638E+03  0.69185651846E+03  0.46999998093E+01 0. -1.
       -5    1    3    3    0  502  0.28258452461E+03 -0.33155356693E+03  0.42968269076E+03  0.61190774307E+03  0.46999998093E+01 0.  1.
</event>
<event>
 5   0  0.1387622E-03  0.1299676E+04  0.7818609E-02  0.9029822E-01
       -1   -1    0    0    0  501  0.00000000000E+00  0.00000000000E+00  0.37251706782E+03  0.37251706785E+03  0.50400001928E-02 0.  1.
        1   -1    0    0  501    0  0.00000000000E+00  0.00000000000E+00 -0.11336101521E+04  0.11336101522E+04  0.50400001928E-02 0. -1.
    10030    2    1    2    0    0  0.00000000000E+00  0.00000000000E+00 -0.76109308433E+03  0.15061272200E+04  0.12996755441E+04 0.  0.
        3    1    3    3  502    0 -0.39891026322E+03  0.46399149062E+03 -0.12699528684E+03  0.62493624839E+03  0.10100000352E+00 0.  1.
       -3    1    3    3    0  502  0.39891026322E+03 -0.46399149062E+03 -0.63409779749E+03  0.88119097161E+03  0.10100000352E+00 0. -1.
</event>
<event>
 5   0  0.1346593E-03  0.1296362E+04  0.7818609E-02  0.9032455E-01
        1   -1    0    0  501    0  0.00000000000E+00  0.00000000000E+00  0.66089392206E+03  0.66089392208E+03  0.50400001928E-02 0. -1.
       -1   -1    0    0    0  501  0.00000000000E+00  0.00000000000E+00 -0.63571220482E+03  0.63571220484E+03  0.50400001928E-02 0.  1.
    10030    2    1    2    0    0  0.00000000000E+00  0.00000000000E+00  0.25181717237E+02  0.12966061269E+04  0.12963615736E+04 0.  0.
        2    1    3    3  502    0 -0.38885475117E+03 -0.51797413529E+03  0.37757283001E+02  0.64879182698E+03  0.25500000920E-02 0. -1.
       -2    1    3    3    0  502  0.38885475117E+03  0.51797413529E+03 -0.12575565763E+02  0.64781429993E+03  0.25500000920E-02 0.  1.
</event>
<event>
 5   0  0.2361043E-03  0.1301642E+04  0.7818609E-02  0.9028264E-01
        2   -1    0    0  501    0  0.00000000000E+00  0.00000000000E+00  0.10491424617E+04  0.10491424617E+04  0.25500000920E-02 0. -1.
       -2   -1    0    0    0  501  0.00000000000E+00  0.00000000000E+00 -0.40372773263E+03  0.40372773263E+03  0.25500000920E-02 0.  1.
    10030    2    1    2    0    0  0.00000000000E+00  0.00000000000E+00  0.64541472904E+03  0.14528701943E+04  0.13016418974E+04 0.  0.
        2    1    3    3  502    0  0.51590030796E+03 -0.28464608472E+03  0.63120901348E+03  0.86348210173E+03  0.25500000920E-02 0. -1.
       -2    1    3    3    0  502 -0.51590030796E+03  0.28464608472E+03  0.14205715562E+02  0.58938809257E+03  0.25500000920E-02 0.  1.
</event>
<event>
 5   0  0.1346593E-03  0.1293886E+04  0.7818609E-02  0.9034428E-01
       -1   -1    0    0    0  501  0.00000000000E+00  0.00000000000E+00  0.40870978178E+03  0.40870978181E+03  0.50400001928E-02 0. -1.
        1   -1    0    0  501    0  0.00000000000E+00  0.00000000000E+00 -0.10240398089E+04  0.10240398089E+04  0.50400001928E-02 0.  1.
    10030    2    1    2    0    0  0.00000000000E+00  0.00000000000E+00 -0.61533002711E+03  0.14327495907E+04  0.12938857552E+04 0.  0.
        2    1    3    3  502    0  0.24143533790E+02  0.14403466208E+03  0.39021758084E+03  0.41665171847E+03  0.25500000920E-02 0. -1.
       -2    1    3    3    0  502 -0.24143533790E+02 -0.14403466208E+03 -0.10055476079E+04  0.10160978722E+04  0.25500000920E-02 0.  1.
</event>
<event>
 5   0  0.1346593E-03  0.1248759E+04  0.7818609E-02  0.9071217E-01
        1   -1    0    0  501    0  0.00000000000E+00  0.00000000000E+00  0.11812772221E+04  0.11812772221E+04  0.50400001928E-02 0.  1.
       -1   -1    0    0    0  501  0.00000000000E+00  0.00000000000E+00 -0.33002385500E+03  0.33002385504E+03  0.50400001928E-02 0. -1.
    10030    2    1    2    0    0  0.00000000000E+00  0.00000000000E+00  0.85125336705E+03  0.15113010771E+04  0.12487588441E+04 0.  0.
        2    1    3    3  502    0 -0.46323920347E+02 -0.13719029738E+03  0.11606760165E+04  0.11696734153E+04  0.25500000920E-02 0.  1.
       -2    1    3    3    0  502  0.46323920347E+02  0.13719029738E+03 -0.30942264944E+03  0.34162766176E+03  0.25500000920E-02 0. -1.
</event>
<event>
 5   0  0.1387622E-03  0.1257685E+04  0.7818609E-02  0.9063811E-01
       -1   -1    0    0    0  501  0.00000000000E+00  0.00000000000E+00  0.45604760679E+03  0.45604760682E+03  0.50400001928E-02 0. -1.
        1   -1    0    0  501    0  0.00000000000E+00  0.00000000000E+00 -0.86710853774E+03  0.86710853775E+03  0.50400001928E-02 0.  1.
    10030    2    1    2    0    0  0.00000000000E+00  0.00000000000E+00 -0.41106093095E+03  0.13231561446E+04  0.12576848150E+04 0.  0.
        3    1    3    3  502    0 -0.42072943735E+03  0.39466169332E+03  0.57844717736E+02  0.57975609803E+03  0.10100000352E+00 0. -1.
       -3    1    3    3    0  502  0.42072943735E+03 -0.39466169332E+03 -0.46890564869E+03  0.74340004654E+03  0.10100000352E+00 0.  1.
</event>
<event>
 5   0  0.2334946E-03  0.1331158E+04  0.7818609E-02  0.9005215E-01
        2   -1    0    0  501    0  0.00000000000E+00  0.00000000000E+00  0.14024714052E+04  0.14024714052E+04  0.25500000920E-02 0. -1.
       -2   -1    0    0    0  501  0.00000000000E+00  0.00000000000E+00 -0.31586765766E+03  0.31586765767E+03  0.25500000920E-02 0.  1.
    10030    2    1    2    0    0  0.00000000000E+00  0.00000000000E+00  0.10866037475E+04  0.17183390629E+04  0.13311579286E+04 0.  0.
        1    1    3    3  502    0  0.40946739860E+03 -0.22621350410E+03 -0.67861922234E+02  0.47269582235E+03  0.50400001928E-02 0.  1.
       -1    1    3    3    0  502 -0.40946739860E+03  0.22621350410E+03  0.11544656698E+04  0.12456432405E+04  0.50400001928E-02 0. -1.
</event>
<event>
 5   0  0.2401211E-03  0.1285203E+04  0.7818609E-02  0.9041382E-01
        2   -1    0    0  501    0  0.00000000000E+00  0.00000000000E+00  0.74294336326E+03  0.74294336326E+03  0.25500000920E-02 0. -1.
       -2   -1    0    0    0  501  0.00000000000E+00  0.00000000000E+00 -0.55581167531E+03  0.55581167532E+03  0.25500000920E-02 0.  1.
    10030    2    1    2    0    0  0.00000000000E+00  0.00000000000E+00  0.18713168795E+03  0.12987550386E+04  0.12852028562E+04 0.  0.
        4    1    3    3  502    0  0.58151474773E+03 -0.20297604887E+03  0.27873643350E+03  0.67605790470E+03  0.12699999809E+01 0. -1.
       -4    1    3    3    0  502 -0.58151474773E+03  0.20297604887E+03 -0.91604745557E+02  0.62269713388E+03  0.12699999809E+01 0.  1.
</event>
<event>
 5   0  0.1324721E-03  0.1298999E+04  0.7818609E-02  0.9030359E-01
        1   -1    0    0  501    0  0.00000000000E+00  0.00000000000E+00  0.11626466701E+04  0.11626466701E+04  0.50400001928E-02 0.  1.
       -1   -1    0    0    0  501  0.00000000000E+00  0.00000000000E+00 -0.36283568080E+03  0.36283568083E+03  0.50400001928E-02 0. -1.
    10030    2    1    2    0    0  0.00000000000E+00  0.00000000000E+00  0.79981098931E+03  0.15254823510E+04  0.12989991472E+04 0.  0.
        1    1    3    3  502    0 -0.48009314392E+03  0.33316432465E+02  0.91213073985E+03  0.10313010706E+04  0.50400001928E-02 0.  1.
       -1    1    3    3    0  502  0.48009314392E+03 -0.33316432465E+02 -0.11231975055E+03  0.49418128040E+03  0.50400001928E-02 0. -1.
</event>
<event>
 5   0  0.2334946E-03  0.1323256E+04  0.7818609E-02  0.9011324E-01
       -2   -1    0    0    0  501  0.00000000000E+00  0.00000000000E+00  0.81187143374E+03  0.81187143375E+03  0.25500000920E-02 0.  1.
        2   -1    0    0  501    0  0.00000000000E+00  0.00000000000E+00 -0.53918810886E+03  0.53918810886E+03  0.25500000920E-02 0. -1.
    10030    2    1    2    0    0  0.00000000000E+00  0.00000000000E+00  0.27268332489E+03  0.13510595426E+04  0.13232557168E+04 0.  0.
        1    1    3    3  502    0 -0.39751644156E+03 -0.51680565136E+03  0.25114996714E+03  0.69870144455E+03  0.50400001928E-02 0.  1.
       -1    1    3    3    0  502  0.39751644156E+03  0.51680565136E+03  0.21533357746E+02  0.65235809806E+03  0.50400001928E-02 0. -1.
</event>
<event>
 5   0  0.2401211E-03  0.1294254E+04  0.7818609E-02  0.9034134E-01
       -2   -1    0    0    0  501  0.00000000000E+00  0.00000000000E+00  0.59871257247E+03  0.59871257248E+03  0.25500000920E-02 0.  1.
        2   -1    0    0  501    0  0.00000000000E+00  0.00000000000E+00 -0.69945663021E+03  0.69945663022E+03  0.25500000920E-02 0. -1.
    10030    2    1    2    0    0  0.00000000000E+00  0.00000000000E+00 -0.10074405774E+03  0.12981692027E+04  0.12942541921E+04 0.  0.
        4    1    3    3  502    0 -0.28390976781E+02  0.33141633636E+03 -0.60714485367E+03  0.69229280063E+03  0.12699999809E+01 0. -1.
       -4    1    3    3    0  502  0.28390976781E+02 -0.33141633636E+03  0.50640079593E+03  0.60587640207E+03  0.12699999809E+01 0.  1.
</event>
<event>
 5   0  0.2312105E-03  0.1296093E+04  0.7818609E-02  0.9032669E-01
       -2   -1    0    0    0  501  0.00000000000E+00  0.00000000000E+00  0.59121084227E+03  0.59121084228E+03  0.25500000920E-02 0. -1.
        2   -1    0    0  501    0  0.00000000000E+00  0.00000000000E+00 -0.71034626292E+03  0.71034626292E+03  0.25500000920E-02 0.  1.
    10030    2    1    2    0    0  0.00000000000E+00  0.00000000000E+00 -0.11913542065E+03  0.13015571052E+04  0.12960932257E+04 0.  0.
        5    1    3    3  502    0  0.35115385977E+03  0.30283709549E+02  0.48652268079E+03  0.60079326329E+03  0.46999998093E+01 0. -1.
       -5    1    3    3    0  502 -0.35115385977E+03 -0.30283709549E+02 -0.60565810143E+03  0.70076384191E+03  0.46999998093E+01 0.  1.
</event>
<event>
 5   0  0.2334946E-03  0.1311721E+04  0.7818609E-02  0.9020322E-01
        2   -1    0    0  501    0  0.00000000000E+00  0.00000000000E+00  0.94577287556E+03  0.94577287557E+03  0.25500000920E-02 0.  1.
       -2   -1    0    0    0  501  0.00000000000E+00  0.00000000000E+00 -0.45481634534E+03  0.45481634534E+03  0.25500000920E-02 0. -1.
    10030    2    1    2    0    0  0.00000000000E+00  0.00000000000E+00  0.49095653023E+03  0.14005892209E+04  0.13117209502E+04 0.  0.
        1    1    3    3  502    0  0.20944778704E+03 -0.32055804768E+03  0.81402560515E+03  0.89959075322E+03  0.50400001928E-02 0.  1.
       -1    1    3    3    0  502 -0.20944778704E+03  0.32055804768E+03 -0.32306907492E+03  0.50099846768E+03  0.50400001928E-02 0. -1.
</event>
<event>
 5   0  0.2312105E-03  0.1287642E+04  0.7818609E-02  0.9039423E-01
       -2   -1    0    0    0  501  0.00000000000E+00  0.00000000000E+00  0.14274245109E+04  0.14274245109E+04  0.25500000920E-02 0.  1.
        2   -1    0    0  501    0  0.00000000000E+00  0.00000000000E+00 -0.29038689968E+03  0.29038689969E+03  0.25500000920E-02 0. -1.
    10030    2    1    2    0    0  0.00000000000E+00  0.00000000000E+00  0.11370376112E+04  0.17178114106E+04  0.12876418419E+04 0.  0.
        5    1    3    3  502    0  0.32292213179E+03 -0.23328681536E+03 -0.10618826595E+03  0.41230993105E+03  0.46999998093E+01 0. -1.
       -5    1    3    3    0  502 -0.32292213179E+03  0.23328681536E+03  0.12432258771E+04  0.13055014795E+04  0.46999998093E+01 0.  1.
</event>
<event>
 5   0  0.2334946E-03  0.1306511E+04  0.7818609E-02  0.9024417E-01
       -2   -1    0    0    0  501  0.00000000000E+00  0.00000000000E+00  0.27822207067E+03  0.27822207068E+03  0.25500000920E-02 0.  1.
        2   -1    0    0  501    0  0.00000000000E+00  0.00000000000E+00 -0.15338213999E+04  0.15338213999E+04  0.25500000920E-02 0. -1.
    10030    2    1    2    0    0  0.00000000000E+00  0.00000000000E+00 -0.12555993293E+04  0.18120434706E+04  0.13065113332E+04 0.  0.
        1    1    3    3  502    0  0.39579555204E+03  0.42553807410E+03 -0.10415759029E+04  0.11927351479E+04  0.50400001928E-02 0. -1.
       -1    1    3    3    0  502 -0.39579555204E+03 -0.42553807410E+03 -0.21402342634E+03  0.61930832270E+03  0.50400001928E-02 0.  1.
</event>
<event>
 5   0  0.1310461E-03  0.1290130E+04  0.7818609E-02  0.9037429E-01
       -1   -1    0    0    0  501  0.00000000000E+00  0.00000000000E+00  0.51824826527E+03  0.51824826530E+03  0.50400001928E-02 0.  1.
        1   -1    0    0  501    0  0.00000000000E+00  0.00000000000E+00 -0.80291447093E+03  0.80291447095E+03  0.50400001928E-02 0. -1.
    10030    2    1    2    0    0  0.00000000000E+00  0.00000000000E+00 -0.28466620566E+03  0.13211627362E+04  0.12901302752E+04 0.  0.
        4    1    3    3  502    0 -0.30515438246E+03 -0.54894333603E+03 -0.29300978120E+03  0.69304713266E+03  0.12699999809E+01 0. -1.
       -4    1    3    3    0  502  0.30515438246E+03  0.54894333603E+03  0.83435755461E+01  0.62811560358E+03  0.12699999809E+01 0.  1.
</event>
<event>
 5   0  0.1387622E-03  0.1327448E+04  0.7818609E-02  0.9008078E-01
       -1   -1    0    0    0  501  0.00000000000E+00  0.00000000000E+00  0.36421687918E+03  0.36421687921E+03  0.50400001928E-02 0. -1.
        1   -1    0    0  501    0  0.00000000000E+00  0.00000000000E+00 -0.12095252117E+04  0.12095252118E+04  0.50400001928E-02 0.  1.
    10030    2    1    2    0    0  0.00000000000E+00  0.00000000000E+00 -0.84530833257E+03  0.15737420910E+04  0.13274479243E+04 0.  0.
        3    1    3    3  502    0 -0.39963082564E+03 -0.47334972372E+03 -0.70511312647E+03  0.93858898836E+03  0.10100000352E+00 0.  1.
       -3    1    3    3    0  502  0.39963082564E+03  0.47334972372E+03 -0.14019520610E+03  0.63515310261E+03  0.10100000352E+00 0. -1.
</event>
<event>
 5   0  0.2334946E-03  0.1224337E+04  0.7818609E-02  0.9091817E-01
       -2   -1    0    0    0  501  0.00000000000E+00  0.00000000000E+00  0.51304447629E+03  0.51304447630E+03  0.25500000920E-02 0. -1.
        2   -1    0    0  501    0  0.00000000000E+00  0.00000000000E+00 -0.73044448317E+03  0.73044448318E+03  0.25500000920E-02 0.  1.
    10030    2    1    2    0    0  0.00000000000E+00  0.00000000000E+00 -0.21740000688E+03  0.12434889595E+04  0.12243373838E+04 0.  0.
        1    1    3    3  502    0  0.20554009966E+02 -0.22240145667E+03  0.47018554513E+03  0.52053753191E+03  0.50400001928E-02 0. -1.
       -1    1    3    3    0  502 -0.20554009966E+02  0.22240145667E+03 -0.68758555201E+03  0.72295142756E+03  0.50400001928E-02 0.  1.
</event>
<event>
 5   0  0.1346593E-03  0.1279465E+04  0.7818609E-02  0.9046010E-01
        1   -1    0    0  501    0  0.00000000000E+00  0.00000000000E+00  0.89804279786E+03  0.89804279787E+03  0.50400001928E-02 0.  1.
       -1   -1    0    0    0  501  0.00000000000E+00  0.00000000000E+00 -0.45572191781E+03  0.45572191784E+03  0.50400001928E-02 0. -1.
    10030    2    1    2    0    0  0.00000000000E+00  0.00000000000E+00  0.44232088004E+03  0.13537647157E+04  0.12794651791E+04 0.  0.
        2    1    3    3  502    0  0.16961362708E+03 -0.56580289701E+03  0.48110171914E+03  0.76181399627E+03  0.25500000920E-02 0.  1.
       -2    1    3    3    0  502 -0.16961362708E+03  0.56580289701E+03 -0.38780839095E+02  0.59195071944E+03  0.25500000920E-02 0. -1.
</event>
<event>
 5   0  0.2361043E-03  0.1294630E+04  0.7818609E-02  0.9033835E-01
        2   -1    0    0  501    0  0.00000000000E+00  0.00000000000E+00  0.12440929747E+04  0.12440929747E+04  0.25500000920E-02 0. -1.
       -2   -1    0    0    0  501  0.00000000000E+00  0.00000000000E+00 -0.33680487052E+03  0.33680487053E+03  0.25500000920E-02 0.  1.
    10030    2    1    2    0    0  0.00000000000E+00  0.00000000000E+00  0.90728810422E+03  0.15808978453E+04  0.12946297900E+04 0.  0.
        2    1    3    3  502    0 -0.41079365370E+03  0.49976305007E+03  0.42628331006E+03  0.77474640533E+03  0.25500000920E-02 0. -1.
       -2    1    3    3    0  502  0.41079365370E+03 -0.49976305007E+03  0.48100479416E+03  0.80615143995E+03  0.25500000920E-02 0.  1.
</event>
<event>
 5   0  0.1310461E-03  0.1246750E+04  0.7818609E-02  0.9072892E-01
       -1   -1    0    0    0  501  0.00000000000E+00  0.00000000000E+00  0.40721205589E+03  0.40721205593E+03  0.50400001928E-02 0.  1.
        1   -1    0    0  501    0  0.00000000000E+00  0.00000000000E+00 -0.95428558926E+03  0.95428558927E+03  0.50400001928E-02 0. -1.
    10030    2    1    2    0    0  0.00000000000E+00  0.00000000000E+00 -0.54707353336E+03  0.13614976452E+04  0.12467503306E+04 0.  0.
        4    1    3    3  502    0  0.35979393740E+03  0.24015346368E+03 -0.76370164145E+03  0.87770563036E+03  0.12699999809E+01 0. -1.
       -4    1    3    3    0  502 -0.35979393740E+03 -0.24015346368E+03  0.21662810809E+03  0.48379201484E+03  0.12699999809E+01 0.  1.
</event>
<event>
 5   0  0.2312105E-03  0.1342105E+04  0.7818609E-02  0.8996826E-01
        2   -1    0    0  501    0  0.00000000000E+00  0.00000000000E+00  0.72141888848E+03  0.72141888849E+03  0.25500000920E-02 0.  1.
       -2   -1    0    0    0  501  0.00000000000E+00  0.00000000000E+00 -0.62420278316E+03  0.62420278317E+03  0.25500000920E-02 0. -1.
    10030    2    1    2    0    0  0.00000000000E+00  0.00000000000E+00  0.97216105321E+02  0.13456216717E+04  0.13421053282E+04 0.  0.
        5    1    3    3  502    0  0.28192029614E+03  0.46880652342E+03  0.43825330608E+03  0.70096124006E+03  0.46999998093E+01 0.  1.
       -5    1    3    3    0  502 -0.28192029614E+03 -0.46880652342E+03 -0.34103720076E+03  0.64466043160E+03  0.46999998093E+01 0. -1.
</event>
<event>
 5   0  0.1310461E-03  0.1277697E+04  0.7818609E-02  0.9047441E-01
       -1   -1    0    0    0  501  0.00000000000E+00  0.00000000000E+00  0.69608084259E+03  0.69608084261E+03  0.50400001928E-02 0.  1.
        1   -1    0    0  501    0  0.00000000000E+00  0.00000000000E+00 -0.58632156617E+03  0.58632156619E+03  0.50400001928E-02 0. -1.
    10030    2    1    2    0    0  0.00000000000E+00  0.00000000000E+00  0.10975927642E+03  0.12824024088E+04  0.12776966930E+04 0.  0.
        4    1    3    3  502    0  0.53136308728E+03  0.17895489516E+03 -0.25244082910E+03  0.61489801603E+03  0.12699999809E+01 0. -1.
       -4    1    3    3    0  502 -0.53136308728E+03 -0.17895489516E+03  0.36220010552E+03  0.66750439277E+03  0.12699999809E+01 0.  1.
</event>
<event>
 5   0  0.2334946E-03  0.1300277E+04  0.7818609E-02  0.9029346E-01
       -2   -1    0    0    0  501  0.00000000000E+00  0.00000000000E+00  0.28055708399E+03  0.28055708400E+03  0.25500000920E-02 0. -1.
        2   -1    0    0  501    0  0.00000000000E+00  0.00000000000E+00 -0.15065740868E+04  0.15065740868E+04  0.25500000920E-02 0.  1.
    10030    2    1    2    0    0  0.00000000000E+00  0.00000000000E+00 -0.12260170028E+04  0.17871311708E+04  0.13002769438E+04 0.  0.
        1    1    3    3  502    0  0.16462430656E+02  0.13160157568E+03 -0.14877834833E+04  0.14936832595E+04  0.50400001928E-02 0.  1.
       -1    1    3    3    0  502 -0.16462430656E+02 -0.13160157568E+03  0.26176648049E+03  0.29344791136E+03  0.50400001928E-02 0. -1.
</event>
<event>
 5   0  0.1346593E-03  0.1338587E+04  0.7818609E-02  0.8999513E-01
       -1   -1    0    0    0  501  0.00000000000E+00  0.00000000000E+00  0.40747841793E+03  0.40747841796E+03  0.50400001928E-02 0.  1.
        1   -1    0    0  501    0  0.00000000000E+00  0.00000000000E+00 -0.10993305118E+04  0.10993305118E+04  0.50400001928E-02 0. -1.
    10030    2    1    2    0    0  0.00000000000E+00  0.00000000000E+00 -0.69185209383E+03  0.15068089297E+04  0.13385865049E+04 0.  0.
        2    1    3    3  502    0 -0.19235703229E+03  0.41983092368E+03 -0.89126051082E+03  0.10037950640E+04  0.25500000920E-02 0. -1.
       -2    1    3    3    0  502  0.19235703229E+03 -0.41983092368E+03  0.19940841699E+03  0.50301386574E+03  0.25500000920E-02 0.  1.
</event>
<event>
 5   0  0.1346593E-03  0.1314218E+04  0.7818609E-02  0.9018365E-01
        1   -1    0    0  501    0  0.00000000000E+00  0.00000000000E+00  0.11189782244E+04  0.11189782245E+04  0.50400001928E-02 0.  1.
       -1   -1    0    0    0  501  0.00000000000E+00  0.00000000000E+00 -0.38588089265E+03  0.38588089268E+03  0.50400001928E-02 0. -1.
    10030    2    1    2    0    0  0.00000000000E+00  0.00000000000E+00  0.73309733180E+03  0.15048591171E+04  0.13142181191E+04 0.  0.
        2    1    3    3  502    0  0.44304512548E+03  0.36464360339E+03 -0.11815191439E+00  0.57380654813E+03  0.25500000920E-02 0. -1.
       -2    1    3    3    0  502 -0.44304512548E+03 -0.36464360339E+03  0.73321548371E+03  0.93105256902E+03  0.25500000920E-02 0.  1.
</event>
<event>
 5   0  0.1387622E-03  0.1173542E+04  0.7818609E-02  0.9136336E-01
       -1   -1    0    0    0  501  0.00000000000E+00  0.00000000000E+00  0.27993740439E+03  0.27993740443E+03  0.50400001928E-02 0.  1.
        1   -1    0    0  501    0  0.00000000000E+00  0.00000000000E+00 -0.12299186643E+04  0.12299186643E+04  0.50400001928E-02 0. -1.
    10030    2    1    2    0    0  0.00000000000E+00  0.00000000000E+00 -0.94998125988E+03  0.15098560687E+04  0.11735420547E+04 0.  0.
        3    1    3    3  502    0  0.46275283206E+03  0.29384509628E+03 -0.74429835765E+03  0.92437285745E+03  0.10100000352E+00 0. -1.
       -3    1    3    3    0  502 -0.46275283206E+03 -0.29384509628E+03 -0.20568290222E+03  0.58548321125E+03  0.10100000352E+00 0.  1.
</event>
<event>
 5   0  0.1332630E-03  0.1291679E+04  0.7818609E-02  0.9036190E-01
        1   -1    0    0  501    0  0.00000000000E+00  0.00000000000E+00  0.68941353510E+03  0.68941353512E+03  0.50400001928E-02 0. -1.
       -1   -1    0    0    0  501  0.00000000000E+00  0.00000000000E+00 -0.60501996087E+03  0.60501996089E+03  0.50400001928E-02 0.  1.
    10030    2    1    2    0    0  0.00000000000E+00  0.00000000000E+00  0.84393574238E+02  0.12944334960E+04  0.12916794495E+04 0.  0.
        5    1    3    3  502    0 -0.38793235649E+03 -0.21282093380E+03 -0.42923433301E+03  0.61648070992E+03  0.46999998093E+01 0.  1.
       -5    1    3    3    0  502  0.38793235649E+03  0.21282093380E+03  0.51362790724E+03  0.67795278609E+03  0.46999998093E+01 0. -1.
</event>
<event>
 5   0  0.1310461E-03  0.1252534E+04  0.7818609E-02  0.9068077E-01
       -1   -1    0    0    0  501  0.00000000000E+00  0.00000000000E+00  0.84096674983E+03  0.84096674985E+03  0.50400001928E-02 0. -1.
        1   -1    0    0  501    0  0.00000000000E+00  0.00000000000E+00 -0.46637997037E+03  0.46637997039E+03  0.50400001928E-02 0.  1.
    10030    2    1    2    0    0  0.00000000000E+00  0.00000000000E+00  0.37458677947E+03  0.13073467202E+04  0.12525335092E+04 0.  0.
        4    1    3    3  502    0  0.16218549718E+03  0.19815301769E+03 -0.40924156902E+03  0.48275151852E+03  0.12699999809E+01 0.  1.
       -4    1    3    3    0  502 -0.16218549718E+03 -0.19815301769E+03  0.78382834849E+03  0.82459520173E+03  0.12699999809E+01 0. -1.
</event>
<event>
 5   0  0.2401211E-03  0.1240192E+04  0.7818609E-02  0.9078386E-01
        2   -1    0    0  501    0  0.00000000000E+00  0.00000000000E+00  0.79859513405E+03  0.79859513405E+03  0.25500000920E-02 0.  1.
       -2   -1    0    0    0  501  0.00000000000E+00  0.00000000000E+00 -0.48149428855E+03  0.48149428855E+03  0.25500000920E-02 0. -1.
    10030    2    1    2    0    0  0.00000000000E+00  0.00000000000E+00  0.31710084550E+03  0.12800894226E+04  0.12401919140E+04 0.  0.
        4    1    3    3  502    0 -0.35058822560E+03  0.48916079019E+03  0.43212234745E+01  0.60183940421E+03  0.12699999809E+01 0. -1.
       -4    1    3    3    0  502  0.35058822560E+03 -0.48916079019E+03  0.31277962202E+03  0.67825001839E+03  0.12699999809E+01 0.  1.
</event>
<event>
 5   0  0.2334946E-03  0.1288054E+04  0.7818609E-02  0.9039093E-01
       -2   -1    0    0    0  501  0.00000000000E+00  0.00000000000E+00  0.73240580526E+03  0.73240580526E+03  0.25500000920E-02 0.  1.
        2   -1    0    0  501    0  0.00000000000E+00  0.00000000000E+00 -0.56631238732E+03  0.56631238733E+03  0.25500000920E-02 0. -1.
    10030    2    1    2    0    0  0.00000000000E+00  0.00000000000E+00  0.16609341793E+03  0.12987181926E+04  0.12880535394E+04 0.  0.
        1    1    3    3  502    0 -0.75768428988E+02  0.89817993096E+02  0.72150540713E+03  0.73101175042E+03  0.50400001928E-02 0.  1.
       -1    1    3    3    0  502  0.75768428988E+02 -0.89817993096E+02 -0.55541198919E+03  0.56770644217E+03  0.50400001928E-02 0. -1.
</event>
<event>
 5   0  0.2312105E-03  0.1299970E+04  0.7818609E-02  0.9029589E-01
       -2   -1    0    0    0  501  0.00000000000E+00  0.00000000000E+00  0.28631944233E+03  0.28631944235E+03  0.25500000920E-02 0.  1.
        2   -1    0    0  501    0  0.00000000000E+00  0.00000000000E+00 -0.14755574014E+04  0.14755574014E+04  0.25500000920E-02 0. -1.
    10030    2    1    2    0    0  0.00000000000E+00  0.00000000000E+00 -0.11892379590E+04  0.17618768437E+04  0.12999704186E+04 0.  0.
        5    1    3    3  502    0  0.14277055319E+03  0.54546158194E+03 -0.15639343742E+03  0.58514337174E+03  0.46999998093E+01 0.  1.
       -5    1    3    3    0  502 -0.14277055319E+03 -0.54546158194E+03 -0.10328445216E+04  0.11767334720E+04  0.46999998093E+01 0. -1.
</event>
<event>
 5   0  0.2361043E-03  0.1301111E+04  0.7818609E-02  0.9028684E-01
       -2   -1    0    0    0  501  0.00000000000E+00  0.00000000000E+00  0.31057912629E+03  0.31057912630E+03  0.25500000920E-02 0.  1.
        2   -1    0    0  501    0  0.00000000000E+00  0.00000000000E+00 -0.13626883470E+04  0.13626883470E+04  0.25500000920E-02 0. -1.
    10030    2    1    2    0    0  0.00000000000E+00  0.00000000000E+00 -0.10521092207E+04  0.16732674733E+04  0.13011111501E+04 0.  0.
        2    1    3    3  502    0 -0.46898916832E+02  0.62269050573E+03 -0.29144818577E+03  0.68911901680E+03  0.25500000920E-02 0.  1.
       -2    1    3    3    0  502  0.46898916832E+02 -0.62269050573E+03 -0.76066103493E+03  0.98414845648E+03  0.25500000920E-02 0. -1.
</event>
<event>
 5   0  0.1346593E-03  0.1330385E+04  0.7818609E-02  0.9005810E-01
       -1   -1    0    0    0  501  0.00000000000E+00  0.00000000000E+00  0.25348244632E+03  0.25348244637E+03  0.50400001928E-02 0.  1.
        1   -1    0    0  501    0  0.00000000000E+00  0.00000000000E+00 -0.17456092160E+04  0.17456092160E+04  0.50400001928E-02 0. -1.
    10030    2    1    2    0    0  0.00000000000E+00  0.00000000000E+00 -0.14921267697E+04  0.19990916624E+04  0.13303853494E+04 0.  0.
        2    1    3    3  502    0  0.44035857039E+03  0.90343113562E+02 -0.14828230966E+04  0.15494650317E+04  0.25500000920E-02 0. -1.
       -2    1    3    3    0  502 -0.44035857039E+03 -0.90343113562E+02 -0.93036731052E+01  0.44962663069E+03  0.25500000920E-02 0.  1.
</event>
<event>
 5   0  0.1324721E-03  0.1326803E+04  0.7818609E-02  0.9008576E-01
        1   -1    0    0  501    0  0.00000000000E+00  0.00000000000E+00  0.15718416805E+04  0.15718416805E+04  0.50400001928E-02 0. -1.
       -1   -1    0    0    0  501  0.00000000000E+00  0.00000000000E+00 -0.27999094067E+03  0.27999094072E+03  0.50400001928E-02 0.  1.
    10030    2    1    2    0    0  0.00000000000E+00  0.00000000000E+00  0.12918507398E+04  0.18518326212E+04  0.13268028199E+04 0.  0.
        1    1    3    3  502    0  0.40472504137E+03  0.16696863007E+03 -0.49721927475E+02  0.44062813419E+03  0.50400001928E-02 0.  1.
       -1    1    3    3    0  502 -0.40472504137E+03 -0.16696863007E+03  0.13415726673E+04  0.14112044870E+04  0.50400001928E-02 0. -1.
</event>
<event>
 5   0  0.2312105E-03  0.1279370E+04  0.7818609E-02  0.9046086E-01
       -2   -1    0    0    0  501  0.00000000000E+00  0.00000000000E+00  0.53370600756E+03  0.53370600756E+03  0.25500000920E-02 0. -1.
        2   -1    0    0  501    0  0.00000000000E+00  0.00000000000E+00 -0.76670889622E+03  0.76670889622E+03  0.25500000920E-02 0.  1.
    10030    2    1    2    0    0  0.00000000000E+00  0.00000000000E+00 -0.23300288866E+03  0.13004149038E+04  0.12793703826E+04 0.  0.
        5    1    3    3  502    0 -0.11875362107E+03  0.29149224336E+03  0.44952922385E+03  0.54878845064E+03  0.46999998093E+01 0. -1.
       -5    1    3    3    0  502  0.11875362107E+03 -0.29149224336E+03 -0.68253211252E+03  0.75162645315E+03  0.46999998093E+01 0.  1.
</event>
<event>
 5   0  0.2334946E-03  0.1308621E+04  0.7818609E-02  0.9022756E-01
       -2   -1    0    0    0  501  0.00000000000E+00  0.00000000000E+00  0.62962020537E+03  0.62962020537E+03  0.25500000920E-02 0. -1.
        2   -1    0    0  501    0  0.00000000000E+00  0.00000000000E+00 -0.67996927103E+03  0.67996927104E+03  0.25500000920E-02 0.  1.
    10030    2    1    2    0    0  0.00000000000E+00  0.00000000000E+00 -0.50349065667E+02  0.13095894764E+04  0.13086212471E+04 0.  0.
        1    1    3    3  502    0 -0.30866187793E+03 -0.20707197871E+03  0.51371384393E+03  0.63407639344E+03  0.50400001928E-02 0. -1.
       -1    1    3    3    0  502  0.30866187793E+03  0.20707197871E+03 -0.56406290959E+03  0.67551308297E+03  0.50400001928E-02 0.  1.
</event>
<event>
 5   0  0.1332630E-03  0.1048409E+04  0.7818609E-02  0.9256988E-01
        1   -1    0    0  501    0  0.00000000000E+00  0.00000000000E+00  0.67582895167E+03  0.67582895169E+03  0.50400001928E-02 0.  1.
       -1   -1    0    0    0  501  0.00000000000E+00  0.00000000000E+00 -0.40659785830E+03  0.40659785833E+03  0.50400001928E-02 0. -1.
    10030    2    1    2    0    0  0.00000000000E+00  0.00000000000E+00  0.26923109337E+03  0.10824268100E+04  0.10484094703E+04 0.  0.
        5    1    3    3  502    0  0.30798311785E+03  0.41306718496E+03  0.35101326716E+02  0.51646131831E+03  0.46999998093E+01 0. -1.
       -5    1    3    3    0  502 -0.30798311785E+03 -0.41306718496E+03  0.23412976666E+03  0.56596549171E+03  0.46999998093E+01 0.  1.
</event>
<event>
 5   0  0.1387622E-03  0.1118339E+04  0.7818609E-02  0.9187500E-01
       -1   -1    0    0    0  501  0.00000000000E+00  0.00000000000E+00  0.63907685421E+03  0.63907685423E+03  0.50400001928E-02 0.  1.
        1   -1    0    0  501    0  0.00000000000E+00  0.00000000000E+00 -0.48925321620E+03  0.48925321623E+03  0.50400001928E-02 0. -1.
    10030    2    1    2    0    0  0.00000000000E+00  0.00000000000E+00  0.14982363801E+03  0.11283300705E+04  0.11183387794E+04 0.  0.
        3    1    3    3  502    0  0.44096269291E+03 -0.30841125863E+03 -0.78448795128E+02  0.54380127312E+03  0.10100000352E+00 0. -1.
       -3    1    3    3    0  502 -0.44096269291E+03  0.30841125863E+03  0.22827243314E+03  0.58452879734E+03  0.10100000352E+00 0.  1.
</event>
<event>
 5   0  0.2312105E-03  0.1309632E+04  0.7818609E-02  0.9021961E-01
       -2   -1    0    0    0  501  0.00000000000E+00  0.00000000000E+00  0.35603400614E+03  0.35603400615E+03  0.25500000920E-02 0. -1.
        2   -1    0    0  501    0  0.00000000000E+00  0.00000000000E+00 -0.12043350386E+04  0.12043350386E+04  0.25500000920E-02 0.  1.
    10030    2    1    2    0    0  0.00000000000E+00  0.00000000000E+00 -0.84830103244E+03  0.15603690447E+04  0.13096323584E+04 0.  0.
        5    1    3    3  502    0  0.87092997487E+02 -0.59436392627E+02  0.34583257686E+03  0.36158005503E+03  0.46999998093E+01 0. -1.
       -5    1    3    3    0  502 -0.87092997487E+02  0.59436392627E+02 -0.11941336093E+04  0.11987889897E+04  0.46999998093E+01 0.  1.
</event>
<event>
 5   0  0.1387622E-03  0.1301318E+04  0.7818609E-02  0.9028521E-01
        1   -1    0    0  501    0  0.00000000000E+00  0.00000000000E+00  0.47201237410E+03  0.47201237413E+03  0.50400001928E-02 0. -1.
       -1   -1    0    0    0  501  0.00000000000E+00  0.00000000000E+00 -0.89691918955E+03  0.89691918956E+03  0.50400001928E-02 0.  1.
    10030    2    1    2    0    0  0.00000000000E+00  0.00000000000E+00 -0.42490681545E+03  0.13689315637E+04  0.13013177261E+04 0.  0.
        3    1    3    3  502    0  0.63418724468E+03  0.12410144106E+03 -0.29230745998E+03  0.70925192305E+03  0.10100000352E+00 0.  1.
       -3    1    3    3    0  502 -0.63418724468E+03 -0.12410144106E+03 -0.13259935547E+03  0.65967964063E+03  0.10100000352E+00 0. -1.
</event>
<event>
 5   0  0.2312105E-03  0.1112879E+04  0.7818609E-02  0.9192729E-01
        2   -1    0    0  501    0  0.00000000000E+00  0.00000000000E+00  0.71626804842E+03  0.71626804843E+03  0.25500000920E-02 0.  1.
       -2   -1    0    0    0  501  0.00000000000E+00  0.00000000000E+00 -0.43227510918E+03  0.43227510918E+03  0.25500000920E-02 0. -1.
    10030    2    1    2    0    0  0.00000000000E+00  0.00000000000E+00  0.28399293925E+03  0.11485431576E+04  0.11128788772E+04 0.  0.
        5    1    3    3  502    0 -0.26382291424E+03  0.49892343566E+02  0.64496552665E+03  0.69863752876E+03  0.46999998093E+01 0.  1.
       -5    1    3    3    0  502  0.26382291424E+03 -0.49892343566E+02 -0.36097258740E+03  0.44990562886E+03  0.46999998093E+01 0. -1.
</event>
<event>
 5   0  0.1346593E-03  0.1312475E+04  0.7818609E-02  0.9019730E-01
       -1   -1    0    0    0  501  0.00000000000E+00  0.00000000000E+00  0.70718915538E+03  0.70718915540E+03  0.50400001928E-02 0.  1.
        1   -1    0    0  501    0  0.00000000000E+00  0.00000000000E+00 -0.60895710985E+03  0.60895710987E+03  0.50400001928E-02 0. -1.
    10030    2    1    2    0    0  0.00000000000E+00  0.00000000000E+00  0.98232045534E+02  0.13161462653E+04  0.13124753166E+04 0.  0.
        2    1    3    3  502    0  0.14929708515E+03 -0.39564911759E+03 -0.45410426129E+03  0.62051472506E+03  0.25500000920E-02 0. -1.
       -2    1    3    3    0  502 -0.14929708515E+03  0.39564911759E+03  0.55233630682E+03  0.69563154021E+03  0.25500000920E-02 0.  1.
</event>
<event>
 5   0  0.2334946E-03  0.1306922E+04  0.7818609E-02  0.9024094E-01
       -2   -1    0    0    0  501  0.00000000000E+00  0.00000000000E+00  0.44900989485E+03  0.44900989486E+03  0.25500000920E-02 0. -1.
        2   -1    0    0  501    0  0.00000000000E+00  0.00000000000E+00 -0.95100603473E+03  0.95100603473E+03  0.25500000920E-02 0.  1.
    10030    2    1    2    0    0  0.00000000000E+00  0.00000000000E+00 -0.50199613988E+03  0.14000159296E+04  0.13069217569E+04 0.  0.
        1    1    3    3  502    0 -0.43605125962E+03 -0.82764532070E+02 -0.76476555376E+03  0.88422679276E+03  0.50400001928E-02 0.  1.
       -1    1    3    3    0  502  0.43605125962E+03  0.82764532070E+02  0.26276941388E+03  0.51578913684E+03  0.50400001928E-02 0. -1.
</event>
<event>
 5   0  0.1346593E-03  0.1274359E+04  0.7818609E-02  0.9050149E-01
        1   -1    0    0  501    0  0.00000000000E+00  0.00000000000E+00  0.45642884454E+03  0.45642884457E+03  0.50400001928E-02 0. -1.
       -1   -1    0    0    0  501  0.00000000000E+00  0.00000000000E+00 -0.88950971387E+03  0.88950971389E+03  0.50400001928E-02 0.  1.
    10030    2    1    2    0    0  0.00000000000E+00  0.00000000000E+00 -0.43308086933E+03  0.13459385585E+04  0.12743592758E+04 0.  0.
        2    1    3    3  502    0  0.36335177694E+03 -0.29615726393E+03 -0.67236539943E+03  0.81963947511E+03  0.25500000920E-02 0.  1.
       -2    1    3    3    0  502 -0.36335177694E+03  0.29615726393E+03  0.23928453010E+03  0.52629908336E+03  0.25500000920E-02 0. -1.
</event>
<event>
 5   0  0.2401211E-03  0.1300401E+04  0.7818609E-02  0.9029247E-01
       -2   -1    0    0    0  501  0.00000000000E+00  0.00000000000E+00  0.37725692121E+03  0.37725692122E+03  0.25500000920E-02 0.  1.
        2   -1    0    0  501    0  0.00000000000E+00  0.00000000000E+00 -0.11206169998E+04  0.11206169998E+04  0.25500000920E-02 0. -1.
    10030    2    1    2    0    0  0.00000000000E+00  0.00000000000E+00 -0.74336007858E+03  0.14978739210E+04  0.13004007370E+04 0.  0.
        4    1    3    3  502    0 -0.44654645632E+03  0.63872216355E+02  0.16769782093E+03  0.48125624123E+03  0.12699999809E+01 0.  1.
       -4    1    3    3    0  502  0.44654645632E+03 -0.63872216355E+02 -0.91105789950E+03  0.10166176798E+04  0.12699999809E+01 0. -1.
</event>
<event>
 5   0  0.1310461E-03  0.1314347E+04  0.7818609E-02  0.9018265E-01
       -1   -1    0    0    0  501  0.00000000000E+00  0.00000000000E+00  0.54787271243E+03  0.54787271245E+03  0.50400001928E-02 0. -1.
        1   -1    0    0  501    0  0.00000000000E+00  0.00000000000E+00 -0.78827938740E+03  0.78827938741E+03  0.50400001928E-02 0.  1.
    10030    2    1    2    0    0  0.00000000000E+00  0.00000000000E+00 -0.24040667497E+03  0.13361520999E+04  0.13143466303E+04 0.  0.
        4    1    3    3  502    0 -0.30145400966E+03 -0.46969682397E+03  0.23251912790E+03  0.60461259012E+03  0.12699999809E+01 0. -1.
       -4    1    3    3    0  502  0.30145400966E+03  0.46969682397E+03 -0.47292580287E+03  0.73153950974E+03  0.12699999809E+01 0.  1.
</event>
<event>
 5   0  0.9131250E-04  0.1361219E+04  0.7818609E-02  0.8982378E-01
       -4   -1    0    0    0  501  0.00000000000E+00  0.00000000000E+00  0.70950396021E+03  0.70950509685E+03  0.12699999809E+01 0.  1.
        4   -1    0    0  501    0  0.00000000000E+00  0.00000000000E+00 -0.65288988299E+03  0.65289111819E+03  0.12699999809E+01 0. -1.
    10030    2    1    2    0    0  0.00000000000E+00  0.00000000000E+00  0.56614077216E+02  0.13623962150E+04  0.13612194140E+04 0.  0.
        4    1    3    3  502    0  0.38772929421E+03 -0.89387309567E+02 -0.52435133901E+03  0.65823250932E+03  0.12699999809E+01 0. -1.
       -4    1    3    3    0  502 -0.38772929421E+03  0.89387309567E+02  0.58096541623E+03  0.70416370572E+03  0.12699999809E+01 0.  1.
</event>
<event>
 5   0  0.1387622E-03  0.1293591E+04  0.7818609E-02  0.9034663E-01
        1   -1    0    0  501    0  0.00000000000E+00  0.00000000000E+00  0.10851173604E+04  0.10851173605E+04  0.50400001928E-02 0. -1.
       -1   -1    0    0    0  501  0.00000000000E+00  0.00000000000E+00 -0.38552910959E+03  0.38552910962E+03  0.50400001928E-02 0.  1.
    10030    2    1    2    0    0  0.00000000000E+00  0.00000000000E+00  0.69958825086E+03  0.14706464701E+04  0.12935908624E+04 0.  0.
        3    1    3    3  502    0  0.60591370455E+03  0.14325643636E+02  0.93033087055E+02  0.61318170791E+03  0.10100000352E+00 0.  1.
       -3    1    3    3    0  502 -0.60591370455E+03 -0.14325643636E+02  0.60655516380E+03  0.85746476217E+03  0.10100000352E+00 0. -1.
</event>
<event>
 5   0  0.1346593E-03  0.1296119E+04  0.7818609E-02  0.9032648E-01
        1   -1    0    0  501    0  0.00000000000E+00  0.00000000000E+00  0.13252188395E+04  0.13252188395E+04  0.50400001928E-02 0.  1.
       -1   -1    0    0    0  501  0.00000000000E+00  0.00000000000E+00 -0.31691474967E+03  0.31691474971E+03  0.50400001928E-02 0. -1.
    10030    2    1    2    0    0  0.00000000000E+00  0.00000000000E+00  0.10083040899E+04  0.16421335892E+04  0.12961194340E+04 0.  0.
        2    1    3    3  502    0  0.91729320949E+02  0.22858696270E+03  0.12636055902E+04  0.12873870263E+04  0.25500000920E-02 0.  1.
       -2    1    3    3    0  502 -0.91729320949E+02 -0.22858696270E+03 -0.25530150036E+03  0.35474656295E+03  0.25500000920E-02 0. -1.
</event>
<event>
 5   0  0.1387622E-03  0.1307525E+04  0.7818609E-02  0.9023619E-01
        1   -1    0    0  501    0  0.00000000000E+00  0.00000000000E+00  0.77541112869E+03  0.77541112871E+03  0.50400001928E-02 0.  1.
       -1   -1    0    0    0  501  0.00000000000E+00  0.00000000000E+00 -0.55119863042E+03  0.55119863045E+03  0.50400001928E-02 0. -1.
    10030    2    1    2    0    0  0.00000000000E+00  0.00000000000E+00  0.22421249827E+03  0.13266097592E+04  0.13075252230E+04 0.  0.
        3    1    3    3  502    0 -0.12516454667E+02 -0.24073460106E+03  0.72867322094E+03  0.76751187802E+03  0.10100000352E+00 0.  1.
       -3    1    3    3    0  502  0.12516454667E+02  0.24073460106E+03 -0.50446072267E+03  0.55909788114E+03  0.10100000352E+00 0. -1.
</event>
<event>
 5   0  0.1332630E-03  0.1272797E+04  0.7818609E-02  0.9051420E-01
       -1   -1    0    0    0  501  0.00000000000E+00  0.00000000000E+00  0.53145209077E+03  0.53145209079E+03  0.50400001928E-02 0. -1.
        1   -1    0    0  501    0  0.00000000000E+00  0.00000000000E+00 -0.76206912498E+03  0.76206912500E+03  0.50400001928E-02 0.  1.
    10030    2    1    2    0    0  0.00000000000E+00  0.00000000000E+00 -0.23061703421E+03  0.12935212158E+04  0.12727972813E+04 0.  0.
        5    1    3    3  502    0  0.42829528063E+03 -0.64066906750E+01  0.36299587120E+03  0.56148551682E+03  0.46999998093E+01 0. -1.
       -5    1    3    3    0  502 -0.42829528063E+03  0.64066906750E+01 -0.59361290541E+03  0.73203569897E+03  0.46999998093E+01 0.  1.
</event>
<event>
 5   0  0.1332630E-03  0.1243439E+04  0.7818609E-02  0.9075662E-01
        1   -1    0    0  501    0  0.00000000000E+00  0.00000000000E+00  0.71672081276E+03  0.71672081277E+03  0.50400001928E-02 0.  1.
       -1   -1    0    0    0  501  0.00000000000E+00  0.00000000000E+00 -0.53931028977E+03  0.53931028980E+03  0.50400001928E-02 0. -1.
    10030    2    1    2    0    0  0.00000000000E+00  0.00000000000E+00  0.17741052298E+03  0.12560311026E+04  0.12434386342E+04 0.  0.
        5    1    3    3  502    0 -0.46291781815E+03  0.11404152676E+03 -0.31435248074E+03  0.57108488715E+03  0.46999998093E+01 0. -1.
       -5    1    3    3    0  502  0.46291781815E+03 -0.11404152676E+03  0.49176300372E+03  0.68494621542E+03  0.46999998093E+01 0.  1.
</event>
<event>
 5   0  0.1332630E-03  0.1304450E+04  0.7818609E-02  0.9026044E-01
       -1   -1    0    0    0  501  0.00000000000E+00  0.00000000000E+00  0.48507688219E+03  0.48507688222E+03  0.50400001928E-02 0.  1.
        1   -1    0    0  501    0  0.00000000000E+00  0.00000000000E+00 -0.87696862272E+03  0.87696862273E+03  0.50400001928E-02 0. -1.
    10030    2    1    2    0    0  0.00000000000E+00  0.00000000000E+00 -0.39189174052E+03  0.13620455050E+04  0.13044496239E+04 0.  0.
        5    1    3    3  502    0  0.23373589451E+03  0.16035573293E+03  0.41738088077E+03  0.50455457495E+03  0.46999998093E+01 0.  1.
       -5    1    3    3    0  502 -0.23373589451E+03 -0.16035573293E+03 -0.80927262130E+03  0.85749093001E+03  0.46999998093E+01 0. -1.
</event>
<event>
 5   0  0.2401211E-03  0.1256915E+04  0.7818609E-02  0.9064447E-01
        2   -1    0    0  501    0  0.00000000000E+00  0.00000000000E+00  0.43519928486E+03  0.43519928487E+03  0.25500000920E-02 0. -1.
       -2   -1    0    0    0  501  0.00000000000E+00  0.00000000000E+00 -0.90753574289E+03  0.90753574290E+03  0.25500000920E-02 0.  1.
    10030    2    1    2    0    0  0.00000000000E+00  0.00000000000E+00 -0.47233645804E+03  0.13427350278E+04  0.12569151225E+04 0.  0.
        4    1    3    3  502    0  0.20456612380E+03  0.56822891490E+03 -0.42189476095E+03  0.73670088975E+03  0.12699999809E+01 0. -1.
       -4    1    3    3    0  502 -0.20456612380E+03 -0.56822891490E+03 -0.50441697082E+02  0.60603413802E+03  0.12699999809E+01 0.  1.
</event>
<event>
 5   0  0.1310461E-03  0.1176688E+04  0.7818609E-02  0.9133509E-01
        1   -1    0    0  501    0  0.00000000000E+00  0.00000000000E+00  0.14806559119E+04  0.14806559119E+04  0.50400001928E-02 0. -1.
       -1   -1    0    0    0  501  0.00000000000E+00  0.00000000000E+00 -0.23378081393E+03  0.23378081399E+03  0.50400001928E-02 0.  1.
    10030    2    1    2    0    0  0.00000000000E+00  0.00000000000E+00  0.12468750980E+04  0.17144367259E+04  0.11766884792E+04 0.  0.
        4    1    3    3  502    0  0.38803230997E+03 -0.39307203589E+03  0.32815605522E+03  0.64246611464E+03  0.12699999809E+01 0. -1.
       -4    1    3    3    0  502 -0.38803230997E+03  0.39307203589E+03  0.91871904274E+03  0.10719706112E+04  0.12699999809E+01 0.  1.
</event>
<event>
 5   0  0.2478236E-03  0.1261260E+04  0.7818609E-02  0.9060863E-01
       -2   -1    0    0    0  501  0.00000000000E+00  0.00000000000E+00  0.17554447584E+03  0.17554447586E+03  0.25500000920E-02 0. -1.
        2   -1    0    0  501    0  0.00000000000E+00  0.00000000000E+00 -0.22654909988E+04  0.22654909988E+04  0.25500000920E-02 0.  1.
    10030    2    1    2    0    0  0.00000000000E+00  0.00000000000E+00 -0.20899465230E+04  0.24410354747E+04  0.12612603695E+04 0.  0.
        3    1    3    3  502    0 -0.20675102692E+03 -0.14193550571E+03  0.74887031208E+02  0.26172457385E+03  0.10100000352E+00 0. -1.
       -3    1    3    3    0  502  0.20675102692E+03  0.14193550571E+03 -0.21648335542E+04  0.21793109008E+04  0.10100000352E+00 0.  1.
</event>
<event>
 5   0  0.2334946E-03  0.1211721E+04  0.7818609E-02  0.9102659E-01
       -2   -1    0    0    0  501  0.00000000000E+00  0.00000000000E+00  0.16081512440E+04  0.16081512440E+04  0.25500000920E-02 0. -1.
        2   -1    0    0  501    0  0.00000000000E+00  0.00000000000E+00 -0.22825390027E+03  0.22825390028E+03  0.25500000920E-02 0.  1.
    10030    2    1    2    0    0  0.00000000000E+00  0.00000000000E+00  0.13798973437E+04  0.18364051443E+04  0.12117207495E+04 0.  0.
        1    1    3    3  502    0  0.53285123355E+02  0.58511989915E+03  0.91403368767E+03  0.10865828008E+04  0.50400001928E-02 0. -1.
       -1    1    3    3    0  502 -0.53285123355E+02 -0.58511989915E+03  0.46586365608E+03  0.74982234351E+03  0.50400001928E-02 0.  1.
</event>
<event>
 5   0  0.1310461E-03  0.1317315E+04  0.7818609E-02  0.9015946E-01
        1   -1    0    0  501    0  0.00000000000E+00  0.00000000000E+00  0.79524726517E+03  0.79524726519E+03  0.50400001928E-02 0.  1.
       -1   -1    0    0    0  501  0.00000000000E+00  0.00000000000E+00 -0.54552837625E+03  0.54552837627E+03  0.50400001928E-02 0. -1.
    10030    2    1    2    0    0  0.00000000000E+00  0.00000000000E+00  0.24971888892E+03  0.13407756415E+04  0.13173153750E+04 0.  0.
        4    1    3    3  502    0 -0.54636606749E+03 -0.34569633246E+03  0.25282239393E+03  0.69422086526E+03  0.12699999809E+01 0.  1.
       -4    1    3    3    0  502  0.54636606749E+03  0.34569633246E+03 -0.31035050057E+01  0.64655477620E+03  0.12699999809E+01 0. -1.
</event>
<event>
 5   0  0.2334946E-03  0.1306169E+04  0.7818609E-02  0.9024687E-01
        2   -1    0    0  501    0  0.00000000000E+00  0.00000000000E+00  0.13943293246E+04  0.13943293246E+04  0.25500000920E-02 0. -1.
       -2   -1    0    0    0  501  0.00000000000E+00  0.00000000000E+00 -0.30589576960E+03  0.30589576961E+03  0.25500000920E-02 0.  1.
    10030    2    1    2    0    0  0.00000000000E+00  0.00000000000E+00  0.10884335550E+04  0.17002250942E+04  0.13061691189E+04 0.  0.
        1    1    3    3  502    0 -0.37425410890E+03 -0.49532328750E+03  0.80813595430E+03  0.10190657574E+04  0.50400001928E-02 0. -1.
       -1    1    3    3    0  502  0.37425410890E+03  0.49532328750E+03  0.28029760066E+03  0.68115933681E+03  0.50400001928E-02 0.  1.
</event>
<event>
 5   0  0.2334946E-03  0.1309601E+04  0.7818609E-02  0.9021986E-01
       -2   -1    0    0    0  501  0.00000000000E+00  0.00000000000E+00  0.35879582967E+03  0.35879582968E+03  0.25500000920E-02 0.  1.
        2   -1    0    0  501    0  0.00000000000E+00  0.00000000000E+00 -0.11950081605E+04  0.11950081605E+04  0.25500000920E-02 0. -1.
    10030    2    1    2    0    0  0.00000000000E+00  0.00000000000E+00 -0.83621233083E+03  0.15538039902E+04  0.13096013812E+04 0.  0.
        1    1    3    3  502    0  0.30840260910E+03 -0.38574555828E+03 -0.92822263873E+03  0.10514319151E+04  0.50400001928E-02 0. -1.
       -1    1    3    3    0  502 -0.30840260910E+03  0.38574555828E+03  0.92010307900E+02  0.50237207507E+03  0.50400001928E-02 0.  1.
</event>
<event>
 5   0  0.1346593E-03  0.1301996E+04  0.7818609E-02  0.9027984E-01
       -1   -1    0    0    0  501  0.00000000000E+00  0.00000000000E+00  0.64852124020E+03  0.64852124022E+03  0.50400001928E-02 0. -1.
        1   -1    0    0  501    0  0.00000000000E+00  0.00000000000E+00 -0.65348397903E+03  0.65348397905E+03  0.50400001928E-02 0.  1.
    10030    2    1    2    0    0  0.00000000000E+00  0.00000000000E+00 -0.49627388320E+01  0.13020052193E+04  0.13019957612E+04 0.  0.
        2    1    3    3  502    0 -0.22554160534E+03  0.22910126050E+03  0.56359856559E+03  0.64884493251E+03  0.25500000920E-02 0. -1.
       -2    1    3    3    0  502  0.22554160534E+03 -0.22910126050E+03 -0.56856130442E+03  0.65316028675E+03  0.25500000920E-02 0.  1.
</event>
<event>
 5   0  0.2334946E-03  0.1306538E+04  0.7818609E-02  0.9024396E-01
        2   -1    0    0  501    0  0.00000000000E+00  0.00000000000E+00  0.11154600011E+04  0.11154600011E+04  0.25500000920E-02 0. -1.
       -2   -1    0    0    0  501  0.00000000000E+00  0.00000000000E+00 -0.38258694746E+03  0.38258694747E+03  0.25500000920E-02 0.  1.
    10030    2    1    2    0    0  0.00000000000E+00  0.00000000000E+00  0.73287305362E+03  0.14980469485E+04  0.13065380773E+04 0.  0.
        1    1    3    3  502    0 -0.17745512092E+03  0.58360494805E+03  0.63453803931E+03  0.88018383233E+03  0.50400001928E-02 0. -1.
       -1    1    3    3    0  502  0.17745512092E+03 -0.58360494805E+03  0.98335014301E+02  0.61786311622E+03  0.50400001928E-02 0.  1.
</event>
<event>
 5   0  0.1310461E-03  0.1300022E+04  0.7818609E-02  0.9029548E-01
       -1   -1    0    0    0  501  0.00000000000E+00  0.00000000000E+00  0.20526167701E+03  0.20526167707E+03  0.50400001928E-02 0. -1.
        1   -1    0    0  501    0  0.00000000000E+00  0.00000000000E+00 -0.20584171669E+04  0.20584171669E+04  0.50400001928E-02 0.  1.
    10030    2    1    2    0    0  0.00000000000E+00  0.00000000000E+00 -0.18531554899E+04  0.22636788440E+04  0.13000217840E+04 0.  0.
        4    1    3    3  502    0  0.13859479076E+03  0.33879919641E+02  0.17765737790E+03  0.22785987318E+03  0.12699999809E+01 0. -1.
       -4    1    3    3    0  502 -0.13859479076E+03 -0.33879919641E+02 -0.20308128678E+04  0.20358189708E+04  0.12699999809E+01 0.  1.
</event>
<event>
 5   0  0.9131250E-04  0.1307804E+04  0.7818609E-02  0.9023399E-01
       -4   -1    0    0    0  501  0.00000000000E+00  0.00000000000E+00  0.51968415150E+03  0.51968570331E+03  0.12699999809E+01 0. -1.
        4   -1    0    0  501    0  0.00000000000E+00  0.00000000000E+00 -0.82278109052E+03  0.82278207067E+03  0.12699999809E+01 0.  1.
    10030    2    1    2    0    0  0.00000000000E+00  0.00000000000E+00 -0.30309693902E+03  0.13424677740E+04  0.13078042551E+04 0.  0.
        3    1    3    3  502    0  0.42981049031E+03 -0.45980292516E+03  0.30441928959E+02  0.63014483161E+03  0.10100000352E+00 0. -1.
       -3    1    3    3    0  502 -0.42981049031E+03  0.45980292516E+03 -0.33353886798E+03  0.71232294237E+03  0.10100000352E+00 0.  1.
</event>
<event>
 5   0  0.1310461E-03  0.1296906E+04  0.7818609E-02  0.9032023E-01
        1   -1    0    0  501    0  0.00000000000E+00  0.00000000000E+00  0.10959015452E+04  0.10959015452E+04  0.50400001928E-02 0.  1.
       -1   -1    0    0    0  501  0.00000000000E+00  0.00000000000E+00 -0.38369415371E+03  0.38369415374E+03  0.50400001928E-02 0. -1.
    10030    2    1    2    0    0  0.00000000000E+00  0.00000000000E+00  0.71220739149E+03  0.14795956989E+04  0.12969055725E+04 0.  0.
        4    1    3    3  502    0 -0.60409396621E+03  0.13728792945E+03  0.57469766645E+03  0.84501864849E+03  0.12699999809E+01 0. -1.
       -4    1    3    3    0  502  0.60409396621E+03 -0.13728792945E+03  0.13750972504E+03  0.63457705046E+03  0.12699999809E+01 0.  1.
</event>
<event>
 5   0  0.2334946E-03  0.1305892E+04  0.7818609E-02  0.9024905E-01
        2   -1    0    0  501    0  0.00000000000E+00  0.00000000000E+00  0.25703882546E+04  0.25703882546E+04  0.25500000920E-02 0. -1.
       -2   -1    0    0    0  501  0.00000000000E+00  0.00000000000E+00 -0.16586551592E+03  0.16586551594E+03  0.25500000920E-02 0.  1.
    10030    2    1    2    0    0  0.00000000000E+00  0.00000000000E+00  0.24045227387E+04  0.27362537705E+04  0.13058924519E+04 0.  0.
        1    1    3    3  502    0  0.28517346906E+03  0.56869190631E+03  0.15102395062E+04  0.16387671457E+04  0.50400001928E-02 0. -1.
       -1    1    3    3    0  502 -0.28517346906E+03 -0.56869190631E+03  0.89428323244E+03  0.10974866248E+04  0.50400001928E-02 0.  1.
</event>
<event>
 5   0  0.1324721E-03  0.1341129E+04  0.7818609E-02  0.8997571E-01
        1   -1    0    0  501    0  0.00000000000E+00  0.00000000000E+00  0.19531016342E+04  0.19531016342E+04  0.50400001928E-02 0.  1.
       -1   -1    0    0    0  501  0.00000000000E+00  0.00000000000E+00 -0.23022703781E+03  0.23022703787E+03  0.50400001928E-02 0. -1.
    10030    2    1    2    0    0  0.00000000000E+00  0.00000000000E+00  0.17228745964E+04  0.21833286720E+04  0.13411290823E+04 0.  0.
        1    1    3    3  502    0 -0.25534223017E+03 -0.44926159544E+03  0.15571406505E+04  0.16406470191E+04  0.50400001928E-02 0.  1.
       -1    1    3    3    0  502  0.25534223017E+03  0.44926159544E+03  0.16573394584E+03  0.54268165297E+03  0.50400001928E-02 0. -1.
</event>
<event>
 5   0  0.1346593E-03  0.1302889E+04  0.7818609E-02  0.9027277E-01
       -1   -1    0    0    0  501  0.00000000000E+00  0.00000000000E+00  0.83296900195E+03  0.83296900197E+03  0.50400001928E-02 0. -1.
        1   -1    0    0  501    0  0.00000000000E+00  0.00000000000E+00 -0.50947870198E+03  0.50947870200E+03  0.50400001928E-02 0.  1.
    10030    2    1    2    0    0  0.00000000000E+00  0.00000000000E+00  0.32349029997E+03  0.13424477040E+04  0.13028890450E+04 0.  0.
        2    1    3    3  502    0  0.62989872712E+03 -0.53903192200E+02 -0.19556402769E+00  0.63220091649E+03  0.25500000920E-02 0.  1.
       -2    1    3    3    0  502 -0.62989872712E+03  0.53903192200E+02  0.32368586400E+03  0.71024678748E+03  0.25500000920E-02 0. -1.
</event>
<event>
 5   0  0.2361043E-03  0.1306109E+04  0.7818609E-02  0.9024735E-01
       -2   -1    0    0    0  501  0.00000000000E+00  0.00000000000E+00  0.70449650092E+03  0.70449650092E+03  0.25500000920E-02 0. -1.
        2   -1    0    0  501    0  0.00000000000E+00  0.00000000000E+00 -0.60536832942E+03  0.60536832943E+03  0.25500000920E-02 0.  1.
    10030    2    1    2    0    0  0.00000000000E+00  0.00000000000E+00  0.99128171494E+02  0.13098648304E+04  0.13061085251E+04 0.  0.
        2    1    3    3  502    0  0.22040468274E+03  0.51892421346E+02  0.66386864432E+03  0.70142185914E+03  0.25500000920E-02 0. -1.
       -2    1    3    3    0  502 -0.22040468274E+03 -0.51892421346E+02 -0.56474047282E+03  0.60844297121E+03  0.25500000920E-02 0.  1.
</event>
<event>
 5   0  0.2361043E-03  0.1308070E+04  0.7818609E-02  0.9023190E-01
       -2   -1    0    0    0  501  0.00000000000E+00  0.00000000000E+00  0.60049044516E+03  0.60049044516E+03  0.25500000920E-02 0.  1.
        2   -1    0    0  501    0  0.00000000000E+00  0.00000000000E+00 -0.71235417003E+03  0.71235417004E+03  0.25500000920E-02 0. -1.
    10030    2    1    2    0    0  0.00000000000E+00  0.00000000000E+00 -0.11186372488E+03  0.13128446152E+04  0.13080701398E+04 0.  0.
        2    1    3    3  502    0  0.29165950879E+03 -0.58229863673E+03  0.44950475573E+01  0.65127350388E+03  0.25500000920E-02 0.  1.
       -2    1    3    3    0  502 -0.29165950879E+03  0.58229863673E+03 -0.11635877243E+03  0.66157111132E+03  0.25500000920E-02 0. -1.
</event>
<event>
 5   0  0.2312105E-03  0.1305653E+04  0.7818609E-02  0.9025094E-01
       -2   -1    0    0    0  501  0.00000000000E+00  0.00000000000E+00  0.52903926264E+03  0.52903926265E+03  0.25500000920E-02 0. -1.
        2   -1    0    0  501    0  0.00000000000E+00  0.00000000000E+00 -0.80557803553E+03  0.80557803553E+03  0.25500000920E-02 0.  1.
    10030    2    1    2    0    0  0.00000000000E+00  0.00000000000E+00 -0.27653877288E+03  0.13346172982E+04  0.13056529553E+04 0.  0.
        5    1    3    3  502    0 -0.21503009679E+03  0.18659491136E+03 -0.73875753547E+03  0.79173252408E+03  0.46999998093E+01 0.  1.
       -5    1    3    3    0  502  0.21503009679E+03 -0.18659491136E+03  0.46221876259E+03  0.54288477410E+03  0.46999998093E+01 0. -1.
</event>
<event>
 5   0  0.2334946E-03  0.1313809E+04  0.7818609E-02  0.9018686E-01
       -2   -1    0    0    0  501  0.00000000000E+00  0.00000000000E+00  0.36609826974E+03  0.36609826975E+03  0.25500000920E-02 0. -1.
        2   -1    0    0  501    0  0.00000000000E+00  0.00000000000E+00 -0.11787089599E+04  0.11787089599E+04  0.25500000920E-02 0.  1.
    10030    2    1    2    0    0  0.00000000000E+00  0.00000000000E+00 -0.81261069013E+03  0.15448072296E+04  0.13138086782E+04 0.  0.
        1    1    3    3  502    0 -0.26510859031E+03  0.39579129477E+02 -0.11114802253E+04  0.11433448139E+04  0.50400001928E-02 0.  1.
       -1    1    3    3    0  502  0.26510859031E+03 -0.39579129477E+02  0.29886953519E+03  0.40146241573E+03  0.50400001928E-02 0. -1.
</event>
<event>
 5   0  0.1387622E-03  0.1332683E+04  0.7818609E-02  0.9004042E-01
       -1   -1    0    0    0  501  0.00000000000E+00  0.00000000000E+00  0.61816618459E+03  0.61816618461E+03  0.50400001928E-02 0. -1.
        1   -1    0    0  501    0  0.00000000000E+00  0.00000000000E+00 -0.71827096431E+03  0.71827096433E+03  0.50400001928E-02 0.  1.
    10030    2    1    2    0    0  0.00000000000E+00  0.00000000000E+00 -0.10010477972E+03  0.13364371489E+04  0.13326827402E+04 0.  0.
        3    1    3    3  502    0  0.64661021390E+03  0.15741889354E+03 -0.16411877902E+02  0.66569875822E+03  0.10100000352E+00 0. -1.
       -3    1    3    3    0  502 -0.64661021390E+03 -0.15741889354E+03 -0.83692901819E+02  0.67073839072E+03  0.10100000352E+00 0.  1.
</event>
<event>
 5   0  0.2401211E-03  0.1319193E+04  0.7818609E-02  0.9014482E-01
       -2   -1    0    0    0  501  0.00000000000E+00  0.00000000000E+00  0.46115009279E+03  0.46115009279E+03  0.25500000920E-02 0.  1.
        2   -1    0    0  501    0  0.00000000000E+00  0.00000000000E+00 -0.94344076008E+03  0.94344076008E+03  0.25500000920E-02 0. -1.
    10030    2    1    2    0    0  0.00000000000E+00  0.00000000000E+00 -0.48229066729E+03  0.14045908529E+04  0.13191933809E+04 0.  0.
        4    1    3    3  502    0  0.16548518951E+03 -0.53470331315E+03  0.13040463745E+03  0.57471728998E+03  0.12699999809E+01 0.  1.
       -4    1    3    3    0  502 -0.16548518951E+03  0.53470331315E+03 -0.61269530475E+03  0.82987356290E+03  0.12699999809E+01 0. -1.
</event>
<event>
 5   0  0.2312105E-03  0.1309229E+04  0.7818609E-02  0.9022278E-01
        2   -1    0    0  501    0  0.00000000000E+00  0.00000000000E+00  0.40212008150E+03  0.40212008151E+03  0.25500000920E-02 0.  1.
       -2   -1    0    0    0  501  0.00000000000E+00  0.00000000000E+00 -0.10656528317E+04  0.10656528317E+04  0.25500000920E-02 0. -1.
    10030    2    1    2    0    0  0.00000000000E+00  0.00000000000E+00 -0.66353275019E+03  0.14677729132E+04  0.13092293971E+04 0.  0.
        5    1    3    3  502    0 -0.58222384313E+03  0.24690273528E+03 -0.52120436941E+03  0.81952525824E+03  0.46999998093E+01 0.  1.
       -5    1    3    3    0  502  0.58222384313E+03 -0.24690273528E+03 -0.14232838078E+03  0.64824765497E+03  0.46999998093E+01 0. -1.
</event>
<event>
 5   0  0.2334946E-03  0.1304216E+04  0.7818609E-02  0.9026228E-01
        2   -1    0    0  501    0  0.00000000000E+00  0.00000000000E+00  0.45467498205E+03  0.45467498205E+03  0.25500000920E-02 0.  1.
       -2   -1    0    0    0  501  0.00000000000E+00  0.00000000000E+00 -0.93527268656E+03  0.93527268657E+03  0.25500000920E-02 0. -1.
    10030    2    1    2    0    0  0.00000000000E+00  0.00000000000E+00 -0.48059770452E+03  0.13899476686E+04  0.13042163808E+04 0.  0.
        1    1    3    3  502    0  0.47674440251E+03  0.18712128966E+03 -0.67049842088E+03  0.84372254610E+03  0.50400001928E-02 0. -1.
       -1    1    3    3    0  502 -0.47674440251E+03 -0.18712128966E+03  0.18990071636E+03  0.54622512252E+03  0.50400001928E-02 0.  1.
</event>
<event>
 5   0  0.1324721E-03  0.1292690E+04  0.7818609E-02  0.9035382E-01
        1   -1    0    0  501    0  0.00000000000E+00  0.00000000000E+00  0.81821914082E+03  0.81821914084E+03  0.50400001928E-02 0. -1.
       -1   -1    0    0    0  501  0.00000000000E+00  0.00000000000E+00 -0.51057450875E+03  0.51057450877E+03  0.50400001928E-02 0.  1.
    10030    2    1    2    0    0  0.00000000000E+00  0.00000000000E+00  0.30764463208E+03  0.13287936496E+04  0.12926899642E+04 0.  0.
        1    1    3    3  502    0 -0.31616629487E+03  0.39119554219E+03 -0.26342923957E+03  0.56779401417E+03  0.50400001928E-02 0.  1.
       -1    1    3    3    0  502  0.31616629487E+03 -0.39119554219E+03  0.57107387165E+03  0.76099963544E+03  0.50400001928E-02 0. -1.
</event>
<event>
 5   0  0.9131250E-04  0.1333768E+04  0.7818609E-02  0.9003207E-01
        4   -1    0    0  501    0  0.00000000000E+00  0.00000000000E+00  0.50361101026E+03  0.50361261159E+03  0.12699999809E+01 0. -1.
       -4   -1    0    0    0  501  0.00000000000E+00  0.00000000000E+00 -0.88308784590E+03  0.88308875911E+03  0.12699999809E+01 0.  1.
    10030    2    1    2    0    0  0.00000000000E+00  0.00000000000E+00 -0.37947683564E+03  0.13867013707E+04  0.13337683542E+04 0.  0.
        4    1    3    3  502    0 -0.15632456782E+03  0.50846652178E+02 -0.86169319381E+03  0.87723401991E+03  0.12699999809E+01 0.  1.
       -4    1    3    3    0  502  0.15632456782E+03 -0.50846652178E+02  0.48221635817E+03  0.50946735080E+03  0.12699999809E+01 0. -1.
</event>
<event>
 5   0  0.1346593E-03  0.1285671E+04  0.7818609E-02  0.9041006E-01
       -1   -1    0    0    0  501  0.00000000000E+00  0.00000000000E+00  0.40626579101E+03  0.40626579104E+03  0.50400001928E-02 0. -1.
        1   -1    0    0  501    0  0.00000000000E+00  0.00000000000E+00 -0.10171601342E+04  0.10171601342E+04  0.50400001928E-02 0.  1.
    10030    2    1    2    0    0  0.00000000000E+00  0.00000000000E+00 -0.61089434319E+03  0.14234259252E+04  0.12856708234E+04 0.  0.
        2    1    3    3  502    0  0.78345474757E+02 -0.23325254941E+03  0.35206418415E+03  0.42952759514E+03  0.25500000920E-02 0. -1.
       -2    1    3    3    0  502 -0.78345474757E+02  0.23325254941E+03 -0.96295852734E+03  0.99389833011E+03  0.25500000920E-02 0.  1.
</event>
<event>
 5   0  0.2361043E-03  0.1295938E+04  0.7818609E-02  0.9032792E-01
       -2   -1    0    0    0  501  0.00000000000E+00  0.00000000000E+00  0.51755075151E+03  0.51755075152E+03  0.25500000920E-02 0. -1.
        2   -1    0    0  501    0  0.00000000000E+00  0.00000000000E+00 -0.81125193954E+03  0.81125193954E+03  0.25500000920E-02 0.  1.
    10030    2    1    2    0    0  0.00000000000E+00  0.00000000000E+00 -0.29370118803E+03  0.13288026911E+04  0.12959383488E+04 0.  0.
        2    1    3    3  502    0  0.74437111180E+02  0.31337562015E+03  0.42965215210E+03  0.53697870967E+03  0.25500000920E-02 0. -1.
       -2    1    3    3    0  502 -0.74437111180E+02 -0.31337562015E+03 -0.72335334013E+03  0.79182398139E+03  0.25500000920E-02 0.  1.
</event>
<event>
 5   0  0.2401211E-03  0.1302338E+04  0.7818609E-02  0.9027714E-01
        2   -1    0    0  501    0  0.00000000000E+00  0.00000000000E+00  0.71653381186E+03  0.71653381186E+03  0.25500000920E-02 0.  1.
       -2   -1    0    0    0  501  0.00000000000E+00  0.00000000000E+00 -0.59176658160E+03  0.59176658161E+03  0.25500000920E-02 0. -1.
    10030    2    1    2    0    0  0.00000000000E+00  0.00000000000E+00  0.12476723025E+03  0.13083003935E+04  0.13023375361E+04 0.  0.
        4    1    3    3  502    0  0.23199972823E+03 -0.23913722955E+03  0.62441697324E+03  0.70774900764E+03  0.12699999809E+01 0.  1.
       -4    1    3    3    0  502 -0.23199972823E+03  0.23913722955E+03 -0.49964974298E+03  0.60055138583E+03  0.12699999809E+01 0. -1.
</event>
<event>
 5   0  0.2312105E-03  0.1281060E+04  0.7818609E-02  0.9044721E-01
       -2   -1    0    0    0  501  0.00000000000E+00  0.00000000000E+00  0.71136860004E+03  0.71136860004E+03  0.25500000920E-02 0. -1.
        2   -1    0    0  501    0  0.00000000000E+00  0.00000000000E+00 -0.57674600588E+03  0.57674600589E+03  0.25500000920E-02 0.  1.
    10030    2    1    2    0    0  0.00000000000E+00  0.00000000000E+00  0.13462259416E+03  0.12881146059E+04  0.12810604963E+04 0.  0.
        5    1    3    3  502    0 -0.56297870116E+03  0.27819435386E+03 -0.59557132597E+02  0.63079811233E+03  0.46999998093E+01 0.  1.
       -5    1    3    3    0  502  0.56297870116E+03 -0.27819435386E+03  0.19417972675E+03  0.65731649360E+03  0.46999998093E+01 0. -1.
</event>
<event>
 5   0  0.1310461E-03  0.1292550E+04  0.7818609E-02  0.9035494E-01
       -1   -1    0    0    0  501  0.00000000000E+00  0.00000000000E+00  0.98135760168E+03  0.98135760170E+03  0.50400001928E-02 0. -1.
        1   -1    0    0  501    0  0.00000000000E+00  0.00000000000E+00 -0.42560550462E+03  0.42560550465E+03  0.50400001928E-02 0.  1.
    10030    2    1    2    0    0  0.00000000000E+00  0.00000000000E+00  0.55575209706E+03  0.14069631063E+04  0.12925497241E+04 0.  0.
        4    1    3    3  502    0 -0.38415503211E+03 -0.12693046097E+03  0.82645344117E+03  0.92017027442E+03  0.12699999809E+01 0. -1.
       -4    1    3    3    0  502  0.38415503211E+03  0.12693046097E+03 -0.27070134411E+03  0.48679283193E+03  0.12699999809E+01 0.  1.
</event>
<event>
 5   0  0.1310461E-03  0.1261372E+04  0.7818609E-02  0.9060771E-01
        1   -1    0    0  501    0  0.00000000000E+00  0.00000000000E+00  0.16964455480E+03  0.16964455488E+03  0.50400001928E-02 0. -1.
       -1   -1    0    0    0  501  0.00000000000E+00  0.00000000000E+00 -0.23446947739E+04  0.23446947739E+04  0.50400001928E-02 0.  1.
    10030    2    1    2    0    0  0.00000000000E+00  0.00000000000E+00 -0.21750502190E+04  0.25143393287E+04  0.12613717948E+04 0.  0.
        4    1    3    3  502    0 -0.11013694639E+03  0.24459446711E+03  0.50261025417E+02  0.27291827326E+03  0.12699999809E+01 0. -1.
       -4    1    3    3    0  502  0.11013694639E+03 -0.24459446711E+03 -0.22253112445E+04  0.22414210555E+04  0.12699999809E+01 0.  1.
</event>
<event>
 5   0  0.2361043E-03  0.1288591E+04  0.7818609E-02  0.9038662E-01
        2   -1    0    0  501    0  0.00000000000E+00  0.00000000000E+00  0.21791452913E+04  0.21791452913E+04  0.25500000920E-02 0. -1.
       -2   -1    0    0    0  501  0.00000000000E+00  0.00000000000E+00 -0.19049527494E+03  0.19049527496E+03  0.25500000920E-02 0.  1.
    10030    2    1    2    0    0  0.00000000000E+00  0.00000000000E+00  0.19886500164E+04  0.23696405663E+04  0.12885912951E+04 0.  0.
        2    1    3    3  502    0 -0.31740492466E+03 -0.55309569097E+03  0.11634289261E+04  0.13267356917E+04  0.25500000920E-02 0. -1.
       -2    1    3    3    0  502  0.31740492466E+03  0.55309569097E+03  0.82522109029E+03  0.10429048746E+04  0.25500000920E-02 0.  1.
</event>
<event>
 5   0  0.2334946E-03  0.1296289E+04  0.7818609E-02  0.9032513E-01
       -2   -1    0    0    0  501  0.00000000000E+00  0.00000000000E+00  0.34834324473E+03  0.34834324473E+03  0.25500000920E-02 0. -1.
        2   -1    0    0  501    0  0.00000000000E+00  0.00000000000E+00 -0.12059694041E+04  0.12059694041E+04  0.25500000920E-02 0.  1.
    10030    2    1    2    0    0  0.00000000000E+00  0.00000000000E+00 -0.85762615935E+03  0.15543126488E+04  0.12962890037E+04 0.  0.
        1    1    3    3  502    0  0.56267901912E+03 -0.20971373206E+03 -0.72130156635E+03  0.93854327424E+03  0.50400001928E-02 0.  1.
       -1    1    3    3    0  502 -0.56267901912E+03  0.20971373206E+03 -0.13632459299E+03  0.61576937457E+03  0.50400001928E-02 0. -1.
</event>
<event>
 5   0  0.2334946E-03  0.1315027E+04  0.7818609E-02  0.9017732E-01
        2   -1    0    0  501    0  0.00000000000E+00  0.00000000000E+00  0.18736060717E+04  0.18736060717E+04  0.25500000920E-02 0. -1.
       -2   -1    0    0    0  501  0.00000000000E+00  0.00000000000E+00 -0.23074448060E+03  0.23074448062E+03  0.25500000920E-02 0.  1.
    10030    2    1    2    0    0  0.00000000000E+00  0.00000000000E+00  0.16428615911E+04  0.21043505523E+04  0.13150273912E+04 0.  0.
        1    1    3    3  502    0  0.62712923125E+03 -0.18069628538E+03  0.69359189187E+03  0.95237174082E+03  0.50400001928E-02 0. -1.
       -1    1    3    3    0  502 -0.62712923125E+03  0.18069628538E+03  0.94926969924E+03  0.11519788115E+04  0.50400001928E-02 0.  1.
</event>
<event>
 5   0  0.1346593E-03  0.1269597E+04  0.7818609E-02  0.9054028E-01
        1   -1    0    0  501    0  0.00000000000E+00  0.00000000000E+00  0.83562288856E+03  0.83562288857E+03  0.50400001928E-02 0.  1.
       -1   -1    0    0    0  501  0.00000000000E+00  0.00000000000E+00 -0.48223817489E+03  0.48223817492E+03  0.50400001928E-02 0. -1.
    10030    2    1    2    0    0  0.00000000000E+00  0.00000000000E+00  0.35338471367E+03  0.13178610635E+04  0.12695971908E+04 0.  0.
        2    1    3    3  502    0 -0.21099363180E+03  0.25952030527E+03  0.73673989502E+03  0.80910739363E+03  0.25500000920E-02 0.  1.
       -2    1    3    3    0  502  0.21099363180E+03 -0.25952030527E+03 -0.38335518136E+03  0.50875366985E+03  0.25500000920E-02 0. -1.
</event>
<event>
 5   0  0.2312105E-03  0.1292867E+04  0.7818609E-02  0.9035241E-01
       -2   -1    0    0    0  501  0.00000000000E+00  0.00000000000E+00  0.33005194502E+03  0.33005194503E+03  0.25500000920E-02 0.  1.
        2   -1    0    0  501    0  0.00000000000E+00  0.00000000000E+00 -0.12660920343E+04  0.12660920343E+04  0.25500000920E-02 0. -1.
    10030    2    1    2    0    0  0.00000000000E+00  0.00000000000E+00 -0.93604008923E+03  0.15961439793E+04  0.12928667967E+04 0.  0.
        5    1    3    3  502    0  0.54288939025E+03 -0.18185762589E+03 -0.83850219085E+03  0.10153369392E+04  0.46999998093E+01 0. -1.
       -5    1    3    3    0  502 -0.54288939025E+03  0.18185762589E+03 -0.97537898380E+02  0.58080704004E+03  0.46999998093E+01 0.  1.
</event>
<event>
 5   0  0.1310461E-03  0.1299770E+04  0.7818609E-02  0.9029748E-01
        1   -1    0    0  501    0  0.00000000000E+00  0.00000000000E+00  0.15142752617E+04  0.15142752617E+04  0.50400001928E-02 0. -1.
       -1   -1    0    0    0  501  0.00000000000E+00  0.00000000000E+00 -0.27891250068E+03  0.27891250073E+03  0.50400001928E-02 0.  1.
    10030    2    1    2    0    0  0.00000000000E+00  0.00000000000E+00  0.12353627610E+04  0.17931877624E+04  0.12997696719E+04 0.  0.
        4    1    3    3  502    0  0.10288070332E+03  0.57398971323E+03  0.10134664759E+04  0.11692581155E+04  0.12699999809E+01 0. -1.
       -4    1    3    3    0  502 -0.10288070332E+03 -0.57398971323E+03  0.22189628503E+03  0.62392964685E+03  0.12699999809E+01 0.  1.
</event>
<event>
 5   0  0.1324721E-03  0.1287234E+04  0.7818609E-02  0.9039750E-01
        1   -1    0    0  501    0  0.00000000000E+00  0.00000000000E+00  0.73627702554E+03  0.73627702555E+03  0.50400001928E-02 0.  1.
       -1   -1    0    0    0  501  0.00000000000E+00  0.00000000000E+00 -0.56261829346E+03  0.56261829348E+03  0.50400001928E-02 0. -1.
    10030    2    1    2    0    0  0.00000000000E+00  0.00000000000E+00  0.17365873208E+03  0.12988953190E+04  0.12872341258E+04 0.  0.
        1    1    3    3  502    0 -0.31830072940E+03  0.15329708905E+03 -0.45602902778E+03  0.57686898517E+03  0.50400001928E-02 0. -1.
       -1    1    3    3    0  502  0.31830072940E+03 -0.15329708905E+03  0.62968775986E+03  0.72202633386E+03  0.50400001928E-02 0.  1.
</event>
<event>
 5   0  0.1324721E-03  0.1262768E+04  0.7818609E-02  0.9059623E-01
        1   -1    0    0  501    0  0.00000000000E+00  0.00000000000E+00  0.10918365795E+04  0.10918365796E+04  0.50400001928E-02 0. -1.
       -1   -1    0    0    0  501  0.00000000000E+00  0.00000000000E+00 -0.36511463266E+03  0.36511463269E+03  0.50400001928E-02 0.  1.
    10030    2    1    2    0    0  0.00000000000E+00  0.00000000000E+00  0.72672194689E+03  0.14569512123E+04  0.12627676139E+04 0.  0.
        1    1    3    3  502    0  0.29140675635E+03  0.52187892826E+03  0.59803462196E+03  0.84552996546E+03  0.50400001928E-02 0. -1.
       -1    1    3    3    0  502 -0.29140675635E+03 -0.52187892826E+03  0.12868732493E+03  0.61142124679E+03  0.50400001928E-02 0.  1.
</event>
<event>
 5   0  0.1346593E-03  0.1296422E+04  0.7818609E-02  0.9032407E-01
       -1   -1    0    0    0  501  0.00000000000E+00  0.00000000000E+00  0.23661691325E+04  0.23661691325E+04  0.50400001928E-02 0.  1.
        1   -1    0    0  501    0  0.00000000000E+00  0.00000000000E+00 -0.17757720054E+03  0.17757720061E+03  0.50400001928E-02 0. -1.
    10030    2    1    2    0    0  0.00000000000E+00  0.00000000000E+00  0.21885919319E+04  0.25437463331E+04  0.12964222933E+04 0.  0.
        2    1    3    3  502    0 -0.34875589377E+03  0.34215327567E+03  0.19301674038E+04  0.19910413718E+04  0.25500000920E-02 0.  1.
       -2    1    3    3    0  502  0.34875589377E+03 -0.34215327567E+03  0.25842452811E+03  0.55270496128E+03  0.25500000920E-02 0. -1.
</event>
<event>
 5   0  0.9131250E-04  0.1282876E+04  0.7818609E-02  0.9043256E-01
        3   -1    0    0  501    0  0.00000000000E+00  0.00000000000E+00  0.30611873640E+03  0.30611875306E+03  0.10100000352E+00 0. -1.
       -3   -1    0    0    0  501  0.00000000000E+00  0.00000000000E+00 -0.13440629791E+04  0.13440629829E+04  0.10100000352E+00 0.  1.
    10030    2    1    2    0    0  0.00000000000E+00  0.00000000000E+00 -0.10379442427E+04  0.16501817360E+04  0.12828762648E+04 0.  0.
        5    1    3    3  502    0  0.20482364534E+03 -0.26636037922E+03  0.18383131370E+03  0.38303605471E+03  0.46999998093E+01 0. -1.
       -5    1    3    3    0  502 -0.20482364534E+03  0.26636037922E+03 -0.12217755564E+04  0.12671456813E+04  0.46999998093E+01 0.  1.
</event>
<event>
 5   0  0.1324721E-03  0.1319077E+04  0.7818609E-02  0.9014573E-01
        1   -1    0    0  501    0  0.00000000000E+00  0.00000000000E+00  0.53158722746E+03  0.53158722749E+03  0.50400001928E-02 0.  1.
       -1   -1    0    0    0  501  0.00000000000E+00  0.00000000000E+00 -0.81828662480E+03  0.81828662482E+03  0.50400001928E-02 0. -1.
    10030    2    1    2    0    0  0.00000000000E+00  0.00000000000E+00 -0.28669939734E+03  0.13498738523E+04  0.13190765227E+04 0.  0.
        1    1    3    3  502    0 -0.56518052530E+03 -0.71072790361E+02  0.19684275237E+03  0.60268352964E+03  0.50400001928E-02 0.  1.
       -1    1    3    3    0  502  0.56518052530E+03  0.71072790361E+02 -0.48354214971E+03  0.74719032266E+03  0.50400001928E-02 0. -1.
</event>
<event>
 5   0  0.2478236E-03  0.1379602E+04  0.7818609E-02  0.8968717E-01
       -2   -1    0    0    0  501  0.00000000000E+00  0.00000000000E+00  0.11517183418E+04  0.11517183418E+04  0.25500000920E-02 0.  1.
        2   -1    0    0  501    0  0.00000000000E+00  0.00000000000E+00 -0.41314401119E+03  0.41314401120E+03  0.25500000920E-02 0. -1.
    10030    2    1    2    0    0  0.00000000000E+00  0.00000000000E+00  0.73857433059E+03  0.15648623530E+04  0.13796021680E+04 0.  0.
        3    1    3    3  502    0  0.15911049534E+03 -0.66848087742E+03  0.43774663115E+03  0.81474226384E+03  0.10100000352E+00 0.  1.
       -3    1    3    3    0  502 -0.15911049534E+03  0.66848087742E+03  0.30082769944E+03  0.75012008915E+03  0.10100000352E+00 0. -1.
</event>
<event>
 5   0  0.1324721E-03  0.1255601E+04  0.7818609E-02  0.9065535E-01
       -1   -1    0    0    0  501  0.00000000000E+00  0.00000000000E+00  0.19177127523E+03  0.19177127529E+03  0.50400001928E-02 0.  1.
        1   -1    0    0  501    0  0.00000000000E+00  0.00000000000E+00 -0.20552252350E+04  0.20552252350E+04  0.50400001928E-02 0. -1.
    10030    2    1    2    0    0  0.00000000000E+00  0.00000000000E+00 -0.18634539598E+04  0.22469965103E+04  0.12556005165E+04 0.  0.
        1    1    3    3  502    0  0.11545749108E+03 -0.24824441445E+03  0.79309922978E+02  0.28503646338E+03  0.50400001928E-02 0.  1.
       -1    1    3    3    0  502 -0.11545749108E+03  0.24824441445E+03 -0.19427638828E+04  0.19619600469E+04  0.50400001928E-02 0. -1.
</event>
<event>
 5   0  0.2401211E-03  0.1298698E+04  0.7818609E-02  0.9030598E-01
       -2   -1    0    0    0  501  0.00000000000E+00  0.00000000000E+00  0.10010039015E+04  0.10010039015E+04  0.25500000920E-02 0. -1.
        2   -1    0    0  501    0  0.00000000000E+00  0.00000000000E+00 -0.42123142813E+03  0.42123142814E+03  0.25500000920E-02 0.  1.
    10030    2    1    2    0    0  0.00000000000E+00  0.00000000000E+00  0.57977247340E+03  0.14222353297E+04  0.12986982760E+04 0.  0.
        4    1    3    3  502    0  0.13272188765E+03 -0.54870719792E+03 -0.61506880716E+02  0.56787269506E+03  0.12699999809E+01 0.  1.
       -4    1    3    3    0  502 -0.13272188765E+03  0.54870719792E+03  0.64127935412E+03  0.85436263462E+03  0.12699999809E+01 0. -1.
</event>
<event>
 5   0  0.2478236E-03  0.1317035E+04  0.7818609E-02  0.9016164E-01
        2   -1    0    0  501    0  0.00000000000E+00  0.00000000000E+00  0.67951696686E+03  0.67951696687E+03  0.25500000920E-02 0.  1.
       -2   -1    0    0    0  501  0.00000000000E+00  0.00000000000E+00 -0.63816683186E+03  0.63816683187E+03  0.25500000920E-02 0. -1.
    10030    2    1    2    0    0  0.00000000000E+00  0.00000000000E+00  0.41350135001E+02  0.13176837987E+04  0.13170348362E+04 0.  0.
        3    1    3    3  502    0 -0.50254194989E+03  0.29533798926E+03  0.32721180824E+03  0.66846130550E+03  0.10100000352E+00 0.  1.
       -3    1    3    3    0  502  0.50254194989E+03 -0.29533798926E+03 -0.28586167324E+03  0.64922249324E+03  0.10100000352E+00 0. -1.
</event>
<event>
 5   0  0.2361043E-03  0.1081121E+04  0.7818609E-02  0.9223790E-01
        2   -1    0    0  501    0  0.00000000000E+00  0.00000000000E+00  0.88169056701E+03  0.88169056701E+03  0.25500000920E-02 0.  1.
       -2   -1    0    0    0  501  0.00000000000E+00  0.00000000000E+00 -0.33141518500E+03  0.33141518501E+03  0.25500000920E-02 0. -1.
    10030    2    1    2    0    0  0.00000000000E+00  0.00000000000E+00  0.55027538201E+03  0.12131057520E+04  0.10811209782E+04 0.  0.
        2    1    3    3  502    0 -0.38871322955E+01  0.40650024556E+03 -0.12465738499E+03  0.42520233193E+03  0.25500000920E-02 0. -1.
       -2    1    3    3    0  502  0.38871322955E+01 -0.40650024556E+03  0.67493276699E+03  0.78790342010E+03  0.25500000920E-02 0.  1.
</event>
<event>
 5   0  0.1332630E-03  0.1300993E+04  0.7818609E-02  0.9028778E-01
       -1   -1    0    0    0  501  0.00000000000E+00  0.00000000000E+00  0.89304246727E+03  0.89304246728E+03  0.50400001928E-02 0.  1.
        1   -1    0    0  501    0  0.00000000000E+00  0.00000000000E+00 -0.47382460035E+03  0.47382460037E+03  0.50400001928E-02 0. -1.
    10030    2    1    2    0    0  0.00000000000E+00  0.00000000000E+00  0.41921786692E+03  0.13668670677E+04  0.13009926828E+04 0.  0.
        5    1    3    3  502    0 -0.10577106499E+03  0.35424966565E+03 -0.35269429318E+03  0.51097524230E+03  0.46999998093E+01 0. -1.
       -5    1    3    3    0  502  0.10577106499E+03 -0.35424966565E+03  0.77191216010E+03  0.85589182536E+03  0.46999998093E+01 0.  1.
</event>
<event>
 5   0  0.1324721E-03  0.1306774E+04  0.7818609E-02  0.9024210E-01
       -1   -1    0    0    0  501  0.00000000000E+00  0.00000000000E+00  0.42606786768E+03  0.42606786771E+03  0.50400001928E-02 0.  1.
        1   -1    0    0  501    0  0.00000000000E+00  0.00000000000E+00 -0.10019872824E+04  0.10019872824E+04  0.50400001928E-02 0. -1.
    10030    2    1    2    0    0  0.00000000000E+00  0.00000000000E+00 -0.57591941475E+03  0.14280551501E+04  0.13067740201E+04 0.  0.
        1    1    3    3  502    0  0.64729218948E+03  0.42845818840E+02 -0.20266704352E+03  0.67962995321E+03  0.50400001928E-02 0. -1.
       -1    1    3    3    0  502 -0.64729218948E+03 -0.42845818840E+02 -0.37325237123E+03  0.74842519694E+03  0.50400001928E-02 0.  1.
</event>
<event>
 5   0  0.2401211E-03  0.1282356E+04  0.7818609E-02  0.9043675E-01
        2   -1    0    0  501    0  0.00000000000E+00  0.00000000000E+00  0.20763980860E+04  0.20763980860E+04  0.25500000920E-02 0. -1.
       -2   -1    0    0    0  501  0.00000000000E+00  0.00000000000E+00 -0.19799158877E+03  0.19799158879E+03  0.25500000920E-02 0.  1.
    10030    2    1    2    0    0  0.00000000000E+00  0.00000000000E+00  0.18784064972E+04  0.22743896747E+04  0.12823562001E+04 0.  0.
        4    1    3    3  502    0  0.18669933806E+03 -0.41626220218E+03  0.17382634211E+04  0.17971344407E+04  0.12699999809E+01 0. -1.
       -4    1    3    3    0  502 -0.18669933806E+03  0.41626220218E+03  0.14014307610E+03  0.47725523410E+03  0.12699999809E+01 0.  1.
</event>
<event>
 5   0  0.2401211E-03  0.1306626E+04  0.7818609E-02  0.9024327E-01
       -2   -1    0    0    0  501  0.00000000000E+00  0.00000000000E+00  0.10110809276E+04  0.10110809276E+04  0.25500000920E-02 0. -1.
        2   -1    0    0  501    0  0.00000000000E+00  0.00000000000E+00 -0.42214024787E+03  0.42214024788E+03  0.25500000920E-02 0.  1.
    10030    2    1    2    0    0  0.00000000000E+00  0.00000000000E+00  0.58894067968E+03  0.14332211754E+04  0.13066261185E+04 0.  0.
        4    1    3    3  502    0  0.59168138824E+03 -0.87438054119E+01  0.59815756211E+03  0.84140204500E+03  0.12699999809E+01 0. -1.
       -4    1    3    3    0  502 -0.59168138824E+03  0.87438054119E+01 -0.92168824282E+01  0.59181913043E+03  0.12699999809E+01 0.  1.
</event>
<event>
 5   0  0.2312105E-03  0.1305050E+04  0.7818609E-02  0.9025570E-01
       -2   -1    0    0    0  501  0.00000000000E+00  0.00000000000E+00  0.38739940774E+03  0.38739940775E+03  0.25500000920E-02 0.  1.
        2   -1    0    0  501    0  0.00000000000E+00  0.00000000000E+00 -0.10990959547E+04  0.10990959547E+04  0.25500000920E-02 0. -1.
    10030    2    1    2    0    0  0.00000000000E+00  0.00000000000E+00 -0.71169654697E+03  0.14864953625E+04  0.13050503774E+04 0.  0.
        5    1    3    3  502    0 -0.13358155944E+03 -0.45357185491E+03 -0.86802766703E+03  0.98846627728E+03  0.46999998093E+01 0. -1.
       -5    1    3    3    0  502  0.13358155944E+03  0.45357185491E+03  0.15633112006E+03  0.49802908518E+03  0.46999998093E+01 0.  1.
</event>
<event>
 5   0  0.2478236E-03  0.1301441E+04  0.7818609E-02  0.9028423E-01
        2   -1    0    0  501    0  0.00000000000E+00  0.00000000000E+00  0.58851957450E+03  0.58851957451E+03  0.25500000920E-02 0.  1.
       -2   -1    0    0    0  501  0.00000000000E+00  0.00000000000E+00 -0.71949567762E+03  0.71949567762E+03  0.25500000920E-02 0. -1.
    10030    2    1    2    0    0  0.00000000000E+00  0.00000000000E+00 -0.13097610311E+03  0.13080152521E+04  0.13014411858E+04 0.  0.
        3    1    3    3  502    0  0.10981421395E+03  0.85649677600E+02  0.57336599892E+03  0.59003695458E+03  0.10100000352E+00 0.  1.
       -3    1    3    3    0  502 -0.10981421395E+03 -0.85649677600E+02 -0.70434210203E+03  0.71797829755E+03  0.10100000352E+00 0. -1.
</event>
<event>
 5   0  0.2401211E-03  0.1339128E+04  0.7818609E-02  0.8999099E-01
       -2   -1    0    0    0  501  0.00000000000E+00  0.00000000000E+00  0.70601373671E+03  0.70601373671E+03  0.25500000920E-02 0. -1.
        2   -1    0    0  501    0  0.00000000000E+00  0.00000000000E+00 -0.63499650163E+03  0.63499650163E+03  0.25500000920E-02 0.  1.
    10030    2    1    2    0    0  0.00000000000E+00  0.00000000000E+00  0.71017235081E+02  0.13410102383E+04  0.13391284523E+04 0.  0.
        4    1    3    3  502    0  0.18643546760E+03 -0.68637066014E+02  0.67581734168E+03  0.70441459569E+03  0.12699999809E+01 0. -1.
       -4    1    3    3    0  502 -0.18643546760E+03  0.68637066014E+02 -0.60480010659E+03  0.63659564265E+03  0.12699999809E+01 0.  1.
</event>
<event>
 5   0  0.1332630E-03  0.1313349E+04  0.7818609E-02  0.9019046E-01
       -1   -1    0    0    0  501  0.00000000000E+00  0.00000000000E+00  0.42296831737E+03  0.42296831740E+03  0.50400001928E-02 0. -1.
        1   -1    0    0  501    0  0.00000000000E+00  0.00000000000E+00 -0.10195122414E+04  0.10195122414E+04  0.50400001928E-02 0.  1.
    10030    2    1    2    0    0  0.00000000000E+00  0.00000000000E+00 -0.59654392400E+03  0.14424805588E+04  0.13133489670E+04 0.  0.
        5    1    3    3  502    0  0.37311300213E+03 -0.22063098096E+03 -0.84003326038E+03  0.94528795119E+03  0.46999998093E+01 0.  1.
       -5    1    3    3    0  502 -0.37311300213E+03  0.22063098096E+03  0.24348933639E+03  0.49719260759E+03  0.46999998093E+01 0. -1.
</event>
<event>
 5   0  0.1346593E-03  0.1298052E+04  0.7818609E-02  0.9031111E-01
        1   -1    0    0  501    0  0.00000000000E+00  0.00000000000E+00  0.17066729206E+04  0.17066729206E+04  0.50400001928E-02 0. -1.
       -1   -1    0    0    0  501  0.00000000000E+00  0.00000000000E+00 -0.24681647580E+03  0.24681647585E+03  0.50400001928E-02 0.  1.
    10030    2    1    2    0    0  0.00000000000E+00  0.00000000000E+00  0.14598564448E+04  0.19534893965E+04  0.12980523805E+04 0.  0.
        2    1    3    3  502    0 -0.56202524932E+03 -0.13887590246E+03  0.11714581308E+04  0.13067031221E+04  0.25500000920E-02 0. -1.
       -2    1    3    3    0  502  0.56202524932E+03  0.13887590246E+03  0.28839831404E+03  0.64678627436E+03  0.25500000920E-02 0.  1.
</event>
<event>
 5   0  0.9131250E-04  0.1295260E+04  0.7818609E-02  0.9033332E-01
        3   -1    0    0  501    0  0.00000000000E+00  0.00000000000E+00  0.10347755652E+04  0.10347755702E+04  0.10100000352E+00 0. -1.
       -3   -1    0    0    0  501  0.00000000000E+00  0.00000000000E+00 -0.40532908809E+03  0.40532910068E+03  0.10100000352E+00 0.  1.
    10030    2    1    2    0    0  0.00000000000E+00  0.00000000000E+00  0.62944647714E+03  0.14401046708E+04  0.12952600493E+04 0.  0.
        3    1    3    3  502    0  0.10920517284E+03 -0.78443760457E+02 -0.38963931277E+03  0.41218684790E+03  0.10100000352E+00 0.  1.
       -3    1    3    3    0  502 -0.10920517284E+03  0.78443760457E+02  0.10190857899E+04  0.10279178229E+04  0.10100000352E+00 0. -1.
</event>
<event>
 5   0  0.2401211E-03  0.1270546E+04  0.7818609E-02  0.9053254E-01
        2   -1    0    0  501    0  0.00000000000E+00  0.00000000000E+00  0.86075408013E+03  0.86075408013E+03  0.25500000920E-02 0.  1.
       -2   -1    0    0    0  501  0.00000000000E+00  0.00000000000E+00 -0.46885827932E+03  0.46885827933E+03  0.25500000920E-02 0. -1.
    10030    2    1    2    0    0  0.00000000000E+00  0.00000000000E+00  0.39189580081E+03  0.13296123595E+04  0.12705458306E+04 0.  0.
        4    1    3    3  502    0 -0.47387811563E+03 -0.28616190659E+03  0.52207822945E+03  0.76093126879E+03  0.12699999809E+01 0.  1.
       -4    1    3    3    0  502  0.47387811563E+03  0.28616190659E+03 -0.13018242864E+03  0.56868109067E+03  0.12699999809E+01 0. -1.
</event>
<event>
 5   0  0.2478236E-03  0.1104365E+04  0.7818609E-02  0.9200947E-01
       -2   -1    0    0    0  501  0.00000000000E+00  0.00000000000E+00  0.49211304101E+03  0.49211304101E+03  0.25500000920E-02 0.  1.
        2   -1    0    0  501    0  0.00000000000E+00  0.00000000000E+00 -0.61958478751E+03  0.61958478751E+03  0.25500000920E-02 0. -1.
    10030    2    1    2    0    0  0.00000000000E+00  0.00000000000E+00 -0.12747174650E+03  0.11116978285E+04  0.11043654358E+04 0.  0.
        3    1    3    3  502    0  0.16525388411E+03 -0.30554941905E+03  0.36834170496E+03  0.50630516046E+03  0.10100000352E+00 0.  1.
       -3    1    3    3    0  502 -0.16525388411E+03  0.30554941905E+03 -0.49581345146E+03  0.60539266807E+03  0.10100000352E+00 0. -1.
</event>
<event>
 5   0  0.1332630E-03  0.1316189E+04  0.7818609E-02  0.9016825E-01
        1   -1    0    0  501    0  0.00000000000E+00  0.00000000000E+00  0.31362558607E+03  0.31362558611E+03  0.50400001928E-02 0.  1.
       -1   -1    0    0    0  501  0.00000000000E+00  0.00000000000E+00 -0.13809089852E+04  0.13809089852E+04  0.50400001928E-02 0. -1.
    10030    2    1    2    0    0  0.00000000000E+00  0.00000000000E+00 -0.10672833992E+04  0.16945345714E+04  0.13161890287E+04 0.  0.
        5    1    3    3  502    0  0.19605638330E+03  0.56077919391E+03 -0.89814140252E+03  0.10768432935E+04  0.46999998093E+01 0. -1.
       -5    1    3    3    0  502 -0.19605638330E+03 -0.56077919391E+03 -0.16914199663E+03  0.61769127789E+03  0.46999998093E+01 0.  1.
</event>
<event>
 5   0  0.2361043E-03  0.1300898E+04  0.7818609E-02  0.9028854E-01
        2   -1    0    0  501    0  0.00000000000E+00  0.00000000000E+00  0.19098849606E+04  0.19098849606E+04  0.25500000920E-02 0. -1.
       -2   -1    0    0    0  501  0.00000000000E+00  0.00000000000E+00 -0.22152308760E+03  0.22152308761E+03  0.25500000920E-02 0.  1.
    10030    2    1    2    0    0  0.00000000000E+00  0.00000000000E+00  0.16883618730E+04  0.21314080483E+04  0.13008975570E+04 0.  0.
        2    1    3    3  502    0  0.48704921993E+02 -0.39526166016E+03  0.15844468023E+01  0.39825426538E+03  0.25500000920E-02 0.  1.
       -2    1    3    3    0  502 -0.48704921993E+02  0.39526166016E+03  0.16867774262E+04  0.17331537829E+04  0.25500000920E-02 0. -1.
</event>
<event>
 5   0  0.2401211E-03  0.1294596E+04  0.7818609E-02  0.9033862E-01
        2   -1    0    0  501    0  0.00000000000E+00  0.00000000000E+00  0.11049416136E+04  0.11049416136E+04  0.25500000920E-02 0. -1.
       -2   -1    0    0    0  501  0.00000000000E+00  0.00000000000E+00 -0.37920078205E+03  0.37920078206E+03  0.25500000920E-02 0.  1.
    10030    2    1    2    0    0  0.00000000000E+00  0.00000000000E+00  0.72574083152E+03  0.14841423956E+04  0.12945960358E+04 0.  0.
        4    1    3    3  502    0  0.23641774950E+03  0.44764660347E+03  0.82530622841E+03  0.96820081462E+03  0.12699999809E+01 0. -1.
       -4    1    3    3    0  502 -0.23641774950E+03 -0.44764660347E+03 -0.99565396886E+02  0.51594158102E+03  0.12699999809E+01 0.  1.
</event>
<event>
 5   0  0.1324721E-03  0.1255628E+04  0.7818609E-02  0.9065512E-01
        1   -1    0    0  501    0  0.00000000000E+00  0.00000000000E+00  0.71251126593E+03  0.71251126594E+03  0.50400001928E-02 0. -1.
       -1   -1    0    0    0  501  0.00000000000E+00  0.00000000000E+00 -0.55318489589E+03  0.55318489591E+03  0.50400001928E-02 0.  1.
    10030    2    1    2    0    0  0.00000000000E+00  0.00000000000E+00  0.15932637004E+03  0.12656961619E+04  0.12556280827E+04 0.  0.
        1    1    3    3  502    0 -0.38980776487E+03  0.48213909774E+03  0.17915754540E+03  0.64537247324E+03  0.50400001928E-02 0. -1.
       -1    1    3    3    0  502  0.38980776487E+03 -0.48213909774E+03 -0.19831175366E+02  0.62032368862E+03  0.50400001928E-02 0.  1.
</event>
<event>
 5   0  0.2361043E-03  0.1317390E+04  0.7818609E-02  0.9015888E-01
       -2   -1    0    0    0  501  0.00000000000E+00  0.00000000000E+00  0.54946099347E+03  0.54946099348E+03  0.25500000920E-02 0. -1.
        2   -1    0    0  501    0  0.00000000000E+00  0.00000000000E+00 -0.78964458915E+03  0.78964458915E+03  0.25500000920E-02 0.  1.
    10030    2    1    2    0    0  0.00000000000E+00  0.00000000000E+00 -0.24018359567E+03  0.13391055826E+04  0.13173896925E+04 0.  0.
        2    1    3    3  502    0 -0.74911669374E+02  0.56047943865E+03 -0.46349184939E+03  0.73114543958E+03  0.25500000920E-02 0. -1.
       -2    1    3    3    0  502  0.74911669374E+02 -0.56047943865E+03  0.22330825371E+03  0.60796014305E+03  0.25500000920E-02 0.  1.
</event>
<event>
 5   0  0.1332630E-03  0.1515364E+04  0.7818609E-02  0.8874300E-01
        1   -1    0    0  501    0  0.00000000000E+00  0.00000000000E+00  0.11257265261E+04  0.11257265261E+04  0.50400001928E-02 0. -1.
       -1   -1    0    0    0  501  0.00000000000E+00  0.00000000000E+00 -0.50996605820E+03  0.50996605823E+03  0.50400001928E-02 0.  1.
    10030    2    1    2    0    0  0.00000000000E+00  0.00000000000E+00  0.61576046786E+03  0.16356925843E+04  0.15153644039E+04 0.  0.
        5    1    3    3  502    0 -0.58631241309E+03  0.31173307821E+03  0.70170862997E+03  0.96610395360E+03  0.46999998093E+01 0. -1.
       -5    1    3    3    0  502  0.58631241309E+03 -0.31173307821E+03 -0.85948162107E+02  0.66958863070E+03  0.46999998093E+01 0.  1.
</event>
<event>
 5   0  0.9131250E-04  0.1330719E+04  0.7818609E-02  0.9005553E-01
        3   -1    0    0  501    0  0.00000000000E+00  0.00000000000E+00  0.83436205165E+03  0.83436205777E+03  0.10100000352E+00 0. -1.
       -3   -1    0    0    0  501  0.00000000000E+00  0.00000000000E+00 -0.53058930031E+03  0.53058930992E+03  0.10100000352E+00 0.  1.
    10030    2    1    2    0    0  0.00000000000E+00  0.00000000000E+00  0.30377275134E+03  0.13649513677E+04  0.13307194865E+04 0.  0.
        1    1    3    3  502    0  0.38749761941E+03  0.53231706265E+03  0.25020475662E+03  0.70435664297E+03  0.50400001928E-02 0.  1.
       -1    1    3    3    0  502 -0.38749761941E+03 -0.53231706265E+03  0.53567994727E+02  0.66059472472E+03  0.50400001928E-02 0. -1.
</event>
<event>
 5   0  0.1324721E-03  0.1314418E+04  0.7818609E-02  0.9018209E-01
        1   -1    0    0  501    0  0.00000000000E+00  0.00000000000E+00  0.75713665265E+03  0.75713665267E+03  0.50400001928E-02 0.  1.
       -1   -1    0    0    0  501  0.00000000000E+00  0.00000000000E+00 -0.57047006632E+03  0.57047006634E+03  0.50400001928E-02 0. -1.
    10030    2    1    2    0    0  0.00000000000E+00  0.00000000000E+00  0.18666658633E+03  0.13276067190E+04  0.13144181929E+04 0.  0.
        1    1    3    3  502    0 -0.15904424349E+02 -0.22221022809E+03  0.71783598480E+03  0.75161082834E+03  0.50400001928E-02 0.  1.
       -1    1    3    3    0  502  0.15904424349E+02  0.22221022809E+03 -0.53116939846E+03  0.57599589067E+03  0.50400001928E-02 0. -1.
</event>
<event>
 5   0  0.2312105E-03  0.1299673E+04  0.7818609E-02  0.9029825E-01
       -2   -1    0    0    0  501  0.00000000000E+00  0.00000000000E+00  0.23711284398E+03  0.23711284400E+03  0.25500000920E-02 0. -1.
        2   -1    0    0  501    0  0.00000000000E+00  0.00000000000E+00 -0.17809550322E+04  0.17809550322E+04  0.25500000920E-02 0.  1.
    10030    2    1    2    0    0  0.00000000000E+00  0.00000000000E+00 -0.15438421882E+04  0.20180678762E+04  0.12996727476E+04 0.  0.
        5    1    3    3  502    0  0.34458938830E+03 -0.26845962521E+03 -0.24899799795E+02  0.43755514729E+03  0.46999998093E+01 0. -1.
       -5    1    3    3    0  502 -0.34458938830E+03  0.26845962521E+03 -0.15189423884E+04  0.15805127289E+04  0.46999998093E+01 0.  1.
</event>
<event>
 5   0  0.1332630E-03  0.1299261E+04  0.7818609E-02  0.9030151E-01
        1   -1    0    0  501    0  0.00000000000E+00  0.00000000000E+00  0.16352078392E+04  0.16352078392E+04  0.50400001928E-02 0.  1.
       -1   -1    0    0    0  501  0.00000000000E+00  0.00000000000E+00 -0.25808328411E+03  0.25808328416E+03  0.50400001928E-02 0. -1.
    10030    2    1    2    0    0  0.00000000000E+00  0.00000000000E+00  0.13771245551E+04  0.18932911234E+04  0.12992610352E+04 0.  0.
        5    1    3    3  502    0 -0.24817330166E+03 -0.33159904960E+03  0.14178204940E+04  0.14770866462E+04  0.46999998093E+01 0.  1.
       -5    1    3    3    0  502  0.24817330166E+03  0.33159904960E+03 -0.40695938874E+02  0.41620447714E+03  0.46999998093E+01 0. -1.
</event>
<event>
 5   0  0.2478236E-03  0.1307707E+04  0.7818609E-02  0.9023476E-01
        2   -1    0    0  501    0  0.00000000000E+00  0.00000000000E+00  0.16487260913E+04  0.16487260913E+04  0.25500000920E-02 0. -1.
       -2   -1    0    0    0  501  0.00000000000E+00  0.00000000000E+00 -0.25930575653E+03  0.25930575655E+03  0.25500000920E-02 0.  1.
    10030    2    1    2    0    0  0.00000000000E+00  0.00000000000E+00  0.13894203347E+04  0.19080318478E+04  0.13077066436E+04 0.  0.
        3    1    3    3  502    0  0.11633473463E+03 -0.54206530245E+03  0.12004734369E+04  0.13223104951E+04  0.10100000352E+00 0. -1.
       -3    1    3    3    0  502 -0.11633473463E+03  0.54206530245E+03  0.18894689782E+03  0.58572135269E+03  0.10100000352E+00 0.  1.
</event>
<event>
 5   0  0.1324721E-03  0.1242478E+04  0.7818609E-02  0.9076467E-01
        1   -1    0    0  501    0  0.00000000000E+00  0.00000000000E+00  0.13478782524E+04  0.13478782524E+04  0.50400001928E-02 0.  1.
       -1   -1    0    0    0  501  0.00000000000E+00  0.00000000000E+00 -0.28633016405E+03  0.28633016410E+03  0.50400001928E-02 0. -1.
    10030    2    1    2    0    0  0.00000000000E+00  0.00000000000E+00  0.10615480883E+04  0.16342084165E+04  0.12424784926E+04 0.  0.
        1    1    3    3  502    0 -0.21084033648E+03  0.57348532536E+03  0.67840890940E+03  0.91300477232E+03  0.50400001928E-02 0.  1.
       -1    1    3    3    0  502  0.21084033648E+03 -0.57348532536E+03  0.38313917890E+03  0.72120364415E+03  0.50400001928E-02 0. -1.
</event>
<event>
 5   0  0.1387622E-03  0.1295990E+04  0.7818609E-02  0.9032751E-01
        1   -1    0    0  501    0  0.00000000000E+00  0.00000000000E+00  0.57350150450E+03  0.57350150452E+03  0.50400001928E-02 0. -1.
       -1   -1    0    0    0  501  0.00000000000E+00  0.00000000000E+00 -0.73216444870E+03  0.73216444872E+03  0.50400001928E-02 0.  1.
    10030    2    1    2    0    0  0.00000000000E+00  0.00000000000E+00 -0.15866294420E+03  0.13056659532E+04  0.12959898347E+04 0.  0.
        3    1    3    3  502    0  0.34142786826E+03 -0.42023413704E+03 -0.43797767128E+03  0.69641522808E+03  0.10100000352E+00 0.  1.
       -3    1    3    3    0  502 -0.34142786826E+03  0.42023413704E+03  0.27931472707E+03  0.60925072517E+03  0.10100000352E+00 0. -1.
</event>
<event>
 5   0  0.2478236E-03  0.1280226E+04  0.7818609E-02  0.9045395E-01
       -2   -1    0    0    0  501  0.00000000000E+00  0.00000000000E+00  0.36069806057E+03  0.36069806058E+03  0.25500000920E-02 0. -1.
        2   -1    0    0  501    0  0.00000000000E+00  0.00000000000E+00 -0.11359767955E+04  0.11359767955E+04  0.25500000920E-02 0.  1.
    10030    2    1    2    0    0  0.00000000000E+00  0.00000000000E+00 -0.77527873489E+03  0.14966748560E+04  0.12802259597E+04 0.  0.
        3    1    3    3  502    0  0.89141344282E+02  0.40970636107E+03 -0.95308684804E+03  0.10412396610E+04  0.10100000352E+00 0.  1.
       -3    1    3    3    0  502 -0.89141344282E+02 -0.40970636107E+03  0.17780811316E+03  0.45543519502E+03  0.10100000352E+00 0. -1.
</event>
<event>
 5   0  0.2312105E-03  0.1314968E+04  0.7818609E-02  0.9017779E-01
       -2   -1    0    0    0  501  0.00000000000E+00  0.00000000000E+00  0.33658902482E+03  0.33658902483E+03  0.25500000920E-02 0.  1.
        2   -1    0    0  501    0  0.00000000000E+00  0.00000000000E+00 -0.12843117759E+04  0.12843117759E+04  0.25500000920E-02 0. -1.
    10030    2    1    2    0    0  0.00000000000E+00  0.00000000000E+00 -0.94772275104E+03  0.16209008007E+04  0.13149680577E+04 0.  0.
        5    1    3    3  502    0  0.54218063437E+03 -0.22373840811E+03 -0.84003319301E+03  0.10245470077E+04  0.46999998093E+01 0. -1.
       -5    1    3    3    0  502 -0.54218063437E+03  0.22373840811E+03 -0.10768955803E+03  0.59635379302E+03  0.46999998093E+01 0.  1.
</event>
<event>
 5   0  0.2312105E-03  0.1303208E+04  0.7818609E-02  0.9027025E-01
       -2   -1    0    0    0  501  0.00000000000E+00  0.00000000000E+00  0.38250843416E+03  0.38250843417E+03  0.25500000920E-02 0.  1.
        2   -1    0    0  501    0  0.00000000000E+00  0.00000000000E+00 -0.11100082993E+04  0.11100082993E+04  0.25500000920E-02 0. -1.
    10030    2    1    2    0    0  0.00000000000E+00  0.00000000000E+00 -0.72749986515E+03  0.14925167335E+04  0.13032076373E+04 0.  0.
        5    1    3    3  502    0  0.35854496064E+02  0.64933931152E+03 -0.31739347126E+03  0.72366276121E+03  0.46999998093E+01 0.  1.
       -5    1    3    3    0  502 -0.35854496064E+02 -0.64933931152E+03 -0.41010639389E+03  0.76885397227E+03  0.46999998093E+01 0. -1.
</event>
<event>
 5   0  0.1310461E-03  0.1333756E+04  0.7818609E-02  0.9003216E-01
        1   -1    0    0  501    0  0.00000000000E+00  0.00000000000E+00  0.11267572111E+04  0.11267572111E+04  0.50400001928E-02 0. -1.
       -1   -1    0    0    0  501  0.00000000000E+00  0.00000000000E+00 -0.39469595633E+03  0.39469595637E+03  0.50400001928E-02 0.  1.
    10030    2    1    2    0    0  0.00000000000E+00  0.00000000000E+00  0.73206125473E+03  0.15214531674E+04  0.13337563721E+04 0.  0.
        4    1    3    3  502    0  0.46050362318E+03 -0.74289200607E+02 -0.17763417244E+03  0.49913724005E+03  0.12699999809E+01 0.  1.
       -4    1    3    3    0  502 -0.46050362318E+03  0.74289200607E+02  0.90969542717E+03  0.10223159274E+04  0.12699999809E+01 0. -1.
</event>
<event>
 5   0  0.1332630E-03  0.1280550E+04  0.7818609E-02  0.9045133E-01
       -1   -1    0    0    0  501  0.00000000000E+00  0.00000000000E+00  0.40155256238E+03  0.40155256241E+03  0.50400001928E-02 0. -1.
        1   -1    0    0  501    0  0.00000000000E+00  0.00000000000E+00 -0.10209182298E+04  0.10209182298E+04  0.50400001928E-02 0.  1.
    10030    2    1    2    0    0  0.00000000000E+00  0.00000000000E+00 -0.61936566741E+03  0.14224707922E+04  0.12805503991E+04 0.  0.
        5    1    3    3  502    0  0.56133857054E+03 -0.14271392732E+03 -0.65632557140E+01  0.57925246840E+03  0.46999998093E+01 0. -1.
       -5    1    3    3    0  502 -0.56133857054E+03  0.14271392732E+03 -0.61280241169E+03  0.84321832380E+03  0.46999998093E+01 0.  1.
</event>
<event>
 5   0  0.1310461E-03  0.1305088E+04  0.7818609E-02  0.9025540E-01
        1   -1    0    0  501    0  0.00000000000E+00  0.00000000000E+00  0.15700102275E+04  0.15700102275E+04  0.50400001928E-02 0. -1.
       -1   -1    0    0    0  501  0.00000000000E+00  0.00000000000E+00 -0.27121693908E+03  0.27121693912E+03  0.50400001928E-02 0.  1.
    10030    2    1    2    0    0  0.00000000000E+00  0.00000000000E+00  0.12987932884E+04  0.18412271666E+04  0.13050875346E+04 0.  0.
        4    1    3    3  502    0  0.36055962844E+03  0.25893957564E+03  0.13241680071E+04  0.13965942408E+04  0.12699999809E+01 0. -1.
       -4    1    3    3    0  502 -0.36055962844E+03 -0.25893957564E+03 -0.25374718673E+02  0.44463292584E+03  0.12699999809E+01 0.  1.
</event>
<event>
 5   0  0.1324721E-03  0.1314145E+04  0.7818609E-02  0.9018423E-01
       -1   -1    0    0    0  501  0.00000000000E+00  0.00000000000E+00  0.35909491279E+03  0.35909491283E+03  0.50400001928E-02 0.  1.
        1   -1    0    0  501    0  0.00000000000E+00  0.00000000000E+00 -0.12023116102E+04  0.12023116102E+04  0.50400001928E-02 0. -1.
    10030    2    1    2    0    0  0.00000000000E+00  0.00000000000E+00 -0.84321669745E+03  0.15614065231E+04  0.13141445626E+04 0.  0.
        1    1    3    3  502    0  0.15062156590E+03  0.51826103729E+02  0.33580734211E+03  0.37167105373E+03  0.50400001928E-02 0.  1.
       -1    1    3    3    0  502 -0.15062156590E+03 -0.51826103729E+02 -0.11790240396E+04  0.11897354693E+04  0.50400001928E-02 0. -1.
</event>
<event>
 5   0  0.9131250E-04  0.1275323E+04  0.7818609E-02  0.9049367E-01
        3   -1    0    0  501    0  0.00000000000E+00  0.00000000000E+00  0.14766155721E+04  0.14766155755E+04  0.10100000352E+00 0. -1.
       -3   -1    0    0    0  501  0.00000000000E+00  0.00000000000E+00 -0.27536757372E+03  0.27536759224E+03  0.10100000352E+00 0.  1.
    10030    2    1    2    0    0  0.00000000000E+00  0.00000000000E+00  0.12012479984E+04  0.17519831678E+04  0.12753228088E+04 0.  0.
        5    1    3    3  502    0  0.50932037475E+03  0.37172243622E+03  0.73098737252E+03  0.96537528583E+03  0.46999998093E+01 0. -1.
       -5    1    3    3    0  502 -0.50932037475E+03 -0.37172243622E+03  0.47026062586E+03  0.78660788195E+03  0.46999998093E+01 0.  1.
</event>
<event>
 5   0  0.1310461E-03  0.1250419E+04  0.7818609E-02  0.9069834E-01
        1   -1    0    0  501    0  0.00000000000E+00  0.00000000000E+00  0.92557153481E+03  0.92557153482E+03  0.50400001928E-02 0. -1.
       -1   -1    0    0    0  501  0.00000000000E+00  0.00000000000E+00 -0.42231970443E+03  0.42231970447E+03  0.50400001928E-02 0.  1.
    10030    2    1    2    0    0  0.00000000000E+00  0.00000000000E+00  0.50325183038E+03  0.13478912393E+04  0.12504192850E+04 0.  0.
        4    1    3    3  502    0 -0.36036611705E+03 -0.43569560901E+03  0.53924121491E+03  0.78133034165E+03  0.12699999809E+01 0.  1.
       -4    1    3    3    0  502  0.36036611705E+03  0.43569560901E+03 -0.35989384534E+02  0.56656089764E+03  0.12699999809E+01 0. -1.
</event>
<event>
 5   0  0.2478236E-03  0.1278836E+04  0.7818609E-02  0.9046519E-01
       -2   -1    0    0    0  501  0.00000000000E+00  0.00000000000E+00  0.28951927783E+03  0.28951927784E+03  0.25500000920E-02 0.  1.
        2   -1    0    0  501    0  0.00000000000E+00  0.00000000000E+00 -0.14121874463E+04  0.14121874463E+04  0.25500000920E-02 0. -1.
    10030    2    1    2    0    0  0.00000000000E+00  0.00000000000E+00 -0.11226681685E+04  0.17017067241E+04  0.12788361734E+04 0.  0.
        3    1    3    3  502    0 -0.24455033203E+02  0.34217322732E+03 -0.12793710119E+04  0.13245643671E+04  0.10100000352E+00 0. -1.
       -3    1    3    3    0  502  0.24455033203E+02 -0.34217322732E+03  0.15670284347E+03  0.37714235707E+03  0.10100000352E+00 0.  1.
</event>
<event>
 5   0  0.2312105E-03  0.1316255E+04  0.7818609E-02  0.9016773E-01
       -2   -1    0    0    0  501  0.00000000000E+00  0.00000000000E+00  0.24358732178E+03  0.24358732179E+03  0.25500000920E-02 0. -1.
        2   -1    0    0  501    0  0.00000000000E+00  0.00000000000E+00 -0.17781367998E+04  0.17781367998E+04  0.25500000920E-02 0.  1.
    10030    2    1    2    0    0  0.00000000000E+00  0.00000000000E+00 -0.15345494780E+04  0.20217241216E+04  0.13162546575E+04 0.  0.
        5    1    3    3  502    0  0.35322048251E+03 -0.45377031991E+03 -0.12588737352E+04  0.13840004999E+04  0.46999998093E+01 0.  1.
       -5    1    3    3    0  502 -0.35322048251E+03  0.45377031991E+03 -0.27567574281E+03  0.63772362169E+03  0.46999998093E+01 0. -1.
</event>
<event>
 5   0  0.2312105E-03  0.1285361E+04  0.7818609E-02  0.9041255E-01
        2   -1    0    0  501    0  0.00000000000E+00  0.00000000000E+00  0.25643256037E+04  0.25643256037E+04  0.25500000920E-02 0.  1.
       -2   -1    0    0    0  501  0.00000000000E+00  0.00000000000E+00 -0.16107101556E+03  0.16107101558E+03  0.25500000920E-02 0. -1.
    10030    2    1    2    0    0  0.00000000000E+00  0.00000000000E+00  0.24032545881E+04  0.27253966193E+04  0.12853614733E+04 0.  0.
        5    1    3    3  502    0  0.15155211955E+03  0.28579526143E+03  0.24183685635E+02  0.32442860084E+03  0.46999998093E+01 0. -1.
       -5    1    3    3    0  502 -0.15155211955E+03 -0.28579526143E+03  0.23790709025E+04  0.24009680184E+04  0.46999998093E+01 0.  1.
</event>
<event>
 5   0  0.1324721E-03  0.1296969E+04  0.7818609E-02  0.9031972E-01
        1   -1    0    0  501    0  0.00000000000E+00  0.00000000000E+00  0.33896470614E+03  0.33896470618E+03  0.50400001928E-02 0. -1.
       -1   -1    0    0    0  501  0.00000000000E+00  0.00000000000E+00 -0.12406363360E+04  0.12406363360E+04  0.50400001928E-02 0.  1.
    10030    2    1    2    0    0  0.00000000000E+00  0.00000000000E+00 -0.90167162989E+03  0.15796010422E+04  0.12969686675E+04 0.  0.
        1    1    3    3  502    0 -0.20635859840E+03 -0.31243561802E+03 -0.10956792747E+04  0.11578916010E+04  0.50400001928E-02 0.  1.
       -1    1    3    3    0  502  0.20635859840E+03  0.31243561802E+03  0.19400764485E+03  0.42170944123E+03  0.50400001928E-02 0. -1.
</event>
<event>
 5   0  0.2334946E-03  0.1358596E+04  0.7818609E-02  0.8984346E-01
        2   -1    0    0  501    0  0.00000000000E+00  0.00000000000E+00  0.11349196854E+04  0.11349196854E+04  0.25500000920E-02 0. -1.
       -2   -1    0    0    0  501  0.00000000000E+00  0.00000000000E+00 -0.40658919462E+03  0.40658919462E+03  0.25500000920E-02 0.  1.
    10030    2    1    2    0    0  0.00000000000E+00  0.00000000000E+00  0.72833049074E+03  0.15415088800E+04  0.13585964534E+04 0.  0.
        1    1    3    3  502    0  0.24796437966E+03  0.58665535392E+03  0.96153306366E+02  0.64412444156E+03  0.50400001928E-02 0.  1.
       -1    1    3    3    0  502 -0.24796437966E+03 -0.58665535392E+03  0.63217718438E+03  0.89738443843E+03  0.50400001928E-02 0. -1.
</event>
<event>
 5   0  0.2334946E-03  0.1245491E+04  0.7818609E-02  0.9073944E-01
        2   -1    0    0  501    0  0.00000000000E+00  0.00000000000E+00  0.44339463266E+03  0.44339463267E+03  0.25500000920E-02 0.  1.
       -2   -1    0    0    0  501  0.00000000000E+00  0.00000000000E+00 -0.87464282393E+03  0.87464282393E+03  0.25500000920E-02 0. -1.
    10030    2    1    2    0    0  0.00000000000E+00  0.00000000000E+00 -0.43124819126E+03  0.13180374566E+04  0.12454909612E+04 0.  0.
        1    1    3    3  502    0 -0.55727389377E+03 -0.14253059481E+03 -0.46815031040E+03  0.74164268775E+03  0.50400001928E-02 0. -1.
       -1    1    3    3    0  502  0.55727389377E+03  0.14253059481E+03  0.36902119135E+02  0.57639476885E+03  0.50400001928E-02 0.  1.
</event>
<event>
 5   0  0.1324721E-03  0.1296860E+04  0.7818609E-02  0.9032059E-01
       -1   -1    0    0    0  501  0.00000000000E+00  0.00000000000E+00  0.56782087465E+03  0.56782087467E+03  0.50400001928E-02 0. -1.
        1   -1    0    0  501    0  0.00000000000E+00  0.00000000000E+00 -0.74048277353E+03  0.74048277355E+03  0.50400001928E-02 0.  1.
    10030    2    1    2    0    0  0.00000000000E+00  0.00000000000E+00 -0.17266189888E+03  0.13083036482E+04  0.12968601716E+04 0.  0.
        1    1    3    3  502    0 -0.30114745774E+03  0.42128423254E+03 -0.48001975070E+03  0.70610845978E+03  0.50400001928E-02 0.  1.
       -1    1    3    3    0  502  0.30114745774E+03 -0.42128423254E+03  0.30735785181E+03  0.60219518844E+03  0.50400001928E-02 0. -1.
</event>
<event>
 5   0  0.2401211E-03  0.1266710E+04  0.7818609E-02  0.9056389E-01
       -2   -1    0    0    0  501  0.00000000000E+00  0.00000000000E+00  0.18734116800E+03  0.18734116802E+03  0.25500000920E-02 0.  1.
        2   -1    0    0  501    0  0.00000000000E+00  0.00000000000E+00 -0.21412192931E+04  0.21412192931E+04  0.25500000920E-02 0. -1.
    10030    2    1    2    0    0  0.00000000000E+00  0.00000000000E+00 -0.19538781251E+04  0.23285604612E+04  0.12667099484E+04 0.  0.
        4    1    3    3  502    0 -0.18014567691E+03 -0.46283038902E+03 -0.16994358031E+04  0.17705219839E+04  0.12699999809E+01 0. -1.
       -4    1    3    3    0  502  0.18014567691E+03  0.46283038902E+03 -0.25444232207E+03  0.55803847723E+03  0.12699999809E+01 0.  1.
</event>
<event>
 5   0  0.1346593E-03  0.1305605E+04  0.7818609E-02  0.9025132E-01
        1   -1    0    0  501    0  0.00000000000E+00  0.00000000000E+00  0.10753451989E+04  0.10753451989E+04  0.50400001928E-02 0.  1.
       -1   -1    0    0    0  501  0.00000000000E+00  0.00000000000E+00 -0.39629242061E+03  0.39629242064E+03  0.50400001928E-02 0. -1.
    10030    2    1    2    0    0  0.00000000000E+00  0.00000000000E+00  0.67905277830E+03  0.14716376196E+04  0.13056050734E+04 0.  0.
        2    1    3    3  502    0 -0.17034038905E+03 -0.19817031056E+03 -0.33476553159E+03  0.42468256531E+03  0.25500000920E-02 0. -1.
       -2    1    3    3    0  502  0.17034038905E+03  0.19817031056E+03  0.10138183099E+04  0.10469550543E+04  0.25500000920E-02 0.  1.
</event>
<event>
 5   0  0.2361043E-03  0.1286592E+04  0.7818609E-02  0.9040266E-01
       -2   -1    0    0    0  501  0.00000000000E+00  0.00000000000E+00  0.36674869116E+03  0.36674869117E+03  0.25500000920E-02 0.  1.
        2   -1    0    0  501    0  0.00000000000E+00  0.00000000000E+00 -0.11283740922E+04  0.11283740922E+04  0.25500000920E-02 0. -1.
    10030    2    1    2    0    0  0.00000000000E+00  0.00000000000E+00 -0.76162540104E+03  0.14951227834E+04  0.12865919656E+04 0.  0.
        2    1    3    3  502    0 -0.44812549233E+03 -0.11441415422E+03  0.13878478612E+03  0.48287500704E+03  0.25500000920E-02 0.  1.
       -2    1    3    3    0  502  0.44812549233E+03  0.11441415422E+03 -0.90041018715E+03  0.10122477763E+04  0.25500000920E-02 0. -1.
</event>
<event>
 5   0  0.1324721E-03  0.1278745E+04  0.7818609E-02  0.9046592E-01
       -1   -1    0    0    0  501  0.00000000000E+00  0.00000000000E+00  0.20666517011E+03  0.20666517017E+03  0.50400001928E-02 0.  1.
        1   -1    0    0  501    0  0.00000000000E+00  0.00000000000E+00 -0.19780659450E+04  0.19780659450E+04  0.50400001928E-02 0. -1.
    10030    2    1    2    0    0  0.00000000000E+00  0.00000000000E+00 -0.17714007749E+04  0.21847311152E+04  0.12787452211E+04 0.  0.
        1    1    3    3  502    0  0.39811196639E+03 -0.36220753798E+03 -0.14753416865E+04  0.15704523331E+04  0.50400001928E-02 0. -1.
       -1    1    3    3    0  502 -0.39811196639E+03  0.36220753798E+03 -0.29605908837E+03  0.61427878214E+03  0.50400001928E-02 0.  1.
</event>
<event>
 5   0  0.2361043E-03  0.1281668E+04  0.7818609E-02  0.9044230E-01
        2   -1    0    0  501    0  0.00000000000E+00  0.00000000000E+00  0.44052333923E+03  0.44052333924E+03  0.25500000920E-02 0.  1.
       -2   -1    0    0    0  501  0.00000000000E+00  0.00000000000E+00 -0.93222813522E+03  0.93222813522E+03  0.25500000920E-02 0. -1.
    10030    2    1    2    0    0  0.00000000000E+00  0.00000000000E+00 -0.49170479598E+03  0.13727514745E+04  0.12816680554E+04 0.  0.
        2    1    3    3  502    0 -0.31688599366E+03 -0.40085976925E+03  0.16836505105E+03  0.53800750739E+03  0.25500000920E-02 0.  1.
       -2    1    3    3    0  502  0.31688599366E+03  0.40085976925E+03 -0.66006984704E+03  0.83474396707E+03  0.25500000920E-02 0. -1.
</event>
<event>
 5   0  0.2312105E-03  0.1282479E+04  0.7818609E-02  0.9043576E-01
        2   -1    0    0  501    0  0.00000000000E+00  0.00000000000E+00  0.79973398723E+03  0.79973398723E+03  0.25500000920E-02 0.  1.
       -2   -1    0    0    0  501  0.00000000000E+00  0.00000000000E+00 -0.51415609445E+03  0.51415609446E+03  0.25500000920E-02 0. -1.
    10030    2    1    2    0    0  0.00000000000E+00  0.00000000000E+00  0.28557789277E+03  0.13138900817E+04  0.12824790111E+04 0.  0.
        5    1    3    3  502    0  0.48661319111E+03  0.26654758227E+03 -0.18652762181E+03  0.58536711137E+03  0.46999998093E+01 0. -1.
       -5    1    3    3    0  502 -0.48661319111E+03 -0.26654758227E+03  0.47210551458E+03  0.72852297032E+03  0.46999998093E+01 0.  1.
</event>
<event>
 5   0  0.2312105E-03  0.1299159E+04  0.7818609E-02  0.9030232E-01
        2   -1    0    0  501    0  0.00000000000E+00  0.00000000000E+00  0.12564968882E+04  0.12564968882E+04  0.25500000920E-02 0. -1.
       -2   -1    0    0    0  501  0.00000000000E+00  0.00000000000E+00 -0.33581763195E+03  0.33581763196E+03  0.25500000920E-02 0.  1.
    10030    2    1    2    0    0  0.00000000000E+00  0.00000000000E+00  0.92067925629E+03  0.15923145202E+04  0.12991594353E+04 0.  0.
        5    1    3    3  502    0  0.54291779383E+02 -0.62483803656E+03  0.66747644232E+03  0.91592415641E+03  0.46999998093E+01 0.  1.
       -5    1    3    3    0  502 -0.54291779383E+02  0.62483803656E+03  0.25320281397E+03  0.67639036380E+03  0.46999998093E+01 0. -1.
</event>
<event>
 5   0  0.2312105E-03  0.1293910E+04  0.7818609E-02  0.9034409E-01
       -2   -1    0    0    0  501  0.00000000000E+00  0.00000000000E+00  0.47780407723E+03  0.47780407724E+03  0.25500000920E-02 0. -1.
        2   -1    0    0  501    0  0.00000000000E+00  0.00000000000E+00 -0.87598779352E+03  0.87598779352E+03  0.25500000920E-02 0.  1.
    10030    2    1    2    0    0  0.00000000000E+00  0.00000000000E+00 -0.39818371629E+03  0.13537918708E+04  0.12939096404E+04 0.  0.
        5    1    3    3  502    0  0.48949073478E+03 -0.42043966809E+03 -0.15049042667E+03  0.66260105076E+03  0.46999998093E+01 0. -1.
       -5    1    3    3    0  502 -0.48949073478E+03  0.42043966809E+03 -0.24769328962E+03  0.69119082001E+03  0.46999998093E+01 0.  1.
</event>
<event>
 5   0  0.1324721E-03  0.1295612E+04  0.7818609E-02  0.9033052E-01
        1   -1    0    0  501    0  0.00000000000E+00  0.00000000000E+00  0.13124954597E+04  0.13124954597E+04  0.50400001928E-02 0. -1.
       -1   -1    0    0    0  501  0.00000000000E+00  0.00000000000E+00 -0.31973636036E+03  0.31973636040E+03  0.50400001928E-02 0.  1.
    10030    2    1    2    0    0  0.00000000000E+00  0.00000000000E+00  0.99275909935E+03  0.16322318201E+04  0.12956118575E+04 0.  0.
        1    1    3    3  502    0 -0.27487208625E+03  0.21514044635E+03  0.11838884863E+04  0.12342738851E+04  0.50400001928E-02 0. -1.
       -1    1    3    3    0  502  0.27487208625E+03 -0.21514044635E+03 -0.19112938695E+03  0.39795793501E+03  0.50400001928E-02 0.  1.
</event>
<event>
 5   0  0.1324721E-03  0.1313436E+04  0.7818609E-02  0.9018977E-01
       -1   -1    0    0    0  501  0.00000000000E+00  0.00000000000E+00  0.67284511337E+03  0.67284511339E+03  0.50400001928E-02 0. -1.
        1   -1    0    0  501    0  0.00000000000E+00  0.00000000000E+00 -0.64097773604E+03  0.64097773606E+03  0.50400001928E-02 0.  1.
    10030    2    1    2    0    0  0.00000000000E+00  0.00000000000E+00  0.31867377330E+02  0.13138228494E+04  0.13134363136E+04 0.  0.
        1    1    3    3  502    0 -0.80431485123E+02 -0.60877487140E+03  0.24881687250E+03  0.66256011343E+03  0.50400001928E-02 0. -1.
       -1    1    3    3    0  502  0.80431485123E+02  0.60877487140E+03 -0.21694949517E+03  0.65126273602E+03  0.50400001928E-02 0.  1.
</event>
<event>
 5   0  0.1387622E-03  0.1342912E+04  0.7818609E-02  0.8996211E-01
       -1   -1    0    0    0  501  0.00000000000E+00  0.00000000000E+00  0.28118925681E+03  0.28118925686E+03  0.50400001928E-02 0. -1.
        1   -1    0    0  501    0  0.00000000000E+00  0.00000000000E+00 -0.16033800037E+04  0.16033800037E+04  0.50400001928E-02 0.  1.
    10030    2    1    2    0    0  0.00000000000E+00  0.00000000000E+00 -0.13221907469E+04  0.18845692606E+04  0.13429121069E+04 0.  0.
        3    1    3    3  502    0  0.18518406199E+02 -0.51039975174E+03 -0.12728032018E+04  0.13714513621E+04  0.10100000352E+00 0.  1.
       -3    1    3    3    0  502 -0.18518406199E+02  0.51039975174E+03 -0.49387545148E+02  0.51311789850E+03  0.10100000352E+00 0. -1.
</event>
<event>
 5   0  0.2334946E-03  0.1317717E+04  0.7818609E-02  0.9015632E-01
       -2   -1    0    0    0  501  0.00000000000E+00  0.00000000000E+00  0.45017799642E+03  0.45017799643E+03  0.25500000920E-02 0.  1.
        2   -1    0    0  501    0  0.00000000000E+00  0.00000000000E+00 -0.96427275239E+03  0.96427275239E+03  0.25500000920E-02 0. -1.
    10030    2    1    2    0    0  0.00000000000E+00  0.00000000000E+00 -0.51409475597E+03  0.14144507488E+04  0.13177167764E+04 0.  0.
        1    1    3    3  502    0  0.22282051899E+03 -0.61999771459E+03 -0.26450166043E+03  0.70993469994E+03  0.50400001928E-02 0.  1.
       -1    1    3    3    0  502 -0.22282051899E+03  0.61999771459E+03 -0.24959309554E+03  0.70451604889E+03  0.50400001928E-02 0. -1.
</event>
<event>
 5   0  0.1332630E-03  0.9552178E+03  0.7818609E-02  0.9359072E-01
        1   -1    0    0  501    0  0.00000000000E+00  0.00000000000E+00  0.87452002454E+03  0.87452002455E+03  0.50400001928E-02 0. -1.
       -1   -1    0    0    0  501  0.00000000000E+00  0.00000000000E+00 -0.26084051837E+03  0.26084051842E+03  0.50400001928E-02 0.  1.
    10030    2    1    2    0    0  0.00000000000E+00  0.00000000000E+00  0.61367950616E+03  0.11353605430E+04  0.95521778996E+03 0.  0.
        5    1    3    3  502    0 -0.31183546661E+03  0.29718917297E+03  0.55194669870E+03  0.70016427428E+03  0.46999998093E+01 0. -1.
       -5    1    3    3    0  502  0.31183546661E+03 -0.29718917297E+03  0.61732807456E+02  0.43519626869E+03  0.46999998093E+01 0.  1.
</event>
<event>
 5   0  0.2334946E-03  0.1312985E+04  0.7818609E-02  0.9019331E-01
       -2   -1    0    0    0  501  0.00000000000E+00  0.00000000000E+00  0.39910735379E+03  0.39910735380E+03  0.25500000920E-02 0. -1.
        2   -1    0    0  501    0  0.00000000000E+00  0.00000000000E+00 -0.10798652130E+04  0.10798652130E+04  0.25500000920E-02 0.  1.
    10030    2    1    2    0    0  0.00000000000E+00  0.00000000000E+00 -0.68075785925E+03  0.14789725668E+04  0.13129846117E+04 0.  0.
        1    1    3    3  502    0 -0.37498846600E+03  0.36179834355E+03  0.10943916804E+03  0.53243903178E+03  0.50400001928E-02 0. -1.
       -1    1    3    3    0  502  0.37498846600E+03 -0.36179834355E+03 -0.79019702729E+03  0.94653353506E+03  0.50400001928E-02 0.  1.
</event>
<event>
 5   0  0.2478236E-03  0.1308078E+04  0.7818609E-02  0.9023183E-01
        2   -1    0    0  501    0  0.00000000000E+00  0.00000000000E+00  0.13810818891E+04  0.13810818892E+04  0.25500000920E-02 0.  1.
       -2   -1    0    0    0  501  0.00000000000E+00  0.00000000000E+00 -0.30973338276E+03  0.30973338277E+03  0.25500000920E-02 0. -1.
    10030    2    1    2    0    0  0.00000000000E+00  0.00000000000E+00  0.10713485064E+04  0.16908152719E+04  0.13080782322E+04 0.  0.
        3    1    3    3  502    0  0.12539384357E+03  0.45186631686E+03  0.11249903343E+04  0.12188150175E+04  0.10100000352E+00 0.  1.
       -3    1    3    3    0  502 -0.12539384357E+03 -0.45186631686E+03 -0.53641827898E+02  0.47200025447E+03  0.10100000352E+00 0. -1.
</event>
<event>
 5   0  0.2361043E-03  0.1236731E+04  0.7818609E-02  0.9081300E-01
       -2   -1    0    0    0  501  0.00000000000E+00  0.00000000000E+00  0.36305098313E+03  0.36305098314E+03  0.25500000920E-02 0. -1.
        2   -1    0    0  501    0  0.00000000000E+00  0.00000000000E+00 -0.10532297660E+04  0.10532297660E+04  0.25500000920E-02 0.  1.
    10030    2    1    2    0    0  0.00000000000E+00  0.00000000000E+00 -0.69017878290E+03  0.14162807492E+04  0.12367313403E+04 0.  0.
        2    1    3    3  502    0 -0.52939822217E+03 -0.93948731464E+02 -0.69486148362E+03  0.87859053216E+03  0.25500000920E-02 0.  1.
       -2    1    3    3    0  502  0.52939822217E+03  0.93948731464E+02  0.46827007129E+01  0.53769021701E+03  0.25500000920E-02 0. -1.
</event>
<event>
 5   0  0.1346593E-03  0.1298042E+04  0.7818609E-02  0.9031119E-01
        1   -1    0    0  501    0  0.00000000000E+00  0.00000000000E+00  0.13808102114E+04  0.13808102114E+04  0.50400001928E-02 0. -1.
       -1   -1    0    0    0  501  0.00000000000E+00  0.00000000000E+00 -0.30505890496E+03  0.30505890500E+03  0.50400001928E-02 0.  1.
    10030    2    1    2    0    0  0.00000000000E+00  0.00000000000E+00  0.10757513065E+04  0.16858691164E+04  0.12980422968E+04 0.  0.
        2    1    3    3  502    0  0.29563836588E+03  0.46408256887E+03  0.90873652342E+02  0.55770305254E+03  0.25500000920E-02 0.  1.
       -2    1    3    3    0  502 -0.29563836588E+03 -0.46408256887E+03  0.98487765412E+03  0.11281660639E+04  0.25500000920E-02 0. -1.
</event>
<event>
 5   0  0.2312105E-03  0.1292024E+04  0.7818609E-02  0.9035914E-01
       -2   -1    0    0    0  501  0.00000000000E+00  0.00000000000E+00  0.39563238476E+03  0.39563238477E+03  0.25500000920E-02 0.  1.
        2   -1    0    0  501    0  0.00000000000E+00  0.00000000000E+00 -0.10548465908E+04  0.10548465908E+04  0.25500000920E-02 0. -1.
    10030    2    1    2    0    0  0.00000000000E+00  0.00000000000E+00 -0.65921420609E+03  0.14504789756E+04  0.12920239507E+04 0.  0.
        5    1    3    3  502    0  0.11620025234E+03 -0.43838025038E+03 -0.84605809996E+03  0.95995632248E+03  0.46999998093E+01 0. -1.
       -5    1    3    3    0  502 -0.11620025234E+03  0.43838025038E+03  0.18684389387E+03  0.49052265314E+03  0.46999998093E+01 0.  1.
</event>
<event>
 5   0  0.9131250E-04  0.1308346E+04  0.7818609E-02  0.9022973E-01
       -3   -1    0    0    0  501  0.00000000000E+00  0.00000000000E+00  0.88328152528E+03  0.88328153105E+03  0.10100000352E+00 0.  1.
        3   -1    0    0  501    0  0.00000000000E+00  0.00000000000E+00 -0.48449141783E+03  0.48449142836E+03  0.10100000352E+00 0. -1.
    10030    2    1    2    0    0  0.00000000000E+00  0.00000000000E+00  0.39879010744E+03  0.13677729594E+04  0.13083460241E+04 0.  0.
        2    1    3    3  502    0  0.17510418550E+03  0.55042708875E+03  0.52044476158E+03  0.77749225442E+03  0.25500000920E-02 0.  1.
       -2    1    3    3    0  502 -0.17510418550E+03 -0.55042708875E+03 -0.12165465414E+03  0.59028070500E+03  0.25500000920E-02 0. -1.
</event>
<event>
 5   0  0.2312105E-03  0.1300178E+04  0.7818609E-02  0.9029424E-01
       -2   -1    0    0    0  501  0.00000000000E+00  0.00000000000E+00  0.39637700783E+03  0.39637700784E+03  0.25500000920E-02 0.  1.
        2   -1    0    0  501    0  0.00000000000E+00  0.00000000000E+00 -0.10661956287E+04  0.10661956287E+04  0.25500000920E-02 0. -1.
    10030    2    1    2    0    0  0.00000000000E+00  0.00000000000E+00 -0.66981862087E+03  0.14625726365E+04  0.13001775772E+04 0.  0.
        5    1    3    3  502    0 -0.44555448645E+03  0.62092585720E+02  0.19297920991E+03  0.48952768568E+03  0.46999998093E+01 0.  1.
       -5    1    3    3    0  502  0.44555448645E+03 -0.62092585720E+02 -0.86279783078E+03  0.97304495086E+03  0.46999998093E+01 0. -1.
</event>
<event>
 5   0  0.2334946E-03  0.1297032E+04  0.7818609E-02  0.9031922E-01
       -2   -1    0    0    0  501  0.00000000000E+00  0.00000000000E+00  0.19876504003E+03  0.19876504005E+03  0.25500000920E-02 0.  1.
        2   -1    0    0  501    0  0.00000000000E+00  0.00000000000E+00 -0.21159312551E+04  0.21159312551E+04  0.25500000920E-02 0. -1.
    10030    2    1    2    0    0  0.00000000000E+00  0.00000000000E+00 -0.19171662151E+04  0.23146962952E+04  0.12970322442E+04 0.  0.
        1    1    3    3  502    0 -0.33040910584E+03 -0.44346194134E+03 -0.15631010057E+04  0.16580450611E+04  0.50400001928E-02 0. -1.
       -1    1    3    3    0  502  0.33040910584E+03  0.44346194134E+03 -0.35406520935E+03  0.65665123402E+03  0.50400001928E-02 0.  1.
</event>
<event>
 5   0  0.2401211E-03  0.1284615E+04  0.7818609E-02  0.9041855E-01
       -2   -1    0    0    0  501  0.00000000000E+00  0.00000000000E+00  0.39831055818E+03  0.39831055818E+03  0.25500000920E-02 0.  1.
        2   -1    0    0  501    0  0.00000000000E+00  0.00000000000E+00 -0.10357717715E+04  0.10357717715E+04  0.25500000920E-02 0. -1.
    10030    2    1    2    0    0  0.00000000000E+00  0.00000000000E+00 -0.63746121337E+03  0.14340823297E+04  0.12846148566E+04 0.  0.
        4    1    3    3  502    0 -0.42990723612E+03 -0.45197708509E+03 -0.48969546468E+03  0.79303642927E+03  0.12699999809E+01 0. -1.
       -4    1    3    3    0  502  0.42990723612E+03  0.45197708509E+03 -0.14776574869E+03  0.64104590047E+03  0.12699999809E+01 0.  1.
</event>
<event>
 5   0  0.1346593E-03  0.1206382E+04  0.7818609E-02  0.9107288E-01
       -1   -1    0    0    0  501  0.00000000000E+00  0.00000000000E+00  0.24036924578E+03  0.24036924583E+03  0.50400001928E-02 0.  1.
        1   -1    0    0  501    0  0.00000000000E+00  0.00000000000E+00 -0.15136694869E+04  0.15136694869E+04  0.50400001928E-02 0. -1.
    10030    2    1    2    0    0  0.00000000000E+00  0.00000000000E+00 -0.12733002411E+04  0.17540387327E+04  0.12063823490E+04 0.  0.
        2    1    3    3  502    0  0.16382483473E+03 -0.19722748219E+03 -0.14304972801E+04  0.14532927181E+04  0.25500000920E-02 0. -1.
       -2    1    3    3    0  502 -0.16382483473E+03  0.19722748219E+03  0.15719703901E+03  0.30074601457E+03  0.25500000920E-02 0.  1.
</event>
<event>
 5   0  0.1346593E-03  0.1300319E+04  0.7818609E-02  0.9029312E-01
        1   -1    0    0  501    0  0.00000000000E+00  0.00000000000E+00  0.31626167594E+03  0.31626167598E+03  0.50400001928E-02 0.  1.
       -1   -1    0    0    0  501  0.00000000000E+00  0.00000000000E+00 -0.13365747000E+04  0.13365747000E+04  0.50400001928E-02 0. -1.
    10030    2    1    2    0    0  0.00000000000E+00  0.00000000000E+00 -0.10203130240E+04  0.16528363759E+04  0.13003189680E+04 0.  0.
        2    1    3    3  502    0 -0.20421977566E+03  0.60941245708E+03 -0.63481575833E+03  0.90337163263E+03  0.25500000920E-02 0. -1.
       -2    1    3    3    0  502  0.20421977566E+03 -0.60941245708E+03 -0.38549726569E+03  0.74946474332E+03  0.25500000920E-02 0.  1.
</event>
<event>
 5   0  0.2312105E-03  0.1277725E+04  0.7818609E-02  0.9047418E-01
       -2   -1    0    0    0  501  0.00000000000E+00  0.00000000000E+00  0.27831387494E+03  0.27831387495E+03  0.25500000920E-02 0.  1.
        2   -1    0    0  501    0  0.00000000000E+00  0.00000000000E+00 -0.14664936505E+04  0.14664936505E+04  0.25500000920E-02 0. -1.
    10030    2    1    2    0    0  0.00000000000E+00  0.00000000000E+00 -0.11881797756E+04  0.17448075255E+04  0.12777253703E+04 0.  0.
        5    1    3    3  502    0  0.52834683972E+02  0.25570726881E+03  0.20209659913E+03  0.33021634806E+03  0.46999998093E+01 0.  1.
       -5    1    3    3    0  502 -0.52834683972E+02 -0.25570726881E+03 -0.13902763747E+04  0.14145911774E+04  0.46999998093E+01 0. -1.
</event>
<event>
 5   0  0.2478236E-03  0.1298405E+04  0.7818609E-02  0.9030831E-01
        2   -1    0    0  501    0  0.00000000000E+00  0.00000000000E+00  0.41954997394E+03  0.41954997395E+03  0.25500000920E-02 0.  1.
       -2   -1    0    0    0  501  0.00000000000E+00  0.00000000000E+00 -0.10045616590E+04  0.10045616590E+04  0.25500000920E-02 0. -1.
    10030    2    1    2    0    0  0.00000000000E+00  0.00000000000E+00 -0.58501168509E+03  0.14241116330E+04  0.12984048951E+04 0.  0.
        3    1    3    3  502    0 -0.34874383563E+02 -0.63892021317E+03 -0.41279887171E+03  0.76147106321E+03  0.10100000352E+00 0. -1.
       -3    1    3    3    0  502  0.34874383563E+02  0.63892021317E+03 -0.17221281339E+03  0.66264056978E+03  0.10100000352E+00 0.  1.
</event>
<event>
 5   0  0.1346593E-03  0.1078308E+04  0.7818609E-02  0.9226596E-01
       -1   -1    0    0    0  501  0.00000000000E+00  0.00000000000E+00  0.40589101447E+03  0.40589101450E+03  0.50400001928E-02 0.  1.
        1   -1    0    0  501    0  0.00000000000E+00  0.00000000000E+00 -0.71617002274E+03  0.71617002276E+03  0.50400001928E-02 0. -1.
    10030    2    1    2    0    0  0.00000000000E+00  0.00000000000E+00 -0.31027900827E+03  0.11220610373E+04  0.10783078913E+04 0.  0.
        2    1    3    3  502    0  0.15136876011E+03 -0.53547321378E+02 -0.69071481297E+03  0.70913099638E+03  0.25500000920E-02 0. -1.
       -2    1    3    3    0  502 -0.15136876011E+03  0.53547321378E+02  0.38043580470E+03  0.41293004089E+03  0.25500000920E-02 0.  1.
</event>
<event>
 5   0  0.2401211E-03  0.1283843E+04  0.7818609E-02  0.9042476E-01
        2   -1    0    0  501    0  0.00000000000E+00  0.00000000000E+00  0.16504107891E+04  0.16504107891E+04  0.25500000920E-02 0.  1.
       -2   -1    0    0    0  501  0.00000000000E+00  0.00000000000E+00 -0.24967328311E+03  0.24967328312E+03  0.25500000920E-02 0. -1.
    10030    2    1    2    0    0  0.00000000000E+00  0.00000000000E+00  0.14007375060E+04  0.19000840722E+04  0.12838434176E+04 0.  0.
        4    1    3    3  502    0  0.35042117754E+03  0.13767711317E+03  0.14698416435E+04  0.15172956400E+04  0.12699999809E+01 0.  1.
       -4    1    3    3    0  502 -0.35042117754E+03 -0.13767711317E+03 -0.69104137516E+02  0.38278843227E+03  0.12699999809E+01 0. -1.
</event>
<event>
 5   0  0.1346593E-03  0.1310540E+04  0.7818609E-02  0.9021248E-01
        1   -1    0    0  501    0  0.00000000000E+00  0.00000000000E+00  0.71513111718E+03  0.71513111720E+03  0.50400001928E-02 0.  1.
       -1   -1    0    0    0  501  0.00000000000E+00  0.00000000000E+00 -0.60041990281E+03  0.60041990283E+03  0.50400001928E-02 0. -1.
    10030    2    1    2    0    0  0.00000000000E+00  0.00000000000E+00  0.11471121437E+03  0.13155510200E+04  0.13105402793E+04 0.  0.
        2    1    3    3  502    0  0.44015901653E+02 -0.35444288850E+03  0.60883009549E+03  0.70586205876E+03  0.25500000920E-02 0.  1.
       -2    1    3    3    0  502 -0.44015901653E+02  0.35444288850E+03 -0.49411888112E+03  0.60968896127E+03  0.25500000920E-02 0. -1.
</event>
<event>
 5   0  0.1387622E-03  0.1279646E+04  0.7818609E-02  0.9045863E-01
        1   -1    0    0  501    0  0.00000000000E+00  0.00000000000E+00  0.16905156592E+04  0.16905156592E+04  0.50400001928E-02 0.  1.
       -1   -1    0    0    0  501  0.00000000000E+00  0.00000000000E+00 -0.24215905240E+03  0.24215905245E+03  0.50400001928E-02 0. -1.
    10030    2    1    2    0    0  0.00000000000E+00  0.00000000000E+00  0.14483566068E+04  0.19326747117E+04  0.12796463107E+04 0.  0.
        3    1    3    3  502    0  0.11234149223E+03 -0.11857995577E+03  0.16584935114E+04  0.16665180930E+04  0.10100000352E+00 0.  1.
       -3    1    3    3    0  502 -0.11234149223E+03  0.11857995577E+03 -0.21013690458E+03  0.26615661866E+03  0.10100000352E+00 0. -1.
</event>
<event>
 5   0  0.2334946E-03  0.1300891E+04  0.7818609E-02  0.9028859E-01
        2   -1    0    0  501    0  0.00000000000E+00  0.00000000000E+00  0.72961694556E+03  0.72961694557E+03  0.25500000920E-02 0. -1.
       -2   -1    0    0    0  501  0.00000000000E+00  0.00000000000E+00 -0.57986493323E+03  0.57986493323E+03  0.25500000920E-02 0.  1.
    10030    2    1    2    0    0  0.00000000000E+00  0.00000000000E+00  0.14975201234E+03  0.13094818788E+04  0.13008908969E+04 0.  0.
        1    1    3    3  502    0  0.27807841788E+03 -0.31175313071E+03  0.57672804034E+03  0.71213260952E+03  0.50400001928E-02 0. -1.
       -1    1    3    3    0  502 -0.27807841788E+03  0.31175313071E+03 -0.42697602800E+03  0.59734926928E+03  0.50400001928E-02 0.  1.
</event>
<event>
 5   0  0.1346593E-03  0.1060462E+04  0.7818609E-02  0.9244609E-01
        1   -1    0    0  501    0  0.00000000000E+00  0.00000000000E+00  0.10188047517E+04  0.10188047517E+04  0.50400001928E-02 0. -1.
       -1   -1    0    0    0  501  0.00000000000E+00  0.00000000000E+00 -0.27595555210E+03  0.27595555214E+03  0.50400001928E-02 0.  1.
    10030    2    1    2    0    0  0.00000000000E+00  0.00000000000E+00  0.74284919958E+03  0.12947603038E+04  0.10604618386E+04 0.  0.
        2    1    3    3  502    0  0.41510296754E+03 -0.31775295070E+03  0.47972009713E+03  0.70951306044E+03  0.25500000920E-02 0. -1.
       -2    1    3    3    0  502 -0.41510296754E+03  0.31775295070E+03  0.26312910245E+03  0.58524724339E+03  0.25500000920E-02 0.  1.
</event>
<event>
 5   0  0.2334946E-03  0.1314789E+04  0.7818609E-02  0.9017919E-01
        2   -1    0    0  501    0  0.00000000000E+00  0.00000000000E+00  0.15342627658E+04  0.15342627658E+04  0.25500000920E-02 0.  1.
       -2   -1    0    0    0  501  0.00000000000E+00  0.00000000000E+00 -0.28167750353E+03  0.28167750354E+03  0.25500000920E-02 0. -1.
    10030    2    1    2    0    0  0.00000000000E+00  0.00000000000E+00  0.12525852622E+04  0.18159402693E+04  0.13147886608E+04 0.  0.
        1    1    3    3  502    0 -0.22847548492E+03  0.21400646512E+03  0.14247058315E+04  0.14586934293E+04  0.50400001928E-02 0.  1.
       -1    1    3    3    0  502  0.22847548492E+03 -0.21400646512E+03 -0.17212056926E+03  0.35724684003E+03  0.50400001928E-02 0. -1.
</event>
<event>
 5   0  0.2478236E-03  0.1278699E+04  0.7818609E-02  0.9046630E-01
       -2   -1    0    0    0  501  0.00000000000E+00  0.00000000000E+00  0.97922847064E+03  0.97922847065E+03  0.25500000920E-02 0.  1.
        2   -1    0    0  501    0  0.00000000000E+00  0.00000000000E+00 -0.41743834137E+03  0.41743834138E+03  0.25500000920E-02 0. -1.
    10030    2    1    2    0    0  0.00000000000E+00  0.00000000000E+00  0.56179012927E+03  0.13966668120E+04  0.12786985706E+04 0.  0.
        3    1    3    3  502    0  0.47727810775E+03 -0.18197647868E+03  0.70089242327E+03  0.86727160113E+03  0.10100000352E+00 0.  1.
       -3    1    3    3    0  502 -0.47727810775E+03  0.18197647868E+03 -0.13910229400E+03  0.52939521090E+03  0.10100000352E+00 0. -1.
</event>
<event>
 5   0  0.1324721E-03  0.1310506E+04  0.7818609E-02  0.9021275E-01
       -1   -1    0    0    0  501  0.00000000000E+00  0.00000000000E+00  0.98332061494E+03  0.98332061495E+03  0.50400001928E-02 0. -1.
        1   -1    0    0  501    0  0.00000000000E+00  0.00000000000E+00 -0.43663919870E+03  0.43663919873E+03  0.50400001928E-02 0.  1.
    10030    2    1    2    0    0  0.00000000000E+00  0.00000000000E+00  0.54668141623E+03  0.14199598137E+04  0.13105057427E+04 0.  0.
        1    1    3    3  502    0  0.38650318657E+03 -0.52300802297E+03  0.18642764019E+03  0.67651856617E+03  0.50400001928E-02 0.  1.
       -1    1    3    3    0  502 -0.38650318657E+03  0.52300802297E+03  0.36025377605E+03  0.74344124751E+03  0.50400001928E-02 0. -1.
</event>
<event>
 5   0  0.1324721E-03  0.1287574E+04  0.7818609E-02  0.9039477E-01
        1   -1    0    0  501    0  0.00000000000E+00  0.00000000000E+00  0.10582458588E+04  0.10582458589E+04  0.50400001928E-02 0.  1.
       -1   -1    0    0    0  501  0.00000000000E+00  0.00000000000E+00 -0.39164987695E+03  0.39164987698E+03  0.50400001928E-02 0. -1.
    10030    2    1    2    0    0  0.00000000000E+00  0.00000000000E+00  0.66659598190E+03  0.14498957358E+04  0.12875742471E+04 0.  0.
        1    1    3    3  502    0 -0.56118901544E+03  0.31509942984E+03  0.31581314180E+03  0.71690913113E+03  0.50400001928E-02 0. -1.
       -1    1    3    3    0  502  0.56118901544E+03 -0.31509942984E+03  0.35078284010E+03  0.73298660470E+03  0.50400001928E-02 0.  1.
</event>
<event>
 5   0  0.2334946E-03  0.1303323E+04  0.7818609E-02  0.9026934E-01
       -2   -1    0    0    0  501  0.00000000000E+00  0.00000000000E+00  0.48565670052E+03  0.48565670052E+03  0.25500000920E-02 0.  1.
        2   -1    0    0  501    0  0.00000000000E+00  0.00000000000E+00 -0.87440904236E+03  0.87440904237E+03  0.25500000920E-02 0. -1.
    10030    2    1    2    0    0  0.00000000000E+00  0.00000000000E+00 -0.38875234185E+03  0.13600657429E+04  0.13033228463E+04 0.  0.
        1    1    3    3  502    0 -0.13614659464E+03  0.35932061850E+03 -0.74361326002E+03  0.83702322705E+03  0.50400001928E-02 0. -1.
       -1    1    3    3    0  502  0.13614659464E+03 -0.35932061850E+03  0.35486091817E+03  0.52304251584E+03  0.50400001928E-02 0.  1.
</event>
<event>
 5   0  0.1346593E-03  0.1400838E+04  0.7818609E-02  0.8953212E-01
        1   -1    0    0  501    0  0.00000000000E+00  0.00000000000E+00  0.46808382781E+03  0.46808382784E+03  0.50400001928E-02 0.  1.
       -1   -1    0    0    0  501  0.00000000000E+00  0.00000000000E+00 -0.10480742698E+04  0.10480742698E+04  0.50400001928E-02 0. -1.
    10030    2    1    2    0    0  0.00000000000E+00  0.00000000000E+00 -0.57999044195E+03  0.15161580976E+04  0.14008377723E+04 0.  0.
        2    1    3    3  502    0 -0.34869911804E+03 -0.24715755678E+03  0.31058028308E+03  0.52833516355E+03  0.25500000920E-02 0.  1.
       -2    1    3    3    0  502  0.34869911804E+03  0.24715755678E+03 -0.89057072503E+03  0.98782293407E+03  0.25500000920E-02 0. -1.
</event>
<event>
 5   0  0.1324721E-03  0.1297889E+04  0.7818609E-02  0.9031241E-01
        1   -1    0    0  501    0  0.00000000000E+00  0.00000000000E+00  0.68283536447E+03  0.68283536448E+03  0.50400001928E-02 0. -1.
       -1   -1    0    0    0  501  0.00000000000E+00  0.00000000000E+00 -0.61673571813E+03  0.61673571815E+03  0.50400001928E-02 0.  1.
    10030    2    1    2    0    0  0.00000000000E+00  0.00000000000E+00  0.66099646332E+02  0.12995710826E+04  0.12978889920E+04 0.  0.
        1    1    3    3  502    0  0.14890471910E+03  0.49558876420E+03 -0.35905457933E+03  0.62984206714E+03  0.50400001928E-02 0.  1.
       -1    1    3    3    0  502 -0.14890471910E+03 -0.49558876420E+03  0.42515422567E+03  0.66972901550E+03  0.50400001928E-02 0. -1.
</event>
<event>
 5   0  0.2478236E-03  0.1303058E+04  0.7818609E-02  0.9027144E-01
       -2   -1    0    0    0  501  0.00000000000E+00  0.00000000000E+00  0.77278908034E+03  0.77278908035E+03  0.25500000920E-02 0. -1.
        2   -1    0    0  501    0  0.00000000000E+00  0.00000000000E+00 -0.54929620005E+03  0.54929620005E+03  0.25500000920E-02 0.  1.
    10030    2    1    2    0    0  0.00000000000E+00  0.00000000000E+00  0.22349288029E+03  0.13220852804E+04  0.13030581035E+04 0.  0.
        3    1    3    3  502    0  0.28626062979E+03 -0.29409720218E+02  0.70481578655E+03  0.76129848482E+03  0.10100000352E+00 0. -1.
       -3    1    3    3    0  502 -0.28626062979E+03  0.29409720218E+02 -0.48132290625E+03  0.56078679558E+03  0.10100000352E+00 0.  1.
</event>
<event>
 5   0  0.1310461E-03  0.1379661E+04  0.7818609E-02  0.8968674E-01
       -1   -1    0    0    0  501  0.00000000000E+00  0.00000000000E+00  0.44387618923E+03  0.44387618925E+03  0.50400001928E-02 0.  1.
        1   -1    0    0  501    0  0.00000000000E+00  0.00000000000E+00 -0.10720688306E+04  0.10720688306E+04  0.50400001928E-02 0. -1.
    10030    2    1    2    0    0  0.00000000000E+00  0.00000000000E+00 -0.62819264134E+03  0.15159450198E+04  0.13796605773E+04 0.  0.
        4    1    3    3  502    0 -0.12892732700E+03  0.26097047756E+03  0.37309124945E+03  0.47320876907E+03  0.12699999809E+01 0.  1.
       -4    1    3    3    0  502  0.12892732700E+03 -0.26097047756E+03 -0.10012838908E+04  0.10427362508E+04  0.12699999809E+01 0. -1.
</event>
<event>
 5   0  0.1310461E-03  0.1302427E+04  0.7818609E-02  0.9027643E-01
       -1   -1    0    0    0  501  0.00000000000E+00  0.00000000000E+00  0.10697381388E+04  0.10697381389E+04  0.50400001928E-02 0.  1.
        1   -1    0    0  501    0  0.00000000000E+00  0.00000000000E+00 -0.39643262043E+03  0.39643262046E+03  0.50400001928E-02 0. -1.
    10030    2    1    2    0    0  0.00000000000E+00  0.00000000000E+00  0.67330551842E+03  0.14661707593E+04  0.13024271090E+04 0.  0.
        4    1    3    3  502    0  0.16391785681E+03  0.53585948339E+03  0.71011943921E+03  0.90459144400E+03  0.12699999809E+01 0.  1.
       -4    1    3    3    0  502 -0.16391785681E+03 -0.53585948339E+03 -0.36813920791E+02  0.56157931531E+03  0.12699999809E+01 0. -1.
</event>
<event>
 5   0  0.1310461E-03  0.1313860E+04  0.7818609E-02  0.9018646E-01
        1   -1    0    0  501    0  0.00000000000E+00  0.00000000000E+00  0.74923681780E+03  0.74923681782E+03  0.50400001928E-02 0.  1.
       -1   -1    0    0    0  501  0.00000000000E+00  0.00000000000E+00 -0.57599562745E+03  0.57599562747E+03  0.50400001928E-02 0. -1.
    10030    2    1    2    0    0  0.00000000000E+00  0.00000000000E+00  0.17324119035E+03  0.13252324453E+04  0.13138601615E+04 0.  0.
        4    1    3    3  502    0  0.36146397742E+03 -0.43715882558E+03  0.42083658228E+03  0.70630665269E+03  0.12699999809E+01 0.  1.
       -4    1    3    3    0  502 -0.36146397742E+03  0.43715882558E+03 -0.24759539193E+03  0.61892579261E+03  0.12699999809E+01 0. -1.
</event>
<event>
 5   0  0.2361043E-03  0.1279857E+04  0.7818609E-02  0.9045693E-01
       -2   -1    0    0    0  501  0.00000000000E+00  0.00000000000E+00  0.32240357443E+03  0.32240357444E+03  0.25500000920E-02 0. -1.
        2   -1    0    0  501    0  0.00000000000E+00  0.00000000000E+00 -0.12701731828E+04  0.12701731828E+04  0.25500000920E-02 0.  1.
    10030    2    1    2    0    0  0.00000000000E+00  0.00000000000E+00 -0.94776960834E+03  0.15925767572E+04  0.12798568268E+04 0.  0.
        2    1    3    3  502    0 -0.22056422656E+03 -0.25166000952E+03 -0.11526228623E+04  0.12002169809E+04  0.25500000920E-02 0.  1.
       -2    1    3    3    0  502  0.22056422656E+03  0.25166000952E+03  0.20485325397E+03  0.39235977635E+03  0.25500000920E-02 0. -1.
</event>
<event>
 5   0  0.2401211E-03  0.1284655E+04  0.7818609E-02  0.9041823E-01
       -2   -1    0    0    0  501  0.00000000000E+00  0.00000000000E+00  0.27221090567E+03  0.27221090568E+03  0.25500000920E-02 0. -1.
        2   -1    0    0  501    0  0.00000000000E+00  0.00000000000E+00 -0.15156801533E+04  0.15156801533E+04  0.25500000920E-02 0.  1.
    10030    2    1    2    0    0  0.00000000000E+00  0.00000000000E+00 -0.12434692476E+04  0.17878910590E+04  0.12846550778E+04 0.  0.
        4    1    3    3  502    0 -0.62236098869E+03  0.43376465651E+02 -0.83448405711E+03  0.10419116913E+04  0.12699999809E+01 0.  1.
       -4    1    3    3    0  502  0.62236098869E+03 -0.43376465651E+02 -0.40898519052E+03  0.74597936767E+03  0.12699999809E+01 0. -1.
</event>
<event>
 5   0  0.2478236E-03  0.1299555E+04  0.7818609E-02  0.9029918E-01
       -2   -1    0    0    0  501  0.00000000000E+00  0.00000000000E+00  0.21749603292E+03  0.21749603294E+03  0.25500000920E-02 0.  1.
        2   -1    0    0  501    0  0.00000000000E+00  0.00000000000E+00 -0.19412350203E+04  0.19412350204E+04  0.25500000920E-02 0. -1.
    10030    2    1    2    0    0  0.00000000000E+00  0.00000000000E+00 -0.17237389874E+04  0.21587310533E+04  0.12995551791E+04 0.  0.
        3    1    3    3  502    0  0.18107662091E+01  0.46404588433E+03 -0.16173992409E+04  0.16826533143E+04  0.10100000352E+00 0. -1.
       -3    1    3    3    0  502 -0.18107662091E+01 -0.46404588433E+03 -0.10633974656E+03  0.47607773897E+03  0.10100000352E+00 0.  1.
</event>
<event>
 5   0  0.1387622E-03  0.1318204E+04  0.7818609E-02  0.9015252E-01
       -1   -1    0    0    0  501  0.00000000000E+00  0.00000000000E+00  0.37580977144E+03  0.37580977147E+03  0.50400001928E-02 0.  1.
        1   -1    0    0  501    0  0.00000000000E+00  0.00000000000E+00 -0.11559458643E+04  0.11559458643E+04  0.50400001928E-02 0. -1.
    10030    2    1    2    0    0  0.00000000000E+00  0.00000000000E+00 -0.78013609289E+03  0.15317556358E+04  0.13182044623E+04 0.  0.
        3    1    3    3  502    0 -0.18106665199E+02  0.59282260529E+03 -0.72412934371E+03  0.93601806034E+03  0.10100000352E+00 0. -1.
       -3    1    3    3    0  502  0.18106665199E+02 -0.59282260529E+03 -0.56006749179E+02  0.59573757547E+03  0.10100000352E+00 0.  1.
</event>
<event>
 5   0  0.2312105E-03  0.1321745E+04  0.7818609E-02  0.9012496E-01
       -2   -1    0    0    0  501  0.00000000000E+00  0.00000000000E+00  0.51264496414E+03  0.51264496414E+03  0.25500000920E-02 0.  1.
        2   -1    0    0  501    0  0.00000000000E+00  0.00000000000E+00 -0.85195939921E+03  0.85195939922E+03  0.25500000920E-02 0. -1.
    10030    2    1    2    0    0  0.00000000000E+00  0.00000000000E+00 -0.33931443508E+03  0.13646043634E+04  0.13217453547E+04 0.  0.
        5    1    3    3  502    0  0.40738318615E+03  0.48898811985E+03 -0.35335991886E+03  0.72798060687E+03  0.46999998093E+01 0. -1.
       -5    1    3    3    0  502 -0.40738318615E+03 -0.48898811985E+03  0.14045483788E+02  0.63662375649E+03  0.46999998093E+01 0.  1.
</event>
<event>
 5   0  0.9131250E-04  0.1305473E+04  0.7818609E-02  0.9025236E-01
        3   -1    0    0  501    0  0.00000000000E+00  0.00000000000E+00  0.65136343882E+03  0.65136344665E+03  0.10100000352E+00 0. -1.
       -3   -1    0    0    0  501  0.00000000000E+00  0.00000000000E+00 -0.65411232797E+03  0.65411233577E+03  0.10100000352E+00 0.  1.
    10030    2    1    2    0    0  0.00000000000E+00  0.00000000000E+00 -0.27488891502E+01  0.13054757824E+04  0.13054728883E+04 0.  0.
        5    1    3    3  502    0  0.13880889964E+03 -0.42479492154E+03 -0.47711086637E+03  0.65373963074E+03  0.46999998093E+01 0.  1.
       -5    1    3    3    0  502 -0.13880889964E+03  0.42479492154E+03  0.47436197722E+03  0.65173615169E+03  0.46999998093E+01 0. -1.
</event>
<event>
 5   0  0.2361043E-03  0.1275027E+04  0.7818609E-02  0.9049606E-01
       -2   -1    0    0    0  501  0.00000000000E+00  0.00000000000E+00  0.40801000494E+03  0.40801000495E+03  0.25500000920E-02 0.  1.
        2   -1    0    0  501    0  0.00000000000E+00  0.00000000000E+00 -0.99611218197E+03  0.99611218198E+03  0.25500000920E-02 0. -1.
    10030    2    1    2    0    0  0.00000000000E+00  0.00000000000E+00 -0.58810217703E+03  0.14041221869E+04  0.12750274292E+04 0.  0.
        2    1    3    3  502    0 -0.23485774826E+03  0.53061307519E+03 -0.32811227637E+01  0.58027507550E+03  0.25500000920E-02 0. -1.
       -2    1    3    3    0  502  0.23485774826E+03 -0.53061307519E+03 -0.58482105427E+03  0.82384711142E+03  0.25500000920E-02 0.  1.
</event>
<event>
 5   0  0.1387622E-03  0.1294393E+04  0.7818609E-02  0.9034023E-01
       -1   -1    0    0    0  501  0.00000000000E+00  0.00000000000E+00  0.53964379541E+03  0.53964379543E+03  0.50400001928E-02 0. -1.
        1   -1    0    0  501    0  0.00000000000E+00  0.00000000000E+00 -0.77618479396E+03  0.77618479397E+03  0.50400001928E-02 0.  1.
    10030    2    1    2    0    0  0.00000000000E+00  0.00000000000E+00 -0.23654099855E+03  0.13158285894E+04  0.12943929978E+04 0.  0.
        3    1    3    3  502    0 -0.49107828173E+03  0.94569730688E+01 -0.54669488967E+03  0.73493035433E+03  0.10100000352E+00 0. -1.
       -3    1    3    3    0  502  0.49107828173E+03 -0.94569730688E+01  0.31015389113E+03  0.58089823507E+03  0.10100000352E+00 0.  1.
</event>
<event>
 5   0  0.2312105E-03  0.1210585E+04  0.7818609E-02  0.9103641E-01
       -2   -1    0    0    0  501  0.00000000000E+00  0.00000000000E+00  0.67749351869E+03  0.67749351870E+03  0.25500000920E-02 0.  1.
        2   -1    0    0  501    0  0.00000000000E+00  0.00000000000E+00 -0.54078627580E+03  0.54078627580E+03  0.25500000920E-02 0. -1.
    10030    2    1    2    0    0  0.00000000000E+00  0.00000000000E+00  0.13670724289E+03  0.12182797945E+04  0.12105853078E+04 0.  0.
        5    1    3    3  502    0 -0.83402803567E+02  0.25902214440E+03  0.61244575244E+03  0.67019429169E+03  0.46999998093E+01 0.  1.
       -5    1    3    3    0  502  0.83402803567E+02 -0.25902214440E+03 -0.47573850954E+03  0.54808550281E+03  0.46999998093E+01 0. -1.
</event>
<event>
 5   0  0.1332630E-03  0.1302845E+04  0.7818609E-02  0.9027312E-01
        1   -1    0    0  501    0  0.00000000000E+00  0.00000000000E+00  0.49861578888E+03  0.49861578890E+03  0.50400001928E-02 0.  1.
       -1   -1    0    0    0  501  0.00000000000E+00  0.00000000000E+00 -0.85105808293E+03  0.85105808294E+03  0.50400001928E-02 0. -1.
    10030    2    1    2    0    0  0.00000000000E+00  0.00000000000E+00 -0.35244229405E+03  0.13496738718E+04  0.13028445762E+04 0.  0.
        5    1    3    3  502    0 -0.13128223131E+03 -0.95032902234E+02  0.47737869054E+03  0.50416146317E+03  0.46999998093E+01 0.  1.
       -5    1    3    3    0  502  0.13128223131E+03  0.95032902234E+02 -0.82982098459E+03  0.84551240868E+03  0.46999998093E+01 0. -1.
</event>
<event>
 5   0  0.2312105E-03  0.1314138E+04  0.7818609E-02  0.9018428E-01
       -2   -1    0    0    0  501  0.00000000000E+00  0.00000000000E+00  0.37898686786E+03  0.37898686787E+03  0.25500000920E-02 0. -1.
        2   -1    0    0  501    0  0.00000000000E+00  0.00000000000E+00 -0.11391947918E+04  0.11391947918E+04  0.25500000920E-02 0.  1.
    10030    2    1    2    0    0  0.00000000000E+00  0.00000000000E+00 -0.76020792390E+03  0.15181816596E+04  0.13141382972E+04 0.  0.
        5    1    3    3  502    0 -0.48159161388E+01 -0.40066958651E+03 -0.98168515753E+03  0.10603240774E+04  0.46999998093E+01 0.  1.
       -5    1    3    3    0  502  0.48159161388E+01  0.40066958651E+03  0.22147723363E+03  0.45785758224E+03  0.46999998093E+01 0. -1.
</event>
<event>
 5   0  0.2334946E-03  0.1369250E+04  0.7818609E-02  0.8976383E-01
       -2   -1    0    0    0  501  0.00000000000E+00  0.00000000000E+00  0.27183906278E+03  0.27183906279E+03  0.25500000920E-02 0.  1.
        2   -1    0    0  501    0  0.00000000000E+00  0.00000000000E+00 -0.17242240000E+04  0.17242240000E+04  0.25500000920E-02 0. -1.
    10030    2    1    2    0    0  0.00000000000E+00  0.00000000000E+00 -0.14523849372E+04  0.19960630628E+04  0.13692500665E+04 0.  0.
        1    1    3    3  502    0  0.66009586120E+03 -0.11028135963E+03 -0.93655201144E+03  0.11510943464E+04  0.50400001928E-02 0. -1.
       -1    1    3    3    0  502 -0.66009586120E+03  0.11028135963E+03 -0.51583292577E+03  0.84496871634E+03  0.50400001928E-02 0.  1.
</event>
<event>
 5   0  0.2401211E-03  0.1305507E+04  0.7818609E-02  0.9025209E-01
       -2   -1    0    0    0  501  0.00000000000E+00  0.00000000000E+00  0.59196010443E+03  0.59196010444E+03  0.25500000920E-02 0.  1.
        2   -1    0    0  501    0  0.00000000000E+00  0.00000000000E+00 -0.71979023068E+03  0.71979023069E+03  0.25500000920E-02 0. -1.
    10030    2    1    2    0    0  0.00000000000E+00  0.00000000000E+00 -0.12783012625E+03  0.13117503351E+04  0.13055069515E+04 0.  0.
        4    1    3    3  502    0 -0.16699878151E+03  0.17182649993E+03  0.54617281416E+03  0.59642207783E+03  0.12699999809E+01 0.  1.
       -4    1    3    3    0  502  0.16699878151E+03 -0.17182649993E+03 -0.67400294041E+03  0.71532825729E+03  0.12699999809E+01 0. -1.
</event>
<event>
 5   0  0.1387622E-03  0.1007977E+04  0.7818609E-02  0.9299839E-01
       -1   -1    0    0    0  501  0.00000000000E+00  0.00000000000E+00  0.26489454698E+03  0.26489454703E+03  0.50400001928E-02 0. -1.
        1   -1    0    0  501    0  0.00000000000E+00  0.00000000000E+00 -0.95888904296E+03  0.95888904297E+03  0.50400001928E-02 0.  1.
    10030    2    1    2    0    0  0.00000000000E+00  0.00000000000E+00 -0.69399449598E+03  0.12237835900E+04  0.10079771400E+04 0.  0.
        3    1    3    3  502    0 -0.37459207287E+03  0.28299373554E+02 -0.75491339170E+03  0.84321664759E+03  0.10100000352E+00 0.  1.
       -3    1    3    3    0  502  0.37459207287E+03 -0.28299373554E+02  0.60918895722E+02  0.38056694241E+03  0.10100000352E+00 0. -1.
</event>
<event>
 5   0  0.1310461E-03  0.1300388E+04  0.7818609E-02  0.9029258E-01
       -1   -1    0    0    0  501  0.00000000000E+00  0.00000000000E+00  0.28318875328E+03  0.28318875332E+03  0.50400001928E-02 0. -1.
        1   -1    0    0  501    0  0.00000000000E+00  0.00000000000E+00 -0.14928280646E+04  0.14928280646E+04  0.50400001928E-02 0.  1.
    10030    2    1    2    0    0  0.00000000000E+00  0.00000000000E+00 -0.12096393114E+04  0.17760168180E+04  0.13003878168E+04 0.  0.
        4    1    3    3  502    0 -0.70268925255E+02  0.37084549658E+03  0.11824177458E+03  0.39553360710E+03  0.12699999809E+01 0. -1.
       -4    1    3    3    0  502  0.70268925255E+02 -0.37084549658E+03 -0.13278810859E+04  0.13804832109E+04  0.12699999809E+01 0.  1.
</event>
<event>
 5   0  0.2334946E-03  0.1309036E+04  0.7818609E-02  0.9022430E-01
        2   -1    0    0  501    0  0.00000000000E+00  0.00000000000E+00  0.17973750509E+04  0.17973750509E+04  0.25500000920E-02 0. -1.
       -2   -1    0    0    0  501  0.00000000000E+00  0.00000000000E+00 -0.23834410975E+03  0.23834410977E+03  0.25500000920E-02 0.  1.
    10030    2    1    2    0    0  0.00000000000E+00  0.00000000000E+00  0.15590309411E+04  0.20357191606E+04  0.13090359146E+04 0.  0.
        1    1    3    3  502    0  0.17430064394E+03 -0.62454901559E+03  0.91818872860E+03  0.11240608207E+04  0.50400001928E-02 0. -1.
       -1    1    3    3    0  502 -0.17430064394E+03  0.62454901559E+03  0.64084221253E+03  0.91165833992E+03  0.50400001928E-02 0.  1.
</event>
<event>
 5   0  0.1310461E-03  0.1378193E+04  0.7818609E-02  0.8969756E-01
        1   -1    0    0  501    0  0.00000000000E+00  0.00000000000E+00  0.97518491339E+03  0.97518491340E+03  0.50400001928E-02 0.  1.
       -1   -1    0    0    0  501  0.00000000000E+00  0.00000000000E+00 -0.48693749002E+03  0.48693749004E+03  0.50400001928E-02 0. -1.
    10030    2    1    2    0    0  0.00000000000E+00  0.00000000000E+00  0.48824742337E+03  0.14621224034E+04  0.13781931564E+04 0.  0.
        4    1    3    3  502    0 -0.98730060421E+02  0.63816022732E+03 -0.11057839639E+02  0.64584827110E+03  0.12699999809E+01 0. -1.
       -4    1    3    3    0  502  0.98730060421E+02 -0.63816022732E+03  0.49930526301E+03  0.81627413235E+03  0.12699999809E+01 0.  1.
</event>
<event>
 5   0  0.2401211E-03  0.1301950E+04  0.7818609E-02  0.9028020E-01
       -2   -1    0    0    0  501  0.00000000000E+00  0.00000000000E+00  0.16858831705E+03  0.16858831707E+03  0.25500000920E-02 0.  1.
        2   -1    0    0  501    0  0.00000000000E+00  0.00000000000E+00 -0.25136290917E+04  0.25136290917E+04  0.25500000920E-02 0. -1.
    10030    2    1    2    0    0  0.00000000000E+00  0.00000000000E+00 -0.23450407746E+04  0.26822174087E+04  0.13019500732E+04 0.  0.
        4    1    3    3  502    0 -0.25101658697E+03  0.15935728142E+03 -0.23655661428E+04  0.23841788647E+04  0.12699999809E+01 0. -1.
       -4    1    3    3    0  502  0.25101658697E+03 -0.15935728142E+03  0.20525368198E+02  0.29803854401E+03  0.12699999809E+01 0.  1.
</event>
<event>
 5   0  0.2312105E-03  0.1267200E+04  0.7818609E-02  0.9055988E-01
       -2   -1    0    0    0  501  0.00000000000E+00  0.00000000000E+00  0.31343048780E+03  0.31343048781E+03  0.25500000920E-02 0.  1.
        2   -1    0    0  501    0  0.00000000000E+00  0.00000000000E+00 -0.12808227992E+04  0.12808227992E+04  0.25500000920E-02 0. -1.
    10030    2    1    2    0    0  0.00000000000E+00  0.00000000000E+00 -0.96739231141E+03  0.15942532870E+04  0.12671999286E+04 0.  0.
        5    1    3    3  502    0  0.22519372764E+03 -0.15500913462E+03 -0.12027773981E+04  0.12334648784E+04  0.46999998093E+01 0. -1.
       -5    1    3    3    0  502 -0.22519372764E+03  0.15500913462E+03  0.23538508669E+03  0.36078840866E+03  0.46999998093E+01 0.  1.
</event>
<event>
 5   0  0.2312105E-03  0.9615333E+03  0.7818609E-02  0.9351771E-01
       -2   -1    0    0    0  501  0.00000000000E+00  0.00000000000E+00  0.36336716184E+03  0.36336716185E+03  0.25500000920E-02 0. -1.
        2   -1    0    0  501    0  0.00000000000E+00  0.00000000000E+00 -0.63609647197E+03  0.63609647197E+03  0.25500000920E-02 0.  1.
    10030    2    1    2    0    0  0.00000000000E+00  0.00000000000E+00 -0.27272931013E+03  0.99946363382E+03  0.96153329569E+03 0.  0.
        5    1    3    3  502    0 -0.47175479794E+03 -0.85453360689E+02 -0.17325573040E+03  0.50979849386E+03  0.46999998093E+01 0.  1.
       -5    1    3    3    0  502  0.47175479794E+03  0.85453360689E+02 -0.99473579731E+02  0.48966513996E+03  0.46999998093E+01 0. -1.
</event>
<event>
 5   0  0.1310461E-03  0.1295437E+04  0.7818609E-02  0.9033191E-01
       -1   -1    0    0    0  501  0.00000000000E+00  0.00000000000E+00  0.54166206043E+03  0.54166206045E+03  0.50400001928E-02 0. -1.
        1   -1    0    0  501    0  0.00000000000E+00  0.00000000000E+00 -0.77454086457E+03  0.77454086458E+03  0.50400001928E-02 0.  1.
    10030    2    1    2    0    0  0.00000000000E+00  0.00000000000E+00 -0.23287880414E+03  0.13162029250E+04  0.12954372244E+04 0.  0.
        4    1    3    3  502    0 -0.20751722036E+03  0.57981029603E+03  0.87513029915E+02  0.62201569067E+03  0.12699999809E+01 0. -1.
       -4    1    3    3    0  502  0.20751722036E+03 -0.57981029603E+03 -0.32039183405E+03  0.69418723437E+03  0.12699999809E+01 0.  1.
</event>
<event>
 5   0  0.1310461E-03  0.1303915E+04  0.7818609E-02  0.9026466E-01
        1   -1    0    0  501    0  0.00000000000E+00  0.00000000000E+00  0.42314483255E+03  0.42314483258E+03  0.50400001928E-02 0. -1.
       -1   -1    0    0    0  501  0.00000000000E+00  0.00000000000E+00 -0.10044993869E+04  0.10044993869E+04  0.50400001928E-02 0.  1.
    10030    2    1    2    0    0  0.00000000000E+00  0.00000000000E+00 -0.58135455433E+03  0.14276442195E+04  0.13039152195E+04 0.  0.
        4    1    3    3  502    0 -0.99114002897E+02  0.14557131029E+03 -0.97796196745E+03  0.99369301831E+03  0.12699999809E+01 0.  1.
       -4    1    3    3    0  502  0.99114002897E+02 -0.14557131029E+03  0.39660741312E+03  0.43395120116E+03  0.12699999809E+01 0. -1.
</event>
<event>
 5   0  0.9131250E-04  0.1299402E+04  0.7818609E-02  0.9030039E-01
        3   -1    0    0  501    0  0.00000000000E+00  0.00000000000E+00  0.52916854957E+03  0.52916855921E+03  0.10100000352E+00 0.  1.
       -3   -1    0    0    0  501  0.00000000000E+00  0.00000000000E+00 -0.79768833562E+03  0.79768834201E+03  0.10100000352E+00 0. -1.
    10030    2    1    2    0    0  0.00000000000E+00  0.00000000000E+00 -0.26851978605E+03  0.13268569012E+04  0.12994023091E+04 0.  0.
        3    1    3    3  502    0  0.64441281816E+03  0.80598217121E+02 -0.15329859457E+03  0.66728136652E+03  0.10100000352E+00 0. -1.
       -3    1    3    3    0  502 -0.64441281816E+03 -0.80598217121E+02 -0.11522119147E+03  0.65957553470E+03  0.10100000352E+00 0.  1.
</event>
<event>
 5   0  0.1324721E-03  0.1261887E+04  0.7818609E-02  0.9060347E-01
        1   -1    0    0  501    0  0.00000000000E+00  0.00000000000E+00  0.54984433634E+03  0.54984433636E+03  0.50400001928E-02 0.  1.
       -1   -1    0    0    0  501  0.00000000000E+00  0.00000000000E+00 -0.72400481790E+03  0.72400481792E+03  0.50400001928E-02 0. -1.
    10030    2    1    2    0    0  0.00000000000E+00  0.00000000000E+00 -0.17416048156E+03  0.12738491543E+04  0.12618873938E+04 0.  0.
        1    1    3    3  502    0 -0.40339883239E+03  0.40428992028E+03  0.18362022233E+03  0.59991444697E+03  0.50400001928E-02 0.  1.
       -1    1    3    3    0  502  0.40339883239E+03 -0.40428992028E+03 -0.35778070389E+03  0.67393470731E+03  0.50400001928E-02 0. -1.
</event>
<event>
 5   0  0.2312105E-03  0.1273526E+04  0.7818609E-02  0.9050827E-01
       -2   -1    0    0    0  501  0.00000000000E+00  0.00000000000E+00  0.49051174559E+03  0.49051174560E+03  0.25500000920E-02 0.  1.
        2   -1    0    0  501    0  0.00000000000E+00  0.00000000000E+00 -0.82662098441E+03  0.82662098441E+03  0.25500000920E-02 0. -1.
    10030    2    1    2    0    0  0.00000000000E+00  0.00000000000E+00 -0.33610923882E+03  0.13171327300E+04  0.12735262887E+04 0.  0.
        5    1    3    3  502    0 -0.83384058673E+01 -0.33151379349E+03  0.39413325566E+03  0.51510585077E+03  0.46999998093E+01 0.  1.
       -5    1    3    3    0  502  0.83384058673E+01  0.33151379349E+03 -0.73024249447E+03  0.80202687924E+03  0.46999998093E+01 0. -1.
</event>
<event>
 5   0  0.2401211E-03  0.1242881E+04  0.7818609E-02  0.9076129E-01
        2   -1    0    0  501    0  0.00000000000E+00  0.00000000000E+00  0.12631985960E+04  0.12631985960E+04  0.25500000920E-02 0. -1.
       -2   -1    0    0    0  501  0.00000000000E+00  0.00000000000E+00 -0.30572260437E+03  0.30572260438E+03  0.25500000920E-02 0.  1.
    10030    2    1    2    0    0  0.00000000000E+00  0.00000000000E+00  0.95747599162E+03  0.15689212004E+04  0.12428811120E+04 0.  0.
        4    1    3    3  502    0 -0.54271872783E+03  0.66046450670E+02  0.85167149960E+03  0.10120532137E+04  0.12699999809E+01 0.  1.
       -4    1    3    3    0  502  0.54271872783E+03 -0.66046450670E+02  0.10580449202E+03  0.55686798670E+03  0.12699999809E+01 0. -1.
</event>
<event>
 5   0  0.2334946E-03  0.1309659E+04  0.7818609E-02  0.9021940E-01
        2   -1    0    0  501    0  0.00000000000E+00  0.00000000000E+00  0.12236008155E+04  0.12236008155E+04  0.25500000920E-02 0.  1.
       -2   -1    0    0    0  501  0.00000000000E+00  0.00000000000E+00 -0.35044239309E+03  0.35044239310E+03  0.25500000920E-02 0. -1.
    10030    2    1    2    0    0  0.00000000000E+00  0.00000000000E+00  0.87315842237E+03  0.15740432086E+04  0.13096588838E+04 0.  0.
        1    1    3    3  502    0  0.25062437151E+03 -0.90080015751E+02  0.11555709533E+04  0.11858630667E+04  0.50400001928E-02 0.  1.
       -1    1    3    3    0  502 -0.25062437151E+03  0.90080015751E+02 -0.28241253097E+03  0.38818014182E+03  0.50400001928E-02 0. -1.
</event>
<event>
 5   0  0.2334946E-03  0.1337121E+04  0.7818609E-02  0.9000635E-01
        2   -1    0    0  501    0  0.00000000000E+00  0.00000000000E+00  0.98126468581E+03  0.98126468581E+03  0.25500000920E-02 0.  1.
       -2   -1    0    0    0  501  0.00000000000E+00  0.00000000000E+00 -0.45550715179E+03  0.45550715180E+03  0.25500000920E-02 0. -1.
    10030    2    1    2    0    0  0.00000000000E+00  0.00000000000E+00  0.52575753402E+03  0.14367718376E+04  0.13371209103E+04 0.  0.
        1    1    3    3  502    0 -0.33784100658E+03 -0.17814555039E+03  0.85249985570E+03  0.93414580599E+03  0.50400001928E-02 0.  1.
       -1    1    3    3    0  502  0.33784100658E+03  0.17814555039E+03 -0.32674232168E+03  0.50262603161E+03  0.50400001928E-02 0. -1.
</event>
<event>
 5   0  0.1346593E-03  0.1309698E+04  0.7818609E-02  0.9021910E-01
        1   -1    0    0  501    0  0.00000000000E+00  0.00000000000E+00  0.70393375099E+03  0.70393375101E+03  0.50400001928E-02 0. -1.
       -1   -1    0    0    0  501  0.00000000000E+00  0.00000000000E+00 -0.60918650401E+03  0.60918650403E+03  0.50400001928E-02 0.  1.
    10030    2    1    2    0    0  0.00000000000E+00  0.00000000000E+00  0.94747246986E+02  0.13131202550E+04  0.13096975847E+04 0.  0.
        2    1    3    3  502    0  0.33495529027E+03 -0.11587830137E+03 -0.50470511039E+03  0.61672528379E+03  0.25500000920E-02 0.  1.
       -2    1    3    3    0  502 -0.33495529027E+03  0.11587830137E+03  0.59945235738E+03  0.69639497125E+03  0.25500000920E-02 0. -1.
</event>
<event>
 5   0  0.1332630E-03  0.1329182E+04  0.7818609E-02  0.9006738E-01
        1   -1    0    0  501    0  0.00000000000E+00  0.00000000000E+00  0.42906247975E+03  0.42906247978E+03  0.50400001928E-02 0.  1.
       -1   -1    0    0    0  501  0.00000000000E+00  0.00000000000E+00 -0.10294102430E+04  0.10294102430E+04  0.50400001928E-02 0. -1.
    10030    2    1    2    0    0  0.00000000000E+00  0.00000000000E+00 -0.60034776320E+03  0.14584727227E+04  0.13291821719E+04 0.  0.
        5    1    3    3  502    0 -0.22500981245E+03  0.44130594508E+02  0.38426478859E+03  0.44750245007E+03  0.46999998093E+01 0.  1.
       -5    1    3    3    0  502  0.22500981245E+03 -0.44130594508E+02 -0.98461255179E+03  0.10109702727E+04  0.46999998093E+01 0. -1.
</event>
<event>
 5   0  0.2312105E-03  0.1309889E+04  0.7818609E-02  0.9021759E-01
       -2   -1    0    0    0  501  0.00000000000E+00  0.00000000000E+00  0.35584989766E+03  0.35584989767E+03  0.25500000920E-02 0.  1.
        2   -1    0    0  501    0  0.00000000000E+00  0.00000000000E+00 -0.12054308359E+04  0.12054308359E+04  0.25500000920E-02 0. -1.
    10030    2    1    2    0    0  0.00000000000E+00  0.00000000000E+00 -0.84958093823E+03  0.15612807336E+04  0.13098892161E+04 0.  0.
        5    1    3    3  502    0  0.12641356290E+03  0.24424174205E+03 -0.11332511501E+04  0.11661537963E+04  0.46999998093E+01 0. -1.
       -5    1    3    3    0  502 -0.12641356290E+03 -0.24424174205E+03  0.28367021187E+03  0.39512693726E+03  0.46999998093E+01 0.  1.
</event>
<event>
 5   0  0.1310461E-03  0.1296606E+04  0.7818609E-02  0.9032261E-01
        1   -1    0    0  501    0  0.00000000000E+00  0.00000000000E+00  0.16698493220E+04  0.16698493220E+04  0.50400001928E-02 0.  1.
       -1   -1    0    0    0  501  0.00000000000E+00  0.00000000000E+00 -0.25169729983E+03  0.25169729988E+03  0.50400001928E-02 0. -1.
    10030    2    1    2    0    0  0.00000000000E+00  0.00000000000E+00  0.14181520222E+04  0.19215466219E+04  0.12966056695E+04 0.  0.
        4    1    3    3  502    0 -0.30853291071E+03 -0.52030561148E+03  0.10546813520E+04  0.12158391561E+04  0.12699999809E+01 0. -1.
       -4    1    3    3    0  502  0.30853291071E+03  0.52030561148E+03  0.36347067021E+03  0.70570746583E+03  0.12699999809E+01 0.  1.
</event>
<event>
 5   0  0.2361043E-03  0.1302433E+04  0.7818609E-02  0.9027638E-01
       -2   -1    0    0    0  501  0.00000000000E+00  0.00000000000E+00  0.54856640307E+03  0.54856640307E+03  0.25500000920E-02 0. -1.
        2   -1    0    0  501    0  0.00000000000E+00  0.00000000000E+00 -0.77307543981E+03  0.77307543981E+03  0.25500000920E-02 0.  1.
    10030    2    1    2    0    0  0.00000000000E+00  0.00000000000E+00 -0.22450903674E+03  0.13216418429E+04  0.13024334353E+04 0.  0.
        2    1    3    3  502    0  0.13493665062E+03 -0.52222485873E+03 -0.48254235474E+03  0.72372220284E+03  0.25500000920E-02 0.  1.
       -2    1    3    3    0  502 -0.13493665062E+03  0.52222485873E+03  0.25803331800E+03  0.59791964005E+03  0.25500000920E-02 0. -1.
</event>
<event>
 5   0  0.1324721E-03  0.1107949E+04  0.7818609E-02  0.9197479E-01
        1   -1    0    0  501    0  0.00000000000E+00  0.00000000000E+00  0.10732257656E+04  0.10732257656E+04  0.50400001928E-02 0. -1.
       -1   -1    0    0    0  501  0.00000000000E+00  0.00000000000E+00 -0.28594879672E+03  0.28594879676E+03  0.50400001928E-02 0.  1.
    10030    2    1    2    0    0  0.00000000000E+00  0.00000000000E+00  0.78727696892E+03  0.13591745624E+04  0.11079487647E+04 0.  0.
        1    1    3    3  502    0 -0.24088098725E+03  0.34451040254E+03 -0.48972244469E+02  0.42321312389E+03  0.50400001928E-02 0.  1.
       -1    1    3    3    0  502  0.24088098725E+03 -0.34451040254E+03  0.83624921339E+03  0.93596143852E+03  0.50400001928E-02 0. -1.
</event>
<event>
 5   0  0.2478236E-03  0.1259779E+04  0.7818609E-02  0.9062084E-01
       -2   -1    0    0    0  501  0.00000000000E+00  0.00000000000E+00  0.36636225916E+03  0.36636225917E+03  0.25500000920E-02 0. -1.
        2   -1    0    0  501    0  0.00000000000E+00  0.00000000000E+00 -0.10829733141E+04  0.10829733141E+04  0.25500000920E-02 0.  1.
    10030    2    1    2    0    0  0.00000000000E+00  0.00000000000E+00 -0.71661105489E+03  0.14493355732E+04  0.12597786313E+04 0.  0.
        3    1    3    3  502    0  0.12637296316E+03 -0.18814675553E+03 -0.10344357613E+04  0.10589743538E+04  0.10100000352E+00 0.  1.
       -3    1    3    3    0  502 -0.12637296316E+03  0.18814675553E+03  0.31782470644E+03  0.39036121946E+03  0.10100000352E+00 0. -1.
</event>
<event>
 5   0  0.2312105E-03  0.1263553E+04  0.7818609E-02  0.9058978E-01
       -2   -1    0    0    0  501  0.00000000000E+00  0.00000000000E+00  0.59427493729E+03  0.59427493729E+03  0.25500000920E-02 0. -1.
        2   -1    0    0  501    0  0.00000000000E+00  0.00000000000E+00 -0.67164510464E+03  0.67164510464E+03  0.25500000920E-02 0.  1.
    10030    2    1    2    0    0  0.00000000000E+00  0.00000000000E+00 -0.77370167353E+02  0.12659200419E+04  0.12635534851E+04 0.  0.
        5    1    3    3  502    0  0.24503248142E+03 -0.42965803738E+02  0.54312003842E+03  0.59740140891E+03  0.46999998093E+01 0. -1.
       -5    1    3    3    0  502 -0.24503248142E+03  0.42965803738E+02 -0.62049020577E+03  0.66851863302E+03  0.46999998093E+01 0.  1.
</event>
<event>
 5   0  0.1324721E-03  0.1300690E+04  0.7818609E-02  0.9029018E-01
       -1   -1    0    0    0  501  0.00000000000E+00  0.00000000000E+00  0.64438842842E+03  0.64438842844E+03  0.50400001928E-02 0.  1.
        1   -1    0    0  501    0  0.00000000000E+00  0.00000000000E+00 -0.65635712839E+03  0.65635712841E+03  0.50400001928E-02 0. -1.
    10030    2    1    2    0    0  0.00000000000E+00  0.00000000000E+00 -0.11968699975E+02  0.13007455568E+04  0.13006904912E+04 0.  0.
        1    1    3    3  502    0  0.24989093882E+02 -0.28903142330E+03 -0.58806166961E+03  0.65572871354E+03  0.50400001928E-02 0. -1.
       -1    1    3    3    0  502 -0.24989093882E+02  0.28903142330E+03  0.57609296963E+03  0.64501684331E+03  0.50400001928E-02 0.  1.
</event>
<event>
 5   0  0.1310461E-03  0.1294248E+04  0.7818609E-02  0.9034139E-01
        1   -1    0    0  501    0  0.00000000000E+00  0.00000000000E+00  0.12308490938E+04  0.12308490938E+04  0.50400001928E-02 0. -1.
       -1   -1    0    0    0  501  0.00000000000E+00  0.00000000000E+00 -0.34022814447E+03  0.34022814451E+03  0.50400001928E-02 0.  1.
    10030    2    1    2    0    0  0.00000000000E+00  0.00000000000E+00  0.89062094935E+03  0.15710772383E+04  0.12942480494E+04 0.  0.
        4    1    3    3  502    0  0.77040704426E+02  0.48215881694E+03 -0.70208562450E+02  0.49329833776E+03  0.12699999809E+01 0.  1.
       -4    1    3    3    0  502 -0.77040704426E+02 -0.48215881694E+03  0.96082951180E+03  0.10777789006E+04  0.12699999809E+01 0. -1.
</event>
<event>
 5   0  0.1332630E-03  0.1304938E+04  0.7818609E-02  0.9025659E-01
       -1   -1    0    0    0  501  0.00000000000E+00  0.00000000000E+00  0.94066779495E+03  0.94066779497E+03  0.50400001928E-02 0.  1.
        1   -1    0    0  501    0  0.00000000000E+00  0.00000000000E+00 -0.45256754136E+03  0.45256754139E+03  0.50400001928E-02 0. -1.
    10030    2    1    2    0    0  0.00000000000E+00  0.00000000000E+00  0.48810025360E+03  0.13932353364E+04  0.13049378701E+04 0.  0.
        5    1    3    3  502    0 -0.27667845234E+03  0.33177962045E+03  0.76607667442E+03  0.87950227039E+03  0.46999998093E+01 0.  1.
       -5    1    3    3    0  502  0.27667845234E+03 -0.33177962045E+03 -0.27797642082E+03  0.51373306597E+03  0.46999998093E+01 0. -1.
</event>
<event>
 5   0  0.1332630E-03  0.1035530E+04  0.7818609E-02  0.9270412E-01
        1   -1    0    0  501    0  0.00000000000E+00  0.00000000000E+00  0.40046755618E+03  0.40046755622E+03  0.50400001928E-02 0. -1.
       -1   -1    0    0    0  501  0.00000000000E+00  0.00000000000E+00 -0.66941903803E+03  0.66941903805E+03  0.50400001928E-02 0.  1.
    10030    2    1    2    0    0  0.00000000000E+00  0.00000000000E+00 -0.26895148184E+03  0.10698865943E+04  0.10355300213E+04 0.  0.
        5    1    3    3  502    0  0.43555428367E+03 -0.19989359741E+03 -0.33691935634E+03  0.58583421459E+03  0.46999998093E+01 0.  1.
       -5    1    3    3    0  502 -0.43555428367E+03  0.19989359741E+03  0.67967874494E+02  0.48405237968E+03  0.46999998093E+01 0. -1.
</event>
<event>
 5   0  0.2312105E-03  0.1327848E+04  0.7818609E-02  0.9007768E-01
        2   -1    0    0  501    0  0.00000000000E+00  0.00000000000E+00  0.12769302398E+04  0.12769302398E+04  0.25500000920E-02 0.  1.
       -2   -1    0    0    0  501  0.00000000000E+00  0.00000000000E+00 -0.34519926048E+03  0.34519926049E+03  0.25500000920E-02 0. -1.
    10030    2    1    2    0    0  0.00000000000E+00  0.00000000000E+00  0.93173097930E+03  0.16221295003E+04  0.13278484469E+04 0.  0.
        5    1    3    3  502    0 -0.36700086611E+03  0.19959534237E+03 -0.16447909588E+03  0.44900267193E+03  0.46999998093E+01 0. -1.
       -5    1    3    3    0  502  0.36700086611E+03 -0.19959534237E+03  0.10962100752E+04  0.11731268283E+04  0.46999998093E+01 0.  1.
</event>
<event>
 5   0  0.2312105E-03  0.1293513E+04  0.7818609E-02  0.9034726E-01
       -2   -1    0    0    0  501  0.00000000000E+00  0.00000000000E+00  0.61329650462E+03  0.61329650463E+03  0.25500000920E-02 0.  1.
        2   -1    0    0  501    0  0.00000000000E+00  0.00000000000E+00 -0.68204146984E+03  0.68204146985E+03  0.25500000920E-02 0. -1.
    10030    2    1    2    0    0  0.00000000000E+00  0.00000000000E+00 -0.68744965219E+02  0.12953379745E+04  0.12935125039E+04 0.  0.
        5    1    3    3  502    0 -0.15732203638E+03 -0.27355134373E+03 -0.59969640677E+03  0.67767132969E+03  0.46999998093E+01 0. -1.
       -5    1    3    3    0  502  0.15732203638E+03  0.27355134373E+03  0.53095144156E+03  0.61766664478E+03  0.46999998093E+01 0.  1.
</event>
<event>
 5   0  0.2478236E-03  0.1143589E+04  0.7818609E-02  0.9163718E-01
       -2   -1    0    0    0  501  0.00000000000E+00  0.00000000000E+00  0.65717427611E+03  0.65717427611E+03  0.25500000920E-02 0. -1.
        2   -1    0    0  501    0  0.00000000000E+00  0.00000000000E+00 -0.49750739154E+03  0.49750739154E+03  0.25500000920E-02 0.  1.
    10030    2    1    2    0    0  0.00000000000E+00  0.00000000000E+00  0.15966688457E+03  0.11546816677E+04  0.11435891918E+04 0.  0.
        3    1    3    3  502    0 -0.29491630217E+03  0.11291741279E+03 -0.40146942845E+03  0.51078731345E+03  0.10100000352E+00 0.  1.
       -3    1    3    3    0  502  0.29491630217E+03 -0.11291741279E+03  0.56113631302E+03  0.64389435421E+03  0.10100000352E+00 0. -1.
</event>
<event>
 5   0  0.2312105E-03  0.1298516E+04  0.7818609E-02  0.9030743E-01
        2   -1    0    0  501    0  0.00000000000E+00  0.00000000000E+00  0.68943615469E+03  0.68943615469E+03  0.25500000920E-02 0. -1.
       -2   -1    0    0    0  501  0.00000000000E+00  0.00000000000E+00 -0.61142138534E+03  0.61142138534E+03  0.25500000920E-02 0.  1.
    10030    2    1    2    0    0  0.00000000000E+00  0.00000000000E+00  0.78014769352E+02  0.13008575400E+04  0.12985160897E+04 0.  0.
        5    1    3    3  502    0  0.51388386558E+03  0.38499033002E+03  0.13519998759E+03  0.65619761364E+03  0.46999998093E+01 0. -1.
       -5    1    3    3    0  502 -0.51388386558E+03 -0.38499033002E+03 -0.57185218237E+02  0.64465992639E+03  0.46999998093E+01 0.  1.
</event>
<event>
 5   0  0.1346593E-03  0.1294194E+04  0.7818609E-02  0.9034182E-01
       -1   -1    0    0    0  501  0.00000000000E+00  0.00000000000E+00  0.64470917511E+03  0.64470917513E+03  0.50400001928E-02 0.  1.
        1   -1    0    0  501    0  0.00000000000E+00  0.00000000000E+00 -0.64949392010E+03  0.64949392012E+03  0.50400001928E-02 0. -1.
    10030    2    1    2    0    0  0.00000000000E+00  0.00000000000E+00 -0.47847449892E+01  0.12942030953E+04  0.12941942505E+04 0.  0.
        2    1    3    3  502    0 -0.14600566866E+02  0.23449127369E+03 -0.60533542491E+03  0.64933066357E+03  0.25500000920E-02 0. -1.
       -2    1    3    3    0  502  0.14600566866E+02 -0.23449127369E+03  0.60055067992E+03  0.64487243169E+03  0.25500000920E-02 0.  1.
</event>
<event>
 5   0  0.2478236E-03  0.1302832E+04  0.7818609E-02  0.9027322E-01
        2   -1    0    0  501    0  0.00000000000E+00  0.00000000000E+00  0.10702156348E+04  0.10702156348E+04  0.25500000920E-02 0. -1.
       -2   -1    0    0    0  501  0.00000000000E+00  0.00000000000E+00 -0.39650220968E+03  0.39650220969E+03  0.25500000920E-02 0.  1.
    10030    2    1    2    0    0  0.00000000000E+00  0.00000000000E+00  0.67371342515E+03  0.14667178445E+04  0.13028320906E+04 0.  0.
        3    1    3    3  502    0 -0.32566002579E+03 -0.24852479420E+03  0.90704984813E+03  0.99526803572E+03  0.10100000352E+00 0. -1.
       -3    1    3    3    0  502  0.32566002579E+03  0.24852479420E+03 -0.23333642298E+03  0.47144980880E+03  0.10100000352E+00 0.  1.
</event>
<event>
 5   0  0.2361043E-03  0.1340675E+04  0.7818609E-02  0.8997917E-01
        2   -1    0    0  501    0  0.00000000000E+00  0.00000000000E+00  0.65021416542E+03  0.65021416542E+03  0.25500000920E-02 0. -1.
       -2   -1    0    0    0  501  0.00000000000E+00  0.00000000000E+00 -0.69108342527E+03  0.69108342527E+03  0.25500000920E-02 0.  1.
    10030    2    1    2    0    0  0.00000000000E+00  0.00000000000E+00 -0.40869259849E+02  0.13412975907E+04  0.13406748041E+04 0.  0.
        2    1    3    3  502    0 -0.18912601910E+03 -0.26011719898E+03 -0.60885971718E+03  0.68857807365E+03  0.25500000920E-02 0.  1.
       -2    1    3    3    0  502  0.18912601910E+03  0.26011719898E+03  0.56799045733E+03  0.65271951704E+03  0.25500000920E-02 0. -1.
</event>
<event>
 5   0  0.2478236E-03  0.1311954E+04  0.7818609E-02  0.9020139E-01
        2   -1    0    0  501    0  0.00000000000E+00  0.00000000000E+00  0.66671773930E+03  0.66671773930E+03  0.25500000920E-02 0. -1.
       -2   -1    0    0    0  501  0.00000000000E+00  0.00000000000E+00 -0.64540934956E+03  0.64540934957E+03  0.25500000920E-02 0.  1.
    10030    2    1    2    0    0  0.00000000000E+00  0.00000000000E+00  0.21308389733E+02  0.13121270889E+04  0.13119540578E+04 0.  0.
        3    1    3    3  502    0  0.28581160508E+03  0.58386344796E+03 -0.77226915576E+02  0.65463639232E+03  0.10100000352E+00 0.  1.
       -3    1    3    3    0  502 -0.28581160508E+03 -0.58386344796E+03  0.98535305309E+02  0.65749069655E+03  0.10100000352E+00 0. -1.
</event>
<event>
 5   0  0.1346593E-03  0.1158422E+04  0.7818609E-02  0.9150048E-01
        1   -1    0    0  501    0  0.00000000000E+00  0.00000000000E+00  0.13254235531E+04  0.13254235531E+04  0.50400001928E-02 0. -1.
       -1   -1    0    0    0  501  0.00000000000E+00  0.00000000000E+00 -0.25311581426E+03  0.25311581431E+03  0.50400001928E-02 0.  1.
    10030    2    1    2    0    0  0.00000000000E+00  0.00000000000E+00  0.10723077388E+04  0.15785393674E+04  0.11584224824E+04 0.  0.
        2    1    3    3  502    0  0.11889695542E+03 -0.22150624485E+03  0.12472030296E+04  0.12722880568E+04  0.25500000920E-02 0. -1.
       -2    1    3    3    0  502 -0.11889695542E+03  0.22150624485E+03 -0.17489529075E+03  0.30625131060E+03  0.25500000920E-02 0.  1.
</event>
<event>
 5   0  0.2361043E-03  0.1290525E+04  0.7818609E-02  0.9037113E-01
        2   -1    0    0  501    0  0.00000000000E+00  0.00000000000E+00  0.30193898142E+03  0.30193898143E+03  0.25500000920E-02 0. -1.
       -2   -1    0    0    0  501  0.00000000000E+00  0.00000000000E+00 -0.13789670048E+04  0.13789670048E+04  0.25500000920E-02 0.  1.
    10030    2    1    2    0    0  0.00000000000E+00  0.00000000000E+00 -0.10770280234E+04  0.16809059862E+04  0.12905253083E+04 0.  0.
        2    1    3    3  502    0 -0.54285191079E+03  0.10805284132E+03 -0.97050410949E+03  0.11172474391E+04  0.25500000920E-02 0.  1.
       -2    1    3    3    0  502  0.54285191079E+03 -0.10805284132E+03 -0.10652391391E+03  0.56365854718E+03  0.25500000920E-02 0. -1.
</event>
<event>
 5   0  0.1310461E-03  0.1298636E+04  0.7818609E-02  0.9030648E-01
        1   -1    0    0  501    0  0.00000000000E+00  0.00000000000E+00  0.12515500598E+04  0.12515500598E+04  0.50400001928E-02 0. -1.
       -1   -1    0    0    0  501  0.00000000000E+00  0.00000000000E+00 -0.33687329157E+03  0.33687329161E+03  0.50400001928E-02 0.  1.
    10030    2    1    2    0    0  0.00000000000E+00  0.00000000000E+00  0.91467676823E+03  0.15884233514E+04  0.12986358816E+04 0.  0.
        4    1    3    3  502    0 -0.14321785472E+03  0.18615496239E+03 -0.28309252446E+03  0.36784237690E+03  0.12699999809E+01 0.  1.
       -4    1    3    3    0  502  0.14321785472E+03 -0.18615496239E+03  0.11977692927E+04  0.12205809745E+04  0.12699999809E+01 0. -1.
</event>
<event>
 5   0  0.1310461E-03  0.1277238E+04  0.7818609E-02  0.9047813E-01
        1   -1    0    0  501    0  0.00000000000E+00  0.00000000000E+00  0.13994369525E+04  0.13994369525E+04  0.50400001928E-02 0.  1.
       -1   -1    0    0    0  501  0.00000000000E+00  0.00000000000E+00 -0.29142736517E+03  0.29142736521E+03  0.50400001928E-02 0. -1.
    10030    2    1    2    0    0  0.00000000000E+00  0.00000000000E+00  0.11080095873E+04  0.16908643177E+04  0.12772379948E+04 0.  0.
        4    1    3    3  502    0  0.46982178058E+03 -0.37849816694E+03  0.83118898238E+03  0.10270686955E+04  0.12699999809E+01 0.  1.
       -4    1    3    3    0  502 -0.46982178058E+03  0.37849816694E+03  0.27682060495E+03  0.66379562224E+03  0.12699999809E+01 0. -1.
</event>
<event>
 5   0  0.2401211E-03  0.1275261E+04  0.7818609E-02  0.9049417E-01
        2   -1    0    0  501    0  0.00000000000E+00  0.00000000000E+00  0.51669090150E+03  0.51669090150E+03  0.25500000920E-02 0.  1.
       -2   -1    0    0    0  501  0.00000000000E+00  0.00000000000E+00 -0.78687811599E+03  0.78687811599E+03  0.25500000920E-02 0. -1.
    10030    2    1    2    0    0  0.00000000000E+00  0.00000000000E+00 -0.27018721449E+03  0.13035690175E+04  0.12752611703E+04 0.  0.
        4    1    3    3  502    0 -0.57401489297E+03  0.23324357026E+03 -0.28902004967E+03  0.68368842496E+03  0.12699999809E+01 0.  1.
       -4    1    3    3    0  502  0.57401489297E+03 -0.23324357026E+03  0.18832835178E+02  0.61988059253E+03  0.12699999809E+01 0. -1.
</event>
<event>
 5   0  0.1387622E-03  0.1519397E+04  0.7818609E-02  0.8871655E-01
        1   -1    0    0  501    0  0.00000000000E+00  0.00000000000E+00  0.12896434116E+04  0.12896434116E+04  0.50400001928E-02 0.  1.
       -1   -1    0    0    0  501  0.00000000000E+00  0.00000000000E+00 -0.44752062476E+03  0.44752062479E+03  0.50400001928E-02 0. -1.
    10030    2    1    2    0    0  0.00000000000E+00  0.00000000000E+00  0.84212278686E+03  0.17371640364E+04  0.15193972823E+04 0.  0.
        3    1    3    3  502    0  0.24058129744E+03  0.57748187158E+03  0.91385589963E+03  0.11074733803E+04  0.10100000352E+00 0.  1.
       -3    1    3    3    0  502 -0.24058129744E+03 -0.57748187158E+03 -0.71733112771E+02  0.62969065608E+03  0.10100000352E+00 0. -1.
</event>
<event>
 5   0  0.9131250E-04  0.1106390E+04  0.7818609E-02  0.9198986E-01
       -4   -1    0    0    0  501  0.00000000000E+00  0.00000000000E+00  0.10015974002E+04  0.10015982053E+04  0.12699999809E+01 0.  1.
        4   -1    0    0  501    0  0.00000000000E+00  0.00000000000E+00 -0.30553422323E+03  0.30553686270E+03  0.12699999809E+01 0. -1.
    10030    2    1    2    0    0  0.00000000000E+00  0.00000000000E+00  0.69606317694E+03  0.13071350680E+04  0.11063896871E+04 0.  0.
        1    1    3    3  502    0 -0.22927060861E+03 -0.85849659758E+02 -0.23805092598E+03  0.34147242852E+03  0.50400001928E-02 0. -1.
       -1    1    3    3    0  502  0.22927060861E+03  0.85849659758E+02  0.93411410292E+03  0.96566263951E+03  0.50400001928E-02 0.  1.
</event>
<event>
 5   0  0.2334946E-03  0.1333292E+04  0.7818609E-02  0.9003573E-01
        2   -1    0    0  501    0  0.00000000000E+00  0.00000000000E+00  0.17548106066E+04  0.17548106066E+04  0.25500000920E-02 0.  1.
       -2   -1    0    0    0  501  0.00000000000E+00  0.00000000000E+00 -0.25325620078E+03  0.25325620079E+03  0.25500000920E-02 0. -1.
    10030    2    1    2    0    0  0.00000000000E+00  0.00000000000E+00  0.15015544058E+04  0.20080668074E+04  0.13332916670E+04 0.  0.
        1    1    3    3  502    0 -0.28858462190E+02 -0.15025249748E+03  0.17280103495E+04  0.17347704147E+04  0.50400001928E-02 0.  1.
       -1    1    3    3    0  502  0.28858462190E+02  0.15025249748E+03 -0.22645594362E+03  0.27329639271E+03  0.50400001928E-02 0. -1.
</event>
<event>
 5   0  0.2478236E-03  0.1300070E+04  0.7818609E-02  0.9029510E-01
       -2   -1    0    0    0  501  0.00000000000E+00  0.00000000000E+00  0.97802998618E+03  0.97802998618E+03  0.25500000920E-02 0.  1.
        2   -1    0    0  501    0  0.00000000000E+00  0.00000000000E+00 -0.43203716909E+03  0.43203716910E+03  0.25500000920E-02 0. -1.
    10030    2    1    2    0    0  0.00000000000E+00  0.00000000000E+00  0.54599281708E+03  0.14100671553E+04  0.13000697005E+04 0.  0.
        3    1    3    3  502    0 -0.60175753334E+03  0.79384189228E+02  0.20649806989E+02  0.60732232229E+03  0.10100000352E+00 0. -1.
       -3    1    3    3    0  502  0.60175753334E+03 -0.79384189228E+02  0.52534301009E+03  0.80274483298E+03  0.10100000352E+00 0.  1.
</event>
<event>
 5   0  0.2361043E-03  0.1292697E+04  0.7818609E-02  0.9035377E-01
        2   -1    0    0  501    0  0.00000000000E+00  0.00000000000E+00  0.18008701846E+04  0.18008701846E+04  0.25500000920E-02 0.  1.
       -2   -1    0    0    0  501  0.00000000000E+00  0.00000000000E+00 -0.23198023096E+03  0.23198023098E+03  0.25500000920E-02 0. -1.
    10030    2    1    2    0    0  0.00000000000E+00  0.00000000000E+00  0.15688899536E+04  0.20328504155E+04  0.12926968421E+04 0.  0.
        2    1    3    3  502    0 -0.59486048658E+03 -0.18092650359E+03  0.10620946847E+04  0.12307065115E+04  0.25500000920E-02 0.  1.
       -2    1    3    3    0  502  0.59486048658E+03  0.18092650359E+03  0.50679526891E+03  0.80214390405E+03  0.25500000920E-02 0. -1.
</event>
<event>
 5   0  0.1324721E-03  0.1323621E+04  0.7818609E-02  0.9011040E-01
        1   -1    0    0  501    0  0.00000000000E+00  0.00000000000E+00  0.77180851290E+03  0.77180851292E+03  0.50400001928E-02 0. -1.
       -1   -1    0    0    0  501  0.00000000000E+00  0.00000000000E+00 -0.56748978728E+03  0.56748978731E+03  0.50400001928E-02 0.  1.
    10030    2    1    2    0    0  0.00000000000E+00  0.00000000000E+00  0.20431872562E+03  0.13392983002E+04  0.13236214698E+04 0.  0.
        1    1    3    3  502    0  0.51338116382E+02 -0.32406905802E+03 -0.47939750048E+03  0.58092884250E+03  0.50400001928E-02 0.  1.
       -1    1    3    3    0  502 -0.51338116382E+02  0.32406905802E+03  0.68371622610E+03  0.75836945773E+03  0.50400001928E-02 0. -1.
</event>
<event>
 5   0  0.2401211E-03  0.1291750E+04  0.7818609E-02  0.9036133E-01
        2   -1    0    0  501    0  0.00000000000E+00  0.00000000000E+00  0.39718657720E+03  0.39718657721E+03  0.25500000920E-02 0. -1.
       -2   -1    0    0    0  501  0.00000000000E+00  0.00000000000E+00 -0.10502741056E+04  0.10502741056E+04  0.25500000920E-02 0.  1.
    10030    2    1    2    0    0  0.00000000000E+00  0.00000000000E+00 -0.65308752835E+03  0.14474606828E+04  0.12917504049E+04 0.  0.
        4    1    3    3  502    0  0.89345829583E+02 -0.19381212455E+03 -0.10096217916E+04  0.10319319706E+04  0.12699999809E+01 0.  1.
       -4    1    3    3    0  502 -0.89345829583E+02  0.19381212455E+03  0.35653426326E+03  0.41552871220E+03  0.12699999809E+01 0. -1.
</event>
<event>
 5   0  0.1387622E-03  0.1320548E+04  0.7818609E-02  0.9013428E-01
        1   -1    0    0  501    0  0.00000000000E+00  0.00000000000E+00  0.71236958179E+03  0.71236958181E+03  0.50400001928E-02 0.  1.
       -1   -1    0    0    0  501  0.00000000000E+00  0.00000000000E+00 -0.61198771621E+03  0.61198771623E+03  0.50400001928E-02 0. -1.
    10030    2    1    2    0    0  0.00000000000E+00  0.00000000000E+00  0.10038186558E+03  0.13243572980E+04  0.13205475129E+04 0.  0.
        3    1    3    3  502    0  0.36058983830E+03  0.64971007042E+02 -0.50067980549E+03  0.62042448458E+03  0.10100000352E+00 0. -1.
       -3    1    3    3    0  502 -0.36058983830E+03 -0.64971007042E+02  0.60106167107E+03  0.70393281346E+03  0.10100000352E+00 0.  1.
</event>
<event>
 5   0  0.2478236E-03  0.9533062E+03  0.7818609E-02  0.9361294E-01
       -2   -1    0    0    0  501  0.00000000000E+00  0.00000000000E+00  0.36801510639E+03  0.36801510640E+03  0.25500000920E-02 0. -1.
        2   -1    0    0  501    0  0.00000000000E+00  0.00000000000E+00 -0.61736100548E+03  0.61736100548E+03  0.25500000920E-02 0.  1.
    10030    2    1    2    0    0  0.00000000000E+00  0.00000000000E+00 -0.24934589909E+03  0.98537611188E+03  0.95330619660E+03 0.  0.
        3    1    3    3  502    0 -0.13947517198E+03  0.31632968042E+03 -0.46385893094E+03  0.57851785481E+03  0.10100000352E+00 0.  1.
       -3    1    3    3    0  502  0.13947517198E+03 -0.31632968042E+03  0.21451303185E+03  0.40685825707E+03  0.10100000352E+00 0. -1.
</event>
<event>
 5   0  0.2478236E-03  0.1295518E+04  0.7818609E-02  0.9033127E-01
       -2   -1    0    0    0  501  0.00000000000E+00  0.00000000000E+00  0.50968486086E+03  0.50968486086E+03  0.25500000920E-02 0. -1.
        2   -1    0    0  501    0  0.00000000000E+00  0.00000000000E+00 -0.82323758070E+03  0.82323758071E+03  0.25500000920E-02 0.  1.
    10030    2    1    2    0    0  0.00000000000E+00  0.00000000000E+00 -0.31355271985E+03  0.13329224416E+04  0.12955180150E+04 0.  0.
        3    1    3    3  502    0  0.43110970829E+03  0.67194437348E+02  0.33581713338E+03  0.55058498914E+03  0.10100000352E+00 0. -1.
       -3    1    3    3    0  502 -0.43110970829E+03 -0.67194437348E+02 -0.64936985323E+03  0.78233745243E+03  0.10100000352E+00 0.  1.
</event>
<event>
 5   0  0.1310461E-03  0.1310705E+04  0.7818609E-02  0.9021119E-01
       -1   -1    0    0    0  501  0.00000000000E+00  0.00000000000E+00  0.48875567683E+03  0.48875567686E+03  0.50400001928E-02 0.  1.
        1   -1    0    0  501    0  0.00000000000E+00  0.00000000000E+00 -0.87873502382E+03  0.87873502384E+03  0.50400001928E-02 0. -1.
    10030    2    1    2    0    0  0.00000000000E+00  0.00000000000E+00 -0.38997934699E+03  0.13674907007E+04  0.13107047438E+04 0.  0.
        4    1    3    3  502    0 -0.16776201243E+03  0.62396061289E+03 -0.80631670411E+02  0.65113287310E+03  0.12699999809E+01 0.  1.
       -4    1    3    3    0  502  0.16776201243E+03 -0.62396061289E+03 -0.30934767658E+03  0.71635782760E+03  0.12699999809E+01 0. -1.
</event>
<event>
 5   0  0.1324721E-03  0.1304369E+04  0.7818609E-02  0.9026108E-01
       -1   -1    0    0    0  501  0.00000000000E+00  0.00000000000E+00  0.40654708819E+03  0.40654708822E+03  0.50400001928E-02 0.  1.
        1   -1    0    0  501    0  0.00000000000E+00  0.00000000000E+00 -0.10462363218E+04  0.10462363219E+04  0.50400001928E-02 0. -1.
    10030    2    1    2    0    0  0.00000000000E+00  0.00000000000E+00 -0.63968923365E+03  0.14527834101E+04  0.13043685526E+04 0.  0.
        1    1    3    3  502    0  0.18430808708E+03 -0.16931934916E+03 -0.99062107591E+03  0.10217478305E+04  0.50400001928E-02 0. -1.
       -1    1    3    3    0  502 -0.18430808708E+03  0.16931934916E+03  0.35093184226E+03  0.43103557962E+03  0.50400001928E-02 0.  1.
</event>
<event>
 5   0  0.2334946E-03  0.1241269E+04  0.7818609E-02  0.9077481E-01
        2   -1    0    0  501    0  0.00000000000E+00  0.00000000000E+00  0.99089153341E+03  0.99089153341E+03  0.25500000920E-02 0.  1.
       -2   -1    0    0    0  501  0.00000000000E+00  0.00000000000E+00 -0.38872809907E+03  0.38872809908E+03  0.25500000920E-02 0. -1.
    10030    2    1    2    0    0  0.00000000000E+00  0.00000000000E+00  0.60216343433E+03  0.13796196325E+04  0.12412693216E+04 0.  0.
        1    1    3    3  502    0  0.40611285553E+03 -0.14812741290E+03  0.79604662744E+03  0.90584745679E+03  0.50400001928E-02 0.  1.
       -1    1    3    3    0  502 -0.40611285553E+03  0.14812741290E+03 -0.19388319311E+03  0.47377217571E+03  0.50400001928E-02 0. -1.
</event>
<event>
 5   0  0.1310461E-03  0.1164977E+04  0.7818609E-02  0.9144077E-01
        1   -1    0    0  501    0  0.00000000000E+00  0.00000000000E+00  0.16061821312E+03  0.16061821320E+03  0.50400001928E-02 0. -1.
       -1   -1    0    0    0  501  0.00000000000E+00  0.00000000000E+00 -0.21124187044E+04  0.21124187044E+04  0.50400001928E-02 0.  1.
    10030    2    1    2    0    0  0.00000000000E+00  0.00000000000E+00 -0.19518004912E+04  0.22730369176E+04  0.11649771118E+04 0.  0.
        4    1    3    3  502    0 -0.27843156624E+03  0.27840888938E+03 -0.13837190272E+03  0.41735361880E+03  0.12699999809E+01 0. -1.
       -4    1    3    3    0  502  0.27843156624E+03 -0.27840888938E+03 -0.18134285885E+04  0.18556832988E+04  0.12699999809E+01 0.  1.
</event>
<event>
 5   0  0.2312105E-03  0.1291380E+04  0.7818609E-02  0.9036429E-01
       -2   -1    0    0    0  501  0.00000000000E+00  0.00000000000E+00  0.52749763740E+03  0.52749763741E+03  0.25500000920E-02 0.  1.
        2   -1    0    0  501    0  0.00000000000E+00  0.00000000000E+00 -0.79036460945E+03  0.79036460945E+03  0.25500000920E-02 0. -1.
    10030    2    1    2    0    0  0.00000000000E+00  0.00000000000E+00 -0.26286697204E+03  0.13178622469E+04  0.12913798267E+04 0.  0.
        5    1    3    3  502    0  0.50388315198E+03  0.10550873016E+03  0.26625414139E+03  0.57960648788E+03  0.46999998093E+01 0.  1.
       -5    1    3    3    0  502 -0.50388315198E+03 -0.10550873016E+03 -0.52912111344E+03  0.73825575898E+03  0.46999998093E+01 0. -1.
</event>
<event>
 5   0  0.1346593E-03  0.1297619E+04  0.7818609E-02  0.9031455E-01
        1   -1    0    0  501    0  0.00000000000E+00  0.00000000000E+00  0.10648237406E+04  0.10648237406E+04  0.50400001928E-02 0. -1.
       -1   -1    0    0    0  501  0.00000000000E+00  0.00000000000E+00 -0.39532731838E+03  0.39532731841E+03  0.50400001928E-02 0.  1.
    10030    2    1    2    0    0  0.00000000000E+00  0.00000000000E+00  0.66949642220E+03  0.14601510590E+04  0.12976192260E+04 0.  0.
        2    1    3    3  502    0 -0.19676240152E+03  0.42557052005E+03  0.83939440682E+03  0.96146174152E+03  0.25500000920E-02 0. -1.
       -2    1    3    3    0  502  0.19676240152E+03 -0.42557052005E+03 -0.16989798462E+03  0.49868931749E+03  0.25500000920E-02 0.  1.
</event>
<event>
 5   0  0.1332630E-03  0.1290672E+04  0.7818609E-02  0.9036996E-01
        1   -1    0    0  501    0  0.00000000000E+00  0.00000000000E+00  0.53173992489E+03  0.53173992492E+03  0.50400001928E-02 0. -1.
       -1   -1    0    0    0  501  0.00000000000E+00  0.00000000000E+00 -0.78319910783E+03  0.78319910785E+03  0.50400001928E-02 0.  1.
    10030    2    1    2    0    0  0.00000000000E+00  0.00000000000E+00 -0.25145918294E+03  0.13149390328E+04  0.12906715071E+04 0.  0.
        5    1    3    3  502    0  0.16939920534E+03  0.33415469836E+03 -0.66104274105E+03  0.75983883074E+03  0.46999998093E+01 0.  1.
       -5    1    3    3    0  502 -0.16939920534E+03 -0.33415469836E+03  0.40958355812E+03  0.55510020202E+03  0.46999998093E+01 0. -1.
</event>
<event>
 5   0  0.1324721E-03  0.1296715E+04  0.7818609E-02  0.9032174E-01
       -1   -1    0    0    0  501  0.00000000000E+00  0.00000000000E+00  0.29908695821E+03  0.29908695826E+03  0.50400001928E-02 0.  1.
        1   -1    0    0  501    0  0.00000000000E+00  0.00000000000E+00 -0.14055025155E+04  0.14055025155E+04  0.50400001928E-02 0. -1.
    10030    2    1    2    0    0  0.00000000000E+00  0.00000000000E+00 -0.11064155573E+04  0.17045894738E+04  0.12967150376E+04 0.  0.
        1    1    3    3  502    0 -0.41238924525E+03  0.17803841866E+03  0.61410122464E+02  0.45335832548E+03  0.50400001928E-02 0.  1.
       -1    1    3    3    0  502  0.41238924525E+03 -0.17803841866E+03 -0.11678256798E+04  0.12512311483E+04  0.50400001928E-02 0. -1.
</event>
<event>
 5   0  0.2312105E-03  0.1308192E+04  0.7818609E-02  0.9023094E-01
       -2   -1    0    0    0  501  0.00000000000E+00  0.00000000000E+00  0.39307444239E+03  0.39307444240E+03  0.25500000920E-02 0.  1.
        2   -1    0    0  501    0  0.00000000000E+00  0.00000000000E+00 -0.10884497266E+04  0.10884497266E+04  0.25500000920E-02 0. -1.
    10030    2    1    2    0    0  0.00000000000E+00  0.00000000000E+00 -0.69537528421E+03  0.14815241690E+04  0.13081922938E+04 0.  0.
        5    1    3    3  502    0  0.28569641357E+03  0.14395127484E+03  0.29840701803E+03  0.43750799840E+03  0.46999998093E+01 0.  1.
       -5    1    3    3    0  502 -0.28569641357E+03 -0.14395127484E+03 -0.99378230223E+03  0.10440161706E+04  0.46999998093E+01 0. -1.
</event>
<event>
 5   0  0.1346593E-03  0.1173218E+04  0.7818609E-02  0.9136627E-01
       -1   -1    0    0    0  501  0.00000000000E+00  0.00000000000E+00  0.26421419967E+03  0.26421419972E+03  0.50400001928E-02 0.  1.
        1   -1    0    0  501    0  0.00000000000E+00  0.00000000000E+00 -0.13023909682E+04  0.13023909682E+04  0.50400001928E-02 0. -1.
    10030    2    1    2    0    0  0.00000000000E+00  0.00000000000E+00 -0.10381767685E+04  0.15666051679E+04  0.11732181167E+04 0.  0.
        2    1    3    3  502    0  0.37524931556E+03 -0.33776503957E+03 -0.91792466983E+03  0.10476082141E+04  0.25500000920E-02 0. -1.
       -2    1    3    3    0  502 -0.37524931556E+03  0.33776503957E+03 -0.12025209866E+03  0.51899695377E+03  0.25500000920E-02 0.  1.
</event>
<event>
 5   0  0.1387622E-03  0.1308889E+04  0.7818609E-02  0.9022545E-01
        1   -1    0    0  501    0  0.00000000000E+00  0.00000000000E+00  0.71875345404E+03  0.71875345406E+03  0.50400001928E-02 0.  1.
       -1   -1    0    0    0  501  0.00000000000E+00  0.00000000000E+00 -0.59588983009E+03  0.59588983011E+03  0.50400001928E-02 0. -1.
    10030    2    1    2    0    0  0.00000000000E+00  0.00000000000E+00  0.12286362395E+03  0.13146432842E+04  0.13088894126E+04 0.  0.
        3    1    3    3  502    0 -0.20590018091E+02  0.48381322464E+03  0.50359275492E+03  0.69864501586E+03  0.10100000352E+00 0.  1.
       -3    1    3    3    0  502  0.20590018091E+02 -0.48381322464E+03 -0.38072913096E+03  0.61599826830E+03  0.10100000352E+00 0. -1.
</event>
<event>
 5   0  0.2478236E-03  0.1304521E+04  0.7818609E-02  0.9025988E-01
        2   -1    0    0  501    0  0.00000000000E+00  0.00000000000E+00  0.57152098152E+03  0.57152098153E+03  0.25500000920E-02 0.  1.
       -2   -1    0    0    0  501  0.00000000000E+00  0.00000000000E+00 -0.74440587030E+03  0.74440587031E+03  0.25500000920E-02 0. -1.
    10030    2    1    2    0    0  0.00000000000E+00  0.00000000000E+00 -0.17288488878E+03  0.13159268518E+04  0.13045207145E+04 0.  0.
        3    1    3    3  502    0 -0.42007814474E+03  0.37256935282E+03  0.24837835609E+03  0.61397507142E+03  0.10100000352E+00 0.  1.
       -3    1    3    3    0  502  0.42007814474E+03 -0.37256935282E+03 -0.42126324487E+03  0.70195178042E+03  0.10100000352E+00 0. -1.
</event>
<event>
 5   0  0.2312105E-03  0.1292319E+04  0.7818609E-02  0.9035678E-01
        2   -1    0    0  501    0  0.00000000000E+00  0.00000000000E+00  0.10835839058E+04  0.10835839058E+04  0.25500000920E-02 0.  1.
       -2   -1    0    0    0  501  0.00000000000E+00  0.00000000000E+00 -0.38531614454E+03  0.38531614455E+03  0.25500000920E-02 0. -1.
    10030    2    1    2    0    0  0.00000000000E+00  0.00000000000E+00  0.69826776121E+03  0.14689000503E+04  0.12923194232E+04 0.  0.
        5    1    3    3  502    0 -0.34037447241E+03  0.13777429838E+03 -0.25517284486E+03  0.44718207647E+03  0.46999998093E+01 0.  1.
       -5    1    3    3    0  502  0.34037447241E+03 -0.13777429838E+03  0.95344060607E+03  0.10217179738E+04  0.46999998093E+01 0. -1.
</event>
<event>
 5   0  0.2334946E-03  0.1306090E+04  0.7818609E-02  0.9024749E-01
        2   -1    0    0  501    0  0.00000000000E+00  0.00000000000E+00  0.66032240473E+03  0.66032240473E+03  0.25500000920E-02 0.  1.
       -2   -1    0    0    0  501  0.00000000000E+00  0.00000000000E+00 -0.64584824442E+03  0.64584824442E+03  0.25500000920E-02 0. -1.
    10030    2    1    2    0    0  0.00000000000E+00  0.00000000000E+00  0.14474160308E+02  0.13061706492E+04  0.13060904499E+04 0.  0.
        1    1    3    3  502    0 -0.80993497759E+02  0.35660059633E+03 -0.53385448907E+03  0.64708928867E+03  0.50400001928E-02 0. -1.
       -1    1    3    3    0  502  0.80993497759E+02 -0.35660059633E+03  0.54832864938E+03  0.65908136049E+03  0.50400001928E-02 0.  1.
</event>
<event>
 5   0  0.1310461E-03  0.1286668E+04  0.7818609E-02  0.9040205E-01
       -1   -1    0    0    0  501  0.00000000000E+00  0.00000000000E+00  0.77205067662E+03  0.77205067663E+03  0.50400001928E-02 0. -1.
        1   -1    0    0  501    0  0.00000000000E+00  0.00000000000E+00 -0.53607736649E+03  0.53607736651E+03  0.50400001928E-02 0.  1.
    10030    2    1    2    0    0  0.00000000000E+00  0.00000000000E+00  0.23597331013E+03  0.13081280431E+04  0.12866684010E+04 0.  0.
        4    1    3    3  502    0  0.59068712227E+03  0.15387942156E+03  0.32456793157E+03  0.69132923264E+03  0.12699999809E+01 0.  1.
       -4    1    3    3    0  502 -0.59068712227E+03 -0.15387942156E+03 -0.88594621445E+02  0.61679881051E+03  0.12699999809E+01 0. -1.
</event>
<event>
 5   0  0.1387622E-03  0.1319312E+04  0.7818609E-02  0.9014389E-01
        1   -1    0    0  501    0  0.00000000000E+00  0.00000000000E+00  0.67964538092E+03  0.67964538094E+03  0.50400001928E-02 0. -1.
       -1   -1    0    0    0  501  0.00000000000E+00  0.00000000000E+00 -0.64025455920E+03  0.64025455922E+03  0.50400001928E-02 0.  1.
    10030    2    1    2    0    0  0.00000000000E+00  0.00000000000E+00  0.39390821721E+02  0.13198999402E+04  0.13193120234E+04 0.  0.
        3    1    3    3  502    0 -0.38209520775E+02  0.64177270031E+03  0.16745644482E+03  0.66435971992E+03  0.10100000352E+00 0. -1.
       -3    1    3    3    0  502  0.38209520775E+02 -0.64177270031E+03 -0.12806562310E+03  0.65554022024E+03  0.10100000352E+00 0.  1.
</event>
<event>
 5   0  0.1324721E-03  0.1316268E+04  0.7818609E-02  0.9016763E-01
       -1   -1    0    0    0  501  0.00000000000E+00  0.00000000000E+00  0.77314548121E+03  0.77314548122E+03  0.50400001928E-02 0.  1.
        1   -1    0    0  501    0  0.00000000000E+00  0.00000000000E+00 -0.56023156728E+03  0.56023156731E+03  0.50400001928E-02 0. -1.
    10030    2    1    2    0    0  0.00000000000E+00  0.00000000000E+00  0.21291391392E+03  0.13333770485E+04  0.13162682169E+04 0.  0.
        1    1    3    3  502    0 -0.25346683754E+03 -0.26966012484E+03 -0.44483966767E+03  0.57865736893E+03  0.50400001928E-02 0. -1.
       -1    1    3    3    0  502  0.25346683754E+03  0.26966012484E+03  0.65775358159E+03  0.75471967960E+03  0.50400001928E-02 0.  1.
</event>
<event>
 5   0  0.2361043E-03  0.1264110E+04  0.7818609E-02  0.9058521E-01
       -2   -1    0    0    0  501  0.00000000000E+00  0.00000000000E+00  0.21845933882E+03  0.21845933883E+03  0.25500000920E-02 0.  1.
        2   -1    0    0  501    0  0.00000000000E+00  0.00000000000E+00 -0.18286846040E+04  0.18286846040E+04  0.25500000920E-02 0. -1.
    10030    2    1    2    0    0  0.00000000000E+00  0.00000000000E+00 -0.16102252652E+04  0.20471439428E+04  0.12641095356E+04 0.  0.
        2    1    3    3  502    0  0.71075343420E+02  0.10366614719E+03 -0.18082413447E+04  0.18126045170E+04  0.25500000920E-02 0. -1.
       -2    1    3    3    0  502 -0.71075343420E+02 -0.10366614719E+03  0.19801607949E+03  0.23453942581E+03  0.25500000920E-02 0.  1.
</event>
<event>
 5   0  0.1324721E-03  0.1299965E+04  0.7818609E-02  0.9029593E-01
        1   -1    0    0  501    0  0.00000000000E+00  0.00000000000E+00  0.17502146756E+04  0.17502146756E+04  0.50400001928E-02 0. -1.
       -1   -1    0    0    0  501  0.00000000000E+00  0.00000000000E+00 -0.24138594696E+03  0.24138594701E+03  0.50400001928E-02 0.  1.
    10030    2    1    2    0    0  0.00000000000E+00  0.00000000000E+00  0.15088287287E+04  0.19916006226E+04  0.12999649640E+04 0.  0.
        1    1    3    3  502    0 -0.32457926158E+03 -0.38718481818E+03  0.12793581563E+03  0.52118264881E+03  0.50400001928E-02 0.  1.
       -1    1    3    3    0  502  0.32457926158E+03  0.38718481818E+03  0.13808929130E+04  0.14704179738E+04  0.50400001928E-02 0. -1.
</event>
<event>
 5   0  0.9131250E-04  0.1289750E+04  0.7818609E-02  0.9037733E-01
        4   -1    0    0  501    0  0.00000000000E+00  0.00000000000E+00  0.49058944757E+03  0.49059109141E+03  0.12699999809E+01 0.  1.
       -4   -1    0    0    0  501  0.00000000000E+00  0.00000000000E+00 -0.84767874394E+03  0.84767969530E+03  0.12699999809E+01 0. -1.
    10030    2    1    2    0    0  0.00000000000E+00  0.00000000000E+00 -0.35708929637E+03  0.13382707867E+04  0.12897503375E+04 0.  0.
        4    1    3    3  502    0 -0.41527906465E+01 -0.54338352157E+03  0.18176429233E+03  0.57299456198E+03  0.12699999809E+01 0.  1.
       -4    1    3    3    0  502  0.41527906465E+01  0.54338352157E+03 -0.53885358870E+03  0.76527622473E+03  0.12699999809E+01 0. -1.
</event>
<event>
 5   0  0.1310461E-03  0.1349428E+04  0.7818609E-02  0.8991261E-01
        1   -1    0    0  501    0  0.00000000000E+00  0.00000000000E+00  0.13299376764E+04  0.13299376765E+04  0.50400001928E-02 0. -1.
       -1   -1    0    0    0  501  0.00000000000E+00  0.00000000000E+00 -0.34230111439E+03  0.34230111442E+03  0.50400001928E-02 0.  1.
    10030    2    1    2    0    0  0.00000000000E+00  0.00000000000E+00  0.98763656206E+03  0.16722387909E+04  0.13494282474E+04 0.  0.
        4    1    3    3  502    0  0.15701835587E+03 -0.60323239619E+03  0.17378873035E+03  0.64710758271E+03  0.12699999809E+01 0.  1.
       -4    1    3    3    0  502 -0.15701835587E+03  0.60323239619E+03  0.81384783171E+03  0.10251312082E+04  0.12699999809E+01 0. -1.
</event>
<event>
 5   0  0.2334946E-03  0.1308368E+04  0.7818609E-02  0.9022955E-01
       -2   -1    0    0    0  501  0.00000000000E+00  0.00000000000E+00  0.42975609020E+03  0.42975609021E+03  0.25500000920E-02 0. -1.
        2   -1    0    0  501    0  0.00000000000E+00  0.00000000000E+00 -0.99581337123E+03  0.99581337124E+03  0.25500000920E-02 0.  1.
    10030    2    1    2    0    0  0.00000000000E+00  0.00000000000E+00 -0.56605728103E+03  0.14255694614E+04  0.13083682372E+04 0.  0.
        1    1    3    3  502    0  0.61136158813E+02  0.23274404152E+01 -0.99268940437E+03  0.99457292366E+03  0.50400001928E-02 0.  1.
       -1    1    3    3    0  502 -0.61136158813E+02 -0.23274404152E+01  0.42663212334E+03  0.43099653779E+03  0.50400001928E-02 0. -1.
</event>
<event>
 5   0  0.2478236E-03  0.1311588E+04  0.7818609E-02  0.9020426E-01
       -2   -1    0    0    0  501  0.00000000000E+00  0.00000000000E+00  0.15209160532E+04  0.15209160532E+04  0.25500000920E-02 0.  1.
        2   -1    0    0  501    0  0.00000000000E+00  0.00000000000E+00 -0.28276777148E+03  0.28276777149E+03  0.25500000920E-02 0. -1.
    10030    2    1    2    0    0  0.00000000000E+00  0.00000000000E+00  0.12381482817E+04  0.18036838247E+04  0.13115884156E+04 0.  0.
        3    1    3    3  502    0  0.43187578561E+03 -0.46178547468E+03  0.85846597620E+03  0.10661737013E+04  0.10100000352E+00 0.  1.
       -3    1    3    3    0  502 -0.43187578561E+03  0.46178547468E+03  0.37968230554E+03  0.73751012343E+03  0.10100000352E+00 0. -1.
</event>
<event>
 5   0  0.1346593E-03  0.1291436E+04  0.7818609E-02  0.9036384E-01
       -1   -1    0    0    0  501  0.00000000000E+00  0.00000000000E+00  0.29748008075E+03  0.29748008079E+03  0.50400001928E-02 0.  1.
        1   -1    0    0  501    0  0.00000000000E+00  0.00000000000E+00 -0.14016132649E+04  0.14016132649E+04  0.50400001928E-02 0. -1.
    10030    2    1    2    0    0  0.00000000000E+00  0.00000000000E+00 -0.11041331841E+04  0.16990933457E+04  0.12914364518E+04 0.  0.
        2    1    3    3  502    0 -0.33570819717E+03 -0.15540773401E+03  0.14424097861E+03  0.39706047066E+03  0.25500000920E-02 0.  1.
       -2    1    3    3    0  502  0.33570819717E+03  0.15540773401E+03 -0.12483741627E+04  0.13020328750E+04  0.25500000920E-02 0. -1.
</event>
<event>
 5   0  0.9131250E-04  0.1288695E+04  0.7818609E-02  0.9038578E-01
       -3   -1    0    0    0  501  0.00000000000E+00  0.00000000000E+00  0.65597492120E+03  0.65597492898E+03  0.10100000352E+00 0.  1.
        3   -1    0    0  501    0  0.00000000000E+00  0.00000000000E+00 -0.63292657205E+03  0.63292658011E+03  0.10100000352E+00 0. -1.
    10030    2    1    2    0    0  0.00000000000E+00  0.00000000000E+00  0.23048349153E+02  0.12889015091E+04  0.12886954154E+04 0.  0.
        4    1    3    3  502    0  0.11449568851E+03  0.11329185665E+03 -0.61246505228E+03  0.63329247637E+03  0.12699999809E+01 0. -1.
       -4    1    3    3    0  502 -0.11449568851E+03 -0.11329185665E+03  0.63551340143E+03  0.65560903271E+03  0.12699999809E+01 0.  1.
</event>
<event>
 5   0  0.1332630E-03  0.1357565E+04  0.7818609E-02  0.8985121E-01
       -1   -1    0    0    0  501  0.00000000000E+00  0.00000000000E+00  0.30229901225E+03  0.30229901230E+03  0.50400001928E-02 0.  1.
        1   -1    0    0  501    0  0.00000000000E+00  0.00000000000E+00 -0.15241388524E+04  0.15241388524E+04  0.50400001928E-02 0. -1.
    10030    2    1    2    0    0  0.00000000000E+00  0.00000000000E+00 -0.12218398402E+04  0.18264378647E+04  0.13575649814E+04 0.  0.
        5    1    3    3  502    0  0.36157430335E+03  0.20827041991E+03 -0.13311822957E+04  0.13950558910E+04  0.46999998093E+01 0. -1.
       -5    1    3    3    0  502 -0.36157430335E+03 -0.20827041991E+03  0.10934245554E+03  0.43138197371E+03  0.46999998093E+01 0.  1.
</event>
<event>
 5   0  0.2312105E-03  0.1267932E+04  0.7818609E-02  0.9055389E-01
        2   -1    0    0  501    0  0.00000000000E+00  0.00000000000E+00  0.87929692586E+03  0.87929692587E+03  0.25500000920E-02 0. -1.
       -2   -1    0    0    0  501  0.00000000000E+00  0.00000000000E+00 -0.45708444300E+03  0.45708444301E+03  0.25500000920E-02 0.  1.
    10030    2    1    2    0    0  0.00000000000E+00  0.00000000000E+00  0.42221248286E+03  0.13363813689E+04  0.12679320890E+04 0.  0.
        5    1    3    3  502    0  0.39405389041E+03  0.31413630597E+02 -0.31125531553E+03  0.50315727777E+03  0.46999998093E+01 0.  1.
       -5    1    3    3    0  502 -0.39405389041E+03 -0.31413630597E+02  0.73346779838E+03  0.83322409111E+03  0.46999998093E+01 0. -1.
</event>
<event>
 5   0  0.2334946E-03  0.1283078E+04  0.7818609E-02  0.9043093E-01
       -2   -1    0    0    0  501  0.00000000000E+00  0.00000000000E+00  0.10305855607E+04  0.10305855607E+04  0.25500000920E-02 0.  1.
        2   -1    0    0  501    0  0.00000000000E+00  0.00000000000E+00 -0.39935750267E+03  0.39935750268E+03  0.25500000920E-02 0. -1.
    10030    2    1    2    0    0  0.00000000000E+00  0.00000000000E+00  0.63122805800E+03  0.14299430634E+04  0.12830776684E+04 0.  0.
        1    1    3    3  502    0  0.36237852700E+03 -0.50350249126E+03  0.49785220343E+03  0.79541798573E+03  0.50400001928E-02 0.  1.
       -1    1    3    3    0  502 -0.36237852700E+03  0.50350249126E+03  0.13337585457E+03  0.63452507763E+03  0.50400001928E-02 0. -1.
</event>
<event>
 5   0  0.1332630E-03  0.1310164E+04  0.7818609E-02  0.9021543E-01
       -1   -1    0    0    0  501  0.00000000000E+00  0.00000000000E+00  0.31290056264E+03  0.31290056268E+03  0.50400001928E-02 0. -1.
        1   -1    0    0  501    0  0.00000000000E+00  0.00000000000E+00 -0.13714663727E+04  0.13714663727E+04  0.50400001928E-02 0.  1.
    10030    2    1    2    0    0  0.00000000000E+00  0.00000000000E+00 -0.10585658100E+04  0.16843669354E+04  0.13101642640E+04 0.  0.
        5    1    3    3  502    0  0.26925859183E+03 -0.23892748797E+03  0.17431859071E+03  0.39999449352E+03  0.46999998093E+01 0.  1.
       -5    1    3    3    0  502 -0.26925859183E+03  0.23892748797E+03 -0.12328844007E+04  0.12843724418E+04  0.46999998093E+01 0. -1.
</event>
<event>
 5   0  0.1310461E-03  0.1052754E+04  0.7818609E-02  0.9252505E-01
       -1   -1    0    0    0  501  0.00000000000E+00  0.00000000000E+00  0.48533950968E+03  0.48533950971E+03  0.50400001928E-02 0. -1.
        1   -1    0    0  501    0  0.00000000000E+00  0.00000000000E+00 -0.57088430322E+03  0.57088430325E+03  0.50400001928E-02 0.  1.
    10030    2    1    2    0    0  0.00000000000E+00  0.00000000000E+00 -0.85544793543E+02  0.10562238130E+04  0.10527539273E+04 0.  0.
        4    1    3    3  502    0 -0.37329945993E+03  0.12701740131E+03  0.30706756716E+03  0.49977796142E+03  0.12699999809E+01 0. -1.
       -4    1    3    3    0  502  0.37329945993E+03 -0.12701740131E+03 -0.39261236070E+03  0.55644585154E+03  0.12699999809E+01 0.  1.
</event>
<event>
 5   0  0.2401211E-03  0.1338107E+04  0.7818609E-02  0.8999880E-01
       -2   -1    0    0    0  501  0.00000000000E+00  0.00000000000E+00  0.10098049900E+04  0.10098049900E+04  0.25500000920E-02 0.  1.
        2   -1    0    0  501    0  0.00000000000E+00  0.00000000000E+00 -0.44328637975E+03  0.44328637975E+03  0.25500000920E-02 0. -1.
    10030    2    1    2    0    0  0.00000000000E+00  0.00000000000E+00  0.56651861026E+03  0.14530913698E+04  0.13381073175E+04 0.  0.
        4    1    3    3  502    0  0.54041808861E+03  0.15900653733E+03 -0.10872454954E+03  0.57372243287E+03  0.12699999809E+01 0. -1.
       -4    1    3    3    0  502 -0.54041808861E+03 -0.15900653733E+03  0.67524315980E+03  0.87936893689E+03  0.12699999809E+01 0.  1.
</event>
<event>
 5   0  0.2334946E-03  0.1289636E+04  0.7818609E-02  0.9037824E-01
        2   -1    0    0  501    0  0.00000000000E+00  0.00000000000E+00  0.12053919688E+04  0.12053919688E+04  0.25500000920E-02 0. -1.
       -2   -1    0    0    0  501  0.00000000000E+00  0.00000000000E+00 -0.34494207051E+03  0.34494207051E+03  0.25500000920E-02 0.  1.
    10030    2    1    2    0    0  0.00000000000E+00  0.00000000000E+00  0.86044989833E+03  0.15503340394E+04  0.12896362301E+04 0.  0.
        1    1    3    3  502    0 -0.34641371835E+02  0.39461563088E+03  0.10418679074E+04  0.11146345847E+04  0.50400001928E-02 0. -1.
       -1    1    3    3    0  502  0.34641371835E+02 -0.39461563088E+03 -0.18141800909E+03  0.43569945470E+03  0.50400001928E-02 0.  1.
</event>
<event>
 5   0  0.2312105E-03  0.1313636E+04  0.7818609E-02  0.9018821E-01
       -2   -1    0    0    0  501  0.00000000000E+00  0.00000000000E+00  0.28053531848E+04  0.28053531848E+04  0.25500000920E-02 0. -1.
        2   -1    0    0  501    0  0.00000000000E+00  0.00000000000E+00 -0.15378085280E+03  0.15378085282E+03  0.25500000920E-02 0.  1.
    10030    2    1    2    0    0  0.00000000000E+00  0.00000000000E+00  0.26515723320E+04  0.29591340376E+04  0.13136355738E+04 0.  0.
        5    1    3    3  502    0 -0.46960621733E+02 -0.88657304167E+02 -0.13638042183E+03  0.16937274584E+03  0.46999998093E+01 0.  1.
       -5    1    3    3    0  502  0.46960621733E+02  0.88657304167E+02  0.27879527538E+04  0.27897612918E+04  0.46999998093E+01 0. -1.
</event>
<event>
 5   0  0.2312105E-03  0.1209012E+04  0.7818609E-02  0.9105005E-01
       -2   -1    0    0    0  501  0.00000000000E+00  0.00000000000E+00  0.33543030609E+03  0.33543030610E+03  0.25500000920E-02 0. -1.
        2   -1    0    0  501    0  0.00000000000E+00  0.00000000000E+00 -0.10894281252E+04  0.10894281252E+04  0.25500000920E-02 0.  1.
    10030    2    1    2    0    0  0.00000000000E+00  0.00000000000E+00 -0.75399781915E+03  0.14248584313E+04  0.12090115128E+04 0.  0.
        5    1    3    3  502    0 -0.13653448700E+02  0.18440805324E+03  0.30125851441E+03  0.35351312460E+03  0.46999998093E+01 0. -1.
       -5    1    3    3    0  502  0.13653448700E+02 -0.18440805324E+03 -0.10552563336E+04  0.10713453067E+04  0.46999998093E+01 0.  1.
</event>
<event>
 5   0  0.2312105E-03  0.1317988E+04  0.7818609E-02  0.9015421E-01
        2   -1    0    0  501    0  0.00000000000E+00  0.00000000000E+00  0.40295123691E+03  0.40295123692E+03  0.25500000920E-02 0.  1.
       -2   -1    0    0    0  501  0.00000000000E+00  0.00000000000E+00 -0.10777306453E+04  0.10777306453E+04  0.25500000920E-02 0. -1.
    10030    2    1    2    0    0  0.00000000000E+00  0.00000000000E+00 -0.67477940837E+03  0.14806818822E+04  0.13179877034E+04 0.  0.
        5    1    3    3  502    0  0.25534681435E+03  0.60742909777E+03 -0.32742318011E+03  0.73579897614E+03  0.46999998093E+01 0.  1.
       -5    1    3    3    0  502 -0.25534681435E+03 -0.60742909777E+03 -0.34735622826E+03  0.74488290605E+03  0.46999998093E+01 0. -1.
</event>
<event>
 5   0  0.1332630E-03  0.9807472E+03  0.7818609E-02  0.9329917E-01
       -1   -1    0    0    0  501  0.00000000000E+00  0.00000000000E+00  0.16741790755E+03  0.16741790762E+03  0.50400001928E-02 0.  1.
        1   -1    0    0  501    0  0.00000000000E+00  0.00000000000E+00 -0.14363235615E+04  0.14363235615E+04  0.50400001928E-02 0. -1.
    10030    2    1    2    0    0  0.00000000000E+00  0.00000000000E+00 -0.12689056539E+04  0.16037414691E+04  0.98074723612E+03 0.  0.
        5    1    3    3  502    0 -0.23779123478E+03  0.18558193950E+03 -0.22766727499E+01  0.30168294755E+03  0.46999998093E+01 0.  1.
       -5    1    3    3    0  502  0.23779123478E+03 -0.18558193950E+03 -0.12666289812E+04  0.13020585216E+04  0.46999998093E+01 0. -1.
</event>
<event>
 5   0  0.2334946E-03  0.1302779E+04  0.7818609E-02  0.9027365E-01
        2   -1    0    0  501    0  0.00000000000E+00  0.00000000000E+00  0.11829474568E+04  0.11829474568E+04  0.25500000920E-02 0. -1.
       -2   -1    0    0    0  501  0.00000000000E+00  0.00000000000E+00 -0.35868719400E+03  0.35868719401E+03  0.25500000920E-02 0.  1.
    10030    2    1    2    0    0  0.00000000000E+00  0.00000000000E+00  0.82426026280E+03  0.15416346508E+04  0.13027787286E+04 0.  0.
        1    1    3    3  502    0  0.26899121501E+03  0.32856502792E+03  0.99665489705E+03  0.10833430828E+04  0.50400001928E-02 0. -1.
       -1    1    3    3    0  502 -0.26899121501E+03 -0.32856502792E+03 -0.17239463425E+03  0.45829156796E+03  0.50400001928E-02 0.  1.
</event>
<event>
 5   0  0.1346593E-03  0.1301660E+04  0.7818609E-02  0.9028250E-01
        1   -1    0    0  501    0  0.00000000000E+00  0.00000000000E+00  0.72892887534E+03  0.72892887536E+03  0.50400001928E-02 0.  1.
       -1   -1    0    0    0  501  0.00000000000E+00  0.00000000000E+00 -0.58109845671E+03  0.58109845673E+03  0.50400001928E-02 0. -1.
    10030    2    1    2    0    0  0.00000000000E+00  0.00000000000E+00  0.14783041863E+03  0.13100273321E+04  0.13016596245E+04 0.  0.
        2    1    3    3  502    0  0.63337478555E+03  0.11743302589E+03  0.16738478673E+03  0.66556126793E+03  0.25500000920E-02 0.  1.
       -2    1    3    3    0  502 -0.63337478555E+03 -0.11743302589E+03 -0.19554368107E+02  0.64446606416E+03  0.25500000920E-02 0. -1.
</event>
<event>
 5   0  0.1346593E-03  0.1276406E+04  0.7818609E-02  0.9048487E-01
       -1   -1    0    0    0  501  0.00000000000E+00  0.00000000000E+00  0.46606085196E+03  0.46606085199E+03  0.50400001928E-02 0. -1.
        1   -1    0    0  501    0  0.00000000000E+00  0.00000000000E+00 -0.87392730196E+03  0.87392730197E+03  0.50400001928E-02 0.  1.
    10030    2    1    2    0    0  0.00000000000E+00  0.00000000000E+00 -0.40786644999E+03  0.13399881540E+04  0.12764063662E+04 0.  0.
        2    1    3    3  502    0  0.12728006859E+03  0.61620990578E+03 -0.31596574347E+03  0.70409460649E+03  0.25500000920E-02 0.  1.
       -2    1    3    3    0  502 -0.12728006859E+03 -0.61620990578E+03 -0.91900706528E+02  0.63589354747E+03  0.25500000920E-02 0. -1.
</event>
<event>
 5   0  0.1387622E-03  0.1290610E+04  0.7818609E-02  0.9037045E-01
       -1   -1    0    0    0  501  0.00000000000E+00  0.00000000000E+00  0.13108406745E+04  0.13108406745E+04  0.50400001928E-02 0. -1.
        1   -1    0    0  501    0  0.00000000000E+00  0.00000000000E+00 -0.31767288415E+03  0.31767288419E+03  0.50400001928E-02 0.  1.
    10030    2    1    2    0    0  0.00000000000E+00  0.00000000000E+00  0.99316779038E+03  0.16285135587E+04  0.12906099919E+04 0.  0.
        3    1    3    3  502    0 -0.24565236981E+03 -0.32377086870E+03 -0.13589467826E+03  0.42853242116E+03  0.10100000352E+00 0.  1.
       -3    1    3    3    0  502  0.24565236981E+03  0.32377086870E+03  0.11290624686E+04  0.11999811376E+04  0.10100000352E+00 0. -1.
</event>
<event>
 5   0  0.2334946E-03  0.1290819E+04  0.7818609E-02  0.9036877E-01
       -2   -1    0    0    0  501  0.00000000000E+00  0.00000000000E+00  0.60468278516E+03  0.60468278516E+03  0.25500000920E-02 0. -1.
        2   -1    0    0  501    0  0.00000000000E+00  0.00000000000E+00 -0.68887972129E+03  0.68887972129E+03  0.25500000920E-02 0.  1.
    10030    2    1    2    0    0  0.00000000000E+00  0.00000000000E+00 -0.84196936131E+02  0.12935625065E+04  0.12908194429E+04 0.  0.
        1    1    3    3  502    0 -0.58414888503E+03  0.14861237842E+03  0.18912579127E+03  0.63173105341E+03  0.50400001928E-02 0. -1.
       -1    1    3    3    0  502  0.58414888503E+03 -0.14861237842E+03 -0.27332272740E+03  0.66183145304E+03  0.50400001928E-02 0.  1.
</event>
<event>
 5   0  0.1310461E-03  0.1300309E+04  0.7818609E-02  0.9029320E-01
       -1   -1    0    0    0  501  0.00000000000E+00  0.00000000000E+00  0.14336783957E+04  0.14336783957E+04  0.50400001928E-02 0. -1.
        1   -1    0    0  501    0  0.00000000000E+00  0.00000000000E+00 -0.29483670778E+03  0.29483670783E+03  0.50400001928E-02 0.  1.
    10030    2    1    2    0    0  0.00000000000E+00  0.00000000000E+00  0.11388416879E+04  0.17285151035E+04  0.13003092221E+04 0.  0.
        4    1    3    3  502    0  0.50268572140E+03 -0.81648107390E+02  0.11066664695E+04  0.12182247886E+04  0.12699999809E+01 0. -1.
       -4    1    3    3    0  502 -0.50268572140E+03  0.81648107390E+02  0.32175218427E+02  0.51029031494E+03  0.12699999809E+01 0.  1.
</event>
<event>
 5   0  0.1310461E-03  0.1312862E+04  0.7818609E-02  0.9019427E-01
        1   -1    0    0  501    0  0.00000000000E+00  0.00000000000E+00  0.63178805139E+03  0.63178805141E+03  0.50400001928E-02 0.  1.
       -1   -1    0    0    0  501  0.00000000000E+00  0.00000000000E+00 -0.68203526245E+03  0.68203526247E+03  0.50400001928E-02 0. -1.
    10030    2    1    2    0    0  0.00000000000E+00  0.00000000000E+00 -0.50247211068E+02  0.13138233139E+04  0.13128621092E+04 0.  0.
        4    1    3    3  502    0  0.46212991826E+02  0.49972579816E+03 -0.44856293153E+03  0.67310610635E+03  0.12699999809E+01 0. -1.
       -4    1    3    3    0  502 -0.46212991826E+02 -0.49972579816E+03  0.39831572046E+03  0.64071720753E+03  0.12699999809E+01 0.  1.
</event>
<event>
 5   0  0.1332630E-03  0.1293774E+04  0.7818609E-02  0.9034517E-01
       -1   -1    0    0    0  501  0.00000000000E+00  0.00000000000E+00  0.76316659337E+03  0.76316659338E+03  0.50400001928E-02 0. -1.
        1   -1    0    0  501    0  0.00000000000E+00  0.00000000000E+00 -0.54832414881E+03  0.54832414883E+03  0.50400001928E-02 0.  1.
    10030    2    1    2    0    0  0.00000000000E+00  0.00000000000E+00  0.21484244456E+03  0.13114907422E+04  0.12937738175E+04 0.  0.
        5    1    3    3  502    0  0.64405928164E+03  0.57922278914E+02  0.90665069943E+02  0.65300045449E+03  0.46999998093E+01 0. -1.
       -5    1    3    3    0  502 -0.64405928164E+03 -0.57922278914E+02  0.12417737461E+03  0.65849028772E+03  0.46999998093E+01 0.  1.
</event>
<event>
 5   0  0.2361043E-03  0.1291960E+04  0.7818609E-02  0.9035966E-01
        2   -1    0    0  501    0  0.00000000000E+00  0.00000000000E+00  0.10382177006E+04  0.10382177006E+04  0.25500000920E-02 0.  1.
       -2   -1    0    0    0  501  0.00000000000E+00  0.00000000000E+00 -0.40192918222E+03  0.40192918223E+03  0.25500000920E-02 0. -1.
    10030    2    1    2    0    0  0.00000000000E+00  0.00000000000E+00  0.63628851834E+03  0.14401468828E+04  0.12919597383E+04 0.  0.
        2    1    3    3  502    0 -0.33742999084E+03  0.21372276347E+03  0.88407092254E+03  0.97011226898E+03  0.25500000920E-02 0.  1.
       -2    1    3    3    0  502  0.33742999084E+03 -0.21372276347E+03 -0.24778240420E+03  0.47003461382E+03  0.25500000920E-02 0. -1.
</event>
<event>
 5   0  0.2401211E-03  0.1301126E+04  0.7818609E-02  0.9028673E-01
        2   -1    0    0  501    0  0.00000000000E+00  0.00000000000E+00  0.20955252921E+04  0.20955252921E+04  0.25500000920E-02 0.  1.
       -2   -1    0    0    0  501  0.00000000000E+00  0.00000000000E+00 -0.20196952008E+03  0.20196952010E+03  0.25500000920E-02 0. -1.
    10030    2    1    2    0    0  0.00000000000E+00  0.00000000000E+00  0.18935557721E+04  0.22974948122E+04  0.13011260317E+04 0.  0.
        4    1    3    3  502    0 -0.37384362372E+03 -0.93071949377E+02  0.21119386678E+02  0.38583556620E+03  0.12699999809E+01 0. -1.
       -4    1    3    3    0  502  0.37384362372E+03  0.93071949377E+02  0.18724363854E+04  0.19116592460E+04  0.12699999809E+01 0.  1.
</event>
<event>
 5   0  0.2312105E-03  0.1202619E+04  0.7818609E-02  0.9110567E-01
        2   -1    0    0  501    0  0.00000000000E+00  0.00000000000E+00  0.48512550749E+03  0.48512550750E+03  0.25500000920E-02 0. -1.
       -2   -1    0    0    0  501  0.00000000000E+00  0.00000000000E+00 -0.74531866374E+03  0.74531866374E+03  0.25500000920E-02 0.  1.
    10030    2    1    2    0    0  0.00000000000E+00  0.00000000000E+00 -0.26019315625E+03  0.12304441712E+04  0.12026189671E+04 0.  0.
        5    1    3    3  502    0  0.16239134210E+03  0.35074997886E+03  0.34116279134E+03  0.51556826498E+03  0.46999998093E+01 0. -1.
       -5    1    3    3    0  502 -0.16239134210E+03 -0.35074997886E+03 -0.60135594759E+03  0.71487590626E+03  0.46999998093E+01 0.  1.
</event>
<event>
 5   0  0.2478236E-03  0.1309500E+04  0.7818609E-02  0.9022066E-01
       -2   -1    0    0    0  501  0.00000000000E+00  0.00000000000E+00  0.50911801516E+03  0.50911801516E+03  0.25500000920E-02 0. -1.
        2   -1    0    0  501    0  0.00000000000E+00  0.00000000000E+00 -0.84203927715E+03  0.84203927716E+03  0.25500000920E-02 0.  1.
    10030    2    1    2    0    0  0.00000000000E+00  0.00000000000E+00 -0.33292126200E+03  0.13511572923E+04  0.13094996991E+04 0.  0.
        3    1    3    3  502    0 -0.40969173156E+03  0.48254499005E+02 -0.69108550366E+03  0.80484470251E+03  0.10100000352E+00 0. -1.
       -3    1    3    3    0  502  0.40969173156E+03 -0.48254499005E+02  0.35816424166E+03  0.54631258981E+03  0.10100000352E+00 0.  1.
</event>
<event>
 5   0  0.2312105E-03  0.1357387E+04  0.7818609E-02  0.8985255E-01
        2   -1    0    0  501    0  0.00000000000E+00  0.00000000000E+00  0.61561491913E+03  0.61561491914E+03  0.25500000920E-02 0. -1.
       -2   -1    0    0    0  501  0.00000000000E+00  0.00000000000E+00 -0.74823540655E+03  0.74823540655E+03  0.25500000920E-02 0.  1.
    10030    2    1    2    0    0  0.00000000000E+00  0.00000000000E+00 -0.13262048742E+03  0.13638503257E+04  0.13573870182E+04 0.  0.
        5    1    3    3  502    0  0.26284222910E+03 -0.51332634182E+03  0.29318218702E+03  0.64696820277E+03  0.46999998093E+01 0. -1.
       -5    1    3    3    0  502 -0.26284222910E+03  0.51332634182E+03 -0.42580267444E+03  0.71688212292E+03  0.46999998093E+01 0.  1.
</event>
<event>
 5   0  0.2361043E-03  0.1322602E+04  0.7818609E-02  0.9011831E-01
       -2   -1    0    0    0  501  0.00000000000E+00  0.00000000000E+00  0.70127760604E+03  0.70127760605E+03  0.25500000920E-02 0. -1.
        2   -1    0    0  501    0  0.00000000000E+00  0.00000000000E+00 -0.62360299241E+03  0.62360299241E+03  0.25500000920E-02 0.  1.
    10030    2    1    2    0    0  0.00000000000E+00  0.00000000000E+00  0.77674613637E+02  0.13248805985E+04  0.13226016991E+04 0.  0.
        2    1    3    3  502    0  0.48284247099E+03 -0.39288713345E+03  0.26242956930E+03  0.67554898436E+03  0.25500000920E-02 0. -1.
       -2    1    3    3    0  502 -0.48284247099E+03  0.39288713345E+03 -0.18475495566E+03  0.64933161410E+03  0.25500000920E-02 0.  1.
</event>
<event>
 5   0  0.1324721E-03  0.1309017E+04  0.7818609E-02  0.9022445E-01
       -1   -1    0    0    0  501  0.00000000000E+00  0.00000000000E+00  0.40722961611E+03  0.40722961614E+03  0.50400001928E-02 0.  1.
        1   -1    0    0  501    0  0.00000000000E+00  0.00000000000E+00 -0.10519398814E+04  0.10519398814E+04  0.50400001928E-02 0. -1.
    10030    2    1    2    0    0  0.00000000000E+00  0.00000000000E+00 -0.64471026529E+03  0.14591694976E+04  0.13090165379E+04 0.  0.
        1    1    3    3  502    0  0.31164025580E+03 -0.49535134149E+03 -0.64903927314E+03  0.87392481293E+03  0.50400001928E-02 0. -1.
       -1    1    3    3    0  502 -0.31164025580E+03  0.49535134149E+03  0.43290078437E+01  0.58524468463E+03  0.50400001928E-02 0.  1.
</event>
<event>
 5   0  0.1310461E-03  0.1292075E+04  0.7818609E-02  0.9035874E-01
       -1   -1    0    0    0  501  0.00000000000E+00  0.00000000000E+00  0.89216930434E+03  0.89216930436E+03  0.50400001928E-02 0.  1.
        1   -1    0    0  501    0  0.00000000000E+00  0.00000000000E+00 -0.46780825109E+03  0.46780825112E+03  0.50400001928E-02 0. -1.
    10030    2    1    2    0    0  0.00000000000E+00  0.00000000000E+00  0.42436105325E+03  0.13599775555E+04  0.12920745520E+04 0.  0.
        4    1    3    3  502    0 -0.42788958954E+03  0.48281905209E+03  0.24801083159E+03  0.69116909898E+03  0.12699999809E+01 0. -1.
       -4    1    3    3    0  502  0.42788958954E+03 -0.48281905209E+03  0.17635022166E+03  0.66880845649E+03  0.12699999809E+01 0.  1.
</event>
<event>
 5   0  0.2401211E-03  0.1296633E+04  0.7818609E-02  0.9032240E-01
        2   -1    0    0  501    0  0.00000000000E+00  0.00000000000E+00  0.13747988068E+04  0.13747988068E+04  0.25500000920E-02 0. -1.
       -2   -1    0    0    0  501  0.00000000000E+00  0.00000000000E+00 -0.30572767566E+03  0.30572767567E+03  0.25500000920E-02 0.  1.
    10030    2    1    2    0    0  0.00000000000E+00  0.00000000000E+00  0.10690711311E+04  0.16805264825E+04  0.12966326291E+04 0.  0.
        4    1    3    3  502    0  0.10933397337E+03 -0.42267503379E+03  0.11557091863E+04  0.12354243960E+04  0.12699999809E+01 0. -1.
       -4    1    3    3    0  502 -0.10933397337E+03  0.42267503379E+03 -0.86638055167E+02  0.44510208652E+03  0.12699999809E+01 0.  1.
</event>
<event>
 5   0  0.2401211E-03  0.1287364E+04  0.7818609E-02  0.9039646E-01
        2   -1    0    0  501    0  0.00000000000E+00  0.00000000000E+00  0.87071344911E+03  0.87071344912E+03  0.25500000920E-02 0. -1.
       -2   -1    0    0    0  501  0.00000000000E+00  0.00000000000E+00 -0.47584705582E+03  0.47584705583E+03  0.25500000920E-02 0.  1.
    10030    2    1    2    0    0  0.00000000000E+00  0.00000000000E+00  0.39486639329E+03  0.13465605049E+04  0.12873638666E+04 0.  0.
        4    1    3    3  502    0  0.41472288324E+02  0.28612933790E+03 -0.40410685629E+03  0.49688420472E+03  0.12699999809E+01 0.  1.
       -4    1    3    3    0  502 -0.41472288324E+02 -0.28612933790E+03  0.79897324958E+03  0.84967630022E+03  0.12699999809E+01 0. -1.
</event>
<event>
 5   0  0.1346593E-03  0.1307890E+04  0.7818609E-02  0.9023331E-01
       -1   -1    0    0    0  501  0.00000000000E+00  0.00000000000E+00  0.30935456378E+03  0.30935456382E+03  0.50400001928E-02 0.  1.
        1   -1    0    0  501    0  0.00000000000E+00  0.00000000000E+00 -0.13823761768E+04  0.13823761768E+04  0.50400001928E-02 0. -1.
    10030    2    1    2    0    0  0.00000000000E+00  0.00000000000E+00 -0.10730216130E+04  0.16917307406E+04  0.13078904835E+04 0.  0.
        2    1    3    3  502    0  0.29836601922E+03 -0.10238359095E+03  0.20443978371E+03  0.37589932999E+03  0.25500000920E-02 0.  1.
       -2    1    3    3    0  502 -0.29836601922E+03  0.10238359095E+03 -0.12774613967E+04  0.13158314107E+04  0.25500000920E-02 0. -1.
</event>
<event>
 5   0  0.9131250E-04  0.1296892E+04  0.7818609E-02  0.9032033E-01
       -4   -1    0    0    0  501  0.00000000000E+00  0.00000000000E+00  0.94083252590E+03  0.94083338306E+03  0.12699999809E+01 0.  1.
        4   -1    0    0  501    0  0.00000000000E+00  0.00000000000E+00 -0.44692392548E+03  0.44692572992E+03  0.12699999809E+01 0. -1.
    10030    2    1    2    0    0  0.00000000000E+00  0.00000000000E+00  0.49390860042E+03  0.13877591130E+04  0.12968923047E+04 0.  0.
        5    1    3    3  502    0  0.53348156565E+03 -0.14093292204E+03  0.61139849087E+03  0.82358659171E+03  0.46999998093E+01 0.  1.
       -5    1    3    3    0  502 -0.53348156565E+03  0.14093292204E+03 -0.11748989046E+03  0.56417252128E+03  0.46999998093E+01 0. -1.
</event>
<event>
 5   0  0.2361043E-03  0.1314478E+04  0.7818609E-02  0.9018162E-01
       -2   -1    0    0    0  501  0.00000000000E+00  0.00000000000E+00  0.42732538806E+03  0.42732538807E+03  0.25500000920E-02 0. -1.
        2   -1    0    0  501    0  0.00000000000E+00  0.00000000000E+00 -0.10108527018E+04  0.10108527018E+04  0.25500000920E-02 0.  1.
    10030    2    1    2    0    0  0.00000000000E+00  0.00000000000E+00 -0.58352731376E+03  0.14381780899E+04  0.13144778782E+04 0.  0.
        2    1    3    3  502    0 -0.62221451961E+03  0.12368554061E+03 -0.10380019483E+03  0.64282462758E+03  0.25500000920E-02 0.  1.
       -2    1    3    3    0  502  0.62221451961E+03 -0.12368554061E+03 -0.47972711892E+03  0.79535346231E+03  0.25500000920E-02 0. -1.
</event>
<event>
 5   0  0.2478236E-03  0.1326960E+04  0.7818609E-02  0.9008454E-01
       -2   -1    0    0    0  501  0.00000000000E+00  0.00000000000E+00  0.21723799275E+03  0.21723799276E+03  0.25500000920E-02 0. -1.
        2   -1    0    0  501    0  0.00000000000E+00  0.00000000000E+00 -0.20263763237E+04  0.20263763237E+04  0.25500000920E-02 0.  1.
    10030    2    1    2    0    0  0.00000000000E+00  0.00000000000E+00 -0.18091383309E+04  0.22436143164E+04  0.13269603236E+04 0.  0.
        3    1    3    3  502    0  0.49978585180E+03  0.42913694170E+03 -0.10383609803E+04  0.12296901838E+04  0.10100000352E+00 0.  1.
       -3    1    3    3    0  502 -0.49978585180E+03 -0.42913694170E+03 -0.77077735060E+03  0.10139241327E+04  0.10100000352E+00 0. -1.
</event>
<event>
 5   0  0.9131250E-04  0.1296842E+04  0.7818609E-02  0.9032073E-01
       -3   -1    0    0    0  501  0.00000000000E+00  0.00000000000E+00  0.81870181458E+03  0.81870182081E+03  0.10100000352E+00 0. -1.
        3   -1    0    0  501    0  0.00000000000E+00  0.00000000000E+00 -0.51355666924E+03  0.51355667917E+03  0.10100000352E+00 0.  1.
    10030    2    1    2    0    0  0.00000000000E+00  0.00000000000E+00  0.30514514535E+03  0.13322585000E+04  0.12968419915E+04 0.  0.
        5    1    3    3  502    0 -0.24936874056E+03  0.38835481339E+03 -0.31530300981E+03  0.55896539056E+03  0.46999998093E+01 0.  1.
       -5    1    3    3    0  502  0.24936874056E+03 -0.38835481339E+03  0.62044815516E+03  0.77329310942E+03  0.46999998093E+01 0. -1.
</event>
<event>
 5   0  0.2361043E-03  0.1336192E+04  0.7818609E-02  0.9001347E-01
        2   -1    0    0  501    0  0.00000000000E+00  0.00000000000E+00  0.15814047936E+04  0.15814047936E+04  0.25500000920E-02 0. -1.
       -2   -1    0    0    0  501  0.00000000000E+00  0.00000000000E+00 -0.28225049974E+03  0.28225049976E+03  0.25500000920E-02 0.  1.
    10030    2    1    2    0    0  0.00000000000E+00  0.00000000000E+00  0.12991542938E+04  0.18636552933E+04  0.13361920420E+04 0.  0.
        2    1    3    3  502    0  0.66075549387E+03 -0.90258095170E+02  0.59364872650E+03  0.89283993913E+03  0.25500000920E-02 0.  1.
       -2    1    3    3    0  502 -0.66075549387E+03  0.90258095170E+02  0.70550556733E+03  0.97081535421E+03  0.25500000920E-02 0. -1.
</event>
<event>
 5   0  0.2334946E-03  0.1308771E+04  0.7818609E-02  0.9022639E-01
        2   -1    0    0  501    0  0.00000000000E+00  0.00000000000E+00  0.39032199788E+03  0.39032199789E+03  0.25500000920E-02 0.  1.
       -2   -1    0    0    0  501  0.00000000000E+00  0.00000000000E+00 -0.10970948785E+04  0.10970948785E+04  0.25500000920E-02 0. -1.
    10030    2    1    2    0    0  0.00000000000E+00  0.00000000000E+00 -0.70677288057E+03  0.14874168763E+04  0.13087708200E+04 0.  0.
        1    1    3    3  502    0  0.70673260869E+02 -0.24682933658E+03  0.33068863645E+03  0.41865786210E+03  0.50400001928E-02 0.  1.
       -1    1    3    3    0  502 -0.70673260869E+02  0.24682933658E+03 -0.10374615170E+04  0.10687590142E+04  0.50400001928E-02 0. -1.
</event>
<event>
 5   0  0.1387622E-03  0.1300578E+04  0.7818609E-02  0.9029107E-01
       -1   -1    0    0    0  501  0.00000000000E+00  0.00000000000E+00  0.29079672845E+03  0.29079672849E+03  0.50400001928E-02 0.  1.
        1   -1    0    0  501    0  0.00000000000E+00  0.00000000000E+00 -0.14541978119E+04  0.14541978119E+04  0.50400001928E-02 0. -1.
    10030    2    1    2    0    0  0.00000000000E+00  0.00000000000E+00 -0.11634010834E+04  0.17449945404E+04  0.13005782810E+04 0.  0.
        3    1    3    3  502    0 -0.32466432401E+03  0.20032525271E+03  0.12488201455E+03  0.40141332553E+03  0.10100000352E+00 0.  1.
       -3    1    3    3    0  502  0.32466432401E+03 -0.20032525271E+03 -0.12882830980E+04  0.13435812149E+04  0.10100000352E+00 0. -1.
</event>
<event>
 5   0  0.2312105E-03  0.1306785E+04  0.7818609E-02  0.9024202E-01
        2   -1    0    0  501    0  0.00000000000E+00  0.00000000000E+00  0.88538904281E+03  0.88538904281E+03  0.25500000920E-02 0. -1.
       -2   -1    0    0    0  501  0.00000000000E+00  0.00000000000E+00 -0.48218538768E+03  0.48218538769E+03  0.25500000920E-02 0.  1.
    10030    2    1    2    0    0  0.00000000000E+00  0.00000000000E+00  0.40320365513E+03  0.13675744305E+04  0.13067848467E+04 0.  0.
        5    1    3    3  502    0  0.24898064786E+03 -0.26335824017E+03 -0.36733341493E+03  0.51604733639E+03  0.46999998093E+01 0.  1.
       -5    1    3    3    0  502 -0.24898064786E+03  0.26335824017E+03  0.77053707006E+03  0.85152709411E+03  0.46999998093E+01 0. -1.
</event>
<event>
 5   0  0.2401211E-03  0.1318767E+04  0.7818609E-02  0.9014814E-01
        2   -1    0    0  501    0  0.00000000000E+00  0.00000000000E+00  0.25841907671E+04  0.25841907671E+04  0.25500000920E-02 0. -1.
       -2   -1    0    0    0  501  0.00000000000E+00  0.00000000000E+00 -0.16824853924E+03  0.16824853926E+03  0.25500000920E-02 0.  1.
    10030    2    1    2    0    0  0.00000000000E+00  0.00000000000E+00  0.24159422279E+04  0.27524393064E+04  0.13187665778E+04 0.  0.
        4    1    3    3  502    0 -0.29061636636E+03 -0.38369445460E+03  0.26735902457E+03  0.55060127842E+03  0.12699999809E+01 0.  1.
       -4    1    3    3    0  502  0.29061636636E+03  0.38369445460E+03  0.21485832033E+04  0.22018380279E+04  0.12699999809E+01 0. -1.
</event>
<event>
 5   0  0.2361043E-03  0.1293822E+04  0.7818609E-02  0.9034479E-01
       -2   -1    0    0    0  501  0.00000000000E+00  0.00000000000E+00  0.23664714403E+03  0.23664714404E+03  0.25500000920E-02 0.  1.
        2   -1    0    0  501    0  0.00000000000E+00  0.00000000000E+00 -0.17684305624E+04  0.17684305624E+04  0.25500000920E-02 0. -1.
    10030    2    1    2    0    0  0.00000000000E+00  0.00000000000E+00 -0.15317834184E+04  0.20050777065E+04  0.12938223093E+04 0.  0.
        2    1    3    3  502    0 -0.14802676713E+03  0.30730107403E+03 -0.16177484330E+04  0.16533166262E+04  0.25500000920E-02 0. -1.
       -2    1    3    3    0  502  0.14802676713E+03 -0.30730107403E+03  0.85965014584E+02  0.35176108032E+03  0.25500000920E-02 0.  1.
</event>
<event>
 5   0  0.1387622E-03  0.1309261E+04  0.7818609E-02  0.9022253E-01
        1   -1    0    0  501    0  0.00000000000E+00  0.00000000000E+00  0.10550905901E+04  0.10550905901E+04  0.50400001928E-02 0. -1.
       -1   -1    0    0    0  501  0.00000000000E+00  0.00000000000E+00 -0.40616507894E+03  0.40616507897E+03  0.50400001928E-02 0.  1.
    10030    2    1    2    0    0  0.00000000000E+00  0.00000000000E+00  0.64892551111E+03  0.14612556690E+04  0.13092607881E+04 0.  0.
        3    1    3    3  502    0 -0.35144697848E+03 -0.47241929396E+03  0.64376260247E+03  0.87242493461E+03  0.10100000352E+00 0. -1.
       -3    1    3    3    0  502  0.35144697848E+03  0.47241929396E+03  0.51629086472E+01  0.58883073443E+03  0.10100000352E+00 0.  1.
</event>
<event>
 5   0  0.1332630E-03  0.1292825E+04  0.7818609E-02  0.9035274E-01
        1   -1    0    0  501    0  0.00000000000E+00  0.00000000000E+00  0.48176520405E+03  0.48176520408E+03  0.50400001928E-02 0. -1.
       -1   -1    0    0    0  501  0.00000000000E+00  0.00000000000E+00 -0.86732939059E+03  0.86732939060E+03  0.50400001928E-02 0.  1.
    10030    2    1    2    0    0  0.00000000000E+00  0.00000000000E+00 -0.38556418654E+03  0.13490945947E+04  0.12928250011E+04 0.  0.
        5    1    3    3  502    0  0.91583349113E+02 -0.68559467528E+02  0.47109892580E+03  0.48481357067E+03  0.46999998093E+01 0. -1.
       -5    1    3    3    0  502 -0.91583349113E+02  0.68559467528E+02 -0.85666311234E+03  0.86428102401E+03  0.46999998093E+01 0.  1.
</event>
<event>
 5   0  0.2334946E-03  0.1313734E+04  0.7818609E-02  0.9018744E-01
        2   -1    0    0  501    0  0.00000000000E+00  0.00000000000E+00  0.12802882228E+04  0.12802882228E+04  0.25500000920E-02 0. -1.
       -2   -1    0    0    0  501  0.00000000000E+00  0.00000000000E+00 -0.33701334952E+03  0.33701334953E+03  0.25500000920E-02 0.  1.
    10030    2    1    2    0    0  0.00000000000E+00  0.00000000000E+00  0.94327487326E+03  0.16173015723E+04  0.13137339492E+04 0.  0.
        1    1    3    3  502    0 -0.20295995507E+03  0.17833469171E+02 -0.29713098497E+03  0.36027433747E+03  0.50400001928E-02 0.  1.
       -1    1    3    3    0  502  0.20295995507E+03 -0.17833469171E+02  0.12404058582E+04  0.12570272348E+04  0.50400001928E-02 0. -1.
</event>
<event>
 5   0  0.2312105E-03  0.1261928E+04  0.7818609E-02  0.9060314E-01
       -2   -1    0    0    0  501  0.00000000000E+00  0.00000000000E+00  0.21678004120E+03  0.21678004121E+03  0.25500000920E-02 0. -1.
        2   -1    0    0  501    0  0.00000000000E+00  0.00000000000E+00 -0.18364942031E+04  0.18364942031E+04  0.25500000920E-02 0.  1.
    10030    2    1    2    0    0  0.00000000000E+00  0.00000000000E+00 -0.16197141620E+04  0.20532742444E+04  0.12619275558E+04 0.  0.
        5    1    3    3  502    0  0.27390586882E+03  0.11787894258E+03  0.94861576848E+02  0.31295475526E+03  0.46999998093E+01 0. -1.
       -5    1    3    3    0  502 -0.27390586882E+03 -0.11787894258E+03 -0.17145757388E+04  0.17403194891E+04  0.46999998093E+01 0.  1.
</event>
<event>
 5   0  0.2312105E-03  0.1319148E+04  0.7818609E-02  0.9014517E-01
       -2   -1    0    0    0  501  0.00000000000E+00  0.00000000000E+00  0.34078497348E+03  0.34078497349E+03  0.25500000920E-02 0.  1.
        2   -1    0    0  501    0  0.00000000000E+00  0.00000000000E+00 -0.12765752297E+04  0.12765752297E+04  0.25500000920E-02 0. -1.
    10030    2    1    2    0    0  0.00000000000E+00  0.00000000000E+00 -0.93579025622E+03  0.16173602032E+04  0.13191476882E+04 0.  0.
        5    1    3    3  502    0  0.49502374239E+03  0.30569577787E+02  0.65171679543E+02  0.50025237873E+03  0.46999998093E+01 0.  1.
       -5    1    3    3    0  502 -0.49502374239E+03 -0.30569577787E+02 -0.10009619358E+04  0.11171078245E+04  0.46999998093E+01 0. -1.
</event>
<event>
 5   0  0.1310461E-03  0.1275743E+04  0.7818609E-02  0.9049025E-01
       -1   -1    0    0    0  501  0.00000000000E+00  0.00000000000E+00  0.24820380128E+03  0.24820380133E+03  0.50400001928E-02 0.  1.
        1   -1    0    0  501    0  0.00000000000E+00  0.00000000000E+00 -0.16392990477E+04  0.16392990477E+04  0.50400001928E-02 0. -1.
    10030    2    1    2    0    0  0.00000000000E+00  0.00000000000E+00 -0.13910952464E+04  0.18875028490E+04  0.12757433208E+04 0.  0.
        4    1    3    3  502    0 -0.58530529463E+03  0.58465607171E+02 -0.33049543669E+03  0.67470687096E+03  0.12699999809E+01 0. -1.
       -4    1    3    3    0  502  0.58530529463E+03 -0.58465607171E+02 -0.10605998097E+04  0.12127959780E+04  0.12699999809E+01 0.  1.
</event>
<event>
 5   0  0.1310461E-03  0.1282749E+04  0.7818609E-02  0.9043358E-01
        1   -1    0    0  501    0  0.00000000000E+00  0.00000000000E+00  0.15143933698E+04  0.15143933698E+04  0.50400001928E-02 0.  1.
       -1   -1    0    0    0  501  0.00000000000E+00  0.00000000000E+00 -0.27163453016E+03  0.27163453020E+03  0.50400001928E-02 0. -1.
    10030    2    1    2    0    0  0.00000000000E+00  0.00000000000E+00  0.12427588397E+04  0.17860279000E+04  0.12827494401E+04 0.  0.
        4    1    3    3  502    0 -0.46624607891E+03  0.42673723055E+03  0.77307362640E+03  0.99856622953E+03  0.12699999809E+01 0.  1.
       -4    1    3    3    0  502  0.46624607891E+03 -0.42673723055E+03  0.46968521327E+03  0.78746167049E+03  0.12699999809E+01 0. -1.
</event>
<event>
 5   0  0.1346593E-03  0.1298188E+04  0.7818609E-02  0.9031003E-01
       -1   -1    0    0    0  501  0.00000000000E+00  0.00000000000E+00  0.51651210366E+03  0.51651210368E+03  0.50400001928E-02 0.  1.
        1   -1    0    0  501    0  0.00000000000E+00  0.00000000000E+00 -0.81570781303E+03  0.81570781305E+03  0.50400001928E-02 0. -1.
    10030    2    1    2    0    0  0.00000000000E+00  0.00000000000E+00 -0.29919570937E+03  0.13322199167E+04  0.12981879040E+04 0.  0.
        2    1    3    3  502    0 -0.47977941899E+02  0.84512217793E+02 -0.80819988089E+03  0.81402164918E+03  0.25500000920E-02 0. -1.
       -2    1    3    3    0  502  0.47977941899E+02 -0.84512217793E+02  0.50900417151E+03  0.51819826755E+03  0.25500000920E-02 0.  1.
</event>
<event>
 5   0  0.2334946E-03  0.1357106E+04  0.7818609E-02  0.8985466E-01
       -2   -1    0    0    0  501  0.00000000000E+00  0.00000000000E+00  0.53674021579E+03  0.53674021579E+03  0.25500000920E-02 0.  1.
        2   -1    0    0  501    0  0.00000000000E+00  0.00000000000E+00 -0.85783433852E+03  0.85783433853E+03  0.25500000920E-02 0. -1.
    10030    2    1    2    0    0  0.00000000000E+00  0.00000000000E+00 -0.32109412274E+03  0.13945745543E+04  0.13571060209E+04 0.  0.
        1    1    3    3  502    0 -0.25554107262E+03 -0.33098011144E+03  0.38860895074E+03  0.57084673126E+03  0.50400001928E-02 0.  1.
       -1    1    3    3    0  502  0.25554107262E+03  0.33098011144E+03 -0.70970307347E+03  0.82372782306E+03  0.50400001928E-02 0. -1.
</event>
<event>
 5   0  0.2312105E-03  0.1306239E+04  0.7818609E-02  0.9024632E-01
        2   -1    0    0  501    0  0.00000000000E+00  0.00000000000E+00  0.84962886059E+03  0.84962886059E+03  0.25500000920E-02 0.  1.
       -2   -1    0    0    0  501  0.00000000000E+00  0.00000000000E+00 -0.50206051227E+03  0.50206051227E+03  0.25500000920E-02 0. -1.
    10030    2    1    2    0    0  0.00000000000E+00  0.00000000000E+00  0.34756834832E+03  0.13516893729E+04  0.13062390302E+04 0.  0.
        5    1    3    3  502    0 -0.41456548870E+03 -0.87224368933E+02 -0.34057273886E+03  0.54358487416E+03  0.46999998093E+01 0. -1.
       -5    1    3    3    0  502  0.41456548870E+03  0.87224368933E+02  0.68814108718E+03  0.80810449871E+03  0.46999998093E+01 0.  1.
</event>
<event>
 5   0  0.2478236E-03  0.1308564E+04  0.7818609E-02  0.9022801E-01
        2   -1    0    0  501    0  0.00000000000E+00  0.00000000000E+00  0.98988168045E+03  0.98988168045E+03  0.25500000920E-02 0.  1.
       -2   -1    0    0    0  501  0.00000000000E+00  0.00000000000E+00 -0.43246103350E+03  0.43246103350E+03  0.25500000920E-02 0. -1.
    10030    2    1    2    0    0  0.00000000000E+00  0.00000000000E+00  0.55742064695E+03  0.14223427140E+04  0.13085644876E+04 0.  0.
        3    1    3    3  502    0 -0.40545552414E+03 -0.23497124401E+03 -0.21758579744E+03  0.51667132398E+03  0.10100000352E+00 0. -1.
       -3    1    3    3    0  502  0.40545552414E+03  0.23497124401E+03  0.77500644440E+03  0.90567138998E+03  0.10100000352E+00 0.  1.
</event>
<event>
 5   0  0.1310461E-03  0.1306959E+04  0.7818609E-02  0.9024064E-01
       -1   -1    0    0    0  501  0.00000000000E+00  0.00000000000E+00  0.84401671270E+03  0.84401671272E+03  0.50400001928E-02 0. -1.
        1   -1    0    0  501    0  0.00000000000E+00  0.00000000000E+00 -0.50595647137E+03  0.50595647140E+03  0.50400001928E-02 0.  1.
    10030    2    1    2    0    0  0.00000000000E+00  0.00000000000E+00  0.33806024133E+03  0.13499731841E+04  0.13069593992E+04 0.  0.
        4    1    3    3  502    0 -0.42797814808E+03  0.40332499489E+03 -0.12530024138E+03  0.60128039227E+03  0.12699999809E+01 0. -1.
       -4    1    3    3    0  502  0.42797814808E+03 -0.40332499489E+03  0.46336048270E+03  0.74869279185E+03  0.12699999809E+01 0.  1.
</event>
<event>
 5   0  0.2334946E-03  0.1313301E+04  0.7818609E-02  0.9019083E-01
       -2   -1    0    0    0  501  0.00000000000E+00  0.00000000000E+00  0.66572384212E+03  0.66572384213E+03  0.25500000920E-02 0.  1.
        2   -1    0    0  501    0  0.00000000000E+00  0.00000000000E+00 -0.64770112531E+03  0.64770112531E+03  0.25500000920E-02 0. -1.
    10030    2    1    2    0    0  0.00000000000E+00  0.00000000000E+00  0.18022716814E+02  0.13134249674E+04  0.13133013085E+04 0.  0.
        1    1    3    3  502    0  0.53458304753E+03  0.37080040246E+03  0.98003491172E+02  0.65793362695E+03  0.50400001928E-02 0.  1.
       -1    1    3    3    0  502 -0.53458304753E+03 -0.37080040246E+03 -0.79980774358E+02  0.65549134049E+03  0.50400001928E-02 0. -1.
</event>
<event>
 5   0  0.1310461E-03  0.1300997E+04  0.7818609E-02  0.9028775E-01
       -1   -1    0    0    0  501  0.00000000000E+00  0.00000000000E+00  0.19523614244E+03  0.19523614250E+03  0.50400001928E-02 0.  1.
        1   -1    0    0  501    0  0.00000000000E+00  0.00000000000E+00 -0.21673653704E+04  0.21673653704E+04  0.50400001928E-02 0. -1.
    10030    2    1    2    0    0  0.00000000000E+00  0.00000000000E+00 -0.19721292280E+04  0.23626015129E+04  0.13009966245E+04 0.  0.
        4    1    3    3  502    0  0.48352423960E+03  0.28242632236E+03 -0.15872274024E+04  0.16831080648E+04  0.12699999809E+01 0. -1.
       -4    1    3    3    0  502 -0.48352423960E+03 -0.28242632236E+03 -0.38490182555E+03  0.67949344813E+03  0.12699999809E+01 0.  1.
</event>
<event>
 5   0  0.2478236E-03  0.1303639E+04  0.7818609E-02  0.9026684E-01
        2   -1    0    0  501    0  0.00000000000E+00  0.00000000000E+00  0.72604212012E+03  0.72604212013E+03  0.25500000920E-02 0.  1.
       -2   -1    0    0    0  501  0.00000000000E+00  0.00000000000E+00 -0.58518488084E+03  0.58518488084E+03  0.25500000920E-02 0. -1.
    10030    2    1    2    0    0  0.00000000000E+00  0.00000000000E+00  0.14085723929E+03  0.13112270010E+04  0.13036393237E+04 0.  0.
        3    1    3    3  502    0 -0.32982591352E+03  0.36026173377E+03  0.50456009804E+03  0.70224963709E+03  0.10100000352E+00 0.  1.
       -3    1    3    3    0  502  0.32982591352E+03 -0.36026173377E+03 -0.36370285876E+03  0.60897736388E+03  0.10100000352E+00 0. -1.
</event>
<event>
 5   0  0.2401211E-03  0.1312172E+04  0.7818609E-02  0.9019968E-01
       -2   -1    0    0    0  501  0.00000000000E+00  0.00000000000E+00  0.67852475404E+03  0.67852475404E+03  0.25500000920E-02 0. -1.
        2   -1    0    0  501    0  0.00000000000E+00  0.00000000000E+00 -0.63438913244E+03  0.63438913245E+03  0.25500000920E-02 0.  1.
    10030    2    1    2    0    0  0.00000000000E+00  0.00000000000E+00  0.44135621593E+02  0.13129138865E+04  0.13121718334E+04 0.  0.
        4    1    3    3  502    0 -0.53731080546E+03  0.20868826060E+03  0.33560332161E+03  0.66699692214E+03  0.12699999809E+01 0. -1.
       -4    1    3    3    0  502  0.53731080546E+03 -0.20868826060E+03 -0.29146770002E+03  0.64591696434E+03  0.12699999809E+01 0.  1.
</event>
<event>
 5   0  0.1324721E-03  0.1308870E+04  0.7818609E-02  0.9022560E-01
        1   -1    0    0  501    0  0.00000000000E+00  0.00000000000E+00  0.12271304841E+04  0.12271304841E+04  0.50400001928E-02 0.  1.
       -1   -1    0    0    0  501  0.00000000000E+00  0.00000000000E+00 -0.34901374949E+03  0.34901374953E+03  0.50400001928E-02 0. -1.
    10030    2    1    2    0    0  0.00000000000E+00  0.00000000000E+00  0.87811673461E+03  0.15761442336E+04  0.13088703701E+04 0.  0.
        1    1    3    3  502    0 -0.40222788014E+03  0.33457972375E+03 -0.34354678722E+02  0.52431965735E+03  0.50400001928E-02 0. -1.
       -1    1    3    3    0  502  0.40222788014E+03 -0.33457972375E+03  0.91247141333E+03  0.10518245763E+04  0.50400001928E-02 0.  1.
</event>
<event>
 5   0  0.2334946E-03  0.1215966E+04  0.7818609E-02  0.9098995E-01
        2   -1    0    0  501    0  0.00000000000E+00  0.00000000000E+00  0.16772433106E+04  0.16772433106E+04  0.25500000920E-02 0. -1.
       -2   -1    0    0    0  501  0.00000000000E+00  0.00000000000E+00 -0.22038744352E+03  0.22038744354E+03  0.25500000920E-02 0.  1.
    10030    2    1    2    0    0  0.00000000000E+00  0.00000000000E+00  0.14568558670E+04  0.18976307541E+04  0.12159660610E+04 0.  0.
        1    1    3    3  502    0 -0.41866135721E+03 -0.38551147824E+03  0.39463952520E+03  0.69255814683E+03  0.50400001928E-02 0.  1.
       -1    1    3    3    0  502  0.41866135721E+03  0.38551147824E+03  0.10622163419E+04  0.12050726073E+04  0.50400001928E-02 0. -1.
</event>
<event>
 5   0  0.1332630E-03  0.1177540E+04  0.7818609E-02  0.9132746E-01
        1   -1    0    0  501    0  0.00000000000E+00  0.00000000000E+00  0.13685981273E+03  0.13685981282E+03  0.50400001928E-02 0.  1.
       -1   -1    0    0    0  501  0.00000000000E+00  0.00000000000E+00 -0.25328847970E+04  0.25328847970E+04  0.50400001928E-02 0. -1.
    10030    2    1    2    0    0  0.00000000000E+00  0.00000000000E+00 -0.23960249843E+04  0.26697446098E+04  0.11775400445E+04 0.  0.
        5    1    3    3  502    0  0.23378632684E+03  0.45233186036E+03 -0.18681593080E+04  0.19363112995E+04  0.46999998093E+01 0. -1.
       -5    1    3    3    0  502 -0.23378632684E+03 -0.45233186036E+03 -0.52786567627E+03  0.73343331033E+03  0.46999998093E+01 0.  1.
</event>
<event>
 5   0  0.1332630E-03  0.1281012E+04  0.7818609E-02  0.9044760E-01
        1   -1    0    0  501    0  0.00000000000E+00  0.00000000000E+00  0.20418345826E+04  0.20418345826E+04  0.50400001928E-02 0. -1.
       -1   -1    0    0    0  501  0.00000000000E+00  0.00000000000E+00 -0.20092116255E+03  0.20092116261E+03  0.50400001928E-02 0.  1.
    10030    2    1    2    0    0  0.00000000000E+00  0.00000000000E+00  0.18409134200E+04  0.22427557452E+04  0.12810117535E+04 0.  0.
        5    1    3    3  502    0  0.12852491905E+03 -0.44568597557E+03  0.14719720327E+03  0.48666595349E+03  0.46999998093E+01 0.  1.
       -5    1    3    3    0  502 -0.12852491905E+03  0.44568597557E+03  0.16937162168E+04  0.17560897917E+04  0.46999998093E+01 0. -1.
</event>
<event>
 5   0  0.1310461E-03  0.1297200E+04  0.7818609E-02  0.9031788E-01
       -1   -1    0    0    0  501  0.00000000000E+00  0.00000000000E+00  0.14784906940E+04  0.14784906940E+04  0.50400001928E-02 0. -1.
        1   -1    0    0  501    0  0.00000000000E+00  0.00000000000E+00 -0.28453481001E+03  0.28453481006E+03  0.50400001928E-02 0.  1.
    10030    2    1    2    0    0  0.00000000000E+00  0.00000000000E+00  0.11939558839E+04  0.17630255040E+04  0.12972001677E+04 0.  0.
        4    1    3    3  502    0 -0.25551156765E+03 -0.51406144042E+03  0.10072713201E+04  0.11593715758E+04  0.12699999809E+01 0. -1.
       -4    1    3    3    0  502  0.25551156765E+03  0.51406144042E+03  0.18668456389E+03  0.60365392820E+03  0.12699999809E+01 0.  1.
</event>
<event>
 5   0  0.1387622E-03  0.1300031E+04  0.7818609E-02  0.9029541E-01
        1   -1    0    0  501    0  0.00000000000E+00  0.00000000000E+00  0.12716226088E+04  0.12716226088E+04  0.50400001928E-02 0.  1.
       -1   -1    0    0    0  501  0.00000000000E+00  0.00000000000E+00 -0.33226845790E+03  0.33226845794E+03  0.50400001928E-02 0. -1.
    10030    2    1    2    0    0  0.00000000000E+00  0.00000000000E+00  0.93935415093E+03  0.16038910668E+04  0.13000308970E+04 0.  0.
        3    1    3    3  502    0 -0.63777148601E+03 -0.37880365288E+02  0.32197556482E+03  0.71544088854E+03  0.10100000352E+00 0. -1.
       -3    1    3    3    0  502  0.63777148601E+03  0.37880365288E+02  0.61737858611E+03  0.88845017825E+03  0.10100000352E+00 0.  1.
</event>
<event>
 5   0  0.1387622E-03  0.1300204E+04  0.7818609E-02  0.9029403E-01
       -1   -1    0    0    0  501  0.00000000000E+00  0.00000000000E+00  0.24913585527E+03  0.24913585532E+03  0.50400001928E-02 0. -1.
        1   -1    0    0  501    0  0.00000000000E+00  0.00000000000E+00 -0.16963950542E+04  0.16963950542E+04  0.50400001928E-02 0.  1.
    10030    2    1    2    0    0  0.00000000000E+00  0.00000000000E+00 -0.14472591989E+04  0.19455309095E+04  0.13002043420E+04 0.  0.
        3    1    3    3  502    0  0.15943763805E+01 -0.61312447199E+03 -0.40024060342E+03  0.73219991192E+03  0.10100000352E+00 0. -1.
       -3    1    3    3    0  502 -0.15943763805E+01  0.61312447199E+03 -0.10470185955E+04  0.12133309976E+04  0.10100000352E+00 0.  1.
</event>
<event>
 5   0  0.1310461E-03  0.1304252E+04  0.7818609E-02  0.9026200E-01
        1   -1    0    0  501    0  0.00000000000E+00  0.00000000000E+00  0.10643720333E+04  0.10643720333E+04  0.50400001928E-02 0. -1.
       -1   -1    0    0    0  501  0.00000000000E+00  0.00000000000E+00 -0.39954877318E+03  0.39954877321E+03  0.50400001928E-02 0.  1.
    10030    2    1    2    0    0  0.00000000000E+00  0.00000000000E+00  0.66482326010E+03  0.14639208065E+04  0.13042523378E+04 0.  0.
        4    1    3    3  502    0 -0.41184044616E+02  0.21268206902E+03 -0.35797988840E+03  0.41842681728E+03  0.12699999809E+01 0.  1.
       -4    1    3    3    0  502  0.41184044616E+02 -0.21268206902E+03  0.10228031485E+04  0.10454939892E+04  0.12699999809E+01 0. -1.
</event>
<event>
 5   0  0.1387622E-03  0.1315033E+04  0.7818609E-02  0.9017728E-01
       -1   -1    0    0    0  501  0.00000000000E+00  0.00000000000E+00  0.41204236751E+03  0.41204236754E+03  0.50400001928E-02 0. -1.
        1   -1    0    0  501    0  0.00000000000E+00  0.00000000000E+00 -0.10492317039E+04  0.10492317039E+04  0.50400001928E-02 0.  1.
    10030    2    1    2    0    0  0.00000000000E+00  0.00000000000E+00 -0.63718933638E+03  0.14612740714E+04  0.13150329507E+04 0.  0.
        3    1    3    3  502    0  0.39902992505E+03 -0.52189401039E+03 -0.28857837219E+03  0.71754841388E+03  0.10100000352E+00 0.  1.
       -3    1    3    3    0  502 -0.39902992505E+03  0.52189401039E+03 -0.34861096418E+03  0.74372565756E+03  0.10100000352E+00 0. -1.
</event>
<event>
 5   0  0.1324721E-03  0.1295414E+04  0.7818609E-02  0.9033210E-01
        1   -1    0    0  501    0  0.00000000000E+00  0.00000000000E+00  0.12106456899E+04  0.12106456899E+04  0.50400001928E-02 0.  1.
       -1   -1    0    0    0  501  0.00000000000E+00  0.00000000000E+00 -0.34652928085E+03  0.34652928089E+03  0.50400001928E-02 0. -1.
    10030    2    1    2    0    0  0.00000000000E+00  0.00000000000E+00  0.86411640902E+03  0.15571749708E+04  0.12954137259E+04 0.  0.
        1    1    3    3  502    0  0.36100639317E+02 -0.37063876612E+03  0.10690949085E+04  0.11320955236E+04  0.50400001928E-02 0.  1.
       -1    1    3    3    0  502 -0.36100639317E+02  0.37063876612E+03 -0.20497849951E+03  0.42507944716E+03  0.50400001928E-02 0. -1.
</event>
<event>
 5   0  0.1332630E-03  0.1293635E+04  0.7818609E-02  0.9034628E-01
        1   -1    0    0  501    0  0.00000000000E+00  0.00000000000E+00  0.98423043179E+03  0.98423043181E+03  0.50400001928E-02 0. -1.
       -1   -1    0    0    0  501  0.00000000000E+00  0.00000000000E+00 -0.42507627662E+03  0.42507627665E+03  0.50400001928E-02 0.  1.
    10030    2    1    2    0    0  0.00000000000E+00  0.00000000000E+00  0.55915415517E+03  0.14093067085E+04  0.12936351994E+04 0.  0.
        5    1    3    3  502    0  0.27564151279E+03  0.55918943678E+03  0.91894254258E+02  0.63018863346E+03  0.46999998093E+01 0.  1.
       -5    1    3    3    0  502 -0.27564151279E+03 -0.55918943678E+03  0.46725990091E+03  0.77911807499E+03  0.46999998093E+01 0. -1.
</event>
<event>
 5   0  0.2478236E-03  0.1221850E+04  0.7818609E-02  0.9093943E-01
       -2   -1    0    0    0  501  0.00000000000E+00  0.00000000000E+00  0.22919240159E+03  0.22919240160E+03  0.25500000920E-02 0. -1.
        2   -1    0    0  501    0  0.00000000000E+00  0.00000000000E+00 -0.16284555515E+04  0.16284555515E+04  0.25500000920E-02 0.  1.
    10030    2    1    2    0    0  0.00000000000E+00  0.00000000000E+00 -0.13992631499E+04  0.18576479531E+04  0.12218504634E+04 0.  0.
        3    1    3    3  502    0  0.19049994706E+03 -0.46659137865E+03 -0.12246101247E+04  0.13242611948E+04  0.10100000352E+00 0.  1.
       -3    1    3    3    0  502 -0.19049994706E+03  0.46659137865E+03 -0.17465302522E+03  0.53338675826E+03  0.10100000352E+00 0. -1.
</event>
<event>
 5   0  0.2361043E-03  0.1301238E+04  0.7818609E-02  0.9028584E-01
       -2   -1    0    0    0  501  0.00000000000E+00  0.00000000000E+00  0.42169409373E+03  0.42169409373E+03  0.25500000920E-02 0. -1.
        2   -1    0    0  501    0  0.00000000000E+00  0.00000000000E+00 -0.10038200461E+04  0.10038200461E+04  0.25500000920E-02 0.  1.
    10030    2    1    2    0    0  0.00000000000E+00  0.00000000000E+00 -0.58212595240E+03  0.14255141399E+04  0.13012378485E+04 0.  0.
        2    1    3    3  502    0  0.27801031847E+03 -0.58529437374E+03 -0.35536968982E+03  0.73901749476E+03  0.25500000920E-02 0.  1.
       -2    1    3    3    0  502 -0.27801031847E+03  0.58529437374E+03 -0.22675626258E+03  0.68649664510E+03  0.25500000920E-02 0. -1.
</event>
<event>
 5   0  0.1332630E-03  0.1290331E+04  0.7818609E-02  0.9037268E-01
        1   -1    0    0  501    0  0.00000000000E+00  0.00000000000E+00  0.53200285781E+03  0.53200285783E+03  0.50400001928E-02 0. -1.
       -1   -1    0    0    0  501  0.00000000000E+00  0.00000000000E+00 -0.78239885688E+03  0.78239885690E+03  0.50400001928E-02 0.  1.
    10030    2    1    2    0    0  0.00000000000E+00  0.00000000000E+00 -0.25039599907E+03  0.13144017147E+04  0.12903308534E+04 0.  0.
        5    1    3    3  502    0  0.47693092974E+03  0.69879479134E+02 -0.56199794239E+03  0.74041206811E+03  0.46999998093E+01 0.  1.
       -5    1    3    3    0  502 -0.47693092974E+03 -0.69879479134E+02  0.31160194332E+03  0.57398964662E+03  0.46999998093E+01 0. -1.
</event>
<event>
 5   0  0.2478236E-03  0.1260423E+04  0.7818609E-02  0.9061552E-01
        2   -1    0    0  501    0  0.00000000000E+00  0.00000000000E+00  0.71931014435E+03  0.71931014436E+03  0.25500000920E-02 0.  1.
       -2   -1    0    0    0  501  0.00000000000E+00  0.00000000000E+00 -0.55214936570E+03  0.55214936570E+03  0.25500000920E-02 0. -1.
    10030    2    1    2    0    0  0.00000000000E+00  0.00000000000E+00  0.16716077866E+03  0.12714595101E+04  0.12604231670E+04 0.  0.
        3    1    3    3  502    0 -0.24106239635E+03 -0.15184450477E+03 -0.48347942617E+03  0.56117751050E+03  0.10100000352E+00 0. -1.
       -3    1    3    3    0  502  0.24106239635E+03  0.15184450477E+03  0.65064020482E+03  0.71028199956E+03  0.10100000352E+00 0.  1.
</event>
<event>
 5   0  0.2334946E-03  0.1369642E+04  0.7818609E-02  0.8976091E-01
       -2   -1    0    0    0  501  0.00000000000E+00  0.00000000000E+00  0.12370786834E+04  0.12370786834E+04  0.25500000920E-02 0. -1.
        2   -1    0    0  501    0  0.00000000000E+00  0.00000000000E+00 -0.37910250531E+03  0.37910250532E+03  0.25500000920E-02 0.  1.
    10030    2    1    2    0    0  0.00000000000E+00  0.00000000000E+00  0.85797617806E+03  0.16161811887E+04  0.13696417461E+04 0.  0.
        1    1    3    3  502    0 -0.90009202159E+02 -0.36897913812E+03  0.11014161865E+04  0.11650600314E+04  0.50400001928E-02 0. -1.
       -1    1    3    3    0  502  0.90009202159E+02  0.36897913812E+03 -0.24344000842E+03  0.45112115731E+03  0.50400001928E-02 0.  1.
</event>
<event>
 5   0  0.2401211E-03  0.1312402E+04  0.7818609E-02  0.9019788E-01
       -2   -1    0    0    0  501  0.00000000000E+00  0.00000000000E+00  0.58449828214E+03  0.58449828214E+03  0.25500000920E-02 0. -1.
        2   -1    0    0  501    0  0.00000000000E+00  0.00000000000E+00 -0.73669930367E+03  0.73669930367E+03  0.25500000920E-02 0.  1.
    10030    2    1    2    0    0  0.00000000000E+00  0.00000000000E+00 -0.15220102153E+03  0.13211975858E+04  0.13124015810E+04 0.  0.
        4    1    3    3  502    0 -0.57913533238E+03 -0.29695650911E+03  0.82282311135E+01  0.65088418186E+03  0.12699999809E+01 0.  1.
       -4    1    3    3    0  502  0.57913533238E+03  0.29695650911E+03 -0.16042925264E+03  0.67031340395E+03  0.12699999809E+01 0. -1.
</event>
<event>
 5   0  0.2361043E-03  0.1323948E+04  0.7818609E-02  0.9010787E-01
        2   -1    0    0  501    0  0.00000000000E+00  0.00000000000E+00  0.17652101263E+04  0.17652101263E+04  0.25500000920E-02 0. -1.
       -2   -1    0    0    0  501  0.00000000000E+00  0.00000000000E+00 -0.24824785661E+03  0.24824785662E+03  0.25500000920E-02 0.  1.
    10030    2    1    2    0    0  0.00000000000E+00  0.00000000000E+00  0.15169622696E+04  0.20134579829E+04  0.13239480810E+04 0.  0.
        2    1    3    3  502    0  0.12984804928E+03  0.28789319934E+03 -0.12628713447E+03  0.34013445939E+03  0.25500000920E-02 0.  1.
       -2    1    3    3    0  502 -0.12984804928E+03 -0.28789319934E+03  0.16432494041E+04  0.16733235235E+04  0.25500000920E-02 0. -1.
</event>
<event>
 5   0  0.1332630E-03  0.1297456E+04  0.7818609E-02  0.9031585E-01
        1   -1    0    0  501    0  0.00000000000E+00  0.00000000000E+00  0.15699764329E+04  0.15699764329E+04  0.50400001928E-02 0.  1.
       -1   -1    0    0    0  501  0.00000000000E+00  0.00000000000E+00 -0.26806019987E+03  0.26806019992E+03  0.50400001928E-02 0. -1.
    10030    2    1    2    0    0  0.00000000000E+00  0.00000000000E+00  0.13019162331E+04  0.18380366329E+04  0.12974562751E+04 0.  0.
        5    1    3    3  502    0  0.17957467131E+02 -0.52631341102E+02  0.15665693763E+04  0.15675631501E+04  0.46999998093E+01 0.  1.
       -5    1    3    3    0  502 -0.17957467131E+02  0.52631341102E+02 -0.26465314322E+03  0.27047348281E+03  0.46999998093E+01 0. -1.
</event>
<event>
 5   0  0.2361043E-03  0.1280319E+04  0.7818609E-02  0.9045320E-01
        2   -1    0    0  501    0  0.00000000000E+00  0.00000000000E+00  0.65667232228E+03  0.65667232228E+03  0.25500000920E-02 0.  1.
       -2   -1    0    0    0  501  0.00000000000E+00  0.00000000000E+00 -0.62406144622E+03  0.62406144622E+03  0.25500000920E-02 0. -1.
    10030    2    1    2    0    0  0.00000000000E+00  0.00000000000E+00  0.32610876057E+02  0.12807337685E+04  0.12803185215E+04 0.  0.
        2    1    3    3  502    0 -0.42543428364E+01 -0.81720092607E+02 -0.61880803935E+03  0.62419521189E+03  0.25500000920E-02 0. -1.
       -2    1    3    3    0  502  0.42543428364E+01  0.81720092607E+02  0.65141891541E+03  0.65653855662E+03  0.25500000920E-02 0.  1.
</event>
<event>
 5   0  0.1332630E-03  0.1303309E+04  0.7818609E-02  0.9026945E-01
        1   -1    0    0  501    0  0.00000000000E+00  0.00000000000E+00  0.86460602094E+03  0.86460602095E+03  0.50400001928E-02 0.  1.
       -1   -1    0    0    0  501  0.00000000000E+00  0.00000000000E+00 -0.49115287372E+03  0.49115287375E+03  0.50400001928E-02 0. -1.
    10030    2    1    2    0    0  0.00000000000E+00  0.00000000000E+00  0.37345314722E+03  0.13557588947E+04  0.13033092217E+04 0.  0.
        5    1    3    3  502    0  0.17138950839E+03  0.62065940615E+03  0.82498643991E+02  0.64916914458E+03  0.46999998093E+01 0. -1.
       -5    1    3    3    0  502 -0.17138950839E+03 -0.62065940615E+03  0.29095450323E+03  0.70658975011E+03  0.46999998093E+01 0.  1.
</event>
<event>
 5   0  0.1346593E-03  0.1295720E+04  0.7818609E-02  0.9032966E-01
       -1   -1    0    0    0  501  0.00000000000E+00  0.00000000000E+00  0.97920953711E+03  0.97920953712E+03  0.50400001928E-02 0.  1.
        1   -1    0    0  501    0  0.00000000000E+00  0.00000000000E+00 -0.42863383686E+03  0.42863383689E+03  0.50400001928E-02 0. -1.
    10030    2    1    2    0    0  0.00000000000E+00  0.00000000000E+00  0.55057570025E+03  0.14078433740E+04  0.12957196317E+04 0.  0.
        2    1    3    3  502    0 -0.33382145812E+03 -0.46833567532E+03 -0.48760350790E+02  0.57719376512E+03  0.25500000920E-02 0. -1.
       -2    1    3    3    0  502  0.33382145812E+03  0.46833567532E+03  0.59933605104E+03  0.83064960889E+03  0.25500000920E-02 0.  1.
</event>
<event>
 5   0  0.1346593E-03  0.1307543E+04  0.7818609E-02  0.9023604E-01
       -1   -1    0    0    0  501  0.00000000000E+00  0.00000000000E+00  0.17523318602E+04  0.17523318602E+04  0.50400001928E-02 0.  1.
        1   -1    0    0  501    0  0.00000000000E+00  0.00000000000E+00 -0.24391352596E+03  0.24391352601E+03  0.50400001928E-02 0. -1.
    10030    2    1    2    0    0  0.00000000000E+00  0.00000000000E+00  0.15084183342E+04  0.19962453862E+04  0.13075434107E+04 0.  0.
        2    1    3    3  502    0 -0.49845349784E+03 -0.19022669807E+03  0.13310877765E+04  0.14340281570E+04  0.25500000920E-02 0.  1.
       -2    1    3    3    0  502  0.49845349784E+03  0.19022669807E+03  0.17733055773E+03  0.56221722926E+03  0.25500000920E-02 0. -1.
</event>
<event>
 5   0  0.1346593E-03  0.1305703E+04  0.7818609E-02  0.9025055E-01
        1   -1    0    0  501    0  0.00000000000E+00  0.00000000000E+00  0.14169677992E+04  0.14169677993E+04  0.50400001928E-02 0.  1.
       -1   -1    0    0    0  501  0.00000000000E+00  0.00000000000E+00 -0.30079354319E+03  0.30079354323E+03  0.50400001928E-02 0. -1.
    10030    2    1    2    0    0  0.00000000000E+00  0.00000000000E+00  0.11161742561E+04  0.17177613425E+04  0.13057025158E+04 0.  0.
        2    1    3    3  502    0 -0.21634708115E+03  0.56518334497E+02 -0.24884365179E+03  0.33454976416E+03  0.25500000920E-02 0. -1.
       -2    1    3    3    0  502  0.21634708115E+03 -0.56518334497E+02  0.13650179078E+04  0.13832115783E+04  0.25500000920E-02 0.  1.
</event>
<event>
 5   0  0.2334946E-03  0.1304515E+04  0.7818609E-02  0.9025993E-01
       -2   -1    0    0    0  501  0.00000000000E+00  0.00000000000E+00  0.38418409945E+03  0.38418409946E+03  0.25500000920E-02 0.  1.
        2   -1    0    0  501    0  0.00000000000E+00  0.00000000000E+00 -0.11073845944E+04  0.11073845944E+04  0.25500000920E-02 0. -1.
    10030    2    1    2    0    0  0.00000000000E+00  0.00000000000E+00 -0.72320049499E+03  0.14915686939E+04  0.13045145506E+04 0.  0.
        1    1    3    3  502    0 -0.30900421982E+03 -0.33037901085E+03 -0.89887870458E+03  0.10062886386E+04  0.50400001928E-02 0. -1.
       -1    1    3    3    0  502  0.30900421982E+03  0.33037901085E+03  0.17567820959E+03  0.48528005526E+03  0.50400001928E-02 0.  1.
</event>
<event>
 5   0  0.2401211E-03  0.1199034E+04  0.7818609E-02  0.9113703E-01
        2   -1    0    0  501    0  0.00000000000E+00  0.00000000000E+00  0.10050482597E+04  0.10050482597E+04  0.25500000920E-02 0. -1.
       -2   -1    0    0    0  501  0.00000000000E+00  0.00000000000E+00 -0.35761521648E+03  0.35761521649E+03  0.25500000920E-02 0.  1.
    10030    2    1    2    0    0  0.00000000000E+00  0.00000000000E+00  0.64743304319E+03  0.13626634762E+04  0.11990338627E+04 0.  0.
        4    1    3    3  502    0  0.21929042407E+03  0.26512887661E+03  0.88167170709E+03  0.94642919613E+03  0.12699999809E+01 0. -1.
       -4    1    3    3    0  502 -0.21929042407E+03 -0.26512887661E+03 -0.23423866391E+03  0.41623428003E+03  0.12699999809E+01 0.  1.
</event>
<event>
 5   0  0.1387622E-03  0.1296452E+04  0.7818609E-02  0.9032383E-01
        1   -1    0    0  501    0  0.00000000000E+00  0.00000000000E+00  0.19339021731E+04  0.19339021731E+04  0.50400001928E-02 0.  1.
       -1   -1    0    0    0  501  0.00000000000E+00  0.00000000000E+00 -0.21727945861E+03  0.21727945866E+03  0.50400001928E-02 0. -1.
    10030    2    1    2    0    0  0.00000000000E+00  0.00000000000E+00  0.17166227145E+04  0.21511816318E+04  0.12964524168E+04 0.  0.
        3    1    3    3  502    0  0.30899831872E+03 -0.27794299801E+03  0.16837358183E+04  0.17342717743E+04  0.10100000352E+00 0.  1.
       -3    1    3    3    0  502 -0.30899831872E+03  0.27794299801E+03  0.32886896194E+02  0.41690985747E+03  0.10100000352E+00 0. -1.
</event>
<event>
 5   0  0.2478236E-03  0.1269958E+04  0.7818609E-02  0.9053734E-01
       -2   -1    0    0    0  501  0.00000000000E+00  0.00000000000E+00  0.85291709736E+03  0.85291709736E+03  0.25500000920E-02 0. -1.
        2   -1    0    0  501    0  0.00000000000E+00  0.00000000000E+00 -0.47272836218E+03  0.47272836218E+03  0.25500000920E-02 0.  1.
    10030    2    1    2    0    0  0.00000000000E+00  0.00000000000E+00  0.38018873518E+03  0.13256454595E+04  0.12699576410E+04 0.  0.
        3    1    3    3  502    0  0.18684115456E+03 -0.29350660000E+03 -0.36436827902E+03  0.50380551231E+03  0.10100000352E+00 0.  1.
       -3    1    3    3    0  502 -0.18684115456E+03  0.29350660000E+03  0.74455701420E+03  0.82183994723E+03  0.10100000352E+00 0. -1.
</event>
<event>
 5   0  0.1387622E-03  0.1246401E+04  0.7818609E-02  0.9073184E-01
        1   -1    0    0  501    0  0.00000000000E+00  0.00000000000E+00  0.10874801163E+04  0.10874801163E+04  0.50400001928E-02 0. -1.
       -1   -1    0    0    0  501  0.00000000000E+00  0.00000000000E+00 -0.35713654406E+03  0.35713654410E+03  0.50400001928E-02 0.  1.
    10030    2    1    2    0    0  0.00000000000E+00  0.00000000000E+00  0.73034357222E+03  0.14446166604E+04  0.12464010438E+04 0.  0.
        3    1    3    3  502    0 -0.84083355687E+02 -0.51293159973E+03  0.76366598533E+03  0.92377193292E+03  0.10100000352E+00 0. -1.
       -3    1    3    3    0  502  0.84083355687E+02  0.51293159973E+03 -0.33322413112E+02  0.52084472746E+03  0.10100000352E+00 0.  1.
</event>
<event>
 5   0  0.1346593E-03  0.1289766E+04  0.7818609E-02  0.9037720E-01
       -1   -1    0    0    0  501  0.00000000000E+00  0.00000000000E+00  0.37670701692E+03  0.37670701695E+03  0.50400001928E-02 0. -1.
        1   -1    0    0  501    0  0.00000000000E+00  0.00000000000E+00 -0.11039721835E+04  0.11039721835E+04  0.50400001928E-02 0.  1.
    10030    2    1    2    0    0  0.00000000000E+00  0.00000000000E+00 -0.72726516662E+03  0.14806792005E+04  0.12897659757E+04 0.  0.
        2    1    3    3  502    0 -0.41147656635E+03  0.23257006640E+02 -0.93305617539E+03  0.10200233720E+04  0.25500000920E-02 0.  1.
       -2    1    3    3    0  502  0.41147656635E+03 -0.23257006640E+02  0.20579100878E+03  0.46065582848E+03  0.25500000920E-02 0. -1.
</event>
<event>
 5   0  0.2361043E-03  0.1305674E+04  0.7818609E-02  0.9025078E-01
       -2   -1    0    0    0  501  0.00000000000E+00  0.00000000000E+00  0.85498858962E+03  0.85498858962E+03  0.25500000920E-02 0.  1.
        2   -1    0    0  501    0  0.00000000000E+00  0.00000000000E+00 -0.49848170088E+03  0.49848170089E+03  0.25500000920E-02 0. -1.
    10030    2    1    2    0    0  0.00000000000E+00  0.00000000000E+00  0.35650688874E+03  0.13534702905E+04  0.13056740273E+04 0.  0.
        2    1    3    3  502    0 -0.63094463391E+03  0.10102768094E+03  0.39570967795E+02  0.64020589257E+03  0.25500000920E-02 0.  1.
       -2    1    3    3    0  502  0.63094463391E+03 -0.10102768094E+03  0.31693592094E+03  0.71326439794E+03  0.25500000920E-02 0. -1.
</event>
<event>
 5   0  0.1332630E-03  0.1300131E+04  0.7818609E-02  0.9029462E-01
       -1   -1    0    0    0  501  0.00000000000E+00  0.00000000000E+00  0.42312515562E+03  0.42312515565E+03  0.50400001928E-02 0. -1.
        1   -1    0    0  501    0  0.00000000000E+00  0.00000000000E+00 -0.99872329819E+03  0.99872329820E+03  0.50400001928E-02 0.  1.
    10030    2    1    2    0    0  0.00000000000E+00  0.00000000000E+00 -0.57559814257E+03  0.14218484539E+04  0.13001306873E+04 0.  0.
        5    1    3    3  502    0  0.52164653216E+03 -0.44075140766E+02  0.13364217871E+03  0.54031476426E+03  0.46999998093E+01 0. -1.
       -5    1    3    3    0  502 -0.52164653216E+03  0.44075140766E+02 -0.70924032128E+03  0.88153368959E+03  0.46999998093E+01 0.  1.
</event>
<event>
 5   0  0.1324721E-03  0.1220542E+04  0.7818609E-02  0.9095064E-01
        1   -1    0    0  501    0  0.00000000000E+00  0.00000000000E+00  0.10882549749E+04  0.10882549749E+04  0.50400001928E-02 0. -1.
       -1   -1    0    0    0  501  0.00000000000E+00  0.00000000000E+00 -0.34222748665E+03  0.34222748669E+03  0.50400001928E-02 0.  1.
    10030    2    1    2    0    0  0.00000000000E+00  0.00000000000E+00  0.74602748821E+03  0.14304824616E+04  0.12205421171E+04 0.  0.
        1    1    3    3  502    0 -0.34884322198E+03 -0.26620822165E+03  0.87007736210E+03  0.97447063930E+03  0.50400001928E-02 0. -1.
       -1    1    3    3    0  502  0.34884322198E+03  0.26620822165E+03 -0.12404987389E+03  0.45601182226E+03  0.50400001928E-02 0.  1.
</event>
<event>
 5   0  0.2401211E-03  0.1307897E+04  0.7818609E-02  0.9023326E-01
       -2   -1    0    0    0  501  0.00000000000E+00  0.00000000000E+00  0.76924967516E+03  0.76924967517E+03  0.25500000920E-02 0.  1.
        2   -1    0    0  501    0  0.00000000000E+00  0.00000000000E+00 -0.55592993007E+03  0.55592993008E+03  0.25500000920E-02 0. -1.
    10030    2    1    2    0    0  0.00000000000E+00  0.00000000000E+00  0.21331974509E+03  0.13251796052E+04  0.13078974243E+04 0.  0.
        4    1    3    3  502    0  0.43680703288E+03  0.21146624659E+03  0.55077693754E+03  0.73408119799E+03  0.12699999809E+01 0.  1.
       -4    1    3    3    0  502 -0.43680703288E+03 -0.21146624659E+03 -0.33745719245E+03  0.59109840725E+03  0.12699999809E+01 0. -1.
</event>
<event>
 5   0  0.1324721E-03  0.1298793E+04  0.7818609E-02  0.9030523E-01
       -1   -1    0    0    0  501  0.00000000000E+00  0.00000000000E+00  0.38510371889E+03  0.38510371892E+03  0.50400001928E-02 0.  1.
        1   -1    0    0  501    0  0.00000000000E+00  0.00000000000E+00 -0.10950706460E+04  0.10950706460E+04  0.50400001928E-02 0. -1.
    10030    2    1    2    0    0  0.00000000000E+00  0.00000000000E+00 -0.70996692712E+03  0.14801743649E+04  0.12987929446E+04 0.  0.
        1    1    3    3  502    0 -0.35289138134E+03 -0.49845374359E+03 -0.10341325725E+03  0.61942131326E+03  0.50400001928E-02 0.  1.
       -1    1    3    3    0  502  0.35289138134E+03  0.49845374359E+03 -0.60655366988E+03  0.86075305168E+03  0.50400001928E-02 0. -1.
</event>
<event>
 5   0  0.2401211E-03  0.1498642E+04  0.7818609E-02  0.8885357E-01
       -2   -1    0    0    0  501  0.00000000000E+00  0.00000000000E+00  0.60297166226E+03  0.60297166227E+03  0.25500000920E-02 0. -1.
        2   -1    0    0  501    0  0.00000000000E+00  0.00000000000E+00 -0.93119077759E+03  0.93119077760E+03  0.25500000920E-02 0.  1.
    10030    2    1    2    0    0  0.00000000000E+00  0.00000000000E+00 -0.32821911533E+03  0.15341624399E+04  0.14986415863E+04 0.  0.
        4    1    3    3  502    0 -0.38435095794E+03  0.61606982131E+03  0.25240328427E+02  0.72657165557E+03  0.12699999809E+01 0. -1.
       -4    1    3    3    0  502  0.38435095794E+03 -0.61606982131E+03 -0.35345944376E+03  0.80759078429E+03  0.12699999809E+01 0.  1.
</event>
<event>
 5   0  0.2312105E-03  0.1286589E+04  0.7818609E-02  0.9040268E-01
       -2   -1    0    0    0  501  0.00000000000E+00  0.00000000000E+00  0.26294521297E+03  0.26294521298E+03  0.25500000920E-02 0.  1.
        2   -1    0    0  501    0  0.00000000000E+00  0.00000000000E+00 -0.15738179240E+04  0.15738179240E+04  0.25500000920E-02 0. -1.
    10030    2    1    2    0    0  0.00000000000E+00  0.00000000000E+00 -0.13108727110E+04  0.18367631369E+04  0.12865891173E+04 0.  0.
        5    1    3    3  502    0 -0.10471928635E+03 -0.37235819656E+03 -0.13892244861E+04  0.14420761139E+04  0.46999998093E+01 0. -1.
       -5    1    3    3    0  502  0.10471928635E+03  0.37235819656E+03  0.78351775134E+02  0.39468702303E+03  0.46999998093E+01 0.  1.
</event>
<event>
 5   0  0.1310461E-03  0.1292476E+04  0.7818609E-02  0.9035553E-01
        1   -1    0    0  501    0  0.00000000000E+00  0.00000000000E+00  0.38810114891E+03  0.38810114894E+03  0.50400001928E-02 0.  1.
       -1   -1    0    0    0  501  0.00000000000E+00  0.00000000000E+00 -0.10760680722E+04  0.10760680722E+04  0.50400001928E-02 0. -1.
    10030    2    1    2    0    0  0.00000000000E+00  0.00000000000E+00 -0.68796692329E+03  0.14641692212E+04  0.12924755397E+04 0.  0.
        4    1    3    3  502    0  0.14139226686E+03  0.44619355528E+03 -0.84875428056E+03  0.96926049314E+03  0.12699999809E+01 0. -1.
       -4    1    3    3    0  502 -0.14139226686E+03 -0.44619355528E+03  0.16078735727E+03  0.49490872801E+03  0.12699999809E+01 0.  1.
</event>
<event>
 5   0  0.2312105E-03  0.1319478E+04  0.7818609E-02  0.9014260E-01
        2   -1    0    0  501    0  0.00000000000E+00  0.00000000000E+00  0.88254650481E+03  0.88254650481E+03  0.25500000920E-02 0.  1.
       -2   -1    0    0    0  501  0.00000000000E+00  0.00000000000E+00 -0.49318113459E+03  0.49318113460E+03  0.25500000920E-02 0. -1.
    10030    2    1    2    0    0  0.00000000000E+00  0.00000000000E+00  0.38936537022E+03  0.13757276394E+04  0.13194776036E+04 0.  0.
        5    1    3    3  502    0  0.37267195515E+03 -0.23509750592E+02  0.76173961595E+03  0.84835513025E+03  0.46999998093E+01 0.  1.
       -5    1    3    3    0  502 -0.37267195515E+03  0.23509750592E+02 -0.37237424573E+03  0.52737250915E+03  0.46999998093E+01 0. -1.
</event>
<event>
 5   0  0.9131250E-04  0.1294757E+04  0.7818609E-02  0.9033733E-01
       -4   -1    0    0    0  501  0.00000000000E+00  0.00000000000E+00  0.34013223697E+03  0.34013460795E+03  0.12699999809E+01 0.  1.
        4   -1    0    0  501    0  0.00000000000E+00  0.00000000000E+00 -0.12321579569E+04  0.12321586114E+04  0.12699999809E+01 0. -1.
    10030    2    1    2    0    0  0.00000000000E+00  0.00000000000E+00 -0.89202571992E+03  0.15722932194E+04  0.12947571520E+04 0.  0.
        3    1    3    3  502    0  0.58004822593E+03  0.27505682322E+03 -0.34450850139E+03  0.72855906976E+03  0.10100000352E+00 0.  1.
       -3    1    3    3    0  502 -0.58004822593E+03 -0.27505682322E+03 -0.54751721853E+03  0.84373414959E+03  0.10100000352E+00 0. -1.
</event>
<event>
 5   0  0.2361043E-03  0.1277323E+04  0.7818609E-02  0.9047744E-01
        2   -1    0    0  501    0  0.00000000000E+00  0.00000000000E+00  0.15747007230E+04  0.15747007230E+04  0.25500000920E-02 0. -1.
       -2   -1    0    0    0  501  0.00000000000E+00  0.00000000000E+00 -0.25902614643E+03  0.25902614645E+03  0.25500000920E-02 0.  1.
    10030    2    1    2    0    0  0.00000000000E+00  0.00000000000E+00  0.13156745765E+04  0.18337268694E+04  0.12773232325E+04 0.  0.
        2    1    3    3  502    0 -0.23788560760E+03  0.54722698282E+03  0.33096841363E+03  0.68233937587E+03  0.25500000920E-02 0.  1.
       -2    1    3    3    0  502  0.23788560760E+03 -0.54722698282E+03  0.98470616290E+03  0.11513874935E+04  0.25500000920E-02 0. -1.
</event>
<event>
 5   0  0.1387622E-03  0.1277900E+04  0.7818609E-02  0.9047277E-01
       -1   -1    0    0    0  501  0.00000000000E+00  0.00000000000E+00  0.37361784345E+03  0.37361784349E+03  0.50400001928E-02 0. -1.
        1   -1    0    0  501    0  0.00000000000E+00  0.00000000000E+00 -0.10927125381E+04  0.10927125381E+04  0.50400001928E-02 0.  1.
    10030    2    1    2    0    0  0.00000000000E+00  0.00000000000E+00 -0.71909469462E+03  0.14663303816E+04  0.12778996862E+04 0.  0.
        3    1    3    3  502    0 -0.46343125500E+03  0.15066618208E+03  0.11465514139E+03  0.50061426087E+03  0.10100000352E+00 0. -1.
       -3    1    3    3    0  502  0.46343125500E+03 -0.15066618208E+03 -0.83374983601E+03  0.96571612071E+03  0.10100000352E+00 0.  1.
</event>
</LesHouchesEvents>
